LAMMPS data file via write_data, version 13 Jan 2016, timestep = 267

1008 atoms
1 atom types

1.6162467472143791e-01 2.7006601034278582e+01 xlo xhi
1.5310135924432350e-01 2.6466214721755669e+01 ylo yhi
-2.5476184113845095e-02 4.9627643077113817e+01 zlo zhi
5.3711417728287785e+00 0.0000000000000000e+00 0.0000000000000000e+00 xy xz yz

Masses

1 26.982

Atoms # charge

1 1 0.0000000000000000e+00 2.8697099818491797e+01 2.3459643194680577e+01 1.6704959095464719e+01 0 0 0
2 1 0.0000000000000000e+00 2.5116338636605967e+01 5.9175676196730187e+00 1.6704959095464723e+01 0 0 0
3 1 0.0000000000000000e+00 2.6906719227548869e+01 1.4688605407176800e+01 1.6704959095464709e+01 0 0 0
4 1 0.0000000000000000e+00 1.0800448912120364e+01 2.3459643194680577e+01 1.6704959095464712e+01 0 0 0
5 1 0.0000000000000000e+00 7.2196877302345364e+00 5.9175676196730169e+00 1.6704959095464712e+01 0 0 0
6 1 0.0000000000000000e+00 9.0100683211774442e+00 1.4688605407176798e+01 1.6704959095464702e+01 0 0 0
7 1 0.0000000000000000e+00 1.9748774365306080e+01 2.3459643194680577e+01 1.6704959095464723e+01 0 0 0
8 1 0.0000000000000000e+00 1.6168013183420250e+01 5.9175676196730169e+00 1.6704959095464730e+01 0 0 0
9 1 0.0000000000000000e+00 1.7958393774363163e+01 1.4688605407176798e+01 1.6704959095464716e+01 0 0 0
10 1 0.0000000000000000e+00 2.5090345300080390e+01 2.0513038160528076e+01 1.3615526212375663e+01 0 0 0
11 1 0.0000000000000000e+00 2.1509584118194567e+01 2.9709625855205122e+00 1.3615526212375672e+01 0 0 0
12 1 0.0000000000000000e+00 2.3299964709137488e+01 1.1742000373024288e+01 1.3615526212375663e+01 0 0 0
13 1 0.0000000000000000e+00 7.1936943937089577e+00 2.0513038160528076e+01 1.3615526212375650e+01 0 0 0
14 1 0.0000000000000000e+00 3.6129332118231381e+00 2.9709625855205082e+00 1.3615526212375661e+01 0 0 0
15 1 0.0000000000000000e+00 5.4033138027660570e+00 1.1742000373024284e+01 1.3615526212375652e+01 0 0 0
16 1 0.0000000000000000e+00 1.6142019846894684e+01 2.0513038160528072e+01 1.3615526212375661e+01 0 0 0
17 1 0.0000000000000000e+00 1.2561258665008863e+01 2.9709625855205077e+00 1.3615526212375668e+01 0 0 0
18 1 0.0000000000000000e+00 1.4351639255951785e+01 1.1742000373024283e+01 1.3615526212375661e+01 0 0 0
19 1 0.0000000000000000e+00 2.5130201417647342e+01 2.4170426285841177e+01 1.5072840320063021e+01 0 0 0
20 1 0.0000000000000000e+00 2.1549440235761505e+01 6.6283507108336046e+00 1.5072840320063024e+01 0 0 0
21 1 0.0000000000000000e+00 2.3339820826704411e+01 1.5399388498337384e+01 1.5072840320063012e+01 0 0 0
22 1 0.0000000000000000e+00 7.2335505112759098e+00 2.4170426285841167e+01 1.5072840320063001e+01 0 0 0
23 1 0.0000000000000000e+00 3.6527893293900777e+00 6.6283507108336046e+00 1.5072840320063007e+01 0 0 0
24 1 0.0000000000000000e+00 5.4431699203329806e+00 1.5399388498337384e+01 1.5072840320062999e+01 0 0 0
25 1 0.0000000000000000e+00 1.6181875964461625e+01 2.4170426285841167e+01 1.5072840320063012e+01 0 0 0
26 1 0.0000000000000000e+00 1.2601114782575797e+01 6.6283507108336037e+00 1.5072840320063019e+01 0 0 0
27 1 0.0000000000000000e+00 1.4391495373518701e+01 1.5399388498337384e+01 1.5072840320063007e+01 0 0 0
28 1 0.0000000000000000e+00 2.8679279880712574e+01 1.9821331557669058e+01 1.5072937662172908e+01 0 0 0
29 1 0.0000000000000000e+00 2.5098518698826748e+01 2.2792559826614975e+00 1.5072937662172917e+01 0 0 0
30 1 0.0000000000000000e+00 2.6888899289769665e+01 1.1050293770165272e+01 1.5072937662172913e+01 0 0 0
31 1 0.0000000000000000e+00 1.0782628974341145e+01 1.9821331557669055e+01 1.5072937662172903e+01 0 0 0
32 1 0.0000000000000000e+00 7.2018677924553183e+00 2.2792559826614935e+00 1.5072937662172912e+01 0 0 0
33 1 0.0000000000000000e+00 8.9922483833982394e+00 1.1050293770165270e+01 1.5072937662172906e+01 0 0 0
34 1 0.0000000000000000e+00 1.9730954427526857e+01 1.9821331557669055e+01 1.5072937662172917e+01 0 0 0
35 1 0.0000000000000000e+00 1.6150193245641034e+01 2.2792559826614944e+00 1.5072937662172928e+01 0 0 0
36 1 0.0000000000000000e+00 1.7940573836583951e+01 1.1050293770165272e+01 1.5072937662172922e+01 0 0 0
37 1 0.0000000000000000e+00 3.2193294490421962e+01 2.6315533508425649e+01 1.4970881006563676e+01 0 0 0
38 1 0.0000000000000000e+00 2.8612533308536108e+01 8.7734579334180776e+00 1.4970881006563674e+01 0 0 0
39 1 0.0000000000000000e+00 3.0402913899479014e+01 1.7544495720921862e+01 1.4970881006563669e+01 0 0 0
40 1 0.0000000000000000e+00 1.4296643584050535e+01 2.6315533508425649e+01 1.4970881006563676e+01 0 0 0
41 1 0.0000000000000000e+00 1.0715882402164693e+01 8.7734579334180776e+00 1.4970881006563674e+01 0 0 0
42 1 0.0000000000000000e+00 1.2506262993107594e+01 1.7544495720921862e+01 1.4970881006563669e+01 0 0 0
43 1 0.0000000000000000e+00 2.3244969037236242e+01 2.6315533508425649e+01 1.4970881006563690e+01 0 0 0
44 1 0.0000000000000000e+00 1.9664207855350401e+01 8.7734579334180776e+00 1.4970881006563685e+01 0 0 0
45 1 0.0000000000000000e+00 2.1454588446293300e+01 1.7544495720921866e+01 1.4970881006563680e+01 0 0 0
46 1 0.0000000000000000e+00 2.6871161983770179e+01 2.1968621869353775e+01 1.5052270285498970e+01 0 0 0
47 1 0.0000000000000000e+00 2.3290400801884349e+01 4.4265462943462124e+00 1.5052270285498977e+01 0 0 0
48 1 0.0000000000000000e+00 2.5080781392827266e+01 1.3197584081849993e+01 1.5052270285498972e+01 0 0 0
49 1 0.0000000000000000e+00 8.9745110773987520e+00 2.1968621869353775e+01 1.5052270285498958e+01 0 0 0
50 1 0.0000000000000000e+00 5.3937498955129284e+00 4.4265462943462106e+00 1.5052270285498967e+01 0 0 0
51 1 0.0000000000000000e+00 7.1841304864558388e+00 1.3197584081849987e+01 1.5052270285498958e+01 0 0 0
52 1 0.0000000000000000e+00 1.7922836530584473e+01 2.1968621869353775e+01 1.5052270285498976e+01 0 0 0
53 1 0.0000000000000000e+00 1.4342075348698643e+01 4.4265462943462115e+00 1.5052270285498981e+01 0 0 0
54 1 0.0000000000000000e+00 1.6132455939641559e+01 1.3197584081849987e+01 1.5052270285498976e+01 0 0 0
55 1 0.0000000000000000e+00 2.3316645316445438e+01 7.9559892284671041e-01 1.3648780181633425e+01 0 0 0
56 1 0.0000000000000000e+00 2.5107025907388369e+01 9.5666367103504921e+00 1.3648780181633422e+01 0 0 0
57 1 0.0000000000000000e+00 2.6897406498331264e+01 1.8337674497854277e+01 1.3648780181633420e+01 0 0 0
58 1 0.0000000000000000e+00 5.4199944100740103e+00 7.9559892284671041e-01 1.3648780181633420e+01 0 0 0
59 1 0.0000000000000000e+00 7.2103750010169385e+00 9.5666367103504921e+00 1.3648780181633416e+01 0 0 0
60 1 0.0000000000000000e+00 9.0007555919598339e+00 1.8337674497854277e+01 1.3648780181633414e+01 0 0 0
61 1 0.0000000000000000e+00 1.4368319863259732e+01 7.9559892284670730e-01 1.3648780181633434e+01 0 0 0
62 1 0.0000000000000000e+00 1.6158700454202666e+01 9.5666367103504886e+00 1.3648780181633427e+01 0 0 0
63 1 0.0000000000000000e+00 1.7949081045145562e+01 1.8337674497854273e+01 1.3648780181633425e+01 0 0 0
64 1 0.0000000000000000e+00 5.4246229268130612e+00 2.2719346571029881e+01 1.3648715472145813e+01 0 0 0
65 1 0.0000000000000000e+00 1.8438617449272414e+00 5.1772709960223189e+00 1.3648715472145819e+01 0 0 0
66 1 0.0000000000000000e+00 3.6342423358701526e+00 1.3948308783526089e+01 1.3648715472145810e+01 0 0 0
67 1 0.0000000000000000e+00 1.4372948379998791e+01 2.2719346571029881e+01 1.3648715472145822e+01 0 0 0
68 1 0.0000000000000000e+00 1.0792187198112964e+01 5.1772709960223162e+00 1.3648715472145822e+01 0 0 0
69 1 0.0000000000000000e+00 1.2582567789055879e+01 1.3948308783526089e+01 1.3648715472145817e+01 0 0 0
70 1 0.0000000000000000e+00 2.3321273833184492e+01 2.2719346571029881e+01 1.3648715472145827e+01 0 0 0
71 1 0.0000000000000000e+00 1.9740512651298676e+01 5.1772709960223207e+00 1.3648715472145833e+01 0 0 0
72 1 0.0000000000000000e+00 2.1530893242241582e+01 1.3948308783526093e+01 1.3648715472145822e+01 0 0 0
73 1 0.0000000000000000e+00 2.9590139535250245e+01 2.5982773224100171e+01 1.5907493183247851e+01 0 0 0
74 1 0.0000000000000000e+00 2.6009378353364404e+01 8.4406976490926091e+00 1.5907493183247846e+01 0 0 0
75 1 0.0000000000000000e+00 2.7799758944307300e+01 1.7211735436596392e+01 1.5907493183247839e+01 0 0 0
76 1 0.0000000000000000e+00 1.1693488628878814e+01 2.5982773224100175e+01 1.5907493183247844e+01 0 0 0
77 1 0.0000000000000000e+00 8.1127274469929755e+00 8.4406976490926091e+00 1.5907493183247835e+01 0 0 0
78 1 0.0000000000000000e+00 9.9031080379358780e+00 1.7211735436596392e+01 1.5907493183247826e+01 0 0 0
79 1 0.0000000000000000e+00 2.0641814082064535e+01 2.5982773224100175e+01 1.5907493183247857e+01 0 0 0
80 1 0.0000000000000000e+00 1.7061052900178691e+01 8.4406976490926091e+00 1.5907493183247851e+01 0 0 0
81 1 0.0000000000000000e+00 1.8851433491121593e+01 1.7211735436596392e+01 1.5907493183247846e+01 0 0 0
82 1 0.0000000000000000e+00 2.4212076880372358e+01 2.1610753973655484e+01 1.5954964187635969e+01 0 0 0
83 1 0.0000000000000000e+00 2.0631315698486535e+01 4.0686783986479247e+00 1.5954964187635973e+01 0 0 0
84 1 0.0000000000000000e+00 2.2421696289429448e+01 1.2839716186151705e+01 1.5954964187635964e+01 0 0 0
85 1 0.0000000000000000e+00 6.3154259740009309e+00 2.1610753973655484e+01 1.5954964187635953e+01 0 0 0
86 1 0.0000000000000000e+00 2.7346647921151037e+00 4.0686783986479256e+00 1.5954964187635960e+01 0 0 0
87 1 0.0000000000000000e+00 4.5250453830580204e+00 1.2839716186151705e+01 1.5954964187635950e+01 0 0 0
88 1 0.0000000000000000e+00 1.5263751427186644e+01 2.1610753973655495e+01 1.5954964187635960e+01 0 0 0
89 1 0.0000000000000000e+00 1.1682990245300823e+01 4.0686783986479247e+00 1.5954964187635969e+01 0 0 0
90 1 0.0000000000000000e+00 1.3473370836243738e+01 1.2839716186151705e+01 1.5954964187635959e+01 0 0 0
91 1 0.0000000000000000e+00 2.0602457700676212e+01 4.1169651275423924e-01 1.4306404442323663e+01 0 0 0
92 1 0.0000000000000000e+00 2.2392838291619142e+01 9.1827343002580104e+00 1.4306404442323657e+01 0 0 0
93 1 0.0000000000000000e+00 2.4183218882562041e+01 1.7953772087761799e+01 1.4306404442323652e+01 0 0 0
94 1 0.0000000000000000e+00 2.7058067943047783e+00 4.1169651275423663e-01 1.4306404442323650e+01 0 0 0
95 1 0.0000000000000000e+00 4.4961873852477101e+00 9.1827343002580104e+00 1.4306404442323645e+01 0 0 0
96 1 0.0000000000000000e+00 6.2865679761906099e+00 1.7953772087761795e+01 1.4306404442323638e+01 0 0 0
97 1 0.0000000000000000e+00 1.1654132247490502e+01 4.1169651275423608e-01 1.4306404442323657e+01 0 0 0
98 1 0.0000000000000000e+00 1.3444512838433436e+01 9.1827343002580104e+00 1.4306404442323656e+01 0 0 0
99 1 0.0000000000000000e+00 1.5234893429376328e+01 1.7953772087761795e+01 1.4306404442323650e+01 0 0 0
100 1 0.0000000000000000e+00 2.9566461100600897e+01 2.2359578772163022e+01 1.4315611311620348e+01 0 0 0
101 1 0.0000000000000000e+00 2.5985699918715085e+01 4.8175031971554620e+00 1.4315611311620353e+01 0 0 0
102 1 0.0000000000000000e+00 2.7776080509657994e+01 1.3588540984659240e+01 1.4315611311620343e+01 0 0 0
103 1 0.0000000000000000e+00 1.1669810194229488e+01 2.2359578772163022e+01 1.4315611311620346e+01 0 0 0
104 1 0.0000000000000000e+00 8.0890490123436631e+00 4.8175031971554629e+00 1.4315611311620351e+01 0 0 0
105 1 0.0000000000000000e+00 9.8794296032865692e+00 1.3588540984659240e+01 1.4315611311620337e+01 0 0 0
106 1 0.0000000000000000e+00 2.0618135647415201e+01 2.2359578772163022e+01 1.4315611311620358e+01 0 0 0
107 1 0.0000000000000000e+00 1.7037374465529375e+01 4.8175031971554629e+00 1.4315611311620362e+01 0 0 0
108 1 0.0000000000000000e+00 1.8827755056472281e+01 1.3588540984659240e+01 1.4315611311620351e+01 0 0 0
109 1 0.0000000000000000e+00 3.1346791276994946e+01 2.3830195922067979e+01 1.5906951864259840e+01 0 0 0
110 1 0.0000000000000000e+00 2.7766030095109119e+01 6.2881203470604081e+00 1.5906951864259845e+01 0 0 0
111 1 0.0000000000000000e+00 2.9556410686052022e+01 1.5059158134564191e+01 1.5906951864259833e+01 0 0 0
112 1 0.0000000000000000e+00 1.3450140370623524e+01 2.3830195922067976e+01 1.5906951864259844e+01 0 0 0
113 1 0.0000000000000000e+00 9.8693791887376943e+00 6.2881203470604055e+00 1.5906951864259845e+01 0 0 0
114 1 0.0000000000000000e+00 1.1659759779680600e+01 1.5059158134564186e+01 1.5906951864259835e+01 0 0 0
115 1 0.0000000000000000e+00 2.2398465823809232e+01 2.3830195922067979e+01 1.5906951864259854e+01 0 0 0
116 1 0.0000000000000000e+00 1.8817704641923406e+01 6.2881203470604090e+00 1.5906951864259858e+01 0 0 0
117 1 0.0000000000000000e+00 2.0608085232866312e+01 1.5059158134564186e+01 1.5906951864259845e+01 0 0 0
118 1 0.0000000000000000e+00 2.5989124912054017e+01 1.9433290208467714e+01 1.5954983375168204e+01 0 0 0
119 1 0.0000000000000000e+00 2.2408363730168183e+01 1.8912146334601527e+00 1.5954983375168212e+01 0 0 0
120 1 0.0000000000000000e+00 2.4198744321111107e+01 1.0662252420963924e+01 1.5954983375168206e+01 0 0 0
121 1 0.0000000000000000e+00 8.0924740056825826e+00 1.9433290208467714e+01 1.5954983375168194e+01 0 0 0
122 1 0.0000000000000000e+00 4.5117128237967528e+00 1.8912146334601487e+00 1.5954983375168201e+01 0 0 0
123 1 0.0000000000000000e+00 6.3020934147396783e+00 1.0662252420963924e+01 1.5954983375168194e+01 0 0 0
124 1 0.0000000000000000e+00 1.7040799458868303e+01 1.9433290208467703e+01 1.5954983375168206e+01 0 0 0
125 1 0.0000000000000000e+00 1.3460038276982470e+01 1.8912146334601483e+00 1.5954983375168212e+01 0 0 0
126 1 0.0000000000000000e+00 1.5250418867925397e+01 1.0662252420963924e+01 1.5954983375168204e+01 0 0 0
127 1 0.0000000000000000e+00 2.7794385286268213e+01 2.4531877926845542e+01 1.4315637612250399e+01 0 0 0
128 1 0.0000000000000000e+00 2.4213624104382387e+01 6.9898023518379730e+00 1.4315637612250395e+01 0 0 0
129 1 0.0000000000000000e+00 2.6004004695325282e+01 1.5760840139341751e+01 1.4315637612250388e+01 0 0 0
130 1 0.0000000000000000e+00 9.8977343798967929e+00 2.4531877926845539e+01 1.4315637612250390e+01 0 0 0
131 1 0.0000000000000000e+00 6.3169731980109605e+00 6.9898023518379704e+00 1.4315637612250388e+01 0 0 0
132 1 0.0000000000000000e+00 8.1073537889538638e+00 1.5760840139341751e+01 1.4315637612250375e+01 0 0 0
133 1 0.0000000000000000e+00 1.8846059833082517e+01 2.4531877926845539e+01 1.4315637612250400e+01 0 0 0
134 1 0.0000000000000000e+00 1.5265298651196678e+01 6.9898023518379704e+00 1.4315637612250399e+01 0 0 0
135 1 0.0000000000000000e+00 1.7055679242139583e+01 1.5760840139341751e+01 1.4315637612250390e+01 0 0 0
136 1 0.0000000000000000e+00 4.5050813650346884e+00 2.0136551273455716e+01 1.4306347763450551e+01 0 0 0
137 1 0.0000000000000000e+00 9.2432018314886033e-01 2.5944756984481510e+00 1.4306347763450558e+01 0 0 0
138 1 0.0000000000000000e+00 2.7147007740917828e+00 1.1365513485951920e+01 1.4306347763450551e+01 0 0 0
139 1 0.0000000000000000e+00 1.3453406818220412e+01 2.0136551273455712e+01 1.4306347763450557e+01 0 0 0
140 1 0.0000000000000000e+00 9.8726456363345836e+00 2.5944756984481487e+00 1.4306347763450562e+01 0 0 0
141 1 0.0000000000000000e+00 1.1663026227277507e+01 1.1365513485951920e+01 1.4306347763450557e+01 0 0 0
142 1 0.0000000000000000e+00 2.2401732271406114e+01 2.0136551273455716e+01 1.4306347763450564e+01 0 0 0
143 1 0.0000000000000000e+00 1.8820971089520295e+01 2.5944756984481527e+00 1.4306347763450571e+01 0 0 0
144 1 0.0000000000000000e+00 2.0611351680463208e+01 1.1365513485951926e+01 1.4306347763450562e+01 0 0 0
145 1 0.0000000000000000e+00 2.6905697567882349e+01 2.1996677510458927e+01 1.9982769581974793e+01 0 0 0
146 1 0.0000000000000000e+00 2.3324936385996523e+01 4.4546019354513628e+00 1.9982769581974800e+01 0 0 0
147 1 0.0000000000000000e+00 2.5115316976939440e+01 1.3225639722955142e+01 1.9982769581974789e+01 0 0 0
148 1 0.0000000000000000e+00 9.0090466615109221e+00 2.1996677510458927e+01 1.9982769581974782e+01 0 0 0
149 1 0.0000000000000000e+00 5.4282854796250923e+00 4.4546019354513602e+00 1.9982769581974789e+01 0 0 0
150 1 0.0000000000000000e+00 7.2186660705680090e+00 1.3225639722955137e+01 1.9982769581974779e+01 0 0 0
151 1 0.0000000000000000e+00 1.7957372114696639e+01 2.1996677510458916e+01 1.9982769581974793e+01 0 0 0
152 1 0.0000000000000000e+00 1.4376610932810808e+01 4.4546019354513611e+00 1.9982769581974804e+01 0 0 0
153 1 0.0000000000000000e+00 1.6166991523753726e+01 1.3225639722955137e+01 1.9982769581974789e+01 0 0 0
154 1 0.0000000000000000e+00 2.3316849403764529e+01 1.9065253171227379e+01 1.6660203125469678e+01 0 0 0
155 1 0.0000000000000000e+00 1.9736088221878695e+01 1.5231775962198200e+00 1.6660203125469689e+01 0 0 0
156 1 0.0000000000000000e+00 2.1526468812821630e+01 1.0294215383723593e+01 1.6660203125469678e+01 0 0 0
157 1 0.0000000000000000e+00 5.4201984973930966e+00 1.9065253171227379e+01 1.6660203125469664e+01 0 0 0
158 1 0.0000000000000000e+00 1.8394373155072659e+00 1.5231775962198184e+00 1.6660203125469675e+01 0 0 0
159 1 0.0000000000000000e+00 3.6298179064501923e+00 1.0294215383723593e+01 1.6660203125469668e+01 0 0 0
160 1 0.0000000000000000e+00 1.4368523950578815e+01 1.9065253171227379e+01 1.6660203125469671e+01 0 0 0
161 1 0.0000000000000000e+00 1.0787762768692982e+01 1.5231775962198180e+00 1.6660203125469682e+01 0 0 0
162 1 0.0000000000000000e+00 1.2578143359635913e+01 1.0294215383723593e+01 1.6660203125469675e+01 0 0 0
163 1 0.0000000000000000e+00 2.3331074141684283e+01 2.2748866655523504e+01 1.8320803026538282e+01 0 0 0
164 1 0.0000000000000000e+00 1.9750312959798453e+01 5.2067910805159485e+00 1.8320803026538290e+01 0 0 0
165 1 0.0000000000000000e+00 2.1540693550741359e+01 1.3977828868019730e+01 1.8320803026538275e+01 0 0 0
166 1 0.0000000000000000e+00 5.4344232353128525e+00 2.2748866655523504e+01 1.8320803026538268e+01 0 0 0
167 1 0.0000000000000000e+00 1.8536620534270216e+00 5.2067910805159467e+00 1.8320803026538272e+01 0 0 0
168 1 0.0000000000000000e+00 3.6440426443699327e+00 1.3977828868019730e+01 1.8320803026538261e+01 0 0 0
169 1 0.0000000000000000e+00 1.4382748688498568e+01 2.2748866655523504e+01 1.8320803026538272e+01 0 0 0
170 1 0.0000000000000000e+00 1.0801987506612738e+01 5.2067910805159459e+00 1.8320803026538275e+01 0 0 0
171 1 0.0000000000000000e+00 1.2592368097555649e+01 1.3977828868019726e+01 1.8320803026538265e+01 0 0 0
172 1 0.0000000000000000e+00 2.6927247337380525e+01 1.8342261285362849e+01 1.8320989412349100e+01 0 0 0
173 1 0.0000000000000000e+00 2.3346486155494695e+01 8.0018571035528541e-01 1.8320989412349114e+01 0 0 0
174 1 0.0000000000000000e+00 2.5136866746437619e+01 9.5712234978590640e+00 1.8320989412349107e+01 0 0 0
175 1 0.0000000000000000e+00 9.0305964310090943e+00 1.8342261285362849e+01 1.8320989412349089e+01 0 0 0
176 1 0.0000000000000000e+00 5.4498352491232573e+00 8.0018571035528430e-01 1.8320989412349103e+01 0 0 0
177 1 0.0000000000000000e+00 7.2402158400661900e+00 9.5712234978590605e+00 1.8320989412349096e+01 0 0 0
178 1 0.0000000000000000e+00 1.7978921884194811e+01 1.8342261285362849e+01 1.8320989412349103e+01 0 0 0
179 1 0.0000000000000000e+00 1.4398160702308973e+01 8.0018571035528430e-01 1.8320989412349117e+01 0 0 0
180 1 0.0000000000000000e+00 1.6188541293251909e+01 9.5712234978590640e+00 1.8320989412349114e+01 0 0 0
181 1 0.0000000000000000e+00 3.0496961999207659e+01 2.4929717808041893e+01 1.8346136223994428e+01 0 0 0
182 1 0.0000000000000000e+00 2.6916200817321819e+01 7.3876422330343301e+00 1.8346136223994431e+01 0 0 0
183 1 0.0000000000000000e+00 2.8706581408264732e+01 1.6158680020538110e+01 1.8346136223994424e+01 0 0 0
184 1 0.0000000000000000e+00 1.2600311092836231e+01 2.4929717808041893e+01 1.8346136223994428e+01 0 0 0
185 1 0.0000000000000000e+00 9.0195499109503974e+00 7.3876422330343319e+00 1.8346136223994431e+01 0 0 0
186 1 0.0000000000000000e+00 1.0809930501893302e+01 1.6158680020538110e+01 1.8346136223994417e+01 0 0 0
187 1 0.0000000000000000e+00 2.1548636546021946e+01 2.4929717808041893e+01 1.8346136223994446e+01 0 0 0
188 1 0.0000000000000000e+00 1.7967875364136109e+01 7.3876422330343301e+00 1.8346136223994446e+01 0 0 0
189 1 0.0000000000000000e+00 1.9758255955079026e+01 1.6158680020538114e+01 1.8346136223994431e+01 0 0 0
190 1 0.0000000000000000e+00 2.5121478990184507e+01 2.0539250814424559e+01 1.8342637701030643e+01 0 0 0
191 1 0.0000000000000000e+00 2.1540717808298677e+01 2.9971752394169933e+00 1.8342637701030650e+01 0 0 0
192 1 0.0000000000000000e+00 2.3331098399241601e+01 1.1768213026920773e+01 1.8342637701030643e+01 0 0 0
193 1 0.0000000000000000e+00 7.2248280838130787e+00 2.0539250814424555e+01 1.8342637701030629e+01 0 0 0
194 1 0.0000000000000000e+00 3.6440669019272485e+00 2.9971752394169942e+00 1.8342637701030636e+01 0 0 0
195 1 0.0000000000000000e+00 5.4344474928701683e+00 1.1768213026920773e+01 1.8342637701030629e+01 0 0 0
196 1 0.0000000000000000e+00 1.6173153536998793e+01 2.0539250814424559e+01 1.8342637701030640e+01 0 0 0
197 1 0.0000000000000000e+00 1.2592392355112960e+01 2.9971752394169950e+00 1.8342637701030650e+01 0 0 0
198 1 0.0000000000000000e+00 1.4382772946055889e+01 1.1768213026920776e+01 1.8342637701030640e+01 0 0 0
199 1 0.0000000000000000e+00 2.6917480332860155e+01 2.5669947612746103e+01 1.6687661395364955e+01 0 0 0
200 1 0.0000000000000000e+00 2.3336719150974314e+01 8.1278720377385412e+00 1.6687661395364952e+01 0 0 0
201 1 0.0000000000000000e+00 2.5127099741917228e+01 1.6898909825242320e+01 1.6687661395364945e+01 0 0 0
202 1 0.0000000000000000e+00 9.0208294264887261e+00 2.5669947612746103e+01 1.6687661395364941e+01 0 0 0
203 1 0.0000000000000000e+00 5.4400682446028874e+00 8.1278720377385358e+00 1.6687661395364938e+01 0 0 0
204 1 0.0000000000000000e+00 7.2304488355457917e+00 1.6898909825242320e+01 1.6687661395364930e+01 0 0 0
205 1 0.0000000000000000e+00 1.7969154879674441e+01 2.5669947612746103e+01 1.6687661395364955e+01 0 0 0
206 1 0.0000000000000000e+00 1.4388393697788603e+01 8.1278720377385358e+00 1.6687661395364948e+01 0 0 0
207 1 0.0000000000000000e+00 1.6178774288731507e+01 1.6898909825242320e+01 1.6687661395364945e+01 0 0 0
208 1 0.0000000000000000e+00 3.0505741610471226e+01 2.1273104991798526e+01 1.6687635675964042e+01 0 0 0
209 1 0.0000000000000000e+00 2.6924980428585393e+01 3.7310294167909710e+00 1.6687635675964049e+01 0 0 0
210 1 0.0000000000000000e+00 2.8715361019528306e+01 1.2502067204294747e+01 1.6687635675964039e+01 0 0 0
211 1 0.0000000000000000e+00 1.2609090704099794e+01 2.1273104991798526e+01 1.6687635675964039e+01 0 0 0
212 1 0.0000000000000000e+00 9.0283295222139639e+00 3.7310294167909697e+00 1.6687635675964046e+01 0 0 0
213 1 0.0000000000000000e+00 1.0818710113156882e+01 1.2502067204294747e+01 1.6687635675964039e+01 0 0 0
214 1 0.0000000000000000e+00 2.1557416157285509e+01 2.1273104991798537e+01 1.6687635675964057e+01 0 0 0
215 1 0.0000000000000000e+00 1.7976654975399679e+01 3.7310294167909688e+00 1.6687635675964060e+01 0 0 0
216 1 0.0000000000000000e+00 1.9767035566342596e+01 1.2502067204294752e+01 1.6687635675964053e+01 0 0 0
217 1 0.0000000000000000e+00 2.7803048570962819e+01 2.4559744150216730e+01 1.9155789496866564e+01 0 0 0
218 1 0.0000000000000000e+00 2.4222287389076989e+01 7.0176685752091643e+00 1.9155789496866564e+01 0 0 0
219 1 0.0000000000000000e+00 2.6012667980019899e+01 1.5788706362712947e+01 1.9155789496866554e+01 0 0 0
220 1 0.0000000000000000e+00 9.9063976645913918e+00 2.4559744150216730e+01 1.9155789496866550e+01 0 0 0
221 1 0.0000000000000000e+00 6.3256364827055584e+00 7.0176685752091661e+00 1.9155789496866554e+01 0 0 0
222 1 0.0000000000000000e+00 8.1160170736484645e+00 1.5788706362712947e+01 1.9155789496866543e+01 0 0 0
223 1 0.0000000000000000e+00 1.8854723117777105e+01 2.4559744150216734e+01 1.9155789496866568e+01 0 0 0
224 1 0.0000000000000000e+00 1.5273961935891270e+01 7.0176685752091661e+00 1.9155789496866568e+01 0 0 0
225 1 0.0000000000000000e+00 1.7064342526834185e+01 1.5788706362712947e+01 1.9155789496866557e+01 0 0 0
226 1 0.0000000000000000e+00 2.2434796095199097e+01 2.0171652195726782e+01 1.9151061744899547e+01 0 0 0
227 1 0.0000000000000000e+00 1.8854034913313260e+01 2.6295766207192202e+00 1.9151061744899557e+01 0 0 0
228 1 0.0000000000000000e+00 2.0644415504256187e+01 1.1400614408223001e+01 1.9151061744899547e+01 0 0 0
229 1 0.0000000000000000e+00 4.5381451888276629e+00 2.0171652195726782e+01 1.9151061744899533e+01 0 0 0
230 1 0.0000000000000000e+00 9.5738400694182990e-01 2.6295766207192162e+00 1.9151061744899547e+01 0 0 0
231 1 0.0000000000000000e+00 2.7477645978847556e+00 1.1400614408222999e+01 1.9151061744899536e+01 0 0 0
232 1 0.0000000000000000e+00 1.3486470642013376e+01 2.0171652195726779e+01 1.9151061744899536e+01 0 0 0
233 1 0.0000000000000000e+00 9.9057094601275431e+00 2.6295766207192184e+00 1.9151061744899547e+01 0 0 0
234 1 0.0000000000000000e+00 1.1696090051070469e+01 1.1400614408222999e+01 1.9151061744899536e+01 0 0 0
235 1 0.0000000000000000e+00 2.4231090316954518e+01 2.5301243616574020e+01 1.7457806606540256e+01 0 0 0
236 1 0.0000000000000000e+00 2.0650329135068681e+01 7.7591680415664550e+00 1.7457806606540260e+01 0 0 0
237 1 0.0000000000000000e+00 2.2440709726011583e+01 1.6530205829070237e+01 1.7457806606540252e+01 0 0 0
238 1 0.0000000000000000e+00 6.3344394105830872e+00 2.5301243616574020e+01 1.7457806606540242e+01 0 0 0
239 1 0.0000000000000000e+00 2.7536782286972517e+00 7.7591680415664550e+00 1.7457806606540245e+01 0 0 0
240 1 0.0000000000000000e+00 4.5440588196401555e+00 1.6530205829070237e+01 1.7457806606540235e+01 0 0 0
241 1 0.0000000000000000e+00 1.5282764863768804e+01 2.5301243616574020e+01 1.7457806606540249e+01 0 0 0
242 1 0.0000000000000000e+00 1.1702003681882966e+01 7.7591680415664568e+00 1.7457806606540249e+01 0 0 0
243 1 0.0000000000000000e+00 1.3492384272825870e+01 1.6530205829070237e+01 1.7457806606540238e+01 0 0 0
244 1 0.0000000000000000e+00 2.7814107830917518e+01 2.0911795477905677e+01 1.7472250782240366e+01 0 0 0
245 1 0.0000000000000000e+00 2.4233346649031684e+01 3.3697199028981246e+00 1.7472250782240376e+01 0 0 0
246 1 0.0000000000000000e+00 2.6023727239974612e+01 1.2140757690401903e+01 1.7472250782240369e+01 0 0 0
247 1 0.0000000000000000e+00 9.9174569245460891e+00 2.0911795477905677e+01 1.7472250782240359e+01 0 0 0
248 1 0.0000000000000000e+00 6.3366957426602610e+00 3.3697199028981228e+00 1.7472250782240366e+01 0 0 0
249 1 0.0000000000000000e+00 8.1270763336031813e+00 1.2140757690401903e+01 1.7472250782240355e+01 0 0 0
250 1 0.0000000000000000e+00 1.8865782377731804e+01 2.0911795477905688e+01 1.7472250782240373e+01 0 0 0
251 1 0.0000000000000000e+00 1.5285021195845973e+01 3.3697199028981242e+00 1.7472250782240380e+01 0 0 0
252 1 0.0000000000000000e+00 1.7075401786788898e+01 1.2140757690401905e+01 1.7472250782240373e+01 0 0 0
253 1 0.0000000000000000e+00 2.9595509012846616e+01 2.2363342728601829e+01 1.9155816910717512e+01 0 0 0
254 1 0.0000000000000000e+00 2.6014747830960783e+01 4.8212671535942686e+00 1.9155816910717515e+01 0 0 0
255 1 0.0000000000000000e+00 2.7805128421903703e+01 1.3592304941098046e+01 1.9155816910717505e+01 0 0 0
256 1 0.0000000000000000e+00 1.1698858106475186e+01 2.2363342728601829e+01 1.9155816910717508e+01 0 0 0
257 1 0.0000000000000000e+00 8.1180969245893593e+00 4.8212671535942668e+00 1.9155816910717512e+01 0 0 0
258 1 0.0000000000000000e+00 9.9084775155322724e+00 1.3592304941098046e+01 1.9155816910717498e+01 0 0 0
259 1 0.0000000000000000e+00 2.0647183559660903e+01 2.2363342728601829e+01 1.9155816910717522e+01 0 0 0
260 1 0.0000000000000000e+00 1.7066422377775069e+01 4.8212671535942686e+00 1.9155816910717526e+01 0 0 0
261 1 0.0000000000000000e+00 1.8856802968717993e+01 1.3592304941098050e+01 1.9155816910717512e+01 0 0 0
262 1 0.0000000000000000e+00 2.4223823359798189e+01 1.7979424141788733e+01 1.9151047910578850e+01 0 0 0
263 1 0.0000000000000000e+00 2.0643062177912352e+01 4.3734856678117201e-01 1.9151047910578860e+01 0 0 0
264 1 0.0000000000000000e+00 2.2433442768855290e+01 9.2083863542849524e+00 1.9151047910578857e+01 0 0 0
265 1 0.0000000000000000e+00 6.3271724534267682e+00 1.7979424141788733e+01 1.9151047910578836e+01 0 0 0
266 1 0.0000000000000000e+00 2.7464112715409241e+00 4.3734856678117073e-01 1.9151047910578846e+01 0 0 0
267 1 0.0000000000000000e+00 4.5367918624838603e+00 9.2083863542849507e+00 1.9151047910578843e+01 0 0 0
268 1 0.0000000000000000e+00 1.5275497906612483e+01 1.7979424141788733e+01 1.9151047910578846e+01 0 0 0
269 1 0.0000000000000000e+00 1.1694736724726640e+01 4.3734856678116946e-01 1.9151047910578857e+01 0 0 0
270 1 0.0000000000000000e+00 1.3485117315669575e+01 9.2083863542849507e+00 1.9151047910578853e+01 0 0 0
271 1 0.0000000000000000e+00 2.6024969326315297e+01 2.3104111169293091e+01 1.7472244067590903e+01 0 0 0
272 1 0.0000000000000000e+00 2.2444208144429467e+01 5.5620355942855220e+00 1.7472244067590907e+01 0 0 0
273 1 0.0000000000000000e+00 2.4234588735372384e+01 1.4333073381789303e+01 1.7472244067590900e+01 0 0 0
274 1 0.0000000000000000e+00 8.1283184199438718e+00 2.3104111169293088e+01 1.7472244067590889e+01 0 0 0
275 1 0.0000000000000000e+00 4.5475572380580394e+00 5.5620355942855220e+00 1.7472244067590893e+01 0 0 0
276 1 0.0000000000000000e+00 6.3379378290009498e+00 1.4333073381789303e+01 1.7472244067590882e+01 0 0 0
277 1 0.0000000000000000e+00 1.7076643873129587e+01 2.3104111169293091e+01 1.7472244067590900e+01 0 0 0
278 1 0.0000000000000000e+00 1.3495882691243757e+01 5.5620355942855211e+00 1.7472244067590903e+01 0 0 0
279 1 0.0000000000000000e+00 1.5286263282186667e+01 1.4333073381789303e+01 1.7472244067590896e+01 0 0 0
280 1 0.0000000000000000e+00 2.9607045119300917e+01 1.8713863551847616e+01 1.7457901322258707e+01 0 0 0
281 1 0.0000000000000000e+00 2.6026283937415084e+01 1.1717879768400532e+00 1.7457901322258717e+01 0 0 0
282 1 0.0000000000000000e+00 2.7816664528358011e+01 9.9428257643438300e+00 1.7457901322258710e+01 0 0 0
283 1 0.0000000000000000e+00 1.1710394212929492e+01 1.8713863551847616e+01 1.7457901322258703e+01 0 0 0
284 1 0.0000000000000000e+00 8.1296330310436549e+00 1.1717879768400536e+00 1.7457901322258710e+01 0 0 0
285 1 0.0000000000000000e+00 9.9200136219865875e+00 9.9428257643438300e+00 1.7457901322258707e+01 0 0 0