LAMMPS (13 Jan 2016)
Reading data file ...
  triclinic box = (0 0 0) to (27.1682 26.6193 49.6022) with tilt (5.43365 0 0)
  1 by 1 by 1 MPI processor grid
  reading atoms ...
  1008 atoms
Neighbor list info ...
  1 neighbor list requests
  update every 1 steps, delay 0 steps, check yes
  max neighbors/atom: 2000, page size: 100000
  master list distance cutoff = 7.72488
  ghost atom cutoff = 7.72488
Setting up cg style minimization ...
  Unit style: metal
Memory usage per processor = 3.3861 Mbytes
Step Temp Press CPU Pxx Pyy Pzz Pxy Pxz Pyz KinEng PotEng TotEng Volume Lx Ly Lz Atoms 
       0            0   -11120.037            0   -11854.043   -11704.226   -9801.8419   -366.97515   -216.80919   -177.02396            0   -3305.0124   -3305.0124    35872.267    27.168226    26.619316    49.602167     1008 
       1            0    -10171.63 0.0035579205   -10875.184   -10724.783   -8914.9244   -377.04938   -218.00363   -177.84444            0   -3305.6876   -3305.6876    35771.408    27.141057    26.593033    49.561152     1008 
       2            0   -9212.8036  0.007133007   -9884.2848   -9733.7336   -8020.3925   -387.15786    -219.3135   -178.73487            0   -3306.2997   -3306.2997     35671.04    27.113889    26.566782    49.520498     1008 
       3            0   -8243.9225  0.010708809   -8881.5486   -8731.3576   -7118.8615   -397.30195   -220.76563   -179.71193            0   -3306.8485   -3306.8485    35571.213    27.086721    26.540569    49.480263     1008 
       4            0   -7265.5393  0.014295816   -7867.3233   -7718.0976   -6211.1971   -407.48983   -222.39374   -180.79721            0   -3307.3336   -3307.3336    35471.988    27.059553    26.514401    49.440527     1008 
       5            0   -6278.7108  0.017887831   -6842.3815   -6694.8597   -5298.8911   -417.72303   -224.24029   -182.01743            0    -3307.755    -3307.755    35373.454    27.032385    26.488288    49.401396     1008 
       6            0   -5284.8163  0.021479845   -5807.7273   -5662.8269   -4383.8948   -428.01107   -226.35743   -183.40482            0   -3308.1124   -3308.1124    35275.734    27.005216    26.462245    49.363019     1008 
       7            0   -4285.7367  0.025080919   -4764.6791   -4623.5826   -3468.9485   -438.37659    -228.8329   -185.01392            0   -3308.4061   -3308.4061    35179.012    26.978048    26.436292    49.325622     1008 
       8            0   -3284.6528  0.028688908   -3715.5471   -3579.8569   -2558.5545   -448.87214   -231.80774   -186.93351            0   -3308.6363   -3308.6363    35083.583     26.95088    26.410464    49.289561     1008 
       9            0   -2287.4415  0.032291889   -2664.6948   -2536.7382   -1660.8916   -459.52717   -235.46662   -189.27665            0    -3308.804    -3308.804    34989.964    26.923712    26.384821    49.255463     1008 
      10            0   -1305.8081   0.04815197   -1620.7503   -1504.3364   -792.33748   -470.50974    -240.2526   -192.31373            0   -3308.9108   -3308.9108    34899.215    26.896543    26.359485    49.224608     1008 
      11            0   -370.78191  0.051764965      -606.67   -509.48327    3.8075452   -482.18398   -247.28292     -196.742            0   -3308.9608   -3308.9608    34814.176    26.869375    26.334784    49.200418     1008 
      12            0    163.27715  0.058964968    28.143833    90.811097    370.87652   -492.80334   -258.16694   -203.53035            0   -3308.9697   -3308.9697    34766.765    26.849406    26.318358    49.200646     1008 
      13            0    26.420013  0.062604904    62.247178    49.542228   -32.529368   -504.77272   -279.52934   -216.73364            0    -3308.977    -3308.977    34781.316    26.838132    26.313906    49.250248     1008 
      14            0   -633.38833   0.06982398   -746.97796   -722.58674    -430.6003   -490.13182    -260.3978   -203.52385            0   -3308.9925   -3308.9925    34840.258    26.864751    26.336588    49.242378     1008 
      15            0   -510.29612  0.073441982   -791.08425   -714.45449   -25.349628   -478.80944   -235.72598   -186.34473            0   -3309.0375   -3309.0375    34828.053    26.875991    26.342888    49.192776     1008 
      16            0    184.19558  0.080652952    17.159984    69.347078    466.07967   -490.24111   -248.25735   -194.95569            0   -3309.0526   -3309.0526    34766.222    26.851455    26.321153      49.1909     1008 
      17            0    61.790204  0.084297895    53.858414    59.458988    72.053211   -499.38321   -269.17939   -209.36993            0   -3309.0614   -3309.0614    34779.448    26.840924    26.314962    49.240502     1008 
      18            0   -336.41203   0.09153986   -340.42174   -344.80027   -324.01409   -497.37418   -270.20189   -209.79388            0   -3309.0658   -3309.0658    34815.924    26.849134    26.323837    49.260459     1008 
      19            0   -318.67876  0.095426798   -123.14124   -242.09523   -590.79981   -511.94057   -286.81577   -216.96575            0   -3309.1833   -3309.1833    34819.378    26.831906    26.316852    49.310061     1008 
      20            0    243.15527   0.10271287    363.63139    297.85748    67.976951   -507.99478   -276.15533   -211.03712            0   -3309.1936   -3309.1936    34767.512    26.826212    26.306638    49.266182     1008 
      21            0    244.95555   0.10635495    147.66554    205.13347    382.06764   -488.79682   -249.64525   -196.37673            0   -3309.2054   -3309.2054    34765.185    26.844304    26.313642     49.21658     1008 
      22            0    -157.2377   0.11359787   -248.48764   -200.66306    -22.56239   -486.88454   -251.29022    -197.3036            0   -3309.2099   -3309.2099    34801.868    26.852446    26.322405    49.237176     1008 
      23            0   -217.42946   0.11725497   -113.41838   -170.16505   -368.70494   -502.64741   -273.99445    -209.9742            0    -3309.224    -3309.224    34809.961     26.83739    26.316784    49.286778     1008 
      24            0    248.30013   0.12450981    346.27433    298.87553    99.750532   -504.59825   -271.62277   -208.38768            0   -3309.2302   -3309.2302     34767.67    26.827954    26.306729    49.263038     1008 
      25            0     476.4754   0.12815499    411.08281    445.83308    572.51032   -492.21637   -249.62206   -195.04952            0   -3309.2492   -3309.2492     34745.64    26.836619    26.308061    49.213435     1008 
      26            0   -288.28789   0.13537884   -430.23592   -368.88621   -65.741546   -481.18345   -241.67645   -190.31294            0   -3309.2664   -3309.2664    34814.558    26.859434    26.327969    49.231908     1008 
      27            0   -960.78763   0.13902593   -1052.8142   -1009.0102    -820.5385   -478.08301    -246.6622   -193.61224            0   -3309.3081   -3309.3081    34878.451    26.869806    26.339568     49.28151     1008 
      28            0    -170.0222   0.14268279   -142.16278   -131.14387   -236.75994   -489.53222   -255.89568   -199.05132            0   -3309.3979   -3309.3979    34809.016    26.842638    26.315906     49.27745     1008 
      29            0     120.0837   0.14993787    141.83119    147.80195    70.617971    -491.6079   -253.66826   -196.87779            0   -3309.4003   -3309.4003    34782.488    26.836904    26.310726    49.260111     1008 
      30            0    51.898179   0.15357995   -70.774281     -112.727    339.19581   -488.69256   -229.67838   -174.91182            0   -3309.4189   -3309.4189    34786.691    26.850047    26.327535    49.210509     1008 
      31            0   -220.59946   0.15723586   -250.89913   -257.62184    -153.2774   -487.02993   -244.40325   -188.82366            0     -3309.44     -3309.44    34813.617    26.848416    26.322982    49.260111     1008 
      32            0    320.58719    0.1644969    374.84971    391.28921    195.62264   -492.02312   -255.05921   -198.51491            0     -3309.45     -3309.45    34766.136    26.829937    26.303011    49.264184     1008 
      33            0    741.43301   0.17174888    937.24443    996.36983    290.68478   -496.55355   -274.35622   -216.34348            0   -3309.4602   -3309.4602    34731.449    26.809567    26.279612    49.296278     1008 
      34            0    441.41152   0.17541194    723.95819    814.09227   -213.81592   -495.19307   -287.41271   -228.71143            0   -3309.4945   -3309.4945    34761.207    26.808872    26.276372    49.345881     1008 
      35            0   -216.37703   0.17907286   -59.892461     -7.20013    -582.0385    -488.1826   -269.39152    -212.2616            0   -3309.5134   -3309.5134    34818.668     26.83304    26.302992    49.332954     1008 
      36            0   -8.8257457   0.18272996    44.978957    60.577327   -132.03352   -487.92269    -251.9259   -196.05389            0   -3309.5234   -3309.5234    34797.794    26.836938    26.309859    49.283352     1008 
      37            0    42.465811   0.18638492   -32.050794   -55.031967    214.48019   -485.93631   -230.97484   -177.00286            0   -3309.5314   -3309.5314    34791.057    26.846247    26.322136     49.23375     1008 
      38            0   -447.39897   0.19004178   -461.94883   -457.85994   -422.38813   -481.84358   -240.61098    -186.4377            0   -3309.5604   -3309.5604     34837.74     26.85191    26.325375    49.283352     1008 
      39            0    277.24123   0.19370294     374.9963    408.92936     47.79804   -487.94188   -253.18488   -197.99724            0   -3309.6028   -3309.6028    34774.678    26.827199    26.298756    49.289292     1008 
      40            0    52.155865   0.19737482    237.54602    284.98888    -366.0673   -484.15931   -256.09622   -201.18624            0   -3309.7842   -3309.7842    34801.453    26.824653    26.295041    49.338894     1008 
      41            0   -179.27065   0.20103884   -163.45919   -161.05062   -213.30215   -478.48993   -229.30412   -177.13928            0   -3309.8069   -3309.8069    34819.797    26.843383    26.317001    49.289292     1008 
      42            0    229.14071   0.20830393    202.09939    191.76665    293.55611   -480.40991   -220.65446   -169.31102            0   -3309.8123   -3309.8123    34781.972    26.838104    26.312887    49.253134     1008 
      43            0    496.32996   0.21195889    364.83776    331.25207    792.90004   -479.73126   -202.40508   -153.19072            0   -3309.8208   -3309.8208     34756.49    26.840831    26.317442    49.203532     1008 
      44            0   -266.59542   0.21560287    -513.6445   -563.73209    277.59033   -470.42861   -185.95377    -139.3002            0   -3309.8509   -3309.8509    34824.971    26.866706    26.344061    49.203231     1008 
      45            0   -235.39683   0.21926498   -347.84421   -363.40033    5.0540572   -471.27285   -203.08161   -155.00345            0   -3309.9196   -3309.9196    34825.829     26.85498     26.32967    49.252833     1008 
      46            0    130.76915    0.2265389    72.819464    64.293111    255.19487   -475.34868   -209.75729    -160.6493            0    -3309.924    -3309.924    34793.361    26.842638    26.317044    49.253159     1008 
      47            0   -4.4322579   0.23020482    60.180158    70.950642   -144.42757    -477.6759   -228.50559   -176.90395            0   -3309.9303   -3309.9303    34807.927    26.835525    26.308544    49.302761     1008 
      48            0   -468.82461   0.23387289   -576.07317   -604.66021   -225.74047   -469.26808   -200.38876   -152.20741            0   -3309.9759   -3309.9759    34848.802    26.859501    26.335163    49.266747     1008 
      49            0    381.06579   0.23753285    250.13023    213.95376     679.1134   -473.98324   -190.88102   -143.79206            0   -3310.0156   -3310.0156    34771.966    26.843067    26.319686    49.217145     1008 
      50            0    874.61472   0.24120188    886.26417    907.56776    830.01224   -472.76454   -199.76131   -153.99781            0   -3310.1975   -3310.1975    34735.301     26.82089    26.293067    49.255716     1008 
      51            0    12.594556   0.24487996    32.569784    61.172816   -55.958933   -465.40531   -201.42209   -156.02507            0   -3310.2686   -3310.2686     34815.06    26.838528    26.309627    49.305318     1008 
      52            0   -256.31359   0.24855089   -347.21227   -465.13856    43.410068   -470.77969   -178.91744   -129.91467            0    -3310.277    -3310.277     34837.17       26.853    26.336247    49.260201     1008 
      53            0    244.09446   0.25221896    113.51764   -84.562557    703.32831   -479.05409   -166.32144   -115.12226            0   -3310.2907   -3310.2907    34790.976    26.845236     26.33545    49.210599     1008 
      54            0    86.320631   0.25588799    27.209595   -66.583031    298.33533   -470.63273   -178.86746   -131.03729            0   -3310.3487   -3310.3487    34808.499    26.843021    26.324354    49.260201     1008 
      55            0   -195.68536   0.26318693   -205.46844   -210.64885   -170.93877   -463.28203   -190.90516   -145.73926            0   -3310.3538   -3310.3538    34835.798    26.845259    26.318994    49.304765     1008 
      56            0    59.881016   0.27046895     109.2342    181.76664   -111.35779   -460.98913    -201.7335   -158.70333            0    -3310.358    -3310.358    34814.183    26.835133    26.302519    49.323639     1008 
      57            0    70.458099    0.2741518    101.01997    147.20182   -36.847497   -453.30201   -174.80291   -135.50105            0   -3310.7058   -3310.7058    34823.114    26.836027    26.305331    49.329376     1008 
      58            0   -174.80921   0.28146386   -178.33619   -174.34298   -171.74845   -453.68144   -168.78605   -128.37643            0   -3310.7077   -3310.7077    34844.689    26.843959     26.31665     49.32413     1008 
      59            0    25.394611   0.28514695   -43.467738   -155.84306    275.49463   -461.84355   -152.62106   -108.82398            0   -3310.7141   -3310.7141    34824.714    26.844711    26.327302    49.274528     1008 
      60            0    308.94006     0.288831    343.38932    381.05812    202.37275   -454.40485   -170.61271   -131.57381            0   -3310.7544   -3310.7544    34802.975    26.830558    26.300682    49.319612     1008 
      61            0   -392.43199   0.29614186   -364.19634   -297.11903    -515.9806    -446.7879   -172.87466   -135.23603            0   -3310.7687   -3310.7687    34867.751    26.846106    26.313314    49.359083     1008 
      62            0   -1027.3175   0.30344081   -1007.3802   -916.92192   -1157.6504   -439.46307    -172.8469    -136.6667            0   -3310.7806   -3310.7806    34927.621    26.860477    26.325263    49.394953     1008 
      63            0   -928.96164   0.30712795   -866.89967   -699.76985   -1220.2154   -427.83855    -160.3123   -130.76748            0    -3311.098    -3311.098    34930.505    26.854698    26.312819    49.433028     1008 
      64            0   -54.749179   0.31081295    15.206038    141.37791   -320.83148   -436.87729   -155.69295   -124.58639            0   -3311.1255   -3311.1255    34849.772    26.835238    26.297428    49.383426     1008 
      65            0     115.6377   0.31450486    121.68806    123.56034    101.66469   -445.42897   -139.73748   -104.69255            0   -3311.1307   -3311.1307    34832.102    26.836536     26.30925    49.333823     1008 
      66            0   -109.93794   0.32183599   -128.28083   -154.34282   -47.190169   -445.23196    -135.7807   -100.01893            0   -3311.1322   -3311.1322    34852.145    26.843283    26.318215    49.332991     1008 
      67            0   -152.48686   0.32552791   -264.49589   -432.71323    239.74855   -452.48302   -113.89879   -74.509904            0   -3311.1538   -3311.1538    34854.441    26.851489    26.338387    49.283389     1008 
      68            0    450.18178   0.32922482    417.03754    340.82183    592.68598   -451.35526   -125.40935   -88.630147            0   -3311.1758   -3311.1758    34802.145    26.832365    26.311768    49.294337     1008 
      69            0    289.10407   0.33291888    323.05127    362.91785    181.34309   -442.81725    -139.9165   -106.91079            0   -3311.1994   -3311.1994    34819.516    26.830593    26.300175    49.343939     1008 
      70            0   -47.403716   0.34024787   -32.876748   -5.9175601   -103.41684   -440.91043   -137.93248   -104.68589            0   -3311.2026   -3311.2026    34849.821    26.839318    26.309775    49.352816     1008 
      71            0    10.862504   0.34393883   -53.393394   -159.69877    245.67967   -449.02063   -119.47725   -82.346456            0   -3311.2089   -3311.2089    34842.432    26.844184    26.325887    49.303214     1008 
      72            0     168.9761   0.34762979    198.89377     240.1905    67.844031   -440.07986   -135.08646   -103.12386            0   -3311.2712   -3311.2712    34832.862    26.833419    26.302753    49.352816     1008 
      73            0   -343.44206   0.35496593   -340.04985   -314.19561   -376.08072   -436.72616   -132.12085   -100.01899            0   -3311.2786   -3311.2786    34879.548     26.84649    26.316801    49.368535     1008 
      74            0   -720.10367   0.36229777   -747.79195   -753.47464   -659.04443    -435.1799   -126.75641   -94.060126            0   -3311.2828   -3311.2828    34914.012    26.857056    26.329796    49.373492     1008 
      75            0   -587.03863   0.36600089   -689.54454   -831.98013   -239.59123   -442.72734   -104.04335    -68.13666            0   -3311.3536   -3311.3536    34901.965    26.859952     26.34434     49.32389     1008 
      76            0    81.790199   0.37333393    27.199313   -72.709394    290.88068   -445.56428   -109.80033   -74.834378            0   -3311.3673   -3311.3673    34841.743     26.84175    26.322844     49.31241     1008 
      77            0   -5.0286073   0.37703395    12.940448    45.321614   -73.347884   -436.78794     -126.624   -95.837171            0   -3311.3732   -3311.3732    34852.093    26.837991     26.30789    49.362012     1008 
      78            0   -523.10343   0.38073683   -578.83676   -668.14842   -322.32511   -436.64986   -101.14582   -68.663429            0   -3311.5269   -3311.5269    34903.434    26.854695    26.334509     49.35404     1008 
      79            0    481.06078   0.38443995    469.71863    404.38496    569.07876   -442.20914   -101.35208   -69.754602            0   -3311.5658   -3311.5658    34813.851    26.829623     26.30789    49.323226     1008 
      80            0    1166.6661   0.38814187    1216.2664    1242.7496    1040.9823   -439.62999   -106.11302   -78.565089            0   -3311.6046   -3311.6046    34756.274    26.810376    26.281271    49.326913     1008 
      81            0    874.95914   0.39182591    958.78226    1098.1554    567.93977   -427.66843   -110.95705   -89.024911            0   -3311.7083   -3311.7083    34787.749    26.813936    26.275157    49.376515     1008 
      82            0   -42.084818   0.39915991   -6.6374098    91.366281   -210.98333   -423.43357   -106.26311   -83.075933            0   -3311.7322   -3311.7322    34870.073    26.837184    26.301243    49.401443     1008 
      83            0     8.492924   0.40651894   -8.7207489   -56.699937    90.899458   -433.63638   -91.387318   -62.839329            0   -3311.7351   -3311.7351     34863.34    26.840058    26.316504    49.357978     1008 
      84            0   -526.23712   0.41022491   -625.19371   -606.98861   -346.52902   -415.97164   -66.428801   -46.521393            0   -3311.9808   -3311.9808    34922.064     26.85825    26.328358    49.385382     1008 
      85            0    471.97581   0.41393685    443.62164    462.23128    510.07452   -424.45761   -69.339924   -48.586538            0   -3312.0152   -3312.0152    34833.148    26.831082    26.301837    49.359238     1008 
      86            0    1256.4841   0.41764784    1357.6873    1362.8838    1048.8811   -433.94783   -79.067034   -55.432075            0   -3312.0391   -3312.0391    34766.976    26.803914    26.276496    49.362967     1008 
      87            0    1330.8869   0.42136598    1588.4776    1568.2246    835.95873   -440.22778   -92.714876   -64.954046            0   -3312.1283   -3312.1283    34767.518    26.789521     26.26463    49.412569     1008 
      88            0    304.58054   0.42509079    491.45783    472.14071   -49.856922   -431.08607   -86.631574   -60.447204            0   -3312.1875   -3312.1875    34859.767     26.81669    26.291065    49.443719     1008 
      89            0    -135.4356   0.43246293   -30.794089    -43.96255   -331.55017   -424.54966   -76.839033   -53.031283            0    -3312.194    -3312.194    34898.645    26.832765    26.306187    49.440771     1008 
      90            0    8.8280886   0.43982983   -17.697859   -16.145528    60.327653   -419.10256   -57.167821   -37.913126            0   -3312.1981   -3312.1981    34883.212    26.840577    26.312453    49.392759     1008 
      91            0    331.28432   0.44354486    255.44184    489.39086    249.02026   -395.64149   -42.292162    -39.00019            0   -3312.4187   -3312.4187    34865.225    26.838286    26.290199    49.413295     1008 
      92            0   -377.42154   0.45090485   -431.93723     -322.168   -378.15938   -401.98319   -42.428142   -32.189213            0   -3312.4327   -3312.4327    34930.277    26.851284    26.313432     49.43784     1008 
      93            0   -799.80343   0.45829082   -790.14201   -888.62666   -720.64161   -418.49244   -43.014659    -21.11843            0   -3312.4376   -3312.4376    34969.654    26.854412     26.33451    49.448195     1008 
      94            0    -554.8994   0.46203184   -301.30864   -1009.8604   -353.52913   -478.02273   -44.896096    11.620334            0   -3312.4976   -3312.4976     34949.24    26.827244    26.360875    49.419899     1008 
      95            0    84.197662   0.46575999    280.06427   -216.95499     189.4837    -462.7854   -42.524469    2.2216177            0   -3312.5136   -3312.5136    34891.179    26.819115    26.334256    49.402639     1008 
      96            0   -58.259888    0.4731319   -73.213504   -42.070369   -59.495792   -410.38647   -36.114647    -22.55337            0   -3312.5232   -3312.5232    34905.185    26.840936    26.310088    49.427652     1008 
      97            0    93.018988   0.48049784    61.744964    150.92001    66.391991   -405.90079    -35.47117   -25.283756            0   -3312.5243   -3312.5243    34891.576    26.839225    26.303435    49.424029     1008 
      98            0   -92.917814   0.48423696    -341.9205    323.10533   -259.93828   -347.54069   -27.662224   -51.744272            0   -3312.5668   -3312.5668    34912.418    26.862744    26.276816    49.460308     1008 
      99            0    239.12802   0.48794889    214.40086    309.45712    193.52608   -405.23464   -30.402206   -21.483915            0   -3312.5995   -3312.5995    34882.153    26.835576    26.299346    49.425085     1008 
     100            0   -276.04407    0.4916718    -223.0289     -394.037    -211.0663   -426.72271   -31.759259   -7.6802122            0   -3312.6073   -3312.6073    34929.023    26.839365    26.325965    49.434471     1008 
     101            0   -538.36809   0.49907684   -396.32605   -838.26049   -380.51773   -450.39766   -32.997662    6.3900103            0   -3312.6092   -3312.6092     34953.15    26.836818    26.347018    49.433782     1008 
     102            0   -152.38558   0.50281596     202.0081   -780.89004    121.72522   -504.33404   -35.089335    35.436418            0   -3312.6358   -3312.6358    34918.726     26.80965    26.367141    49.397413     1008 
     103            0    138.97028   0.50654697    371.94451   -250.77417    295.74051   -472.30203   -31.381171    18.454518            0   -3312.6557   -3312.6557    34893.076    26.814517    26.340522    49.402042     1008 
     104            0   -212.62023   0.51394701   -152.93193   -340.53618   -144.39259   -427.74797   -27.366376   -3.1441992            0    -3312.666    -3312.666    34926.121      26.8374    26.325444    49.434962     1008 
     105            0    10.704548     0.521312   -7.9936536    42.655741   -2.5484438   -406.50077   -25.426207   -14.985655            0   -3312.6702   -3312.6702    34906.334    26.839783    26.307214    49.436805     1008 
     106            0    309.33204   0.52504492    528.38965     109.5394    290.06709    -454.0153   -28.742886    9.2625286            0   -3312.7842   -3312.7842    34885.506    26.812614    26.320976     49.43151     1008 
     107            0   -420.10178   0.52877688   -337.05081   -541.37475   -381.87979   -426.33359   -21.097835    2.8122398            0   -3312.8031   -3312.8031    34952.987    26.839783    26.329203    49.461534     1008 
     108            0   -821.55039   0.53248787   -949.03147   -761.54958   -754.07012   -382.93285   -8.3832586   -9.1008882            0   -3312.8167   -3312.8167    34991.316    26.866951     26.32168    49.479839     1008 
     109            0   -468.19295   0.53622293   -786.69676   -185.11756   -432.76454    -342.8453    4.9383764   -21.685276            0   -3312.8562   -3312.8562    34960.547     26.87641    26.295061    49.468959     1008 
     110            0    96.392564   0.54362082   -105.50911    306.81006    87.876749   -366.73864 -0.075064366   -15.074214            0   -3312.8651   -3312.8651    34908.886    26.854055    26.289899    49.446687     1008 
     111            0   -1.3454696   0.55102587     25.04395   -28.435277  -0.64508158   -413.49269   -12.943864    1.0519929            0   -3312.8666   -3312.8666    34917.828    26.835987     26.31239    49.450347     1008 
     112            0   -717.08937    0.5547359   -826.49489   -646.37509   -678.39812   -382.49906    1.0186031   -1.0767704            0   -3312.9772   -3312.9772    34990.646    26.863155    26.318578    49.491717     1008 
     113            0    368.89767    0.5584538    294.22121    491.08708    321.38471   -388.46577     5.760401    1.9639031            0   -3313.0434   -3313.0434    34894.531    26.837164    26.291958    49.453587     1008 
     114            0    805.61362   0.56219482    919.11551    732.07699    765.64836   -427.70406    11.322187    28.789917            0   -3313.1928   -3313.1928    34864.917    26.811496     26.29974    49.444288     1008 
     115            0   -126.43333   0.56593895   -9.7585135   -288.09223    -81.44923   -428.55878    15.027379    36.558256            0   -3313.2757   -3313.2757    34954.028    26.830537    26.326359    49.485396     1008 
     116            0   -117.64271   0.56967282   -238.43506     27.69754   -142.19061   -373.45372    32.204765    19.323484            0   -3313.3573   -3313.3573    34959.342    26.851495     26.29974    49.504345     1008 
     117            0    707.02356   0.57340097    698.22951    784.90869    637.93248   -397.17507    33.283437     30.69198            0   -3313.3882   -3313.3882    34887.287    26.824327    26.288794    49.472938     1008 
     118            0    1271.5308   0.58082986    1366.0643    1269.0531    1179.4749   -419.24419    33.942454    42.150392            0   -3313.3973   -3313.3973    34839.285    26.803597    26.284231    49.451662     1008 
     119            0    1821.1806   0.58458185    2098.7808    1633.9615    1730.7995   -458.82195    35.138405    65.171975            0   -3313.4256   -3313.4256    34796.108    26.776428    26.288782    49.431929     1008 
     120            0    1140.1464   0.58833599    1482.9767    802.31953     1135.143   -474.07402     37.66223    79.375559            0   -3313.5387   -3313.5387    34862.216    26.784527    26.315401    49.460786     1008 
     121            0    249.06897   0.59209085    490.05031   -42.901972    300.05857   -452.58864    40.517842    72.292261            0   -3313.5778   -3313.5778    34943.124    26.811695    26.329763    49.498325     1008 
     122            0   -126.53345   0.59952092    4.2124271   -311.33112   -72.481661   -428.21674    44.604383    62.813385            0   -3313.5841   -3313.5841    34977.702    26.829243    26.328261    49.517725     1008 
     123            0    1.6162201   0.60692286   -10.816797    16.543114  -0.87765643   -395.27938    51.007914    48.331506            0   -3313.5889   -3313.5889      34966.4    26.839325    26.308435     49.52042     1008 
     124            0    401.05149    0.6106739    607.64218    337.35713    258.15515   -430.08737     35.98621    53.587921            0   -3313.6306   -3313.6306     34934.57    26.812157    26.307541    49.527157     1008 
     125            0   -552.42821   0.61811781   -414.52533   -650.17257   -592.58675   -418.49926    39.464438     53.86332            0   -3313.6573   -3313.6573    35023.889     26.83799     26.32999    49.563696     1008 
     126            0   -1205.4943   0.62186193   -1219.4189   -1284.7901   -1112.2738   -394.14701    51.867628    53.894387            0    -3313.677    -3313.677    35087.422    26.865159    26.341714    49.581313     1008 
     127            0   -659.65264   0.62561488     -983.948   -585.20919   -409.80074   -346.71993    85.787926    55.073804            0   -3313.8245   -3313.8245    35044.554    26.881104     26.31666     49.53848     1008 
     128            0    57.142197   0.63303399   -155.06686    134.03017    192.46328   -364.68763    79.245637    56.059936            0   -3313.8393   -3313.8393     34979.14    26.856057    26.302052    49.519613     1008 
     129            0   0.47633482   0.64046693    11.712237   -4.3007699   -5.9824627   -397.87339    59.160275    57.391348            0   -3313.8405   -3313.8405    34985.835    26.837852    26.310734    49.546333     1008 
     130            0   -715.21927    0.6442008   -838.04792   -599.22231   -708.38759   -366.63353    63.181983    45.807497            0   -3313.8651   -3313.8651    35055.542    26.865021     26.31504    49.586731     1008 
     131            0    -277.3925   0.64795399   -515.94393    47.050953   -363.28452   -337.13742    70.352511    32.885385            0   -3313.9437   -3313.9437    35021.985    26.866417    26.288421    49.586849     1008 
     132            0    130.84254   0.65537691  -0.32685717    340.19723    52.657245   -362.44693    67.865217      43.7347            0   -3313.9483   -3313.9483    34984.042    26.848193    26.290051    49.563674     1008 
     133            0   -1.0385028    0.6628058    5.1654917   -8.9367098   0.65570981   -396.39767    63.027634    60.357574            0   -3313.9494   -3313.9494    34995.431    26.838637    26.311322    49.557368     1008 
     134            0    -155.7631   0.66654396   -425.16951   -184.83016    142.71037   -363.94231    93.487558    70.302373            0   -3314.0022   -3314.0022    35012.168    26.865805    26.315637    49.522808     1008 
     135            0    370.26981   0.67028499    288.74581    380.21401    441.84961   -386.21432    75.970211    64.782263            0   -3314.0175   -3314.0175    34967.235    26.838637    26.302188    49.534634     1008 
     136            0     355.0482   0.67403889    530.31122    386.46672    148.36667   -414.63923    47.536183    55.472858            0   -3314.0326   -3314.0326    34973.338    26.817129     26.30154    49.584237     1008 
     137            0   -120.49162   0.68148899    16.255822   -112.11215   -265.61853   -408.95087    49.315244    55.790079            0   -3314.0392   -3314.0392    35016.959    26.830307    26.313121    49.599856     1008 
     138            0   -172.46904   0.68889999   -273.58201    -188.3805   -55.444597   -382.26898    75.791905    64.850089            0    -3314.045    -3314.045    35019.452    26.851817    26.315534    49.559108     1008 
     139            0    54.187147    0.6963048   -59.493687    45.877592    176.17754   -381.63667    78.534476    65.962349            0   -3314.0466   -3314.0466    34998.497    26.848121    26.310196    49.546322     1008 
     140            0    92.642747   0.70374489    162.15601    101.14651    14.625717   -402.19899    58.366833    59.286193            0   -3314.0483   -3314.0483    34997.234    26.831634    26.308556    49.578067     1008 
     141            0   -51.266991   0.71118498    25.698951   -47.477783   -132.02214   -402.55583    56.708058    58.593375            0   -3314.0489   -3314.0489    35010.654    26.834005    26.311933    49.586331     1008 
     142            0   -88.711116   0.71860194   -184.31705   -96.175886    14.359584   -382.70618    75.563632    64.511832            0   -3314.0521   -3314.0521    35012.471    26.849614     26.31314    49.557803     1008 
     143            0    87.082179   0.72601295   -18.251498    85.297293    194.20074   -382.23119    77.703452     65.39714            0   -3314.0531   -3314.0531    34996.259    26.846749    26.309023    49.547894     1008 
     144            0    144.75798   0.73346591    335.82592    149.78482   -51.336815   -417.20235    46.004216    56.581644            0   -3314.0579   -3314.0579    34994.995    26.820179    26.308186    49.596764     1008 
     145            0    -185.8851   0.74092579    19.917763   -191.96668   -385.60638   -417.78477     42.51163    55.090236            0   -3314.0609   -3314.0609     35026.15    26.825807    26.315978    49.615812     1008 
     146            0   -237.79552   0.74465895   -333.86229    -232.4327   -147.09158    -380.2924    74.400017      62.7417            0   -3314.0829   -3314.0829    35029.785    26.852975    26.315258    49.572114     1008 
     147            0    93.967252   0.75208092    15.411096    109.34278    157.14788   -383.71057    74.648629    63.455196            0    -3314.086    -3314.086    34999.481    26.844478    26.307656    49.559223     1008 
     148            0    263.64688   0.75952888    378.27446    248.42137    164.24483    -410.2926    56.754508    62.034328            0   -3314.0877   -3314.0877    34986.044    26.824301    26.307332    49.578071     1008 
     149            0    -63.11618   0.76699281    182.56853   -119.71825   -252.19881   -427.22819    42.174198    60.111166            0   -3314.0909   -3314.0909    35017.869    26.819822    26.317926    49.611477     1008 
     150            0    -284.3778   0.77073979    -298.5947   -282.76191    -271.7768   -389.84845    65.869747    60.739759            0   -3314.1058   -3314.1058    35037.519     26.84699    26.316876    49.591061     1008 
     151            0    137.49918   0.77814984    51.418912    175.96143     185.1172   -380.92743     75.13778    62.065438            0    -3314.112    -3314.112    34998.471    26.844375    26.304918    49.563141     1008 
     152            0    560.39572   0.78557992    358.23231     606.0177    716.93714   -369.30909    90.956974    67.784142            0   -3314.1193   -3314.1193    34960.344      26.8455    26.295405    49.524982     1008 
     153            0    294.90549   0.78933477   -156.61067    275.61233    765.71481   -343.60876    119.93722    80.583086            0   -3314.1644   -3314.1644     34987.81    26.872669    26.305726    49.494355     1008 
     154            0   -134.31335   0.79307485   -418.79714   -160.48893    176.34603   -360.69153    99.039352    73.619362            0   -3314.1763   -3314.1763    35029.214    26.867409    26.315638    49.543957     1008 
     155            0    144.23843   0.80050993    86.416704    145.26322    201.03536   -386.99926    75.599761    66.195051            0   -3314.1811   -3314.1811     35006.02     26.84203    26.308317    49.571756     1008 
     156            0    3.3612094   0.80795193    15.000286    3.3739534   -8.2906107   -394.37995    67.009209     63.28538            0   -3314.1817   -3314.1817    35019.811    26.839025      26.3115    49.590837     1008 
     157            0   -61.565344   0.81536698   -100.20599   -63.568095   -20.921952   -388.15118    72.020931     64.52366            0   -3314.1823   -3314.1823    35025.339    26.844716    26.312857    49.585595     1008 
     158            0    47.429466     0.822788   -47.989696    51.130691     139.1474   -381.66398    78.716371    66.356054            0   -3314.1832   -3314.1832    35014.822    26.847322    26.309976    49.571323     1008 
     159            0    108.78839   0.82654285    158.34513    73.530618    94.489439   -402.21416    64.375301    65.354759            0   -3314.2577   -3314.2577    35020.008    26.833913    26.312868    49.597987     1008 
     160            0   -86.245196    0.8339839   -65.032159   -111.54871   -82.154722   -396.70979    65.344865    63.836429            0    -3314.259    -3314.259    35038.044    26.840475    26.315963    49.605563     1008 
     161            0   -206.23417   0.84142399    -241.7689   -189.64931   -187.28431   -385.61599    68.354632    60.516246            0   -3314.2602   -3314.2602    35049.275    26.848008    26.314752    49.609824     1008 
     162            0    26.233608   0.84888983   -222.42307    257.32398    43.799914   -343.42321    82.180736    46.920136            0   -3314.2674   -3314.2674    35028.836    26.862057     26.29143    49.598921     1008 
     163            0    426.80654   0.85263991    392.72146    487.28683    400.41133   -386.20658    70.717491    60.080973            0   -3314.2887   -3314.2887    34995.926    26.834889     26.29835    49.589438     1008 
     164            0   -183.07519   0.85640693   -97.850147   -285.34544   -166.02998   -410.01656    60.781534    68.204231            0   -3314.3047   -3314.3047    35054.304    26.837134    26.324969    49.617781     1008 
     165            0   -397.98367   0.86018682   -37.903803   -747.66717   -408.38003   -461.58731    40.765211    82.047044            0   -3314.3384   -3314.3384    35084.036    26.817759    26.351588    49.645542     1008 
     166            0    548.22405   0.86396289    911.65735    285.60093    447.41387   -461.26271    43.606131    80.353369            0   -3314.3707   -3314.3707     35005.08     26.79848    26.324969    49.619576     1008 
     167            0    804.69914   0.86773181    972.10983    743.04204    698.94553   -423.46726    57.514342    68.384119            0   -3314.4001   -3314.4001    34991.494    26.810793    26.302822    49.619282     1008 
     168            0    62.517851   0.87150097    95.917265    51.833718    39.802569   -398.41552    63.279833     61.82972            0   -3314.4276   -3314.4276    35062.444    26.837961    26.313473    49.649456     1008 
     169            0   -6.9986107   0.87895393    14.319302   -16.889733   -18.425401   -396.44043    63.948585     61.59434            0   -3314.4278   -3314.4278    35068.793    26.840461    26.314795    49.651325     1008 
     170            0   0.10694892   0.88642788   -5.0130168    2.6233713    2.7104923   -392.31457    66.274681    61.217591            0   -3314.4281   -3314.4281    35067.974    26.842621    26.313531    49.648556     1008 
     171            0    173.84431   0.89391088    202.48235    140.97979    178.07079   -400.72482    64.318864    63.702105            0   -3314.4286   -3314.4286     35051.98    26.836027    26.313095     49.63893     1008 
     172            0    3.8265036   0.89768887    185.20571   -293.27372    119.54751   -441.48288    46.221333    72.992054            0    -3314.436    -3314.436    35068.216    26.826131    26.339714    49.630035     1008 
     173            0   -192.92698     0.901443   -247.93961   -128.98507   -201.85627   -383.24567    35.959625    29.629197            0   -3314.4544   -3314.4544    35089.743    26.851887    26.313095    49.663058     1008 
     174            0    59.840798    0.9089098   -10.328458    180.39238    9.4584688   -378.73764     33.80551    23.704774            0   -3314.4569   -3314.4569    35067.001    26.848081    26.303229    49.656522     1008 
     175            0     208.5247   0.91644979    249.71788    175.96347    199.89275   -407.02501    22.418186    29.804465            0   -3314.4583   -3314.4583    35053.784    26.835231     26.31364    49.641927     1008 
     176            0   -9.8214051   0.92395782    58.891149    -112.4016    24.046235   -415.09351    17.126941    31.025884            0   -3314.4594   -3314.4594    35074.165     26.83737    26.324219    49.646873     1008 
     177            0   -58.464259   0.93143797   -72.008433   -49.169281   -54.215064   -395.69789    17.890034    20.311071            0   -3314.4615   -3314.4615    35079.268    26.845798     26.31562    49.654727     1008 
     178            0    2.6059067   0.93890381   -15.802776    26.769432   -3.1489361   -394.32409    17.913554    19.197274            0   -3314.4617   -3314.4617    35073.717    26.844976    26.313113    49.653119     1008 
     179            0    2.6059067    1.0725038   -15.802776    26.769432   -3.1489361   -394.32409    17.913554    19.197274            0   -3314.4617   -3314.4617    35073.717    26.844976    26.313113    49.653119     1008 
Loop time of 1.07252 on 1 procs for 179 steps with 1008 atoms

99.2% CPU use with 1 MPI tasks x no OpenMP threads

Minimization stats:
  Stopping criterion = linesearch alpha is zero
  Energy initial, next-to-last, final = 
        -3305.01235043     -3314.46168288     -3314.46168288
  Force two-norm initial, final = 432.802 0.714617
  Force max component initial, final = 265.409 0.592837
  Final line search alpha, max atom move = 1.8515e-08 1.09764e-08
  Iterations, force evaluations = 179 286

MPI task timing breakdown:
Section |  min time  |  avg time  |  max time  |%varavg| %total
---------------------------------------------------------------
Pair    | 1.0268     | 1.0268     | 1.0268     |   0.0 | 95.74
Neigh   | 0.012165   | 0.012165   | 0.012165   |   0.0 |  1.13
Comm    | 0.0036705  | 0.0036705  | 0.0036705  |   0.0 |  0.34
Output  | 0.0057752  | 0.0057752  | 0.0057752  |   0.0 |  0.54
Modify  | 0          | 0          | 0          |   0.0 |  0.00
Other   |            | 0.0241     |            |       |  2.25

Nlocal:    1008 ave 1008 max 1008 min
Histogram: 1 0 0 0 0 0 0 0 0 0
Nghost:    1517 ave 1517 max 1517 min
Histogram: 1 0 0 0 0 0 0 0 0 0
Neighs:    58590 ave 58590 max 58590 min
Histogram: 1 0 0 0 0 0 0 0 0 0

Total # of neighbors = 58590
Ave neighs/atom = 58.125
Neighbor list builds = 1
Dangerous builds = 0
Setting up cg style minimization ...
  Unit style: metal
Memory usage per processor = 3.3861 Mbytes
Step Temp Press CPU Pxx Pyy Pzz Pxy Pxz Pyz KinEng PotEng TotEng Volume Lx Ly Lz Atoms 
     179            0    2.6059067            0   -15.802776    26.769432   -3.1489361   -394.32409    17.913554    19.197274            0   -3314.4617   -3314.4617    35073.717    26.844976    26.313113    49.653119     1008 
     180            0    46.239353 0.0073540211    18.134357    60.950495    59.633207    -397.1896      20.7377    21.586075            0   -3314.4668   -3314.4668    35073.717    26.844976    26.313113    49.653119     1008 
     181            0    44.088429  0.014711142    23.524164    65.288474    43.452648   -394.47759    6.9842635    9.8263724            0   -3314.4691   -3314.4691    35073.717    26.844976    26.313113    49.653119     1008 
     182            0    23.127488  0.022072077    16.011612    56.909796   -3.5389434   -393.48114   -18.130237   -10.848964            0   -3314.4719   -3314.4719    35073.717    26.844976    26.313113    49.653119     1008 
     183            0     29.93967  0.029441118    22.342199    63.913305    3.5635075   -395.42117   -26.672729   -17.813409            0   -3314.4726   -3314.4726    35073.717    26.844976    26.313113    49.653119     1008 
     184            0    38.891067     0.036798    28.800586    71.156271    16.716343   -396.74464   -29.293205   -20.131691            0   -3314.4729   -3314.4729    35073.717    26.844976    26.313113    49.653119     1008 
     185            0    40.757467  0.044166088    30.103315    72.847309    19.321776   -397.26551   -30.150992   -20.911477            0    -3314.473    -3314.473    35073.717    26.844976    26.313113    49.653119     1008 
     186            0    42.550544  0.051525116    31.420586    74.418076    21.812968   -397.31862   -30.547556   -21.365965            0   -3314.4731   -3314.4731    35073.717    26.844976    26.313113    49.653119     1008 
     187            0    41.242625  0.058889151    30.804919    73.718951    19.204004   -396.93288   -30.628134   -21.569143            0   -3314.4732   -3314.4732    35073.717    26.844976    26.313113    49.653119     1008 
     188            0    38.598818   0.06625104    29.142993    72.004407    14.649053   -396.82679   -30.591466   -21.664902            0   -3314.4732   -3314.4732    35073.717    26.844976    26.313113    49.653119     1008 
     189            0    36.174206  0.073610067     27.43442    70.343454    10.744745    -396.9926   -30.003911   -21.318014            0   -3314.4732   -3314.4732    35073.717    26.844976    26.313113    49.653119     1008 
     190            0    32.711296  0.080968142    24.804399    67.770673    5.5588154   -397.10788   -28.542429   -20.366181            0   -3314.4732   -3314.4732    35073.717    26.844976    26.313113    49.653119     1008 
     191            0    28.172637  0.088325977    21.261891    64.355849   -1.0998286   -397.33883   -26.070546    -18.67898            0   -3314.4732   -3314.4732    35073.717    26.844976    26.313113    49.653119     1008 
     192            0      25.6518  0.095690012    18.827553    62.056361   -3.9285151   -397.46275   -21.953269   -15.756056            0   -3314.4732   -3314.4732    35073.717    26.844976    26.313113    49.653119     1008 
     193            0     24.09522     0.103055    17.251265    60.550573   -5.5161791   -397.30478   -17.094884   -12.272728            0   -3314.4733   -3314.4733    35073.717    26.844976    26.313113    49.653119     1008 
     194            0    22.704703   0.11041403    15.849734    59.074155   -6.8097788   -396.85799   -12.283954   -8.7661624            0   -3314.4733   -3314.4733    35073.717    26.844976    26.313113    49.653119     1008 
     195            0    20.316264   0.11778116    13.785512    56.891175   -9.7278965   -396.39334   -7.8967545   -5.5725738            0   -3314.4733   -3314.4733    35073.717    26.844976    26.313113    49.653119     1008 
     196            0    18.054632   0.12513709    11.850833    54.944086   -12.631023   -396.23086    -4.956346   -3.4762568            0   -3314.4733   -3314.4733    35073.717    26.844976    26.313113    49.653119     1008 
     197            0     17.05241   0.13250017    10.903351    53.978999    -13.72512    -396.1874   -3.5005816   -2.4135316            0   -3314.4733   -3314.4733    35073.717    26.844976    26.313113    49.653119     1008 
     198            0    17.034612   0.13986111    10.766364    53.864491    -13.52702   -396.25102   -2.8876614   -1.9768354            0   -3314.4733   -3314.4733    35073.717    26.844976    26.313113    49.653119     1008 
     199            0    17.815811   0.14721799    11.270352    54.403216   -12.226135   -396.34843   -2.4091872   -1.6380377            0   -3314.4733   -3314.4733    35073.717    26.844976    26.313113    49.653119     1008 
     200            0    19.819432   0.15458298    12.843962    55.930938   -9.3166035   -396.30784   -1.7791602   -1.1874328            0   -3314.4733   -3314.4733    35073.717    26.844976    26.313113    49.653119     1008 
     201            0    22.357588   0.16194296    14.832469     57.87005   -5.6297566   -396.24204   -1.0767153  -0.68913492            0   -3314.4733   -3314.4733    35073.717    26.844976    26.313113    49.653119     1008 
     202            0    24.521602   0.16929603    16.419366     59.46529   -2.3198493   -396.28631  -0.45194535  -0.23036899            0   -3314.4733   -3314.4733    35073.717    26.844976    26.313113    49.653119     1008 
     203            0    25.332645   0.17665815    17.027418    60.063282   -1.0927646   -396.25816   -0.2192184 -0.052887171            0   -3314.4733   -3314.4733    35073.717    26.844976    26.313113    49.653119     1008 
     204            0    25.656251   0.18402505    17.249862    60.272309   -0.5534196   -396.19856  -0.11306124  0.019836875            0   -3314.4733   -3314.4733    35073.717    26.844976    26.313113    49.653119     1008 
     205            0    25.787201   0.19138813    17.335077    60.352369  -0.32584246   -396.16926 -0.077513545  0.046599564            0   -3314.4733   -3314.4733    35073.717    26.844976    26.313113    49.653119     1008 
     206            0    25.824504   0.19874811    17.352419     60.37248   -0.2513878   -396.16528 -0.062619125  0.052549021            0   -3314.4733   -3314.4733    35073.717    26.844976    26.313113    49.653119     1008 
     207            0    25.847355   0.20610714    17.362332    60.385046  -0.20531149   -396.16685 -0.054320251  0.056912751            0   -3314.4733   -3314.4733    35073.717    26.844976    26.313113    49.653119     1008 
     208            0    25.871994   0.21346903    17.376756    60.401637  -0.16240977    -396.1681 -0.044638982  0.060389144            0   -3314.4733   -3314.4733    35073.717    26.844976    26.313113    49.653119     1008 
     209            0    25.889263     0.220824    17.391827    60.418088   -0.1421251   -396.16905 -0.043733937  0.057383094            0   -3314.4733   -3314.4733    35073.717    26.844976    26.313113    49.653119     1008 
     210            0     25.90877   0.22818518    17.406392    60.434787  -0.11486893   -396.17026 -0.041054341   0.05478536            0   -3314.4733   -3314.4733    35073.717    26.844976    26.313113    49.653119     1008 
     211            0     25.93018   0.23554707    17.422111    60.453322 -0.084892981   -396.17108 -0.037947868  0.051911668            0   -3314.4733   -3314.4733    35073.717    26.844976    26.313113    49.653119     1008 
     212            0     25.95123   0.24290299    17.438632    60.473228 -0.058170275   -396.16969 -0.035048732  0.047395126            0   -3314.4733   -3314.4733    35073.717    26.844976    26.313113    49.653119     1008 
     213            0    25.963355   0.25027299    17.447549    60.485141 -0.042623594   -396.16883 -0.033246236   0.04356879            0   -3314.4733   -3314.4733    35073.717    26.844976    26.313113    49.653119     1008 
     214            0    25.972669   0.25763416    17.452007    60.492642 -0.026641847   -396.16827 -0.029931619  0.041172639            0   -3314.4733   -3314.4733    35073.717    26.844976    26.313113    49.653119     1008 
     215            0    25.979139   0.26499009    17.454752    60.497154  -0.01448733   -396.16759 -0.027076696  0.039441217            0   -3314.4733   -3314.4733    35073.717    26.844976    26.313113    49.653119     1008 
     216            0    25.984133   0.27235198    17.457392    60.500765 -0.0057588826   -396.16727 -0.025434289  0.037613221            0   -3314.4733   -3314.4733    35073.717    26.844976    26.313113    49.653119     1008 
     217            0    25.986882    0.2797091    17.459253    60.502867 -0.0014733078   -396.16727 -0.024302271  0.036380417            0   -3314.4733   -3314.4733    35073.717    26.844976    26.313113    49.653119     1008 
     218            0    25.988969   0.28707194    17.460822    60.504454 0.0016291569    -396.1676 -0.023237322  0.035672714            0   -3314.4733   -3314.4733    35073.717    26.844976    26.313113    49.653119     1008 
     219            0    25.990199   0.29443598    17.462008    60.505563 0.0030264897   -396.16779 -0.022300133  0.034560439            0   -3314.4733   -3314.4733    35073.717    26.844976    26.313113    49.653119     1008 
     220            0    25.991083   0.30179214     17.46302    60.506247 0.0039816106   -396.16781 -0.020828962   0.03267361            0   -3314.4733   -3314.4733    35073.717    26.844976    26.313113    49.653119     1008 
     221            0    25.991572   0.30914903     17.46345    60.506478 0.0047898519   -396.16812 -0.018061428  0.028986221            0   -3314.4733   -3314.4733    35073.717    26.844976    26.313113    49.653119     1008 
     222            0    25.992263    0.3165071    17.464051    60.506903 0.0058331779   -396.16795 -0.014733966  0.024517162            0   -3314.4733   -3314.4733    35073.717    26.844976    26.313113    49.653119     1008 
     223            0    25.992323   0.32386804    17.464061    60.507029 0.0058797063   -396.16768 -0.012080807  0.020329273            0   -3314.4733   -3314.4733    35073.717    26.844976    26.313113    49.653119     1008 
     224            0    25.992253   0.33123016    17.463726    60.507137 0.0058956149   -396.16767 -0.0098725006  0.017055207            0   -3314.4733   -3314.4733    35073.717    26.844976    26.313113    49.653119     1008 
     225            0    25.992057   0.33858705     17.46331    60.507318 0.0055421114    -396.1676 -0.0079173225  0.013931019            0   -3314.4733   -3314.4733    35073.717    26.844976    26.313113    49.653119     1008 
     226            0    25.991741   0.34595203    17.462764    60.507458 0.0050020548   -396.16755 -0.0063980032  0.010868742            0   -3314.4733   -3314.4733    35073.717    26.844976    26.313113    49.653119     1008 
     227            0    25.991016   0.35330606    17.461733    60.507407 0.0039077216   -396.16767 -0.0047802659 0.0074071853            0   -3314.4733   -3314.4733    35073.717    26.844976    26.313113    49.653119     1008 
     228            0    25.990131   0.36066508    17.460561    60.507127 0.0027060792   -396.16759 -0.0030524677 0.0046364074            0   -3314.4733   -3314.4733    35073.717    26.844976    26.313113    49.653119     1008 
     229            0    25.989424   0.36802697    17.459712     60.50702 0.0015399364   -396.16737 -0.0016731915  0.002340507            0   -3314.4733   -3314.4733    35073.717    26.844976    26.313113    49.653119     1008 
     230            0    25.988938   0.37539005    17.459121    60.507022 0.00067215129   -396.16724 -0.00083885292 0.00069452081            0   -3314.4733   -3314.4733    35073.717    26.844976    26.313113    49.653119     1008 
     231            0    25.988722   0.38275313    17.458814    60.507023 0.0003279573   -396.16724 -0.00048382209 5.9082036e-05            0   -3314.4733   -3314.4733    35073.717    26.844976    26.313113    49.653119     1008 
     232            0    25.988716   0.39011598    17.458723    60.507136 0.00029089746    -396.1673 -0.00026596888 -0.00018399138            0   -3314.4733   -3314.4733    35073.717    26.844976    26.313113    49.653119     1008 
     233            0    25.988716    0.3974731    17.458711    60.507221 0.00021604131   -396.16735 -0.00021685073 -0.00027952573            0   -3314.4733   -3314.4733    35073.717    26.844976    26.313113    49.653119     1008 
     234            0    25.988655   0.40483212    17.458664    60.507204 9.6183508e-05   -396.16735 -0.00017641433 -0.00026604328            0   -3314.4733   -3314.4733    35073.717    26.844976    26.313113    49.653119     1008 
     235            0    25.988644   0.41219115    17.458652    60.507196 8.3814292e-05   -396.16734 -0.00014111035 -0.00022075098            0   -3314.4733   -3314.4733    35073.717    26.844976    26.313113    49.653119     1008 
     236            0    25.988621   0.41955304    17.458626    60.507168 7.0615218e-05   -396.16733 -0.00010582741 -0.00016933596            0   -3314.4733   -3314.4733    35073.717    26.844976    26.313113    49.653119     1008 
     237            0    25.988588   0.42691708    17.458599    60.507131 3.5412192e-05   -396.16733 -8.7518253e-05 -0.00012662123            0   -3314.4733   -3314.4733    35073.717    26.844976    26.313113    49.653119     1008 
     238            0     25.98857    0.4342761    17.458582    60.507104 2.2533552e-05   -396.16732 -7.0142286e-05 -8.7236073e-05            0   -3314.4733   -3314.4733    35073.717    26.844976    26.313113    49.653119     1008 
     239            0    25.988556   0.44164109    17.458569    60.507085 1.3491913e-05   -396.16732 -5.7486829e-05 -5.9217942e-05            0   -3314.4733   -3314.4733    35073.717    26.844976    26.313113    49.653119     1008 
     240            0    25.988553   0.44900417    17.458562    60.507075 2.0751559e-05   -396.16732 -4.7956374e-05 -4.1601528e-05            0   -3314.4733   -3314.4733    35073.717    26.844976    26.313113    49.653119     1008 
     241            0    25.988549   0.45636606    17.458558    60.507071 1.7986224e-05   -396.16732 -4.5987729e-05 -3.6033422e-05            0   -3314.4733   -3314.4733    35073.717    26.844976    26.313113    49.653119     1008 
     242            0    25.988547     0.463727    17.458556    60.507068 1.7356794e-05   -396.16732 -4.5567623e-05 -3.4194441e-05            0   -3314.4733   -3314.4733    35073.717    26.844976    26.313113    49.653119     1008 
     243            0    25.988545   0.47108316    17.458553    60.507065 1.6279132e-05   -396.16732 -4.4696644e-05 -3.2911675e-05            0   -3314.4733   -3314.4733    35073.717    26.844976    26.313113    49.653119     1008 
     244            0    25.988542    0.4784441     17.45855    60.507063 1.3527295e-05   -396.16732 -4.3394349e-05 -3.1552294e-05            0   -3314.4733   -3314.4733    35073.717    26.844976    26.313113    49.653119     1008 
     245            0     25.98854   0.48580599    17.458548    60.507061 1.1677212e-05   -396.16732 -4.1350514e-05 -2.9888859e-05            0   -3314.4733   -3314.4733    35073.717    26.844976    26.313113    49.653119     1008 
     246            0    25.988538   0.49316096    17.458546    60.507059 9.6915811e-06   -396.16732 -3.8512674e-05 -2.7801034e-05            0   -3314.4733   -3314.4733    35073.717    26.844976    26.313113    49.653119     1008 
     247            0    25.988534   0.50052404    17.458543    60.507056 4.6036321e-06   -396.16732 -3.3929508e-05 -2.4602925e-05            0   -3314.4733   -3314.4733    35073.717    26.844976    26.313113    49.653119     1008 
     248            0    25.988532   0.50788212    17.458541    60.507053 7.2544847e-07   -396.16732 -2.9317874e-05 -2.1547436e-05            0   -3314.4733   -3314.4733    35073.717    26.844976    26.313113    49.653119     1008 
     249            0     25.98853   0.51524711    17.458539    60.507051 -2.0399759e-06   -396.16732 -2.4088452e-05 -1.7937761e-05            0   -3314.4733   -3314.4733    35073.717    26.844976    26.313113    49.653119     1008 
     250            0    25.988527     0.522609    17.458537    60.507049 -5.6860372e-06   -396.16732 -1.7925365e-05 -1.3621066e-05            0   -3314.4733   -3314.4733    35073.717    26.844976    26.313113    49.653119     1008 
     251            0    25.988523   0.52996612    17.458534    60.507046 -9.9575784e-06   -396.16732 -1.1623652e-05 -9.1535668e-06            0   -3314.4733   -3314.4733    35073.717    26.844976    26.313113    49.653119     1008 
     252            0    25.988522   0.53733516    17.458532    60.507044 -1.2243256e-05   -396.16732 -7.7336755e-06 -6.1752465e-06            0   -3314.4733   -3314.4733    35073.717    26.844976    26.313113    49.653119     1008 
     253            0    25.988521   0.54469705    17.458532    60.507044 -1.2367966e-05   -396.16732 -4.886779e-06 -3.9091255e-06            0   -3314.4733   -3314.4733    35073.717    26.844976    26.313113    49.653119     1008 
     254            0    25.988521   0.55205917    17.458532    60.507044 -1.2119483e-05   -396.16732 -3.6102808e-06 -2.8450151e-06            0   -3314.4733   -3314.4733    35073.717    26.844976    26.313113    49.653119     1008 
     255            0    25.988522   0.55942106    17.458532    60.507044 -1.1093027e-05   -396.16732 -2.7968684e-06 -2.168483e-06            0   -3314.4733   -3314.4733    35073.717    26.844976    26.313113    49.653119     1008 
     256            0    25.988523   0.56677699    17.458532    60.507045 -9.6334067e-06   -396.16732 -2.233582e-06 -1.6944535e-06            0   -3314.4733   -3314.4733    35073.717    26.844976    26.313113    49.653119     1008 
     257            0    25.988524   0.57414198    17.458533    60.507046 -8.2215479e-06   -396.16732 -1.7879372e-06 -1.3319942e-06            0   -3314.4733   -3314.4733    35073.717    26.844976    26.313113    49.653119     1008 
     258            0    25.988525   0.58150411    17.458534    60.507047 -6.0876406e-06   -396.16732 -1.2420456e-06 -9.096219e-07            0   -3314.4733   -3314.4733    35073.717    26.844976    26.313113    49.653119     1008 
     259            0    25.988527   0.58885908    17.458535    60.507048 -3.5408665e-06   -396.16732 -7.6101381e-07 -5.2778231e-07            0   -3314.4733   -3314.4733    35073.717    26.844976    26.313113    49.653119     1008 
     260            0    25.988528   0.59622097    17.458536    60.507049 -1.6254627e-06   -396.16732 -3.5924717e-07 -2.1859182e-07            0   -3314.4733   -3314.4733    35073.717    26.844976    26.313113    49.653119     1008 
     261            0    25.988528   0.60357809    17.458537    60.507049 -9.2080809e-07   -396.16732 -2.132386e-07 -1.0511669e-07            0   -3314.4733   -3314.4733    35073.717    26.844976    26.313113    49.653119     1008 
     262            0    25.988528   0.61094713    17.458537    60.507049 -6.0349152e-07   -396.16732 -1.3384623e-07 -5.0412002e-08            0   -3314.4733   -3314.4733    35073.717    26.844976    26.313113    49.653119     1008 
     263            0    25.988529   0.61831212    17.458537    60.507049 -4.0401034e-07   -396.16732 -9.5660851e-08 -2.301173e-08            0   -3314.4733   -3314.4733    35073.717    26.844976    26.313113    49.653119     1008 
     264            0    25.988529     0.625669    17.458537     60.50705 -2.6388014e-07   -396.16732 -5.8687566e-08 -3.8436402e-09            0   -3314.4733   -3314.4733    35073.717    26.844976    26.313113    49.653119     1008 
     265            0    25.988529   0.63302708    17.458537     60.50705 -2.1763062e-07   -396.16732 -3.8331663e-08 1.6345912e-09            0   -3314.4733   -3314.4733    35073.717    26.844976    26.313113    49.653119     1008 
     266            0    25.988529   0.64038515    17.458537     60.50705 -1.6668235e-07   -396.16732 -2.1659687e-08 6.8958279e-09            0   -3314.4733   -3314.4733    35073.717    26.844976    26.313113    49.653119     1008 
     267            0    25.988529   0.65138507    17.458537     60.50705 -1.4732693e-07   -396.16732 -1.6203402e-08 3.2492778e-09            0   -3314.4733   -3314.4733    35073.717    26.844976    26.313113    49.653119     1008 
Loop time of 0.651402 on 1 procs for 88 steps with 1008 atoms

100.1% CPU use with 1 MPI tasks x no OpenMP threads

Minimization stats:
  Stopping criterion = force tolerance
  Energy initial, next-to-last, final = 
        -3314.46168288     -3314.47331689     -3314.47331689
  Force two-norm initial, final = 0.178615 8.47878e-11
  Force max component initial, final = 0.0134118 8.33829e-12
  Final line search alpha, max atom move = 1 8.33829e-12
  Iterations, force evaluations = 88 176

MPI task timing breakdown:
Section |  min time  |  avg time  |  max time  |%varavg| %total
---------------------------------------------------------------
Pair    | 0.64202    | 0.64202    | 0.64202    |   0.0 | 98.56
Neigh   | 0          | 0          | 0          |   0.0 |  0.00
Comm    | 0.0022223  | 0.0022223  | 0.0022223  |   0.0 |  0.34
Output  | 0.0027781  | 0.0027781  | 0.0027781  |   0.0 |  0.43
Modify  | 0          | 0          | 0          |   0.0 |  0.00
Other   |            | 0.00438    |            |       |  0.67

Nlocal:    1008 ave 1008 max 1008 min
Histogram: 1 0 0 0 0 0 0 0 0 0
Nghost:    1517 ave 1517 max 1517 min
Histogram: 1 0 0 0 0 0 0 0 0 0
Neighs:    58590 ave 58590 max 58590 min
Histogram: 1 0 0 0 0 0 0 0 0 0

Total # of neighbors = 58590
Ave neighs/atom = 58.125
Neighbor list builds = 0
Dangerous builds = 0
System init for write_restart ...
System init for write_data ...
Reading restart file ...
  restart file = 13 Jan 2016, LAMMPS = 13 Jan 2016
  triclinic box = (0.161625 0.153101 -0.0254762) to (27.0066 26.4662 49.6276) with tilt (5.37114 0 0)
  1 by 1 by 1 MPI processor grid
  1008 atoms
Changing box ...
  triclinic box = (0.161625 0.153101 -0.0254762) to (27.0066 26.4662 49.6276) with tilt (5.37114 0 0)
Neighbor list info ...
  1 neighbor list requests
  update every 1 steps, delay 0 steps, check yes
  max neighbors/atom: 2000, page size: 100000
  master list distance cutoff = 7.72488
  ghost atom cutoff = 7.72488
Setting up cg style minimization ...
  Unit style: metal
Memory usage per processor = 3.3861 Mbytes
Step Temp Press CPU Pxx Pyy Pzz Pxy Pxz Pyz KinEng PotEng TotEng Volume Lx Ly Lz Atoms 
     267            0    26.379998            0     18.06365    60.810576     0.265767   -396.20291 -0.015533644 0.0050422559            0   -3314.4733   -3314.4733    35073.682     26.84495    26.313113    49.653119     1008 
     268            0    26.338512 0.0074520111    18.025628    60.780329    0.2095786   -396.20251 -0.017581639 0.0015633582            0   -3314.4733   -3314.4733    35073.682     26.84495    26.313113    49.653119     1008 
     269            0    26.306888  0.014913082    17.995105    60.756677   0.16888126   -396.20183  -0.01839027 0.00013883573            0   -3314.4733   -3314.4733    35073.682     26.84495    26.313113    49.653119     1008 
     270            0    26.281767    0.0223701    17.972203     60.73809    0.1350091     -396.202 -0.016509126 -8.5381871e-05            0   -3314.4733   -3314.4733    35073.682     26.84495    26.313113    49.653119     1008 
     271            0    26.257649  0.029833078    17.951381    60.719555   0.10201019   -396.20233 -0.013334472 2.0353238e-07            0   -3314.4733   -3314.4733    35073.682     26.84495    26.313113    49.653119     1008 
     272            0    26.225856  0.037295103    17.926344    60.695797  0.055427707   -396.20284 -0.0090964331 0.0003159155            0   -3314.4733   -3314.4733    35073.682     26.84495    26.313113    49.653119     1008 
     273            0    26.211391  0.044751883    17.915992    60.685468  0.032712909   -396.20254 -0.0083047651 -0.00016696992            0   -3314.4733   -3314.4733    35073.682     26.84495    26.313113    49.653119     1008 
     274            0    26.203465  0.052216053    17.911068     60.67969  0.019636406   -396.20237 -0.0086581664 -0.00066794637            0   -3314.4733   -3314.4733    35073.682     26.84495    26.313113    49.653119     1008 
     275            0    26.197884  0.059678078    17.908071    60.675479  0.010100726   -396.20275 -0.0092672888 -0.00092196517            0   -3314.4733   -3314.4733    35073.682     26.84495    26.313113    49.653119     1008 
     276            0    26.194943  0.067131042    17.906869    60.673125 0.0048338807   -396.20266 -0.0093517765 -0.00090438121            0   -3314.4733   -3314.4733    35073.682     26.84495    26.313113    49.653119     1008 
     277            0    26.193142  0.074592113    17.906403    60.671748 0.0012745584   -396.20252 -0.0097690117 -0.0010931321            0   -3314.4733   -3314.4733    35073.682     26.84495    26.313113    49.653119     1008 
     278            0    26.192234  0.082047939    17.906159    60.670984 -0.00044105093   -396.20258 -0.010138193 -0.0012868575            0   -3314.4733   -3314.4733    35073.682     26.84495    26.313113    49.653119     1008 
     279            0    26.191808  0.090647936    17.905917     60.67049 -0.00098242953   -396.20277  -0.01023046 -0.0013447671            0   -3314.4733   -3314.4733    35073.682     26.84495    26.313113    49.653119     1008 
     280            0     26.19164  0.098124981    17.905708    60.670221 -0.0010088573   -396.20291  -0.01007814 -0.0013068642            0   -3314.4733   -3314.4733    35073.682     26.84495    26.313113    49.653119     1008 
     281            0    26.191473     0.105618    17.905592    60.670092 -0.0012665436   -396.20292 -0.0099541586 -0.0012983624            0   -3314.4733   -3314.4733    35073.682     26.84495    26.313113    49.653119     1008 
     282            0    26.191469   0.11308908    17.905519    60.670072 -0.001184344   -396.20286 -0.0095184417 -0.0012100261            0   -3314.4733   -3314.4733    35073.682     26.84495    26.313113    49.653119     1008 
     283            0    26.191356   0.12055898    17.905429    60.670022 -0.0013834521   -396.20277 -0.0086961286 -0.0010713786            0   -3314.4733   -3314.4733    35073.682     26.84495    26.313113    49.653119     1008 
     284            0    26.191309   0.12802291    17.905335    60.669994 -0.0014030826   -396.20271 -0.0076531074 -0.00090696858            0   -3314.4733   -3314.4733    35073.682     26.84495    26.313113    49.653119     1008 
     285            0    26.191328   0.13549495    17.905201    60.670062 -0.0012781199   -396.20267 -0.0060217729 -0.0006935259            0   -3314.4733   -3314.4733    35073.682     26.84495    26.313113    49.653119     1008 
     286            0    26.191271   0.14295793     17.90506    60.670116 -0.0013615789    -396.2026 -0.0040773345 -0.0004388542            0   -3314.4733   -3314.4733    35073.682     26.84495    26.313113    49.653119     1008 
     287            0     26.19136   0.15042591    17.904958     60.67015 -0.0010291997   -396.20257 -0.0025712927 -0.00015859106            0   -3314.4733   -3314.4733    35073.682     26.84495    26.313113    49.653119     1008 
     288            0    26.191534   0.15789604    17.904894    60.670218 -0.00051025475   -396.20258 -0.0015895421 5.7371753e-05            0   -3314.4733   -3314.4733    35073.682     26.84495    26.313113    49.653119     1008 
     289            0    26.191646   0.16536093     17.90486    60.670255 -0.00017590684   -396.20254 -0.0008819675 0.00021097269            0   -3314.4733   -3314.4733    35073.682     26.84495    26.313113    49.653119     1008 
     290            0    26.191669    0.1728301    17.904847    60.670238 -7.9154616e-05   -396.20251 -0.00051103265 0.00024839898            0   -3314.4733   -3314.4733    35073.682     26.84495    26.313113    49.653119     1008 
     291            0    26.191656   0.18031192     17.90484    60.670185 -5.7630335e-05   -396.20249 -0.00025820948 0.00025280131            0   -3314.4733   -3314.4733    35073.682     26.84495    26.313113    49.653119     1008 
     292            0    26.191621   0.18777609    17.904835    60.670128 -0.00010050207   -396.20249 -0.00012044301 0.00024824067            0   -3314.4733   -3314.4733    35073.682     26.84495    26.313113    49.653119     1008 
     293            0    26.191611   0.19524193     17.90483    60.670112 -0.00010988672    -396.2025 -5.0801117e-05 0.00023135542            0   -3314.4733   -3314.4733    35073.682     26.84495    26.313113    49.653119     1008 
     294            0    26.191623   0.20270705    17.904828    60.670125 -8.3533659e-05    -396.2025 -2.1083782e-05 0.00021994355            0   -3314.4733   -3314.4733    35073.682     26.84495    26.313113    49.653119     1008 
     295            0    26.191645    0.2101779    17.904827    60.670163 -5.6386208e-05    -396.2025 -1.0815147e-05 0.00019646891            0   -3314.4733   -3314.4733    35073.682     26.84495    26.313113    49.653119     1008 
     296            0    26.191667   0.21764302    17.904827    60.670205 -2.9877189e-05   -396.20249 -1.1796477e-05 0.00017744028            0   -3314.4733   -3314.4733    35073.682     26.84495    26.313113    49.653119     1008 
     297            0    26.191685   0.22511506    17.904827    60.670235 -6.1333946e-06   -396.20249 -1.3361464e-05 0.00016573763            0   -3314.4733   -3314.4733    35073.682     26.84495    26.313113    49.653119     1008 
     298            0    26.191694   0.23258805    17.904827    60.670249 6.7703485e-06   -396.20249 -1.2157849e-05 0.00016371689            0   -3314.4733   -3314.4733    35073.682     26.84495    26.313113    49.653119     1008 
     299            0    26.191695   0.24006009    17.904828    60.670255 2.3957791e-06   -396.20249 -1.323366e-05 0.00015986457            0   -3314.4733   -3314.4733    35073.682     26.84495    26.313113    49.653119     1008 
     300            0    26.191694   0.24752498    17.904828    60.670257 -2.0507834e-06   -396.20249 -1.5724088e-05 0.00015497567            0   -3314.4733   -3314.4733    35073.682     26.84495    26.313113    49.653119     1008 
     301            0    26.191695    0.2549901    17.904828    60.670259 -2.7106584e-06   -396.20249 -1.6544178e-05 0.00015107067            0   -3314.4733   -3314.4733    35073.682     26.84495    26.313113    49.653119     1008 
     302            0    26.191695   0.26245499    17.904828     60.67026 -4.0798348e-06   -396.20249 -1.6928165e-05 0.00014495754            0   -3314.4733   -3314.4733    35073.682     26.84495    26.313113    49.653119     1008 
     303            0    26.191696   0.26992512    17.904828    60.670262 -2.4857635e-06   -396.20249 -1.6453593e-05 0.00013458462            0   -3314.4733   -3314.4733    35073.682     26.84495    26.313113    49.653119     1008 
     304            0    26.191697   0.27739692    17.904827    60.670264 5.1064915e-07   -396.20249 -1.4806866e-05 0.00012229403            0   -3314.4733   -3314.4733    35073.682     26.84495    26.313113    49.653119     1008 
     305            0    26.191699    0.2848599    17.904827    60.670266 2.1824533e-06   -396.20249 -1.1932671e-05 9.8497337e-05            0   -3314.4733   -3314.4733    35073.682     26.84495    26.313113    49.653119     1008 
     306            0      26.1917   0.29233193    17.904827     60.67027 2.996767e-06   -396.20249 -8.3813358e-06 6.4190437e-05            0   -3314.4733   -3314.4733    35073.682     26.84495    26.313113    49.653119     1008 
     307            0    26.191701   0.29980493    17.904827    60.670274 2.7249358e-06   -396.20249 -4.7951907e-06 2.9536433e-05            0   -3314.4733   -3314.4733    35073.682     26.84495    26.313113    49.653119     1008 
     308            0    26.191702     0.307266    17.904827    60.670276 1.7095734e-06   -396.20249 -2.8679863e-06 1.361335e-05            0   -3314.4733   -3314.4733    35073.682     26.84495    26.313113    49.653119     1008 
     309            0    26.191702   0.31473303    17.904827    60.670278 5.9846177e-07   -396.20249 -1.2469085e-06 4.5722859e-06            0   -3314.4733   -3314.4733    35073.682     26.84495    26.313113    49.653119     1008 
     310            0    26.191702   0.32219911    17.904827    60.670278 3.7281749e-09   -396.20249 -6.4086287e-07 1.6392436e-06            0   -3314.4733   -3314.4733    35073.682     26.84495    26.313113    49.653119     1008 
     311            0    26.191702    0.3296721    17.904827    60.670278 -1.6586175e-07   -396.20249 -2.2186492e-07 4.9701086e-07            0   -3314.4733   -3314.4733    35073.682     26.84495    26.313113    49.653119     1008 
     312            0    26.191702   0.33714199    17.904827    60.670278 -9.250336e-09   -396.20249 -9.8565254e-08 1.171606e-07            0   -3314.4733   -3314.4733    35073.682     26.84495    26.313113    49.653119     1008 
     313            0    26.191702   0.34460592    17.904827    60.670278 1.6925996e-07   -396.20249 2.0842697e-08 -1.438565e-08            0   -3314.4733   -3314.4733    35073.682     26.84495    26.313113    49.653119     1008 
     314            0    26.191702   0.35208297    17.904827    60.670278 1.3326486e-07   -396.20249 6.1097949e-08 -5.4777699e-08            0   -3314.4733   -3314.4733    35073.682     26.84495    26.313113    49.653119     1008 
     315            0    26.191702    0.3595531    17.904827    60.670278 6.8017851e-08   -396.20249 8.495697e-08 -9.9619386e-10            0   -3314.4733   -3314.4733    35073.682     26.84495    26.313113    49.653119     1008 
     316            0    26.191702   0.36701393    17.904827    60.670278 6.7581053e-08   -396.20249 3.1523337e-08 6.3885427e-08            0   -3314.4733   -3314.4733    35073.682     26.84495    26.313113    49.653119     1008 
     317            0    26.191702   0.37448001    17.904827    60.670278 -8.199266e-09   -396.20249 -9.3624939e-09 1.0146707e-07            0   -3314.4733   -3314.4733    35073.682     26.84495    26.313113    49.653119     1008 
     318            0    26.191702   0.38194299    17.904827    60.670278 1.3163746e-08   -396.20249 -3.6733127e-09 1.3723639e-07            0   -3314.4733   -3314.4733    35073.682     26.84495    26.313113    49.653119     1008 
     319            0    26.191702   0.38941503    17.904827    60.670278 3.5072219e-08   -396.20249 -5.1602402e-09 1.4635541e-07            0   -3314.4733   -3314.4733    35073.682     26.84495    26.313113    49.653119     1008 
     320            0    26.191702   0.39688396    17.904827    60.670278 -1.5807359e-09   -396.20249 -1.3888909e-08 1.2172279e-07            0   -3314.4733   -3314.4733    35073.682     26.84495    26.313113    49.653119     1008 
     321            0    26.191702   0.40434694    17.904827    60.670278  1.64911e-08   -396.20249 1.7438905e-10 1.0587906e-07            0   -3314.4733   -3314.4733    35073.682     26.84495    26.313113    49.653119     1008 
     322            0    26.191702   0.41181707    17.904827    60.670278 2.2077297e-08   -396.20249 -2.0491944e-10 8.1584186e-08            0   -3314.4733   -3314.4733    35073.682     26.84495    26.313113    49.653119     1008 
     323            0    26.191702   0.41928005    17.904827    60.670278 -7.989728e-09   -396.20249 -1.5155214e-08 5.4506436e-08            0   -3314.4733   -3314.4733    35073.682     26.84495    26.313113    49.653119     1008 
     324            0    26.191702   0.42674899    17.904827    60.670278 -9.1782137e-09   -396.20249 -1.3681484e-08 3.8110383e-08            0   -3314.4733   -3314.4733    35073.682     26.84495    26.313113    49.653119     1008 
     325            0    26.191702   0.43421793    17.904827    60.670278 -2.0713686e-09   -396.20249 -7.6308833e-09 2.7697113e-08            0   -3314.4733   -3314.4733    35073.682     26.84495    26.313113    49.653119     1008 
     326            0    26.191702   0.44538212    17.904827    60.670278 -1.2659763e-09   -396.20249 -5.5647068e-09 2.1602389e-08            0   -3314.4733   -3314.4733    35073.682     26.84495    26.313113    49.653119     1008 
Loop time of 0.445407 on 1 procs for 59 steps with 1008 atoms

99.7% CPU use with 1 MPI tasks x no OpenMP threads

Minimization stats:
  Stopping criterion = force tolerance
  Energy initial, next-to-last, final = 
        -3314.47331473     -3314.47331473     -3314.47331473
  Force two-norm initial, final = 5.23965e-05 6.92251e-11
  Force max component initial, final = 4.49768e-06 3.6764e-12
  Final line search alpha, max atom move = 1 3.6764e-12
  Iterations, force evaluations = 59 118

MPI task timing breakdown:
Section |  min time  |  avg time  |  max time  |%varavg| %total
[...]
     314            0    25.984698   0.34769011    17.456183    60.497911 1.9224438e-07   -396.01046 2.696939e-08 -1.05497e-08            0   -3314.4733   -3314.4733    35073.717    26.844976    26.313113    49.653119     1008 
     315            0    25.984698   0.35509109    17.456183    60.497911 2.200664e-07   -396.01046 2.9130476e-08 1.5750817e-09            0   -3314.4733   -3314.4733    35073.717    26.844976    26.313113    49.653119     1008 
     316            0    25.984698   0.36250305    17.456183    60.497911 1.6237928e-07   -396.01046 8.9921543e-09 -1.2155135e-08            0   -3314.4733   -3314.4733    35073.717    26.844976    26.313113    49.653119     1008 
     317            0    25.984698   0.36990499    17.456183    60.497911 1.7460772e-07   -396.01046 7.3599797e-09 -1.5270368e-08            0   -3314.4733   -3314.4733    35073.717    26.844976    26.313113    49.653119     1008 
     318            0    25.984698   0.37730002    17.456183    60.497911 1.4511869e-07   -396.01046 3.9912959e-09 -1.8463488e-08            0   -3314.4733   -3314.4733    35073.717    26.844976    26.313113    49.653119     1008 
     319            0    25.984698   0.38470006    17.456183    60.497911 9.1336768e-08   -396.01046 -4.4209687e-09 -2.3209901e-08            0   -3314.4733   -3314.4733    35073.717    26.844976    26.313113    49.653119     1008 
     320            0    25.984698   0.39208913    17.456183    60.497911 5.2289779e-08   -396.01046 -3.6466944e-09 -2.0214742e-08            0   -3314.4733   -3314.4733    35073.717    26.844976    26.313113    49.653119     1008 
     321            0    25.984698   0.39948702    17.456183    60.497911 2.3224543e-08   -396.01046 -6.6510423e-09 -1.8696875e-08            0   -3314.4733   -3314.4733    35073.717    26.844976    26.313113    49.653119     1008 
     322            0    25.984698    0.4068861    17.456183    60.497911 2.7525665e-09   -396.01046 -5.5924756e-09 -1.5403603e-08            0   -3314.4733   -3314.4733    35073.717    26.844976    26.313113    49.653119     1008 
     323            0    25.984698   0.41794109    17.456183    60.497911 -4.0541538e-10   -396.01046 -4.1666464e-09 -1.194292e-08            0   -3314.4733   -3314.4733    35073.717    26.844976    26.313113    49.653119     1008 
Loop time of 0.417959 on 1 procs for 56 steps with 1008 atoms

99.5% CPU use with 1 MPI tasks x no OpenMP threads

Minimization stats:
  Stopping criterion = force tolerance
  Energy initial, next-to-last, final = 
        -3314.47332556     -3314.47332556     -3314.47332556
  Force two-norm initial, final = 1.80536e-05 7.17506e-11
  Force max component initial, final = 2.28639e-06 4.43214e-12
  Final line search alpha, max atom move = 1 4.43214e-12
  Iterations, force evaluations = 56 112

MPI task timing breakdown:
Section |  min time  |  avg time  |  max time  |%varavg| %total
---------------------------------------------------------------
Pair    | 0.41194    | 0.41194    | 0.41194    |   0.0 | 98.56
Neigh   | 0          | 0          | 0          |   0.0 |  0.00
Comm    | 0.0014212  | 0.0014212  | 0.0014212  |   0.0 |  0.34
Output  | 0.0017903  | 0.0017903  | 0.0017903  |   0.0 |  0.43
Modify  | 0          | 0          | 0          |   0.0 |  0.00
Other   |            | 0.002812   |            |       |  0.67

Nlocal:    1008 ave 1008 max 1008 min
Histogram: 1 0 0 0 0 0 0 0 0 0
Nghost:    1517 ave 1517 max 1517 min
Histogram: 1 0 0 0 0 0 0 0 0 0
Neighs:    58590 ave 58590 max 58590 min
Histogram: 1 0 0 0 0 0 0 0 0 0

Total # of neighbors = 58590
Ave neighs/atom = 58.125
Neighbor list builds = 0
Dangerous builds = 0
Reading restart file ...
  restart file = 13 Jan 2016, LAMMPS = 13 Jan 2016
  triclinic box = (0.161625 0.153101 -0.0254762) to (27.0066 26.4662 49.6276) with tilt (5.37114 0 0)
  1 by 1 by 1 MPI processor grid
  1008 atoms
Changing box ...
  triclinic box = (0.161625 0.153101 -0.0254762) to (27.0066 26.4662 49.6276) with tilt (5.37117 0 0)
Neighbor list info ...
  1 neighbor list requests
  update every 1 steps, delay 0 steps, check yes
  max neighbors/atom: 2000, page size: 100000
  master list distance cutoff = 7.72488
  ghost atom cutoff = 7.72488
Setting up cg style minimization ...
  Unit style: metal
Memory usage per processor = 3.3861 Mbytes
Step Temp Press CPU Pxx Pyy Pzz Pxy Pxz Pyz KinEng PotEng TotEng Volume Lx Ly Lz Atoms 
     267            0    25.991285            0    17.460238    60.514036 -0.00041940633   -396.32943 -0.005286633 -0.00090456043            0   -3314.4733   -3314.4733    35073.717    26.844976    26.313113    49.653119     1008 
     268            0    25.990704  0.007420063    17.460605      60.5142 -0.0026920932   -396.32626 -0.0049652791 -0.00088934055            0   -3314.4733   -3314.4733    35073.717    26.844976    26.313113    49.653119     1008 
     269            0    25.990591   0.01483798    17.460474    60.514422 -0.0031235684   -396.32495 -0.0046000803 -0.00070140808            0   -3314.4733   -3314.4733    35073.717    26.844976    26.313113    49.653119     1008 
     270            0    25.991045  0.022260904    17.460561    60.514813 -0.0022400109   -396.32451  -0.00410418 -0.00045043373            0   -3314.4733   -3314.4733    35073.717    26.844976    26.313113    49.653119     1008 
     271            0    25.991222  0.029685974    17.460637     60.51507 -0.0020399089   -396.32438 -0.0038874599 -0.00041975533            0   -3314.4733   -3314.4733    35073.717    26.844976    26.313113    49.653119     1008 
     272            0    25.991438  0.037100077    17.460734    60.515329 -0.0017506699   -396.32433 -0.0037476623 -0.0004650287            0   -3314.4733   -3314.4733    35073.717    26.844976    26.313113    49.653119     1008 
     273            0    25.991486  0.044524908    17.460712    60.515445 -0.0016994178   -396.32431 -0.0036149639 -0.00050036915            0   -3314.4733   -3314.4733    35073.717    26.844976    26.313113    49.653119     1008 
     274            0    25.991617  0.051948071    17.460734    60.515625 -0.001508874   -396.32429 -0.0034071254 -0.0005204956            0   -3314.4733   -3314.4733    35073.717    26.844976    26.313113    49.653119     1008 
     275            0    25.991874  0.059371948    17.460841    60.515878 -0.0010978893   -396.32427 -0.0031355267 -0.00050183984            0   -3314.4733   -3314.4733    35073.717    26.844976    26.313113    49.653119     1008 
     276            0    25.992076  0.066794872    17.460896    60.516058 -0.00072745453   -396.32426 -0.0028375393 -0.00048719324            0   -3314.4733   -3314.4733    35073.717    26.844976    26.313113    49.653119     1008 
     277            0    25.992222  0.074213028    17.460899    60.516175 -0.00040873006   -396.32425 -0.0024446455 -0.00043939793            0   -3314.4733   -3314.4733    35073.717    26.844976    26.313113    49.653119     1008 
     278            0    25.992397  0.081637859    17.460976    60.516305 -8.8394636e-05   -396.32424 -0.0021217836 -0.00039416197            0   -3314.4733   -3314.4733    35073.717    26.844976    26.313113    49.653119     1008 
     279            0    25.992591  0.089051962    17.461094    60.516434 0.00024323937   -396.32423 -0.0018539065 -0.00033787761            0   -3314.4733   -3314.4733    35073.717    26.844976    26.313113    49.653119     1008 
     280            0    25.992831  0.096474886    17.461276    60.516596 0.00061937396   -396.32422 -0.0015460213 -0.00026965335            0   -3314.4733   -3314.4733    35073.717    26.844976    26.313113    49.653119     1008 
     281            0    25.993054   0.10390091    17.461469    60.516747 0.0009455723   -396.32421 -0.001236633 -0.00018736552            0   -3314.4733   -3314.4733    35073.717    26.844976    26.313113    49.653119     1008 
     282            0    25.993151   0.11132097    17.461552    60.516803 0.0010966239    -396.3242 -0.00095276842 -0.00011645818            0   -3314.4733   -3314.4733    35073.717    26.844976    26.313113    49.653119     1008 
     283            0    25.993163   0.11874795    17.461568    60.516804 0.0011160297    -396.3242 -0.00073669675 -6.5748395e-05            0   -3314.4733   -3314.4733    35073.717    26.844976    26.313113    49.653119     1008 
     284            0    25.993151   0.12617302    17.461558    60.516798 0.0010966056   -396.32419 -0.00059701004 -4.0703432e-05            0   -3314.4733   -3314.4733    35073.717    26.844976    26.313113    49.653119     1008 
     285            0    25.993106   0.13359094    17.461508    60.516761 0.0010499685   -396.32419 -0.00046993356 -1.1998947e-05            0   -3314.4733   -3314.4733    35073.717    26.844976    26.313113    49.653119     1008 
     286            0    25.992983   0.14101386    17.461398    60.516668 0.0008846171   -396.32419 -0.00035247454 7.3004857e-06            0   -3314.4733   -3314.4733    35073.717    26.844976    26.313113    49.653119     1008 
     287            0    25.992866   0.14842987    17.461305    60.516585 0.00070910118   -396.32418 -0.00026428322 2.0537344e-05            0   -3314.4733   -3314.4733    35073.717    26.844976    26.313113    49.653119     1008 
     288            0    25.992805   0.15585303     17.46125    60.516538 0.00062679265   -396.32418 -0.00019270806 3.6211122e-05            0   -3314.4733   -3314.4733    35073.717    26.844976    26.313113    49.653119     1008 
     289            0    25.992729   0.16328096    17.461186    60.516474 0.00052708903   -396.32418 -0.00012627709 5.4386434e-05            0   -3314.4733   -3314.4733    35073.717    26.844976    26.313113    49.653119     1008 
     290            0    25.992654   0.17070889    17.461125    60.516412 0.00042560209   -396.32418 -8.3338123e-05 6.0520911e-05            0   -3314.4733   -3314.4733    35073.717    26.844976    26.313113    49.653119     1008 
     291            0    25.992565   0.17813492    17.461053    60.516338 0.00030279496   -396.32418 -4.9080383e-05 5.8405099e-05            0   -3314.4733   -3314.4733    35073.717    26.844976    26.313113    49.653119     1008 
     292            0    25.992499   0.18555903    17.461002    60.516284 0.00020931816   -396.32418 -2.9742574e-05 5.2163171e-05            0   -3314.4733   -3314.4733    35073.717    26.844976    26.313113    49.653119     1008 
     293            0    25.992455   0.19297504    17.460969    60.516249 0.00014648527   -396.32418 -1.4657006e-05 4.6894028e-05            0   -3314.4733   -3314.4733    35073.717    26.844976    26.313113    49.653119     1008 
     294            0     25.99243   0.20039701    17.460951     60.51623 0.00010913104   -396.32418 -6.4301751e-06 4.3645661e-05            0   -3314.4733   -3314.4733    35073.717    26.844976    26.313113    49.653119     1008 
     295            0    25.992408   0.20781994    17.460933    60.516215 7.5159514e-05   -396.32418 -1.4983858e-06 4.0504507e-05            0   -3314.4733   -3314.4733    35073.717    26.844976    26.313113    49.653119     1008 
     296            0    25.992393   0.21524501    17.460922    60.516206 5.2263846e-05   -396.32418 1.3040846e-08 3.777137e-05            0   -3314.4733   -3314.4733    35073.717    26.844976    26.313113    49.653119     1008 
     297            0    25.992382   0.22267008    17.460911      60.5162 3.4419655e-05   -396.32418 6.2799317e-07 3.588085e-05            0   -3314.4733   -3314.4733    35073.717    26.844976    26.313113    49.653119     1008 
     298            0    25.992371   0.23009086    17.460901    60.516194 1.8320093e-05   -396.32418 -7.1488219e-07 3.3194427e-05            0   -3314.4733   -3314.4733    35073.717    26.844976    26.313113    49.653119     1008 
     299            0    25.992363   0.23750997    17.460894    60.516189 6.2403649e-06   -396.32418 -1.7428181e-06 3.1599362e-05            0   -3314.4733   -3314.4733    35073.717    26.844976    26.313113    49.653119     1008 
     300            0    25.992358   0.24492693     17.46089    60.516185 -9.5564664e-07   -396.32418 -2.6512089e-06 3.0407455e-05            0   -3314.4733   -3314.4733    35073.717    26.844976    26.313113    49.653119     1008 
     301            0    25.992356   0.25235105    17.460889    60.516184 -4.1267658e-06   -396.32418 -3.5382087e-06 2.9258287e-05            0   -3314.4733   -3314.4733    35073.717    26.844976    26.313113    49.653119     1008 
     302            0    25.992355   0.25977802    17.460888    60.516183 -6.2829646e-06   -396.32418 -4.0778136e-06 2.7908746e-05            0   -3314.4733   -3314.4733    35073.717    26.844976    26.313113    49.653119     1008 
     303            0    25.992355   0.26719809    17.460888    60.516183 -6.2430994e-06   -396.32418 -4.2498012e-06 2.6556991e-05            0   -3314.4733   -3314.4733    35073.717    26.844976    26.313113    49.653119     1008 
     304            0    25.992356   0.27462506    17.460889    60.516184 -5.7260799e-06   -396.32418 -4.2158933e-06 2.5048956e-05            0   -3314.4733   -3314.4733    35073.717    26.844976    26.313113    49.653119     1008 
     305            0    25.992356   0.28204894    17.460889    60.516184 -5.4273614e-06   -396.32418 -4.1186848e-06 2.2821904e-05            0   -3314.4733   -3314.4733    35073.717    26.844976    26.313113    49.653119     1008 
     306            0    25.992357    0.2894659     17.46089    60.516186 -3.8649075e-06   -396.32418 -3.4938846e-06  1.85888e-05            0   -3314.4733   -3314.4733    35073.717    26.844976    26.313113    49.653119     1008 
     307            0    25.992358   0.29689097    17.460891    60.516187 -2.5932736e-06   -396.32418 -2.5675771e-06 1.2173137e-05            0   -3314.4733   -3314.4733    35073.717    26.844976    26.313113    49.653119     1008 
     308            0    25.992359   0.30430889    17.460891    60.516189 -1.3185247e-06   -396.32418 -1.3751619e-06 5.8807449e-06            0   -3314.4733   -3314.4733    35073.717    26.844976    26.313113    49.653119     1008 
     309            0     25.99236   0.31173801    17.460891    60.516189 -1.0631124e-06   -396.32418 -6.3746031e-07 2.3582122e-06            0   -3314.4733   -3314.4733    35073.717    26.844976    26.313113    49.653119     1008 
     310            0     25.99236   0.31916189    17.460891    60.516189 -1.0368741e-06   -396.32418 -3.2367877e-07 1.003092e-06            0   -3314.4733   -3314.4733    35073.717    26.844976    26.313113    49.653119     1008 
     311            0     25.99236   0.32658291    17.460891    60.516189 -8.2053792e-07   -396.32418 -1.8163481e-07 3.570765e-07            0   -3314.4733   -3314.4733    35073.717    26.844976    26.313113    49.653119     1008 
     312            0     25.99236   0.33400893    17.460891    60.516189 -5.1104842e-07   -396.32418 -6.9308614e-08 1.2502001e-07            0   -3314.4733   -3314.4733    35073.717    26.844976    26.313113    49.653119     1008 
     313            0     25.99236   0.34142494    17.460891    60.516189 -2.7595721e-07   -396.32418 -2.6207716e-08 4.7890292e-08            0   -3314.4733   -3314.4733    35073.717    26.844976    26.313113    49.653119     1008 
     314            0     25.99236   0.34885097    17.460891    60.516189 -1.9208932e-07   -396.32418 -2.6976502e-08 1.0453493e-08            0   -3314.4733   -3314.4733    35073.717    26.844976    26.313113    49.653119     1008 
     315            0     25.99236   0.35627389    17.460891    60.516189 -2.1990995e-07   -396.32418 -2.9116667e-08 -1.6402867e-09            0   -3314.4733   -3314.4733    35073.717    26.844976    26.313113    49.653119     1008 
     316            0     25.99236    0.3636899    17.460891    60.516189 -1.6229694e-07   -396.32418 -8.9992209e-09 1.2103008e-08            0   -3314.4733   -3314.4733    35073.717    26.844976    26.313113    49.653119     1008 
     317            0     25.99236   0.37111592    17.460891    60.516189 -1.7447531e-07   -396.32418 -7.3556469e-09 1.5249018e-08            0   -3314.4733   -3314.4733    35073.717    26.844976    26.313113    49.653119     1008 
     318            0     25.99236   0.37854099    17.460891    60.516189 -1.4514763e-07   -396.32418 -4.0090124e-09 1.8453181e-08            0   -3314.4733   -3314.4733    35073.717    26.844976    26.313113    49.653119     1008 
     319            0     25.99236   0.38596106    17.460891    60.516189 -9.1229054e-08   -396.32418 4.4280541e-09 2.3220234e-08            0   -3314.4733   -3314.4733    35073.717    26.844976    26.313113    49.653119     1008 
     320            0     25.99236   0.39337993    17.460891    60.516189 -5.2404591e-08   -396.32418 3.6239333e-09 2.0235893e-08            0   -3314.4733   -3314.4733    35073.717    26.844976    26.313113    49.653119     1008 
     321            0     25.99236   0.40079904    17.460891    60.516189 -2.3119816e-08   -396.32418 6.6583228e-09 1.8724426e-08            0   -3314.4733   -3314.4733    35073.717    26.844976    26.313113    49.653119     1008 
     322            0     25.99236   0.40822196    17.460891     60.51619 -2.9172567e-09   -396.32418 5.5661852e-09 1.542231e-08            0   -3314.4733   -3314.4733    35073.717    26.844976    26.313113    49.653119     1008 
     323            0     25.99236   0.41931295    17.460891     60.51619 5.2964498e-10   -396.32418 4.1763125e-09 1.1965376e-08            0   -3314.4733   -3314.4733    35073.717    26.844976    26.313113    49.653119     1008 
Loop time of 0.419331 on 1 procs for 56 steps with 1008 atoms

100.2% CPU use with 1 MPI tasks x no OpenMP threads

Minimization stats:
  Stopping criterion = force tolerance
  Energy initial, next-to-last, final = 
        -3314.47330821     -3314.47330821     -3314.47330821
  Force two-norm initial, final = 1.80537e-05 7.17748e-11
  Force max component initial, final = 2.2864e-06 4.45566e-12
  Final line search alpha, max atom move = 1 4.45566e-12
  Iterations, force evaluations = 56 112

MPI task timing breakdown:
Section |  min time  |  avg time  |  max time  |%varavg| %total
---------------------------------------------------------------
Pair    | 0.41331    | 0.41331    | 0.41331    |   0.0 | 98.56
Neigh   | 0          | 0          | 0          |   0.0 |  0.00
Comm    | 0.0014262  | 0.0014262  | 0.0014262  |   0.0 |  0.34
Output  | 0.0017879  | 0.0017879  | 0.0017879  |   0.0 |  0.43
Modify  | 0          | 0          | 0          |   0.0 |  0.00
Other   |            | 0.00281    |            |       |  0.67

Nlocal:    1008 ave 1008 max 1008 min
Histogram: 1 0 0 0 0 0 0 0 0 0
Nghost:    1517 ave 1517 max 1517 min
Histogram: 1 0 0 0 0 0 0 0 0 0
Neighs:    58590 ave 58590 max 58590 min
Histogram: 1 0 0 0 0 0 0 0 0 0

Total # of neighbors = 58590
Ave neighs/atom = 58.125
Neighbor list builds = 0
Dangerous builds = 0
Elastic Constant C11all = 44.628849949775 GPa
Elastic Constant C22all = 44.9801397272599 GPa
Elastic Constant C33all = 8.40651637190604e-09 GPa
Elastic Constant C12all = 16.2273489047001 GPa
Elastic Constant C13all = 0.00087126001527338 GPa
Elastic Constant C23all = 0.00302641979526186 GPa
Elastic Constant C44all = 4.95003860123688e-09 GPa
Elastic Constant C55all = 1.34502897708444e-09 GPa
Elastic Constant C66all = 15.6859799242 GPa
Elastic Constant C14all = 1.18462259024454e-06 GPa
Elastic Constant C15all = -2.23429992729506e-07 GPa
Elastic Constant C16all = -1.87595923818929 GPa
Elastic Constant C24all = -3.50165066720365e-07 GPa
Elastic Constant C25all = 1.2635925372706e-06 GPa
Elastic Constant C26all = -0.913942293237724 GPa
Elastic Constant C34all = -1.49694247397747e-05 GPa
Elastic Constant C35all = 1.26514807305967e-05 GPa
Elastic Constant C36all = -0.0198080793010007 GPa
Elastic Constant C45all = -2.44719956299377e-07 GPa
Elastic Constant C46all = -7.4548196948854e-07 GPa
Elastic Constant C56all = -3.18522047848546e-07 GPa
Total wall time: 0:00:07
