    2    2    1    1
  0.2072484E+02  0.3884592E-09  0.3884592E-09  0.3884592E-09  0.5000000E-15
   1.0000000000000000E-004
  CAR 
 unknown system                          
      8      4     16

  0.3742002E-15  0.3742002E-15  0.3742002E-15  0.3703704E-01
    1       -6.112411   1.000000
    2        5.558392   0.996634
    3        5.558392   0.996634
    4        5.558392   0.996634
    5        8.138087   0.000000
    6        8.138087   0.000000
    7        8.138087   0.000000
    8        8.645888   0.000000
    9       13.263512   0.000000
   10       13.263512   0.000000
   11       13.390920   0.000000
   12       16.681343   0.000000
   13       16.681343   0.000000
   14       16.681343   0.000000
   15       20.780869   0.000000
   16       28.250244   0.000000

  0.3333333E+00  0.3608225E-15  0.3608225E-15  0.2962963E+00
    1       -4.778352   1.000000
    2        0.362744   1.000000
    3        4.595942   1.000000
    4        4.595942   1.000000
    5        7.256073   0.000000
    6        9.075996   0.000000
    7        9.075996   0.000000
    8       13.297817   0.000000
    9       13.487902   0.000000
   10       13.487902   0.000000
   11       14.467415   0.000000
   12       18.889473   0.000000
   13       19.933904   0.000000
   14       19.933904   0.000000
   15       21.966073   0.000000
   16       22.951103   0.000000

  0.3333333E+00  0.3333333E+00  0.3742002E-15  0.2222222E+00
    1       -4.264322   1.000000
    2        0.629030   1.000000
    3        3.235438   1.000000
    4        3.235438   1.000000
    5        6.356299   0.001683
    6        7.610783   0.000000
    7       12.684314   0.000000
    8       12.684314   0.000000
    9       15.053516   0.000000
   10       15.359863   0.000000
   11       18.388128   0.000000
   12       18.826358   0.000000
   13       18.826358   0.000000
   14       20.514968   0.000000
   15       21.526857   0.000000
   16       21.679244   0.000000

 -0.3333333E+00  0.3333333E+00  0.3885781E-15  0.4444444E+00
    1       -2.955068   1.000000
    2       -1.071175   1.000000
    3        1.324089   1.000000
    4        3.528376   1.000000
    5        7.177149   0.000000
    6       11.310997   0.000000
    7       11.949522   0.000000
    8       12.476777   0.000000
    9       12.806567   0.000000
   10       13.177634   0.000000
   11       19.732513   0.000000
   12       20.266809   0.000000
   13       20.857717   0.000000
   14       21.040108   0.000000
   15       21.864872   0.000000
   16       22.751048   0.000000
