       N       E                     dE             d eps       ncg     rms          rms(c)
DAV:   1     0.400892940641E+01    0.40089E+01   -0.33045E+03   128   0.391E+02
DAV:   2    -0.777876588219E+01   -0.11788E+02   -0.11039E+02   176   0.392E+01
DAV:   3    -0.787309991415E+01   -0.94334E-01   -0.94334E-01   160   0.459E+00
DAV:   4    -0.787334369815E+01   -0.24378E-03   -0.24378E-03   208   0.258E-01
DAV:   5    -0.787334374299E+01   -0.44838E-07   -0.44982E-07   160   0.340E-03    0.393E+00
DAV:   6    -0.779242794478E+01    0.80916E-01   -0.10788E-01   208   0.967E-01    0.242E+00
DAV:   7    -0.777045102938E+01    0.21977E-01   -0.25649E-01   176   0.147E+00    0.210E-01
DAV:   8    -0.775257267142E+01    0.17878E-01   -0.59454E-03   128   0.274E-01    0.113E-01
DAV:   9    -0.775313963717E+01   -0.56697E-03   -0.74432E-04   160   0.101E-01    0.563E-02
DAV:  10    -0.775338546891E+01   -0.24583E-03   -0.24722E-05   208   0.221E-02    0.414E-03
DAV:  11    -0.775312327678E+01    0.26219E-03   -0.12525E-06   224   0.381E-03    0.125E-03
DAV:  12    -0.775311621375E+01    0.70630E-05   -0.45713E-08   160   0.109E-03    0.352E-04
DAV:  13    -0.775310213505E+01    0.14079E-04   -0.51785E-09   160   0.263E-04    0.201E-04
DAV:  14    -0.775310592783E+01   -0.37928E-05   -0.31103E-10   128   0.858E-05    0.414E-05
DAV:  15    -0.775310606842E+01   -0.14059E-06   -0.18405E-11   112   0.187E-05    0.947E-06
DAV:  16    -0.775310610694E+01   -0.38520E-07   -0.22369E-12    64   0.612E-06
   1 F= -.77531061E+01 E0= -.77527764E+01  d E =-.775311E+01
