       N       E                     dE             d eps       ncg     rms          rms(c)
DAV:   1     0.786378543842E+01    0.78638E+01   -0.32995E+03  2320   0.834E+02
DAV:   2    -0.819950630448E+01   -0.16063E+02   -0.15476E+02  3448   0.787E+01
DAV:   3    -0.841377632692E+01   -0.21427E+00   -0.21427E+00  3120   0.117E+01
DAV:   4    -0.841477862371E+01   -0.10023E-02   -0.10023E-02  3600   0.840E-01
DAV:   5    -0.841477998368E+01   -0.13600E-05   -0.13596E-05  3176   0.255E-02    0.374E+00
DAV:   6    -0.836149914134E+01    0.53281E-01   -0.88834E-02  2728   0.176E+00    0.229E+00
DAV:   7    -0.835619330984E+01    0.53058E-02   -0.20257E-01  3048   0.263E+00    0.186E-01
DAV:   8    -0.833943313505E+01    0.16760E-01   -0.61636E-03  2824   0.543E-01    0.985E-02
DAV:   9    -0.834109522420E+01   -0.16621E-02   -0.59413E-04  3320   0.163E-01    0.733E-02
DAV:  10    -0.834039676095E+01    0.69846E-03   -0.39706E-05  3008   0.538E-02    0.306E-02
DAV:  11    -0.834036505200E+01    0.31709E-04   -0.86393E-07  3352   0.853E-03    0.315E-03
DAV:  12    -0.834036408290E+01    0.96910E-06   -0.69581E-08  2944   0.262E-03    0.100E-03
DAV:  13    -0.834036061403E+01    0.34689E-05   -0.24630E-09  1840   0.466E-04    0.487E-05
DAV:  14    -0.834036041491E+01    0.19912E-06   -0.23915E-10  1496   0.166E-04    0.251E-05
DAV:  15    -0.834036015719E+01    0.25772E-06   -0.23804E-11  1416   0.433E-05    0.925E-06
DAV:  16    -0.834036020035E+01   -0.43160E-07   -0.56204E-12  1376   0.196E-05
   1 F= -.83403602E+01 E0= -.83403446E+01  d E =-.834036E+01
