    2    2    1    1
  0.2044415E+02  0.3866974E-09  0.3866975E-09  0.3866975E-09  0.5000000E-15
  1.000000000000000E-004
  CAR 
 unknown system                          
    8    4    8
 
  0.0000000E+00  0.0000000E+00  0.0000000E+00  0.3703704E-01
   1       -6.067569
   2        5.693790
   3        5.693791
   4        5.693792
   5        8.280294
   6        8.280297
   7        8.280299
   8        8.938157
 
  0.3333333E+00  0.4163336E-16  0.0000000E+00  0.2962963E+00
   1       -4.716400
   2        0.460060
   3        4.720976
   4        4.720978
   5        7.440996
   6        9.215711
   7        9.215714
   8       13.497442
 
  0.3333333E+00  0.3333333E+00  0.0000000E+00  0.2222222E+00
   1       -4.197397
   2        0.754094
   3        3.340583
   4        3.340583
   5        6.474831
   6        7.730538
   7       12.879832
   8       12.879832
 
 -0.3333333E+00  0.3333333E+00  0.0000000E+00  0.4444444E+00
   1       -2.867179
   2       -0.969104
   3        1.397462
   4        3.638333
   5        7.302588
   6       11.462196
   7       12.132425
   8       12.684149
