LAMMPS data file via write_data, version 13 Jan 2016, timestep = 1018

720 atoms
1 atom types

1.2793540241621090e-01 2.0122064435583763e+01 xlo xhi
1.3812498064388978e-01 2.5476323861356111e+01 ylo yhi
-3.7200705738791806e-02 4.9985375946738728e+01 zlo zhi
0.0000000000000000e+00 0.0000000000000000e+00 0.0000000000000000e+00 xy xz yz

Masses

1 26.982

Atoms # charge

1 1 0.0000000000000000e+00 2.0122064435484752e+01 3.2929462260675262e+00 1.5998622518040174e+01 -1 0 0
2 1 0.0000000000000000e+00 2.0122064435484745e+01 1.5962045666423649e+01 1.5998622518040159e+01 -1 0 0
3 1 0.0000000000000000e+00 4.1267612089507262e+00 3.2929462260675129e+00 1.5998622518040156e+01 0 0 0
4 1 0.0000000000000000e+00 4.1267612089507173e+00 1.5962045666423629e+01 1.5998622518040170e+01 0 0 0
5 1 0.0000000000000000e+00 8.1255870155842249e+00 3.2929462260675111e+00 1.5998622518040138e+01 0 0 0
6 1 0.0000000000000000e+00 8.1255870155842391e+00 1.5962045666423649e+01 1.5998622518040124e+01 0 0 0
7 1 0.0000000000000000e+00 1.2124412822217744e+01 3.2929462260675280e+00 1.5998622518040134e+01 0 0 0
8 1 0.0000000000000000e+00 1.2124412822217737e+01 1.5962045666423640e+01 1.5998622518040145e+01 0 0 0
9 1 0.0000000000000000e+00 1.6123238628851261e+01 3.2929462260675395e+00 1.5998622518040156e+01 0 0 0
10 1 0.0000000000000000e+00 1.6123238628851276e+01 1.5962045666423640e+01 1.5998622518040170e+01 0 0 0
11 1 0.0000000000000000e+00 2.0122064435484884e+01 2.4821772436193111e+01 1.4721291907569080e+01 -1 0 0
12 1 0.0000000000000000e+00 2.0122064435484887e+01 1.2152672995837015e+01 1.4721291907569089e+01 -1 0 0
13 1 0.0000000000000000e+00 4.1267612089508319e+00 2.4821772436193111e+01 1.4721291907569064e+01 0 0 0
14 1 0.0000000000000000e+00 4.1267612089508257e+00 1.2152672995837008e+01 1.4721291907569070e+01 0 0 0
15 1 0.0000000000000000e+00 8.1255870155843528e+00 2.4821772436193108e+01 1.4721291907569055e+01 0 0 0
16 1 0.0000000000000000e+00 8.1255870155843422e+00 1.2152672995837008e+01 1.4721291907569055e+01 0 0 0
17 1 0.0000000000000000e+00 1.2124412822217868e+01 2.4821772436193111e+01 1.4721291907569055e+01 0 0 0
18 1 0.0000000000000000e+00 1.2124412822217877e+01 1.2152672995837008e+01 1.4721291907569064e+01 0 0 0
19 1 0.0000000000000000e+00 1.6123238628851386e+01 2.4821772436193122e+01 1.4721291907569075e+01 0 0 0
20 1 0.0000000000000000e+00 1.6123238628851364e+01 1.2152672995837015e+01 1.4721291907569075e+01 0 0 0
21 1 0.0000000000000000e+00 2.0122064435484894e+01 2.0941887123448662e+01 1.3647718542156710e+01 -1 0 0
22 1 0.0000000000000000e+00 2.0122064435484884e+01 8.2727876830925542e+00 1.3647718542156721e+01 -1 0 0
23 1 0.0000000000000000e+00 4.1267612089508452e+00 2.0941887123448662e+01 1.3647718542156710e+01 0 0 0
24 1 0.0000000000000000e+00 4.1267612089508399e+00 8.2727876830925613e+00 1.3647718542156705e+01 0 0 0
25 1 0.0000000000000000e+00 8.1255870155843581e+00 2.0941887123448677e+01 1.3647718542156685e+01 0 0 0
26 1 0.0000000000000000e+00 8.1255870155843546e+00 8.2727876830925595e+00 1.3647718542156690e+01 0 0 0
27 1 0.0000000000000000e+00 1.2124412822217883e+01 2.0941887123448673e+01 1.3647718542156694e+01 0 0 0
28 1 0.0000000000000000e+00 1.2124412822217874e+01 8.2727876830925666e+00 1.3647718542156690e+01 0 0 0
29 1 0.0000000000000000e+00 1.6123238628851396e+01 2.0941887123448662e+01 1.3647718542156705e+01 0 0 0
30 1 0.0000000000000000e+00 1.6123238628851404e+01 8.2727876830925613e+00 1.3647718542156715e+01 0 0 0
31 1 0.0000000000000000e+00 2.1273483056343689e+00 1.4101513610119065e+00 1.5306151175473918e+01 0 0 0
32 1 0.0000000000000000e+00 2.1273483056343720e+00 1.4079250801367994e+01 1.5306151175473921e+01 0 0 0
33 1 0.0000000000000000e+00 6.1261741122678783e+00 1.4101513610119163e+00 1.5306151175473907e+01 0 0 0
34 1 0.0000000000000000e+00 6.1261741122678810e+00 1.4079250801368003e+01 1.5306151175473902e+01 0 0 0
35 1 0.0000000000000000e+00 1.0124999918901397e+01 1.4101513610119072e+00 1.5306151175473893e+01 0 0 0
36 1 0.0000000000000000e+00 1.0124999918901400e+01 1.4079250801368017e+01 1.5306151175473893e+01 0 0 0
37 1 0.0000000000000000e+00 1.4123825725534910e+01 1.4101513610118996e+00 1.5306151175473907e+01 0 0 0
38 1 0.0000000000000000e+00 1.4123825725534912e+01 1.4079250801367992e+01 1.5306151175473907e+01 0 0 0
39 1 0.0000000000000000e+00 1.8122651532168423e+01 1.4101513610119005e+00 1.5306151175473927e+01 0 0 0
40 1 0.0000000000000000e+00 1.8122651532168419e+01 1.4079250801368017e+01 1.5306151175473937e+01 0 0 0
41 1 0.0000000000000000e+00 2.1273483056343769e+00 2.2868649283574687e+01 1.4183991616746859e+01 0 0 0
42 1 0.0000000000000000e+00 2.1273483056343858e+00 1.0199549843218584e+01 1.4183991616746853e+01 0 0 0
43 1 0.0000000000000000e+00 6.1261741122678899e+00 2.2868649283574687e+01 1.4183991616746834e+01 0 0 0
44 1 0.0000000000000000e+00 6.1261741122678925e+00 1.0199549843218584e+01 1.4183991616746834e+01 0 0 0
45 1 0.0000000000000000e+00 1.0124999918901411e+01 2.2868649283574701e+01 1.4183991616746834e+01 0 0 0
46 1 0.0000000000000000e+00 1.0124999918901425e+01 1.0199549843218579e+01 1.4183991616746823e+01 0 0 0
47 1 0.0000000000000000e+00 1.4123825725534930e+01 2.2868649283574698e+01 1.4183991616746834e+01 0 0 0
48 1 0.0000000000000000e+00 1.4123825725534937e+01 1.0199549843218596e+01 1.4183991616746844e+01 0 0 0
49 1 0.0000000000000000e+00 1.8122651532168433e+01 2.2868649283574701e+01 1.4183991616746844e+01 0 0 0
50 1 0.0000000000000000e+00 1.8122651532168437e+01 1.0199549843218559e+01 1.4183991616746850e+01 0 0 0
51 1 0.0000000000000000e+00 2.1273483056345310e+00 5.2237840202279582e+00 1.6639569730370273e+01 0 0 0
52 1 0.0000000000000000e+00 2.1273483056345377e+00 1.7892883460584045e+01 1.6639569730370276e+01 0 0 0
53 1 0.0000000000000000e+00 6.1261741122680418e+00 5.2237840202279457e+00 1.6639569730370237e+01 0 0 0
54 1 0.0000000000000000e+00 6.1261741122680364e+00 1.7892883460584052e+01 1.6639569730370233e+01 0 0 0
55 1 0.0000000000000000e+00 1.0124999918901572e+01 5.2237840202279493e+00 1.6639569730370226e+01 0 0 0
56 1 0.0000000000000000e+00 1.0124999918901551e+01 1.7892883460584045e+01 1.6639569730370223e+01 0 0 0
57 1 0.0000000000000000e+00 1.4123825725535079e+01 5.2237840202279582e+00 1.6639569730370233e+01 0 0 0
58 1 0.0000000000000000e+00 1.4123825725535061e+01 1.7892883460584052e+01 1.6639569730370251e+01 0 0 0
59 1 0.0000000000000000e+00 1.8122651532168575e+01 5.2237840202279049e+00 1.6639569730370269e+01 0 0 0
60 1 0.0000000000000000e+00 1.8122651532168582e+01 1.7892883460584031e+01 1.6639569730370226e+01 0 0 0
61 1 0.0000000000000000e+00 2.1273483056343290e+00 3.9696429908646671e+00 1.4217203596252565e+01 0 0 0
62 1 0.0000000000000000e+00 2.1273483056343263e+00 1.6638742431220781e+01 1.4217203596252560e+01 0 0 0
63 1 0.0000000000000000e+00 6.1261741122678410e+00 3.9696429908646769e+00 1.4217203596252554e+01 0 0 0
64 1 0.0000000000000000e+00 6.1261741122678499e+00 1.6638742431220788e+01 1.4217203596252556e+01 0 0 0
65 1 0.0000000000000000e+00 1.0124999918901370e+01 3.9696429908646804e+00 1.4217203596252551e+01 0 0 0
66 1 0.0000000000000000e+00 1.0124999918901363e+01 1.6638742431220795e+01 1.4217203596252560e+01 0 0 0
67 1 0.0000000000000000e+00 1.4123825725534887e+01 3.9696429908646769e+00 1.4217203596252570e+01 0 0 0
68 1 0.0000000000000000e+00 1.4123825725534884e+01 1.6638742431220788e+01 1.4217203596252554e+01 0 0 0
69 1 0.0000000000000000e+00 1.8122651532168387e+01 3.9696429908646671e+00 1.4217203596252585e+01 0 0 0
70 1 0.0000000000000000e+00 1.8122651532168391e+01 1.6638742431220784e+01 1.4217203596252595e+01 0 0 0
71 1 0.0000000000000000e+00 2.1273483056344906e+00 2.4218619737455171e+01 1.6591069903016606e+01 0 0 0
72 1 0.0000000000000000e+00 2.1273483056344995e+00 1.1549520297099091e+01 1.6591069903016606e+01 0 0 0
73 1 0.0000000000000000e+00 6.1261741122680098e+00 2.4218619737455182e+01 1.6591069903016606e+01 0 0 0
74 1 0.0000000000000000e+00 6.1261741122680329e+00 1.1549520297099082e+01 1.6591069903016596e+01 0 0 0
75 1 0.0000000000000000e+00 1.0124999918901523e+01 2.4218619737455185e+01 1.6591069903016592e+01 0 0 0
76 1 0.0000000000000000e+00 1.0124999918901526e+01 1.1549520297099084e+01 1.6591069903016610e+01 0 0 0
77 1 0.0000000000000000e+00 1.4123825725535040e+01 2.4218619737455196e+01 1.6591069903016624e+01 0 0 0
78 1 0.0000000000000000e+00 1.4123825725535035e+01 1.1549520297099097e+01 1.6591069903016592e+01 0 0 0
79 1 0.0000000000000000e+00 1.8122651532168540e+01 2.4218619737455199e+01 1.6591069903016631e+01 0 0 0
80 1 0.0000000000000000e+00 1.8122651532168558e+01 1.1549520297099091e+01 1.6591069903016649e+01 0 0 0
81 1 0.0000000000000000e+00 2.1273483056345528e+00 2.0370853640770605e+01 1.5407932215565296e+01 0 0 0
82 1 0.0000000000000000e+00 2.1273483056345506e+00 7.7017542004144826e+00 1.5407932215565310e+01 0 0 0
83 1 0.0000000000000000e+00 6.1261741122680409e+00 2.0370853640770591e+01 1.5407932215565271e+01 0 0 0
84 1 0.0000000000000000e+00 6.1261741122680737e+00 7.7017542004144754e+00 1.5407932215565280e+01 0 0 0
85 1 0.0000000000000000e+00 1.0124999918901594e+01 2.0370853640770594e+01 1.5407932215565275e+01 0 0 0
86 1 0.0000000000000000e+00 1.0124999918901594e+01 7.7017542004144754e+00 1.5407932215565271e+01 0 0 0
87 1 0.0000000000000000e+00 1.4123825725535101e+01 2.0370853640770591e+01 1.5407932215565300e+01 0 0 0
88 1 0.0000000000000000e+00 1.4123825725535117e+01 7.7017542004144710e+00 1.5407932215565310e+01 0 0 0
89 1 0.0000000000000000e+00 1.8122651532168593e+01 2.0370853640770580e+01 1.5407932215565310e+01 0 0 0
90 1 0.0000000000000000e+00 1.8122651532168607e+01 7.7017542004145092e+00 1.5407932215565280e+01 0 0 0
91 1 0.0000000000000000e+00 2.0122064435484777e+01 7.8046671154457603e-01 1.7188575899680746e+01 -1 0 0
92 1 0.0000000000000000e+00 2.0122064435484774e+01 1.3449566151900655e+01 1.7188575899680735e+01 -1 0 0
93 1 0.0000000000000000e+00 4.1267612089507466e+00 7.8046671154458935e-01 1.7188575899680732e+01 0 0 0
94 1 0.0000000000000000e+00 4.1267612089507395e+00 1.3449566151900694e+01 1.7188575899680732e+01 0 0 0
95 1 0.0000000000000000e+00 8.1255870155842480e+00 7.8046671154458735e-01 1.7188575899680718e+01 0 0 0
96 1 0.0000000000000000e+00 8.1255870155842462e+00 1.3449566151900664e+01 1.7188575899680711e+01 0 0 0
97 1 0.0000000000000000e+00 1.2124412822217769e+01 7.8046671154457425e-01 1.7188575899680725e+01 0 0 0
98 1 0.0000000000000000e+00 1.2124412822217753e+01 1.3449566151900678e+01 1.7188575899680718e+01 0 0 0
99 1 0.0000000000000000e+00 1.6123238628851269e+01 7.8046671154455938e-01 1.7188575899680743e+01 0 0 0
100 1 0.0000000000000000e+00 1.6123238628851276e+01 1.3449566151900678e+01 1.7188575899680732e+01 0 0 0
101 1 0.0000000000000000e+00 2.0122064435484724e+01 2.2322446139275606e+01 1.6017275712251504e+01 -1 0 0
102 1 0.0000000000000000e+00 2.0122064435484695e+01 9.6533466989194849e+00 1.6017275712251475e+01 -1 0 0
103 1 0.0000000000000000e+00 4.1267612089506587e+00 2.2322446139275606e+01 1.6017275712251468e+01 0 0 0
104 1 0.0000000000000000e+00 4.1267612089506471e+00 9.6533466989194920e+00 1.6017275712251458e+01 0 0 0
105 1 0.0000000000000000e+00 8.1255870155841752e+00 2.2322446139275620e+01 1.6017275712251454e+01 0 0 0
106 1 0.0000000000000000e+00 8.1255870155841539e+00 9.6533466989195027e+00 1.6017275712251475e+01 0 0 0
107 1 0.0000000000000000e+00 1.2124412822217673e+01 2.2322446139275602e+01 1.6017275712251465e+01 0 0 0
108 1 0.0000000000000000e+00 1.2124412822217669e+01 9.6533466989194974e+00 1.6017275712251465e+01 0 0 0
109 1 0.0000000000000000e+00 1.6123238628851183e+01 2.2322446139275591e+01 1.6017275712251493e+01 0 0 0
110 1 0.0000000000000000e+00 1.6123238628851187e+01 9.6533466989194778e+00 1.6017275712251468e+01 0 0 0
111 1 0.0000000000000000e+00 2.0122064435484827e+01 5.8161840826667888e+00 1.4777084630120093e+01 -1 0 0
112 1 0.0000000000000000e+00 2.0122064435484816e+01 1.8485283523022886e+01 1.4777084630120099e+01 -1 0 0
113 1 0.0000000000000000e+00 4.1267612089507795e+00 5.8161840826667923e+00 1.4777084630120083e+01 0 0 0
114 1 0.0000000000000000e+00 4.1267612089507839e+00 1.8485283523022915e+01 1.4777084630120083e+01 0 0 0
115 1 0.0000000000000000e+00 8.1255870155842906e+00 5.8161840826668012e+00 1.4777084630120063e+01 0 0 0
116 1 0.0000000000000000e+00 8.1255870155842960e+00 1.8485283523022876e+01 1.4777084630120068e+01 0 0 0
117 1 0.0000000000000000e+00 1.2124412822217812e+01 5.8161840826667852e+00 1.4777084630120079e+01 0 0 0
118 1 0.0000000000000000e+00 1.2124412822217815e+01 1.8485283523022900e+01 1.4777084630120077e+01 0 0 0
119 1 0.0000000000000000e+00 1.6123238628851315e+01 5.8161840826667826e+00 1.4777084630120093e+01 0 0 0
120 1 0.0000000000000000e+00 1.6123238628851336e+01 1.8485283523022900e+01 1.4777084630120093e+01 0 0 0
121 1 0.0000000000000000e+00 2.0122064435484830e+01 2.0407277344914290e+00 1.9770902693203706e+01 -1 0 0
122 1 0.0000000000000000e+00 2.0122064435484837e+01 1.4709827174847554e+01 1.9770902693203720e+01 -1 0 0
123 1 0.0000000000000000e+00 4.1267612089507795e+00 2.0407277344914307e+00 1.9770902693203691e+01 0 0 0
124 1 0.0000000000000000e+00 4.1267612089507901e+00 1.4709827174847543e+01 1.9770902693203684e+01 0 0 0
125 1 0.0000000000000000e+00 8.1255870155843013e+00 2.0407277344914485e+00 1.9770902693203677e+01 0 0 0
126 1 0.0000000000000000e+00 8.1255870155842995e+00 1.4709827174847558e+01 1.9770902693203691e+01 0 0 0
127 1 0.0000000000000000e+00 1.2124412822217799e+01 2.0407277344914516e+00 1.9770902693203681e+01 0 0 0
128 1 0.0000000000000000e+00 1.2124412822217803e+01 1.4709827174847563e+01 1.9770902693203684e+01 0 0 0
129 1 0.0000000000000000e+00 1.6123238628851304e+01 2.0407277344914467e+00 1.9770902693203706e+01 0 0 0
130 1 0.0000000000000000e+00 1.6123238628851301e+01 1.4709827174847563e+01 1.9770902693203706e+01 0 0 0
131 1 0.0000000000000000e+00 2.0122064435484777e+01 2.3600686427906421e+01 1.8486050018837755e+01 -1 0 0
132 1 0.0000000000000000e+00 2.0122064435484752e+01 1.0931586987550332e+01 1.8486050018837769e+01 -1 0 0
133 1 0.0000000000000000e+00 4.1267612089507484e+00 2.3600686427906432e+01 1.8486050018837755e+01 0 0 0
134 1 0.0000000000000000e+00 4.1267612089507351e+00 1.0931586987550325e+01 1.8486050018837769e+01 0 0 0
135 1 0.0000000000000000e+00 8.1255870155842373e+00 2.3600686427906435e+01 1.8486050018837734e+01 0 0 0
136 1 0.0000000000000000e+00 8.1255870155842427e+00 1.0931586987550331e+01 1.8486050018837723e+01 0 0 0
137 1 0.0000000000000000e+00 1.2124412822217751e+01 2.3600686427906446e+01 1.8486050018837744e+01 0 0 0
138 1 0.0000000000000000e+00 1.2124412822217733e+01 1.0931586987550338e+01 1.8486050018837744e+01 0 0 0
139 1 0.0000000000000000e+00 1.6123238628851258e+01 2.3600686427906435e+01 1.8486050018837744e+01 0 0 0
140 1 0.0000000000000000e+00 1.6123238628851272e+01 1.0931586987550332e+01 1.8486050018837769e+01 0 0 0
141 1 0.0000000000000000e+00 2.0122064435484688e+01 1.9785577282544256e+01 1.7230616347429141e+01 -1 0 0
142 1 0.0000000000000000e+00 2.0122064435484706e+01 7.1164778421881447e+00 1.7230616347429141e+01 -1 0 0
143 1 0.0000000000000000e+00 4.1267612089506454e+00 1.9785577282544246e+01 1.7230616347429116e+01 0 0 0
144 1 0.0000000000000000e+00 4.1267612089506276e+00 7.1164778421881376e+00 1.7230616347429123e+01 0 0 0
145 1 0.0000000000000000e+00 8.1255870155841627e+00 1.9785577282544253e+01 1.7230616347429123e+01 0 0 0
146 1 0.0000000000000000e+00 8.1255870155841361e+00 7.1164778421881500e+00 1.7230616347429105e+01 0 0 0
147 1 0.0000000000000000e+00 1.2124412822217661e+01 1.9785577282544256e+01 1.7230616347429105e+01 0 0 0
148 1 0.0000000000000000e+00 1.2124412822217657e+01 7.1164778421881447e+00 1.7230616347429113e+01 0 0 0
149 1 0.0000000000000000e+00 1.6123238628851158e+01 1.9785577282544271e+01 1.7230616347429123e+01 0 0 0
150 1 0.0000000000000000e+00 1.6123238628851137e+01 7.1164778421881518e+00 1.7230616347429127e+01 0 0 0
151 1 0.0000000000000000e+00 2.1273483056344435e+00 1.5361298676560284e-01 1.9115724583904928e+01 0 0 0
152 1 0.0000000000000000e+00 2.1273483056344507e+00 1.2822712427121701e+01 1.9115724583904921e+01 0 0 0
153 1 0.0000000000000000e+00 6.1261741122679503e+00 1.5361298676558899e-01 1.9115724583904903e+01 0 0 0
154 1 0.0000000000000000e+00 6.1261741122679494e+00 1.2822712427121701e+01 1.9115724583904907e+01 0 0 0
155 1 0.0000000000000000e+00 1.0124999918901462e+01 1.5361298676559360e-01 1.9115724583904903e+01 0 0 0
156 1 0.0000000000000000e+00 1.0124999918901466e+01 1.2822712427121695e+01 1.9115724583904893e+01 0 0 0
157 1 0.0000000000000000e+00 1.4123825725534969e+01 1.5361298676559126e-01 1.9115724583904893e+01 0 0 0
158 1 0.0000000000000000e+00 1.4123825725534973e+01 1.2822712427121699e+01 1.9115724583904917e+01 0 0 0
159 1 0.0000000000000000e+00 1.8122651532168483e+01 1.5361298676558990e-01 1.9115724583904917e+01 0 0 0
160 1 0.0000000000000000e+00 1.8122651532168479e+01 1.2822712427121671e+01 1.9115724583904907e+01 0 0 0
161 1 0.0000000000000000e+00 2.1273483056345186e+00 2.1690083577623462e+01 1.7842566936644523e+01 0 0 0
162 1 0.0000000000000000e+00 2.1273483056345364e+00 9.0209841372673321e+00 1.7842566936644534e+01 0 0 0
163 1 0.0000000000000000e+00 6.1261741122680418e+00 2.1690083577623472e+01 1.7842566936644523e+01 0 0 0
164 1 0.0000000000000000e+00 6.1261741122680631e+00 9.0209841372673480e+00 1.7842566936644513e+01 0 0 0
165 1 0.0000000000000000e+00 1.0124999918901553e+01 2.1690083577623451e+01 1.7842566936644502e+01 0 0 0
166 1 0.0000000000000000e+00 1.0124999918901558e+01 9.0209841372673552e+00 1.7842566936644509e+01 0 0 0
167 1 0.0000000000000000e+00 1.4123825725535074e+01 2.1690083577623458e+01 1.7842566936644509e+01 0 0 0
168 1 0.0000000000000000e+00 1.4123825725535076e+01 9.0209841372673250e+00 1.7842566936644523e+01 0 0 0
169 1 0.0000000000000000e+00 1.8122651532168572e+01 2.1690083577623451e+01 1.7842566936644541e+01 0 0 0
170 1 0.0000000000000000e+00 1.8122651532168582e+01 9.0209841372673658e+00 1.7842566936644548e+01 0 0 0
171 1 0.0000000000000000e+00 2.1273483056344205e+00 3.9365301206814562e+00 2.0429691040392974e+01 0 0 0
172 1 0.0000000000000000e+00 2.1273483056344005e+00 1.6605629561037563e+01 2.0429691040392960e+01 0 0 0
173 1 0.0000000000000000e+00 6.1261741122679298e+00 3.9365301206814696e+00 2.0429691040392953e+01 0 0 0
174 1 0.0000000000000000e+00 6.1261741122679307e+00 1.6605629561037563e+01 2.0429691040392953e+01 0 0 0
175 1 0.0000000000000000e+00 1.0124999918901430e+01 3.9365301206814589e+00 2.0429691040392935e+01 0 0 0
176 1 0.0000000000000000e+00 1.0124999918901425e+01 1.6605629561037553e+01 2.0429691040392949e+01 0 0 0
177 1 0.0000000000000000e+00 1.4123825725534939e+01 3.9365301206814465e+00 2.0429691040392960e+01 0 0 0
178 1 0.0000000000000000e+00 1.4123825725534937e+01 1.6605629561037553e+01 2.0429691040392946e+01 0 0 0
179 1 0.0000000000000000e+00 1.8122651532168447e+01 3.9365301206814696e+00 2.0429691040392960e+01 0 0 0
180 1 0.0000000000000000e+00 1.8122651532168447e+01 1.6605629561037574e+01 2.0429691040392974e+01 0 0 0
181 1 0.0000000000000000e+00 2.1273483056344946e+00 2.6727364813729730e+00 1.7835709418917876e+01 0 0 0
182 1 0.0000000000000000e+00 2.1273483056345102e+00 1.5341835921729100e+01 1.7835709418917876e+01 0 0 0
183 1 0.0000000000000000e+00 6.1261741122680053e+00 2.6727364813729730e+00 1.7835709418917840e+01 0 0 0
184 1 0.0000000000000000e+00 6.1261741122679902e+00 1.5341835921729091e+01 1.7835709418917855e+01 0 0 0
185 1 0.0000000000000000e+00 1.0124999918901510e+01 2.6727364813729810e+00 1.7835709418917851e+01 0 0 0
186 1 0.0000000000000000e+00 1.0124999918901523e+01 1.5341835921729094e+01 1.7835709418917851e+01 0 0 0
187 1 0.0000000000000000e+00 1.4123825725535017e+01 2.6727364813729659e+00 1.7835709418917876e+01 0 0 0
188 1 0.0000000000000000e+00 1.4123825725535019e+01 1.5341835921729105e+01 1.7835709418917876e+01 0 0 0
189 1 0.0000000000000000e+00 1.8122651532168536e+01 2.6727364813729935e+00 1.7835709418917876e+01 0 0 0
190 1 0.0000000000000000e+00 1.8122651532168518e+01 1.5341835921729094e+01 1.7835709418917862e+01 0 0 0
191 1 0.0000000000000000e+00 2.1273483056344120e+00 2.2953594429246003e+01 2.0429499930133989e+01 0 0 0
192 1 0.0000000000000000e+00 2.1273483056344253e+00 1.0284494988889900e+01 2.0429499930133993e+01 0 0 0
193 1 0.0000000000000000e+00 6.1261741122679227e+00 2.2953594429246017e+01 2.0429499930133968e+01 0 0 0
194 1 0.0000000000000000e+00 6.1261741122679148e+00 1.0284494988889906e+01 2.0429499930133975e+01 0 0 0
195 1 0.0000000000000000e+00 1.0124999918901429e+01 2.2953594429246024e+01 2.0429499930133979e+01 0 0 0
196 1 0.0000000000000000e+00 1.0124999918901436e+01 1.0284494988889907e+01 2.0429499930133975e+01 0 0 0
197 1 0.0000000000000000e+00 1.4123825725534930e+01 2.2953594429246024e+01 2.0429499930133989e+01 0 0 0
198 1 0.0000000000000000e+00 1.4123825725534939e+01 1.0284494988889913e+01 2.0429499930133989e+01 0 0 0
199 1 0.0000000000000000e+00 1.8122651532168454e+01 2.2953594429246014e+01 2.0429499930133993e+01 0 0 0
200 1 0.0000000000000000e+00 1.8122651532168444e+01 1.0284494988889913e+01 2.0429499930133975e+01 0 0 0
201 1 0.0000000000000000e+00 2.1273483056344658e+00 1.9150816997446725e+01 1.9155609068540944e+01 0 0 0
202 1 0.0000000000000000e+00 2.1273483056344702e+00 6.4817175570906311e+00 1.9155609068540933e+01 0 0 0
203 1 0.0000000000000000e+00 6.1261741122679849e+00 1.9150816997446746e+01 1.9155609068540937e+01 0 0 0
204 1 0.0000000000000000e+00 6.1261741122679885e+00 6.4817175570906285e+00 1.9155609068540933e+01 0 0 0
205 1 0.0000000000000000e+00 1.0124999918901473e+01 1.9150816997446761e+01 1.9155609068540933e+01 0 0 0
206 1 0.0000000000000000e+00 1.0124999918901494e+01 6.4817175570906285e+00 1.9155609068540933e+01 0 0 0
207 1 0.0000000000000000e+00 1.4123825725534996e+01 1.9150816997446739e+01 1.9155609068540944e+01 0 0 0
208 1 0.0000000000000000e+00 1.4123825725535003e+01 6.4817175570906498e+00 1.9155609068540944e+01 0 0 0
209 1 0.0000000000000000e+00 1.8122651532168515e+01 1.9150816997446761e+01 1.9155609068540976e+01 0 0 0
210 1 0.0000000000000000e+00 1.8122651532168511e+01 6.4817175570906214e+00 1.9155609068540972e+01 0 0 0
211 1 0.0000000000000000e+00 2.0122064435484869e+01 2.4850698868628861e+01 2.1076144344266591e+01 -1 0 0
212 1 0.0000000000000000e+00 2.0122064435484869e+01 1.2181599428272760e+01 2.1076144344266595e+01 -1 0 0
213 1 0.0000000000000000e+00 4.1267612089508257e+00 2.4850698868628871e+01 2.1076144344266591e+01 0 0 0
214 1 0.0000000000000000e+00 4.1267612089508310e+00 1.2181599428272747e+01 2.1076144344266577e+01 0 0 0
215 1 0.0000000000000000e+00 8.1255870155843368e+00 2.4850698868628850e+01 2.1076144344266577e+01 0 0 0
216 1 0.0000000000000000e+00 8.1255870155843350e+00 1.2181599428272754e+01 2.1076144344266581e+01 0 0 0
217 1 0.0000000000000000e+00 1.2124412822217833e+01 2.4850698868628847e+01 2.1076144344266577e+01 0 0 0
218 1 0.0000000000000000e+00 1.2124412822217847e+01 1.2181599428272740e+01 2.1076144344266577e+01 0 0 0
219 1 0.0000000000000000e+00 1.6123238628851350e+01 2.4850698868628850e+01 2.1076144344266606e+01 0 0 0
220 1 0.0000000000000000e+00 1.6123238628851347e+01 1.2181599428272740e+01 2.1076144344266581e+01 0 0 0
221 1 0.0000000000000000e+00 2.0122064435484806e+01 2.1054316561010666e+01 1.9791031101571878e+01 -1 0 0
222 1 0.0000000000000000e+00 2.0122064435484813e+01 8.3852171206545556e+00 1.9791031101571878e+01 -1 0 0
223 1 0.0000000000000000e+00 4.1267612089507848e+00 2.1054316561010673e+01 1.9791031101571878e+01 0 0 0
224 1 0.0000000000000000e+00 4.1267612089507715e+00 8.3852171206545698e+00 1.9791031101571868e+01 0 0 0
225 1 0.0000000000000000e+00 8.1255870155842835e+00 2.1054316561010651e+01 1.9791031101571853e+01 0 0 0
226 1 0.0000000000000000e+00 8.1255870155842782e+00 8.3852171206545574e+00 1.9791031101571853e+01 0 0 0
227 1 0.0000000000000000e+00 1.2124412822217785e+01 2.1054316561010662e+01 1.9791031101571864e+01 0 0 0
228 1 0.0000000000000000e+00 1.2124412822217785e+01 8.3852171206545538e+00 1.9791031101571857e+01 0 0 0
229 1 0.0000000000000000e+00 1.6123238628851308e+01 2.1054316561010651e+01 1.9791031101571868e+01 0 0 0
230 1 0.0000000000000000e+00 1.6123238628851290e+01 8.3852171206545556e+00 1.9791031101571868e+01 0 0 0
231 1 0.0000000000000000e+00 2.0122064435484759e+01 4.5717033040275856e+00 1.8484641346463789e+01 -1 0 0
232 1 0.0000000000000000e+00 2.0122064435484777e+01 1.7240802744383689e+01 1.8484641346463803e+01 -1 0 0
233 1 0.0000000000000000e+00 4.1267612089507155e+00 4.5717033040275865e+00 1.8484641346463786e+01 0 0 0
234 1 0.0000000000000000e+00 4.1267612089507129e+00 1.7240802744383686e+01 1.8484641346463775e+01 0 0 0
235 1 0.0000000000000000e+00 8.1255870155842285e+00 4.5717033040275794e+00 1.8484641346463778e+01 0 0 0
236 1 0.0000000000000000e+00 8.1255870155842338e+00 1.7240802744383696e+01 1.8484641346463775e+01 0 0 0
237 1 0.0000000000000000e+00 1.2124412822217725e+01 4.5717033040275759e+00 1.8484641346463778e+01 0 0 0
238 1 0.0000000000000000e+00 1.2124412822217749e+01 1.7240802744383672e+01 1.8484641346463775e+01 0 0 0
239 1 0.0000000000000000e+00 1.6123238628851258e+01 4.5717033040275750e+00 1.8484641346463793e+01 0 0 0
240 1 0.0000000000000000e+00 1.6123238628851237e+01 1.7240802744383661e+01 1.8484641346463793e+01 0 0 0
241 1 0.0000000000000000e+00 2.0122064435484905e+01 7.7249876018537988e-01 2.3676207693951206e+01 -1 0 0
242 1 0.0000000000000000e+00 2.0122064435484901e+01 1.3441598200541474e+01 2.3676207693951206e+01 -1 0 0
243 1 0.0000000000000000e+00 4.1267612089508718e+00 7.7249876018537722e-01 2.3676207693951206e+01 0 0 0
244 1 0.0000000000000000e+00 4.1267612089508816e+00 1.3441598200541488e+01 2.3676207693951209e+01 0 0 0
245 1 0.0000000000000000e+00 8.1255870155843706e+00 7.7249876018538877e-01 2.3676207693951216e+01 0 0 0
246 1 0.0000000000000000e+00 8.1255870155843759e+00 1.3441598200541488e+01 2.3676207693951206e+01 0 0 0
247 1 0.0000000000000000e+00 1.2124412822217877e+01 7.7249876018539554e-01 2.3676207693951206e+01 0 0 0
248 1 0.0000000000000000e+00 1.2124412822217886e+01 1.3441598200541494e+01 2.3676207693951216e+01 0 0 0
249 1 0.0000000000000000e+00 1.6123238628851386e+01 7.7249876018537866e-01 2.3676207693951206e+01 0 0 0
250 1 0.0000000000000000e+00 1.6123238628851396e+01 1.3441598200541494e+01 2.3676207693951216e+01 0 0 0
251 1 0.0000000000000000e+00 2.0122064435484898e+01 2.2314724269178168e+01 2.2382818829657630e+01 -1 0 0
252 1 0.0000000000000000e+00 2.0122064435484901e+01 9.6456248288220543e+00 2.2382818829657641e+01 -1 0 0
253 1 0.0000000000000000e+00 4.1267612089508487e+00 2.2314724269178161e+01 2.2382818829657626e+01 0 0 0
254 1 0.0000000000000000e+00 4.1267612089508487e+00 9.6456248288220561e+00 2.2382818829657616e+01 0 0 0
255 1 0.0000000000000000e+00 8.1255870155843617e+00 2.2314724269178186e+01 2.2382818829657626e+01 0 0 0
256 1 0.0000000000000000e+00 8.1255870155843670e+00 9.6456248288220650e+00 2.2382818829657626e+01 0 0 0
257 1 0.0000000000000000e+00 1.2124412822217861e+01 2.2314724269178186e+01 2.2382818829657626e+01 0 0 0
258 1 0.0000000000000000e+00 1.2124412822217858e+01 9.6456248288220703e+00 2.2382818829657626e+01 0 0 0
259 1 0.0000000000000000e+00 1.6123238628851368e+01 2.2314724269178182e+01 2.2382818829657641e+01 0 0 0
260 1 0.0000000000000000e+00 1.6123238628851364e+01 9.6456248288220614e+00 2.2382818829657641e+01 0 0 0
261 1 0.0000000000000000e+00 2.0122064435484852e+01 1.8507394925392191e+01 2.1087901487753694e+01 -1 0 0
262 1 0.0000000000000000e+00 2.0122064435484845e+01 5.8382954850360855e+00 2.1087901487753694e+01 -1 0 0
263 1 0.0000000000000000e+00 4.1267612089508283e+00 1.8507394925392205e+01 2.1087901487753694e+01 0 0 0
264 1 0.0000000000000000e+00 4.1267612089508239e+00 5.8382954850360802e+00 2.1087901487753694e+01 0 0 0
265 1 0.0000000000000000e+00 8.1255870155843262e+00 1.8507394925392205e+01 2.1087901487753680e+01 0 0 0
266 1 0.0000000000000000e+00 8.1255870155843191e+00 5.8382954850360891e+00 2.1087901487753673e+01 0 0 0
267 1 0.0000000000000000e+00 1.2124412822217835e+01 1.8507394925392205e+01 2.1087901487753694e+01 0 0 0
268 1 0.0000000000000000e+00 1.2124412822217824e+01 5.8382954850360971e+00 2.1087901487753680e+01 0 0 0
269 1 0.0000000000000000e+00 1.6123238628851347e+01 1.8507394925392205e+01 2.1087901487753694e+01 0 0 0
270 1 0.0000000000000000e+00 1.6123238628851343e+01 5.8382954850360900e+00 2.1087901487753694e+01 0 0 0
271 1 0.0000000000000000e+00 2.1273483056343578e+00 2.4212787709846797e+01 2.3026831780972639e+01 0 0 0
272 1 0.0000000000000000e+00 2.1273483056343472e+00 1.1543688269490687e+01 2.3026831780972653e+01 0 0 0
273 1 0.0000000000000000e+00 6.1261741122678721e+00 2.4212787709846797e+01 2.3026831780972639e+01 0 0 0
274 1 0.0000000000000000e+00 6.1261741122678703e+00 1.1543688269490694e+01 2.3026831780972639e+01 0 0 0
275 1 0.0000000000000000e+00 1.0124999918901368e+01 2.4212787709846783e+01 2.3026831780972628e+01 0 0 0
276 1 0.0000000000000000e+00 1.0124999918901370e+01 1.1543688269490673e+01 2.3026831780972639e+01 0 0 0
277 1 0.0000000000000000e+00 1.4123825725534884e+01 2.4212787709846783e+01 2.3026831780972639e+01 0 0 0
278 1 0.0000000000000000e+00 1.4123825725534868e+01 1.1543688269490680e+01 2.3026831780972639e+01 0 0 0
279 1 0.0000000000000000e+00 1.8122651532168383e+01 2.4212787709846797e+01 2.3026831780972639e+01 0 0 0
280 1 0.0000000000000000e+00 1.8122651532168394e+01 1.1543688269490701e+01 2.3026831780972653e+01 0 0 0
281 1 0.0000000000000000e+00 2.1273483056343885e+00 2.0414097841312998e+01 2.1740553218577983e+01 0 0 0
282 1 0.0000000000000000e+00 2.1273483056343814e+00 7.7449984009568951e+00 2.1740553218577983e+01 0 0 0
283 1 0.0000000000000000e+00 6.1261741122678819e+00 2.0414097841312984e+01 2.1740553218577968e+01 0 0 0
284 1 0.0000000000000000e+00 6.1261741122678925e+00 7.7449984009568809e+00 2.1740553218577968e+01 0 0 0
285 1 0.0000000000000000e+00 1.0124999918901397e+01 2.0414097841312973e+01 2.1740553218577958e+01 0 0 0