datafile (written by JARVIS-FF) 

720 	 atoms 
1  atom types
0.0 20.249999838  xlo xhi
0.0 25.614448842  ylo yhi
0.0 49.948175241  zlo zhi
0E-9 0E-9 0E-9  xy xz yz


Atoms 

     1   1 0.000000 0E-9 3.201806105 16.009030526
     2   1 0.000000 0E-9 16.009030526 16.009030526
     3   1 0.000000 4.049999968 3.201806105 16.009030526
     4   1 0.000000 4.049999968 16.009030526 16.009030526
     5   1 0.000000 8.099999935 3.201806105 16.009030526
     6   1 0.000000 8.099999935 16.009030526 16.009030526
     7   1 0.000000 12.149999903 3.201806105 16.009030526
     8   1 0.000000 12.149999903 16.009030526 16.009030526
     9   1 0.000000 16.199999870 3.201806105 16.009030526
    10   1 0.000000 16.199999870 16.009030526 16.009030526
    11   1 0.000000 0E-9 24.974087621 14.728308084
    12   1 0.000000 0E-9 12.166863200 14.728308084
    13   1 0.000000 4.049999968 24.974087621 14.728308084
    14   1 0.000000 4.049999968 12.166863200 14.728308084
    15   1 0.000000 8.099999935 24.974087621 14.728308084
    16   1 0.000000 8.099999935 12.166863200 14.728308084
    17   1 0.000000 12.149999903 24.974087621 14.728308084
    18   1 0.000000 12.149999903 12.166863200 14.728308084
    19   1 0.000000 16.199999870 24.974087621 14.728308084
    20   1 0.000000 16.199999870 12.166863200 14.728308084
    21   1 0.000000 0E-9 21.131920295 13.447585642
    22   1 0.000000 0E-9 8.324695874 13.447585642
    23   1 0.000000 4.049999968 21.131920295 13.447585642
    24   1 0.000000 4.049999968 8.324695874 13.447585642
    25   1 0.000000 8.099999935 21.131920295 13.447585642
    26   1 0.000000 8.099999935 8.324695874 13.447585642
    27   1 0.000000 12.149999903 21.131920295 13.447585642
    28   1 0.000000 12.149999903 8.324695874 13.447585642
    29   1 0.000000 16.199999870 21.131920295 13.447585642
    30   1 0.000000 16.199999870 8.324695874 13.447585642
    31   1 0.000000 2.024999984 1.280722442 15.368669305
    32   1 0.000000 2.024999984 14.087946863 15.368669305
    33   1 0.000000 6.074999951 1.280722442 15.368669305
    34   1 0.000000 6.074999951 14.087946863 15.368669305
    35   1 0.000000 10.124999919 1.280722442 15.368669305
    36   1 0.000000 10.124999919 14.087946863 15.368669305
    37   1 0.000000 14.174999886 1.280722442 15.368669305
    38   1 0.000000 14.174999886 14.087946863 15.368669305
    39   1 0.000000 18.224999854 1.280722442 15.368669305
    40   1 0.000000 18.224999854 14.087946863 15.368669305
    41   1 0.000000 2.024999984 23.053003958 14.087946863
    42   1 0.000000 2.024999984 10.245779537 14.087946863
    43   1 0.000000 6.074999951 23.053003958 14.087946863
    44   1 0.000000 6.074999951 10.245779537 14.087946863
    45   1 0.000000 10.124999919 23.053003958 14.087946863
    46   1 0.000000 10.124999919 10.245779537 14.087946863
    47   1 0.000000 14.174999886 23.053003958 14.087946863
    48   1 0.000000 14.174999886 10.245779537 14.087946863
    49   1 0.000000 18.224999854 23.053003958 14.087946863
    50   1 0.000000 18.224999854 10.245779537 14.087946863
    51   1 0.000000 2.024999984 5.122889768 16.649391747
    52   1 0.000000 2.024999984 17.930114189 16.649391747
    53   1 0.000000 6.074999951 5.122889768 16.649391747
    54   1 0.000000 6.074999951 17.930114189 16.649391747
    55   1 0.000000 10.124999919 5.122889768 16.649391747
    56   1 0.000000 10.124999919 17.930114189 16.649391747
    57   1 0.000000 14.174999886 5.122889768 16.649391747
    58   1 0.000000 14.174999886 17.930114189 16.649391747
    59   1 0.000000 18.224999854 5.122889768 16.649391747
    60   1 0.000000 18.224999854 17.930114189 16.649391747
    61   1 0.000000 2.024999984 3.842167326 14.087946863
    62   1 0.000000 2.024999984 16.649391747 14.087946863
    63   1 0.000000 6.074999951 3.842167326 14.087946863
    64   1 0.000000 6.074999951 16.649391747 14.087946863
    65   1 0.000000 10.124999919 3.842167326 14.087946863
    66   1 0.000000 10.124999919 16.649391747 14.087946863
    67   1 0.000000 14.174999886 3.842167326 14.087946863
    68   1 0.000000 14.174999886 16.649391747 14.087946863
    69   1 0.000000 18.224999854 3.842167326 14.087946863
    70   1 0.000000 18.224999854 16.649391747 14.087946863
    71   1 0.000000 2.024999984 24.333726400 16.649391747
    72   1 0.000000 2.024999984 11.526501979 16.649391747
    73   1 0.000000 6.074999951 24.333726400 16.649391747
    74   1 0.000000 6.074999951 11.526501979 16.649391747
    75   1 0.000000 10.124999919 24.333726400 16.649391747
    76   1 0.000000 10.124999919 11.526501979 16.649391747
    77   1 0.000000 14.174999886 24.333726400 16.649391747
    78   1 0.000000 14.174999886 11.526501979 16.649391747
    79   1 0.000000 18.224999854 24.333726400 16.649391747
    80   1 0.000000 18.224999854 11.526501979 16.649391747
    81   1 0.000000 2.024999984 20.491559074 15.368669305
    82   1 0.000000 2.024999984 7.684334653 15.368669305
    83   1 0.000000 6.074999951 20.491559074 15.368669305
    84   1 0.000000 6.074999951 7.684334653 15.368669305
    85   1 0.000000 10.124999919 20.491559074 15.368669305
    86   1 0.000000 10.124999919 7.684334653 15.368669305
    87   1 0.000000 14.174999886 20.491559074 15.368669305
    88   1 0.000000 14.174999886 7.684334653 15.368669305
    89   1 0.000000 18.224999854 20.491559074 15.368669305
    90   1 0.000000 18.224999854 7.684334653 15.368669305
    91   1 0.000000 0E-9 0.640361221 17.289752968
    92   1 0.000000 0E-9 13.447585642 17.289752968
    93   1 0.000000 4.049999968 0.640361221 17.289752968
    94   1 0.000000 4.049999968 13.447585642 17.289752968
    95   1 0.000000 8.099999935 0.640361221 17.289752968
    96   1 0.000000 8.099999935 13.447585642 17.289752968
    97   1 0.000000 12.149999903 0.640361221 17.289752968
    98   1 0.000000 12.149999903 13.447585642 17.289752968
    99   1 0.000000 16.199999870 0.640361221 17.289752968
   100   1 0.000000 16.199999870 13.447585642 17.289752968
   101   1 0.000000 0E-9 22.412642737 16.009030526
   102   1 0.000000 0E-9 9.605418316 16.009030526
   103   1 0.000000 4.049999968 22.412642737 16.009030526
   104   1 0.000000 4.049999968 9.605418316 16.009030526
   105   1 0.000000 8.099999935 22.412642737 16.009030526
   106   1 0.000000 8.099999935 9.605418316 16.009030526
   107   1 0.000000 12.149999903 22.412642737 16.009030526
   108   1 0.000000 12.149999903 9.605418316 16.009030526
   109   1 0.000000 16.199999870 22.412642737 16.009030526
   110   1 0.000000 16.199999870 9.605418316 16.009030526
   111   1 0.000000 0E-9 5.763250989 14.728308084
   112   1 0.000000 0E-9 18.570475410 14.728308084
   113   1 0.000000 4.049999968 5.763250989 14.728308084
   114   1 0.000000 4.049999968 18.570475410 14.728308084
   115   1 0.000000 8.099999935 5.763250989 14.728308084
   116   1 0.000000 8.099999935 18.570475410 14.728308084
   117   1 0.000000 12.149999903 5.763250989 14.728308084
   118   1 0.000000 12.149999903 18.570475410 14.728308084
   119   1 0.000000 16.199999870 5.763250989 14.728308084
   120   1 0.000000 16.199999870 18.570475410 14.728308084
   121   1 0.000000 0E-9 1.921083663 19.851197853
   122   1 0.000000 0E-9 14.728308084 19.851197853
   123   1 0.000000 4.049999968 1.921083663 19.851197853
   124   1 0.000000 4.049999968 14.728308084 19.851197853
   125   1 0.000000 8.099999935 1.921083663 19.851197853
   126   1 0.000000 8.099999935 14.728308084 19.851197853
   127   1 0.000000 12.149999903 1.921083663 19.851197853
   128   1 0.000000 12.149999903 14.728308084 19.851197853
   129   1 0.000000 16.199999870 1.921083663 19.851197853
   130   1 0.000000 16.199999870 14.728308084 19.851197853
   131   1 0.000000 0E-9 23.693365179 18.570475410
   132   1 0.000000 0E-9 10.886140758 18.570475410
   133   1 0.000000 4.049999968 23.693365179 18.570475410
   134   1 0.000000 4.049999968 10.886140758 18.570475410
   135   1 0.000000 8.099999935 23.693365179 18.570475410
   136   1 0.000000 8.099999935 10.886140758 18.570475410
   137   1 0.000000 12.149999903 23.693365179 18.570475410
   138   1 0.000000 12.149999903 10.886140758 18.570475410
   139   1 0.000000 16.199999870 23.693365179 18.570475410
   140   1 0.000000 16.199999870 10.886140758 18.570475410
   141   1 0.000000 0E-9 19.851197853 17.289752968
   142   1 0.000000 0E-9 7.043973432 17.289752968
   143   1 0.000000 4.049999968 19.851197853 17.289752968
   144   1 0.000000 4.049999968 7.043973432 17.289752968
   145   1 0.000000 8.099999935 19.851197853 17.289752968
   146   1 0.000000 8.099999935 7.043973432 17.289752968
   147   1 0.000000 12.149999903 19.851197853 17.289752968
   148   1 0.000000 12.149999903 7.043973432 17.289752968
   149   1 0.000000 16.199999870 19.851197853 17.289752968
   150   1 0.000000 16.199999870 7.043973432 17.289752968
   151   1 0.000000 2.024999984 0E-9 19.210836632
   152   1 0.000000 2.024999984 12.807224421 19.210836632
   153   1 0.000000 6.074999951 0E-9 19.210836632
   154   1 0.000000 6.074999951 12.807224421 19.210836632
   155   1 0.000000 10.124999919 0E-9 19.210836632
   156   1 0.000000 10.124999919 12.807224421 19.210836632
   157   1 0.000000 14.174999886 0E-9 19.210836632
   158   1 0.000000 14.174999886 12.807224421 19.210836632
   159   1 0.000000 18.224999854 0E-9 19.210836632
   160   1 0.000000 18.224999854 12.807224421 19.210836632
   161   1 0.000000 2.024999984 21.772281516 17.930114189
   162   1 0.000000 2.024999984 8.965057095 17.930114189
   163   1 0.000000 6.074999951 21.772281516 17.930114189
   164   1 0.000000 6.074999951 8.965057095 17.930114189
   165   1 0.000000 10.124999919 21.772281516 17.930114189
   166   1 0.000000 10.124999919 8.965057095 17.930114189
   167   1 0.000000 14.174999886 21.772281516 17.930114189
   168   1 0.000000 14.174999886 8.965057095 17.930114189
   169   1 0.000000 18.224999854 21.772281516 17.930114189
   170   1 0.000000 18.224999854 8.965057095 17.930114189
   171   1 0.000000 2.024999984 3.842167326 20.491559074
   172   1 0.000000 2.024999984 16.649391747 20.491559074
   173   1 0.000000 6.074999951 3.842167326 20.491559074
   174   1 0.000000 6.074999951 16.649391747 20.491559074
   175   1 0.000000 10.124999919 3.842167326 20.491559074
   176   1 0.000000 10.124999919 16.649391747 20.491559074
   177   1 0.000000 14.174999886 3.842167326 20.491559074
   178   1 0.000000 14.174999886 16.649391747 20.491559074
   179   1 0.000000 18.224999854 3.842167326 20.491559074
   180   1 0.000000 18.224999854 16.649391747 20.491559074
   181   1 0.000000 2.024999984 2.561444884 17.930114189
   182   1 0.000000 2.024999984 15.368669305 17.930114189
   183   1 0.000000 6.074999951 2.561444884 17.930114189
   184   1 0.000000 6.074999951 15.368669305 17.930114189
   185   1 0.000000 10.124999919 2.561444884 17.930114189
   186   1 0.000000 10.124999919 15.368669305 17.930114189
   187   1 0.000000 14.174999886 2.561444884 17.930114189
   188   1 0.000000 14.174999886 15.368669305 17.930114189
   189   1 0.000000 18.224999854 2.561444884 17.930114189
   190   1 0.000000 18.224999854 15.368669305 17.930114189
   191   1 0.000000 2.024999984 23.053003958 20.491559074
   192   1 0.000000 2.024999984 10.245779537 20.491559074
   193   1 0.000000 6.074999951 23.053003958 20.491559074
   194   1 0.000000 6.074999951 10.245779537 20.491559074
   195   1 0.000000 10.124999919 23.053003958 20.491559074
   196   1 0.000000 10.124999919 10.245779537 20.491559074
   197   1 0.000000 14.174999886 23.053003958 20.491559074
   198   1 0.000000 14.174999886 10.245779537 20.491559074
   199   1 0.000000 18.224999854 23.053003958 20.491559074
   200   1 0.000000 18.224999854 10.245779537 20.491559074
   201   1 0.000000 2.024999984 19.210836632 19.210836632
   202   1 0.000000 2.024999984 6.403612211 19.210836632
   203   1 0.000000 6.074999951 19.210836632 19.210836632
   204   1 0.000000 6.074999951 6.403612211 19.210836632
   205   1 0.000000 10.124999919 19.210836632 19.210836632
   206   1 0.000000 10.124999919 6.403612211 19.210836632
   207   1 0.000000 14.174999886 19.210836632 19.210836632
   208   1 0.000000 14.174999886 6.403612211 19.210836632
   209   1 0.000000 18.224999854 19.210836632 19.210836632
   210   1 0.000000 18.224999854 6.403612211 19.210836632
   211   1 0.000000 0E-9 24.974087621 21.131920295
   212   1 0.000000 0E-9 12.166863200 21.131920295
   213   1 0.000000 4.049999968 24.974087621 21.131920295
   214   1 0.000000 4.049999968 12.166863200 21.131920295
   215   1 0.000000 8.099999935 24.974087621 21.131920295
   216   1 0.000000 8.099999935 12.166863200 21.131920295
   217   1 0.000000 12.149999903 24.974087621 21.131920295
   218   1 0.000000 12.149999903 12.166863200 21.131920295
   219   1 0.000000 16.199999870 24.974087621 21.131920295
   220   1 0.000000 16.199999870 12.166863200 21.131920295
   221   1 0.000000 0E-9 21.131920295 19.851197853
   222   1 0.000000 0E-9 8.324695874 19.851197853
   223   1 0.000000 4.049999968 21.131920295 19.851197853
   224   1 0.000000 4.049999968 8.324695874 19.851197853
   225   1 0.000000 8.099999935 21.131920295 19.851197853
   226   1 0.000000 8.099999935 8.324695874 19.851197853
   227   1 0.000000 12.149999903 21.131920295 19.851197853
   228   1 0.000000 12.149999903 8.324695874 19.851197853
   229   1 0.000000 16.199999870 21.131920295 19.851197853
   230   1 0.000000 16.199999870 8.324695874 19.851197853
   231   1 0.000000 0E-9 4.482528547 18.570475410
   232   1 0.000000 0E-9 17.289752968 18.570475410
   233   1 0.000000 4.049999968 4.482528547 18.570475410
   234   1 0.000000 4.049999968 17.289752968 18.570475410
   235   1 0.000000 8.099999935 4.482528547 18.570475410
   236   1 0.000000 8.099999935 17.289752968 18.570475410
   237   1 0.000000 12.149999903 4.482528547 18.570475410
   238   1 0.000000 12.149999903 17.289752968 18.570475410
   239   1 0.000000 16.199999870 4.482528547 18.570475410
   240   1 0.000000 16.199999870 17.289752968 18.570475410
   241   1 0.000000 0E-9 0.640361221 23.693365179
   242   1 0.000000 0E-9 13.447585642 23.693365179
   243   1 0.000000 4.049999968 0.640361221 23.693365179
   244   1 0.000000 4.049999968 13.447585642 23.693365179
   245   1 0.000000 8.099999935 0.640361221 23.693365179
   246   1 0.000000 8.099999935 13.447585642 23.693365179
   247   1 0.000000 12.149999903 0.640361221 23.693365179
   248   1 0.000000 12.149999903 13.447585642 23.693365179
   249   1 0.000000 16.199999870 0.640361221 23.693365179
   250   1 0.000000 16.199999870 13.447585642 23.693365179
   251   1 0.000000 0E-9 22.412642737 22.412642737
   252   1 0.000000 0E-9 9.605418316 22.412642737
   253   1 0.000000 4.049999968 22.412642737 22.412642737
   254   1 0.000000 4.049999968 9.605418316 22.412642737
   255   1 0.000000 8.099999935 22.412642737 22.412642737
   256   1 0.000000 8.099999935 9.605418316 22.412642737
   257   1 0.000000 12.149999903 22.412642737 22.412642737
   258   1 0.000000 12.149999903 9.605418316 22.412642737
   259   1 0.000000 16.199999870 22.412642737 22.412642737
   260   1 0.000000 16.199999870 9.605418316 22.412642737
   261   1 0.000000 0E-9 18.570475410 21.131920295
   262   1 0.000000 0E-9 5.763250989 21.131920295
   263   1 0.000000 4.049999968 18.570475410 21.131920295
   264   1 0.000000 4.049999968 5.763250989 21.131920295
   265   1 0.000000 8.099999935 18.570475410 21.131920295
   266   1 0.000000 8.099999935 5.763250989 21.131920295
   267   1 0.000000 12.149999903 18.570475410 21.131920295
   268   1 0.000000 12.149999903 5.763250989 21.131920295
   269   1 0.000000 16.199999870 18.570475410 21.131920295
   270   1 0.000000 16.199999870 5.763250989 21.131920295
   271   1 0.000000 2.024999984 24.333726400 23.053003958
   272   1 0.000000 2.024999984 11.526501979 23.053003958
   273   1 0.000000 6.074999951 24.333726400 23.053003958
   274   1 0.000000 6.074999951 11.526501979 23.053003958
   275   1 0.000000 10.124999919 24.333726400 23.053003958
   276   1 0.000000 10.124999919 11.526501979 23.053003958
   277   1 0.000000 14.174999886 24.333726400 23.053003958
   278   1 0.000000 14.174999886 11.526501979 23.053003958
   279   1 0.000000 18.224999854 24.333726400 23.053003958
   280   1 0.000000 18.224999854 11.526501979 23.053003958
   281   1 0.000000 2.024999984 20.491559074 21.772281516
   282   1 0.000000 2.024999984 7.684334653 21.772281516
   283   1 0.000000 6.074999951 20.491559074 21.772281516
   284   1 0.000000 6.074999951 7.684334653 21.772281516
   285   1 0.000000 10.124999919 20.491559074 21.772281516
   286   1 0.000000 10.124999919 7.684334653 21.772281516
   287   1 0.000000 14.174999886 20.491559074 21.772281516
   288   1 0.000000 14.174999886 7.684334653 21.772281516
   289   1 0.000000 18.224999854 20.491559074 21.772281516
   290   1 0.000000 18.224999854 7.684334653 21.772281516
   291   1 0.000000 2.024999984 2.561444884 24.333726400
   292   1 0.000000 2.024999984 15.368669305 24.333726400
   293   1 0.000000 6.074999951 2.561444884 24.333726400
   294   1 0.000000 6.074999951 15.368669305 24.333726400
   295   1 0.000000 10.124999919 2.561444884 24.333726400
   296   1 0.000000 10.124999919 15.368669305 24.333726400
   297   1 0.000000 14.174999886 2.561444884 24.333726400
   298   1 0.000000 14.174999886 15.368669305 24.333726400
   299   1 0.000000 18.224999854 2.561444884 24.333726400
   300   1 0.000000 18.224999854 15.368669305 24.333726400
   301   1 0.000000 2.024999984 1.280722442 21.772281516
   302   1 0.000000 2.024999984 14.087946863 21.772281516
   303   1 0.000000 6.074999951 1.280722442 21.772281516
   304   1 0.000000 6.074999951 14.087946863 21.772281516
   305   1 0.000000 10.124999919 1.280722442 21.772281516
   306   1 0.000000 10.124999919 14.087946863 21.772281516
   307   1 0.000000 14.174999886 1.280722442 21.772281516
   308   1 0.000000 14.174999886 14.087946863 21.772281516
   309   1 0.000000 18.224999854 1.280722442 21.772281516
   310   1 0.000000 18.224999854 14.087946863 21.772281516
   311   1 0.000000 2.024999984 21.772281516 24.333726400
   312   1 0.000000 2.024999984 8.965057095 24.333726400
   313   1 0.000000 6.074999951 21.772281516 24.333726400
   314   1 0.000000 6.074999951 8.965057095 24.333726400
   315   1 0.000000 10.124999919 21.772281516 24.333726400
   316   1 0.000000 10.124999919 8.965057095 24.333726400
   317   1 0.000000 14.174999886 21.772281516 24.333726400
   318   1 0.000000 14.174999886 8.965057095 24.333726400
   319   1 0.000000 18.224999854 21.772281516 24.333726400
   320   1 0.000000 18.224999854 8.965057095 24.333726400
   321   1 0.000000 2.024999984 17.930114189 23.053003958
   322   1 0.000000 2.024999984 5.122889768 23.053003958
   323   1 0.000000 6.074999951 17.930114189 23.053003958
   324   1 0.000000 6.074999951 5.122889768 23.053003958
   325   1 0.000000 10.124999919 17.930114189 23.053003958
   326   1 0.000000 10.124999919 5.122889768 23.053003958
   327   1 0.000000 14.174999886 17.930114189 23.053003958
   328   1 0.000000 14.174999886 5.122889768 23.053003958
   329   1 0.000000 18.224999854 17.930114189 23.053003958
   330   1 0.000000 18.224999854 5.122889768 23.053003958
   331   1 0.000000 0E-9 23.693365179 24.974087621
   332   1 0.000000 0E-9 10.886140758 24.974087621
   333   1 0.000000 4.049999968 23.693365179 24.974087621
   334   1 0.000000 4.049999968 10.886140758 24.974087621
   335   1 0.000000 8.099999935 23.693365179 24.974087621
   336   1 0.000000 8.099999935 10.886140758 24.974087621
   337   1 0.000000 12.149999903 23.693365179 24.974087621
   338   1 0.000000 12.149999903 10.886140758 24.974087621
   339   1 0.000000 16.199999870 23.693365179 24.974087621
   340   1 0.000000 16.199999870 10.886140758 24.974087621
   341   1 0.000000 0E-9 19.851197853 23.693365179
   342   1 0.000000 0E-9 7.043973432 23.693365179
   343   1 0.000000 4.049999968 19.851197853 23.693365179
   344   1 0.000000 4.049999968 7.043973432 23.693365179
   345   1 0.000000 8.099999935 19.851197853 23.693365179
   346   1 0.000000 8.099999935 7.043973432 23.693365179
   347   1 0.000000 12.149999903 19.851197853 23.693365179
   348   1 0.000000 12.149999903 7.043973432 23.693365179
   349   1 0.000000 16.199999870 19.851197853 23.693365179
   350   1 0.000000 16.199999870 7.043973432 23.693365179
   351   1 0.000000 0E-9 3.201806105 22.412642737
   352   1 0.000000 0E-9 16.009030526 22.412642737
   353   1 0.000000 4.049999968 3.201806105 22.412642737
   354   1 0.000000 4.049999968 16.009030526 22.412642737
   355   1 0.000000 8.099999935 3.201806105 22.412642737
   356   1 0.000000 8.099999935 16.009030526 22.412642737
   357   1 0.000000 12.149999903 3.201806105 22.412642737
   358   1 0.000000 12.149999903 16.009030526 22.412642737
   359   1 0.000000 16.199999870 3.201806105 22.412642737
   360   1 0.000000 16.199999870 16.009030526 22.412642737
   361   1 0.000000 0E-9 24.974087621 27.535532505
   362   1 0.000000 0E-9 12.166863200 27.535532505
   363   1 0.000000 4.049999968 24.974087621 27.535532505
   364   1 0.000000 4.049999968 12.166863200 27.535532505
   365   1 0.000000 8.099999935 24.974087621 27.535532505
   366   1 0.000000 8.099999935 12.166863200 27.535532505
   367   1 0.000000 12.149999903 24.974087621 27.535532505
   368   1 0.000000 12.149999903 12.166863200 27.535532505
   369   1 0.000000 16.199999870 24.974087621 27.535532505
   370   1 0.000000 16.199999870 12.166863200 27.535532505
   371   1 0.000000 0E-9 21.131920295 26.254810063
   372   1 0.000000 0E-9 8.324695874 26.254810063
   373   1 0.000000 4.049999968 21.131920295 26.254810063
   374   1 0.000000 4.049999968 8.324695874 26.254810063
   375   1 0.000000 8.099999935 21.131920295 26.254810063
   376   1 0.000000 8.099999935 8.324695874 26.254810063
   377   1 0.000000 12.149999903 21.131920295 26.254810063
   378   1 0.000000 12.149999903 8.324695874 26.254810063
   379   1 0.000000 16.199999870 21.131920295 26.254810063
   380   1 0.000000 16.199999870 8.324695874 26.254810063
   381   1 0.000000 0E-9 17.289752968 24.974087621
   382   1 0.000000 0E-9 4.482528547 24.974087621
   383   1 0.000000 4.049999968 17.289752968 24.974087621
   384   1 0.000000 4.049999968 4.482528547 24.974087621
   385   1 0.000000 8.099999935 17.289752968 24.974087621
   386   1 0.000000 8.099999935 4.482528547 24.974087621
   387   1 0.000000 12.149999903 17.289752968 24.974087621
   388   1 0.000000 12.149999903 4.482528547 24.974087621
   389   1 0.000000 16.199999870 17.289752968 24.974087621
   390   1 0.000000 16.199999870 4.482528547 24.974087621
   391   1 0.000000 2.024999984 23.053003958 26.895171284
   392   1 0.000000 2.024999984 10.245779537 26.895171284
   393   1 0.000000 6.074999951 23.053003958 26.895171284
   394   1 0.000000 6.074999951 10.245779537 26.895171284
   395   1 0.000000 10.124999919 23.053003958 26.895171284
   396   1 0.000000 10.124999919 10.245779537 26.895171284
   397   1 0.000000 14.174999886 23.053003958 26.895171284
   398   1 0.000000 14.174999886 10.245779537 26.895171284
   399   1 0.000000 18.224999854 23.053003958 26.895171284
   400   1 0.000000 18.224999854 10.245779537 26.895171284
   401   1 0.000000 2.024999984 19.210836632 25.614448842
   402   1 0.000000 2.024999984 6.403612211 25.614448842
   403   1 0.000000 6.074999951 19.210836632 25.614448842
   404   1 0.000000 6.074999951 6.403612211 25.614448842
   405   1 0.000000 10.124999919 19.210836632 25.614448842
   406   1 0.000000 10.124999919 6.403612211 25.614448842
   407   1 0.000000 14.174999886 19.210836632 25.614448842
   408   1 0.000000 14.174999886 6.403612211 25.614448842
   409   1 0.000000 18.224999854 19.210836632 25.614448842
   410   1 0.000000 18.224999854 6.403612211 25.614448842
   411   1 0.000000 2.024999984 1.280722442 28.175893726
   412   1 0.000000 2.024999984 14.087946863 28.175893726
   413   1 0.000000 6.074999951 1.280722442 28.175893726
   414   1 0.000000 6.074999951 14.087946863 28.175893726
   415   1 0.000000 10.124999919 1.280722442 28.175893726
   416   1 0.000000 10.124999919 14.087946863 28.175893726
   417   1 0.000000 14.174999886 1.280722442 28.175893726
   418   1 0.000000 14.174999886 14.087946863 28.175893726
   419   1 0.000000 18.224999854 1.280722442 28.175893726
   420   1 0.000000 18.224999854 14.087946863 28.175893726
   421   1 0.000000 2.024999984 0E-9 25.614448842
   422   1 0.000000 2.024999984 12.807224421 25.614448842
   423   1 0.000000 6.074999951 0E-9 25.614448842
   424   1 0.000000 6.074999951 12.807224421 25.614448842
   425   1 0.000000 10.124999919 0E-9 25.614448842
   426   1 0.000000 10.124999919 12.807224421 25.614448842
   427   1 0.000000 14.174999886 0E-9 25.614448842
   428   1 0.000000 14.174999886 12.807224421 25.614448842
   429   1 0.000000 18.224999854 0E-9 25.614448842
   430   1 0.000000 18.224999854 12.807224421 25.614448842
   431   1 0.000000 2.024999984 20.491559074 28.175893726
   432   1 0.000000 2.024999984 7.684334653 28.175893726
   433   1 0.000000 6.074999951 20.491559074 28.175893726
   434   1 0.000000 6.074999951 7.684334653 28.175893726
   435   1 0.000000 10.124999919 20.491559074 28.175893726
   436   1 0.000000 10.124999919 7.684334653 28.175893726
   437   1 0.000000 14.174999886 20.491559074 28.175893726
   438   1 0.000000 14.174999886 7.684334653 28.175893726
   439   1 0.000000 18.224999854 20.491559074 28.175893726
   440   1 0.000000 18.224999854 7.684334653 28.175893726
   441   1 0.000000 2.024999984 16.649391747 26.895171284
   442   1 0.000000 2.024999984 3.842167326 26.895171284
   443   1 0.000000 6.074999951 16.649391747 26.895171284
   444   1 0.000000 6.074999951 3.842167326 26.895171284
   445   1 0.000000 10.124999919 16.649391747 26.895171284
   446   1 0.000000 10.124999919 3.842167326 26.895171284
   447   1 0.000000 14.174999886 16.649391747 26.895171284
   448   1 0.000000 14.174999886 3.842167326 26.895171284
   449   1 0.000000 18.224999854 16.649391747 26.895171284
   450   1 0.000000 18.224999854 3.842167326 26.895171284
   451   1 0.000000 0E-9 22.412642737 28.816254947
   452   1 0.000000 0E-9 9.605418316 28.816254947
   453   1 0.000000 4.049999968 22.412642737 28.816254947
   454   1 0.000000 4.049999968 9.605418316 28.816254947
   455   1 0.000000 8.099999935 22.412642737 28.816254947
   456   1 0.000000 8.099999935 9.605418316 28.816254947
   457   1 0.000000 12.149999903 22.412642737 28.816254947
   458   1 0.000000 12.149999903 9.605418316 28.816254947
   459   1 0.000000 16.199999870 22.412642737 28.816254947
   460   1 0.000000 16.199999870 9.605418316 28.816254947
   461   1 0.000000 0E-9 18.570475410 27.535532505
   462   1 0.000000 0E-9 5.763250989 27.535532505
   463   1 0.000000 4.049999968 18.570475410 27.535532505
   464   1 0.000000 4.049999968 5.763250989 27.535532505
   465   1 0.000000 8.099999935 18.570475410 27.535532505
   466   1 0.000000 8.099999935 5.763250989 27.535532505
   467   1 0.000000 12.149999903 18.570475410 27.535532505
   468   1 0.000000 12.149999903 5.763250989 27.535532505
   469   1 0.000000 16.199999870 18.570475410 27.535532505
   470   1 0.000000 16.199999870 5.763250989 27.535532505
   471   1 0.000000 0E-9 1.921083663 26.254810063
   472   1 0.000000 0E-9 14.728308084 26.254810063
   473   1 0.000000 4.049999968 1.921083663 26.254810063
   474   1 0.000000 4.049999968 14.728308084 26.254810063
   475   1 0.000000 8.099999935 1.921083663 26.254810063
   476   1 0.000000 8.099999935 14.728308084 26.254810063
   477   1 0.000000 12.149999903 1.921083663 26.254810063
   478   1 0.000000 12.149999903 14.728308084 26.254810063
   479   1 0.000000 16.199999870 1.921083663 26.254810063
   480   1 0.000000 16.199999870 14.728308084 26.254810063
   481   1 0.000000 0E-9 23.693365179 31.377699831
   482   1 0.000000 0E-9 10.886140758 31.377699831
   483   1 0.000000 4.049999968 23.693365179 31.377699831
   484   1 0.000000 4.049999968 10.886140758 31.377699831
   485   1 0.000000 8.099999935 23.693365179 31.377699831
   486   1 0.000000 8.099999935 10.886140758 31.377699831
   487   1 0.000000 12.149999903 23.693365179 31.377699831
   488   1 0.000000 12.149999903 10.886140758 31.377699831
   489   1 0.000000 16.199999870 23.693365179 31.377699831
   490   1 0.000000 16.199999870 10.886140758 31.377699831
   491   1 0.000000 0E-9 19.851197853 30.096977389
   492   1 0.000000 0E-9 7.043973432 30.096977389
   493   1 0.000000 4.049999968 19.851197853 30.096977389
   494   1 0.000000 4.049999968 7.043973432 30.096977389
   495   1 0.000000 8.099999935 19.851197853 30.096977389
   496   1 0.000000 8.099999935 7.043973432 30.096977389
   497   1 0.000000 12.149999903 19.851197853 30.096977389
   498   1 0.000000 12.149999903 7.043973432 30.096977389
   499   1 0.000000 16.199999870 19.851197853 30.096977389
   500   1 0.000000 16.199999870 7.043973432 30.096977389
   501   1 0.000000 0E-9 16.009030526 28.816254947
   502   1 0.000000 0E-9 3.201806105 28.816254947
   503   1 0.000000 4.049999968 16.009030526 28.816254947
   504   1 0.000000 4.049999968 3.201806105 28.816254947
   505   1 0.000000 8.099999935 16.009030526 28.816254947
   506   1 0.000000 8.099999935 3.201806105 28.816254947
   507   1 0.000000 12.149999903 16.009030526 28.816254947
   508   1 0.000000 12.149999903 3.201806105 28.816254947
   509   1 0.000000 16.199999870 16.009030526 28.816254947
   510   1 0.000000 16.199999870 3.201806105 28.816254947
   511   1 0.000000 2.024999984 21.772281516 30.737338610
   512   1 0.000000 2.024999984 8.965057095 30.737338610
   513   1 0.000000 6.074999951 21.772281516 30.737338610
   514   1 0.000000 6.074999951 8.965057095 30.737338610
   515   1 0.000000 10.124999919 21.772281516 30.737338610
   516   1 0.000000 10.124999919 8.965057095 30.737338610
   517   1 0.000000 14.174999886 21.772281516 30.737338610
   518   1 0.000000 14.174999886 8.965057095 30.737338610
   519   1 0.000000 18.224999854 21.772281516 30.737338610
   520   1 0.000000 18.224999854 8.965057095 30.737338610
   521   1 0.000000 2.024999984 17.930114189 29.456616168