LAMMPS (13 Jan 2016)
Reading data file ...
  triclinic box = (0 0 0) to (20.25 25.6144 49.9482) with tilt (0 0 0)
  1 by 1 by 1 MPI processor grid
  reading atoms ...
  720 atoms
Neighbor list info ...
  1 neighbor list requests
  update every 1 steps, delay 0 steps, check yes
  max neighbors/atom: 2000, page size: 100000
  master list distance cutoff = 7.72488
  ghost atom cutoff = 7.72488
Setting up cg style minimization ...
  Unit style: metal
Memory usage per processor = 3.35704 Mbytes
Step Temp Press CPU Pxx Pyy Pzz Pxy Pxz Pyz KinEng PotEng TotEng Volume Lx Ly Lz Atoms 
       0            0   -11165.477            0   -12425.342   -11793.943   -9277.1466 4.1894231e-12 -1.0684896e-12    196.67461            0   -2362.9801   -2362.9801    25907.748        20.25    25.614449    49.948175      720 
       1            0   -10262.276 0.0024900436   -11474.225   -10865.579   -8447.0227 -4.0436885e-12 -1.4568121e-11    207.01082            0    -2363.454    -2363.454    25837.968     20.22975    25.590136    49.910882      720 
       2            0   -9351.2799 0.0049932003   -10513.366   -9928.2153   -7612.2585 4.8341584e-12 4.1727782e-12    217.23691            0   -2363.8855   -2363.8855    25768.646      20.2095    25.565881    49.874121      720 
       3            0   -8433.1461 0.0074980259   -9543.2471   -8982.4172   -6773.7741 -1.6702063e-12 1.5088525e-12    227.33046            0   -2364.2747   -2364.2747    25699.832     20.18925    25.541695    49.837975      720 
       4            0   -7508.7629   0.01000905   -8564.5282   -8028.9627   -5932.7977 -3.4312819e-12 -4.7025607e-12    237.24824            0   -2364.6215   -2364.6215    25631.593       20.169     25.51759     49.80255      720 
       5            0    -6579.558  0.012516022   -7578.3494   -7069.1354   -5091.1894 4.9650492e-12 2.3483634e-12    246.98502            0   -2364.9259   -2364.9259    25564.014     20.14875    25.493582    49.767987      720 
       6            0   -5647.3531     0.015028   -6586.1357   -6104.5732   -4251.3503 6.3214391e-12 -1.3481784e-12    256.47224            0   -2365.1881   -2365.1881    25497.215      20.1285    25.469696    49.734479      720 
       7            0   -4714.6615  0.017549992   -5589.8548   -5137.5267    -3416.603 2.1647695e-12 -3.7594947e-13    265.66171            0   -2365.4085   -2365.4085     25431.36     20.10825    25.445963    49.702293      720 
       8            0   -3785.1817  0.020066023   -4592.3815   -4171.3372   -2591.8264 2.6234537e-12 2.3797784e-12    274.46168            0   -2365.5875   -2365.5875    25366.696       20.088    25.422431    49.671828      720 
       9            0   -2864.9158  0.022585154   -3598.4728   -3211.4237   -1784.8508 -5.1668446e-12 -1.6906478e-12    282.75832            0   -2365.7261   -2365.7261    25303.613     20.06775    25.399177    49.643708      720 
      10            0   -1964.1348  0.025109053   -2616.2122   -2267.1077   -1009.0844 5.0599442e-12 -5.1440637e-12    290.37416            0   -2365.8258   -2365.8258    25242.776      20.0475    25.376331    49.619006      720 
      11            0   -1102.6579  0.027631998   -1661.2553   -1356.3741   -290.34436 1.8248229e-12 -4.306476e-12    296.95205            0   -2365.8892   -2365.8892    25185.488     20.02725     25.35415    49.599807      720 
      12            0   -327.46824  0.030166149   -770.65351   -521.92949    310.17827 2.8143993e-12 6.5602972e-12    301.74015            0   -2365.9213   -2365.9213    25134.879       20.007    25.333254    49.591113      720 
      13            0    191.42229  0.032698154   -78.576103     81.21454    571.62844 2.4624102e-12 6.5767612e-12    302.20079            0   -2365.9346   -2365.9346    25102.385     19.98675    25.315925    49.611118      720 
      14            0   -55.900519   0.03523016   -187.51277   -105.73498    125.54619 -3.9866053e-12 3.0271293e-12    296.56576            0   -2365.9427   -2365.9427    25120.353    19.980628    25.316319    49.661066      720 
      15            0    276.94824   0.04026103     321.9083    301.14526    207.79115 -4.331702e-12 -3.9330791e-12    296.37114            0   -2365.9474   -2365.9474    25100.414    19.963065    25.303814     49.68985      720 
      16            0   -26.495465  0.042807102    149.81609    44.392388   -273.69488 -1.6338216e-12 3.8703694e-12    291.85991            0   -2365.9534   -2365.9534      25122.2     19.95822    25.306486    49.739798      720 
      17            0   -241.63507  0.045346022   -291.83329    -280.6418   -152.43011 -3.9702361e-12 5.8810449e-12    293.36366            0   -2365.9729   -2365.9729    25134.319    19.977623    25.319529     49.68985      720 
      18            0    329.59779  0.050384045    258.34519     293.8345    436.61367 2.8625578e-12 6.7873895e-12    298.21286            0   -2365.9797   -2365.9797    25096.508    19.970557    25.307495    49.656253      720 
      19            0    1149.1668  0.055410147    1010.1653    1137.5668    1299.7683 -4.5146863e-13 -7.695831e-12    302.87466            0   -2365.9941   -2365.9941     25043.44    19.963135    25.288662     49.60659      720 
      20            0    1047.2264  0.064153194    644.02942    1064.1938    1433.4559 -7.8845117e-12 4.2938401e-12    294.13601            0    -2366.135    -2366.135    25052.473    19.983385     25.28774    49.576003      720 
      21            0    204.72988  0.066706181    -147.8208    199.66662     562.3438 3.6097028e-12 6.7401819e-12    286.89122            0   -2366.1606   -2366.1606    25108.165    19.992536    25.306858    49.625952      720 
      22            0   -191.64769  0.069262028   -384.89554   -202.86902    12.821484 1.8969589e-12 -3.2677019e-12    283.65799            0   -2366.1679   -2366.1679    25135.783    19.987179    25.316004      49.6759      720 
      23            0    135.44547  0.071815014    157.14534    139.80009    109.39099 -1.2231346e-12 1.2194192e-11    286.87834            0   -2366.1734   -2366.1734    25116.055    19.966929    25.308697      49.7016      720 
      24            0   -172.74794  0.074374199    26.846194   -172.40903   -372.68099 3.8719424e-12 5.0205549e-12    285.31481            0   -2366.1779   -2366.1779    25138.283    19.958821    25.315944    49.751549      720 
      25            0    123.84309  0.076937199    545.94744    138.93699   -313.35517 9.313992e-12 -7.2944339e-12    288.25902            0   -2366.1973   -2366.1973    25121.483    19.938571    25.309429    49.781605      720 
      26            0   -171.90278  0.079492092    27.891957   -170.35857   -373.24171 -3.9987665e-12 6.3785576e-12    283.39234            0   -2366.2253   -2366.2253    25139.699    19.958821    25.315912    49.754414      720 
      27            0    279.40751  0.082050085    334.85625     289.4453    213.92099 3.3306178e-12 9.8565876e-13    285.81195            0   -2366.2313   -2366.2313    25108.662    19.962419    25.305503    49.704466      720 
      28            0    182.80797  0.084598064   -25.783717    181.29988    392.90776 3.6934343e-12 -5.9652741e-14    284.04145            0   -2366.2381   -2366.2381    25113.022    19.982669    25.307607    49.658591      720 
      29            0   -259.38644  0.090126991   -411.47337   -271.80555   -94.880407 8.6700269e-12 3.5011234e-12    280.41478            0   -2366.2424   -2366.2424     25142.91    19.985308     25.31777    49.691171      720 
      30            0   -187.54106  0.092692137   -71.482457   -190.05084    -301.0899 -1.2419408e-12 1.0171166e-11    281.77223            0   -2366.2531   -2366.2531    25140.792    19.965058    25.316349    49.740174      720 
      31            0    157.70188  0.097761154    245.03645    164.47106    63.598132 -1.146206e-12 -7.0249294e-12    284.16607            0   -2366.2557   -2366.2557     25117.71    19.961974    25.308412    49.717772      720 
      32            0    116.23086   0.10031199   -69.642583    114.46125    303.87393 -6.3529198e-13 -1.8191824e-12    282.49234            0   -2366.2654   -2366.2654    25118.437    19.982074    25.309113    49.667823      720 
      33            0   -426.17646   0.10537815   -531.24703   -441.63812   -305.64424 1.7629513e-12 3.226926e-12    278.02402            0    -2366.272    -2366.272    25155.394    19.984481    25.321667    49.710251      720 
      34            0   -482.37913   0.10793114   -348.74741   -493.92218   -604.46779 2.8553361e-12 3.8663757e-12    278.21059            0   -2366.2877   -2366.2877    25161.807     19.96822    25.323304    49.760199      720 
      35            0     134.0628   0.11301112    281.71725    140.99884   -20.527702 3.3996134e-13 -6.592556e-12    282.81353            0   -2366.2956   -2366.2956     25121.08    19.958054     25.30916    49.732741      720 
      36            0    227.01738   0.11556602    134.35018    232.01528    314.68669 3.1228548e-12 -5.0452193e-12    282.04191            0   -2366.3061   -2366.3061    25113.172    19.973801    25.306661    49.682792      720 
      37            0   -206.17122   0.12062502    -320.7005   -214.55332   -83.259833 2.7556716e-12 4.145709e-12    278.39502            0   -2366.3099   -2366.3099    25141.792    19.981869    25.316587    49.699838      720 
      38            0   -574.02651   0.12317801    -527.5868   -592.18677   -602.30596  1.55526e-13 1.2368479e-11    275.54236            0   -2366.3273   -2366.3273    25168.419    19.975878    25.325548    49.749786      720 
      39            0    160.43404   0.12574506    337.21529    165.63601   -21.549185 5.8121504e-13 -9.8760228e-12     281.3224            0   -2366.3492   -2366.3492    25121.304    19.955628    25.308976    49.739591      720 
      40            0    130.03285    0.1283021    29.907461    138.16808      222.023 -7.4925762e-12 4.5855587e-12    276.91979            0   -2366.4162   -2366.4162     25123.08    19.975878    25.308578    49.693465      720 
      41            0   -329.23138   0.13336706   -373.80496   -339.25098   -274.63821 4.0415294e-12 1.2645792e-13    273.59115            0   -2366.4209   -2366.4209    25154.192    19.978802    25.319708    49.725854      720 
      42            0   -643.05624   0.13592315   -500.50342   -673.17835   -755.48694 6.2030606e-12 -2.0217505e-12    272.42259            0   -2366.4293   -2366.4293     25177.24    19.970086    25.328526    49.775802      720 
      43            0   -79.178613   0.13848901    229.43972   -98.674221   -368.30134 -1.1665746e-11 5.1962053e-12    277.73821            0   -2366.4502   -2366.4502    25141.649    19.949836    25.316629    49.779273      720 
      44            0    135.42681    0.1410532     220.9345    137.11342    48.232496 -4.8150139e-12 1.4051741e-12    276.79494            0   -2366.4573   -2366.4573    25125.619    19.962597     25.30971    49.729325      720 
      45            0   -167.77853   0.14611912     -178.827   -171.60088    -152.9077 -6.2566691e-12 4.7903609e-12    273.63855            0   -2366.4596   -2366.4596    25144.978    19.974015     25.31606    49.726715      720 
      46            0   -94.034656   0.14867806   -364.03493   -86.193616    168.12457 -6.8874029e-12 1.8006714e-11    272.32399            0   -2366.4676   -2366.4676    25138.338     19.99143    25.312753    49.676767      720 
      47            0    460.98478    0.1512351    358.22168    477.32129    547.41136 -6.7413864e-12 1.6493848e-12    277.34415            0   -2366.4775   -2366.4775    25103.369     19.97118    25.301289    49.680464      720 
      48            0    304.64025   0.15379906     434.6674    303.65945    175.59389 7.4143172e-13 3.0068368e-12    277.37044            0   -2366.4955   -2366.4955    25116.109    19.956957    25.306727    49.730412      720 
      49            0   -78.795596   0.15886307     -1.97364    -88.18792   -146.22523 -7.5458588e-12 1.0786644e-11    273.93385            0   -2366.4986   -2366.4986    25141.079    19.966443    25.315088    49.739768      720 
      50            0   -3.6639877   0.16142321   -200.21804    14.898517    174.32756 -4.4785253e-12 6.682983e-12    271.50537            0   -2366.5066   -2366.5066    25134.252    19.984857    25.310312     49.68982      720 
      51            0     245.4697   0.16397905     280.9327    242.90856    212.56784 -4.2951026e-12 4.5609448e-12     275.2442            0   -2366.5306   -2366.5306    25120.333    19.964607    25.307833    49.717543      720 
      52            0   -381.52371   0.16904616   -315.62396   -406.23784   -422.70933 -3.0314984e-12 3.6418186e-12    270.41059            0   -2366.5388   -2366.5388    25162.536    19.971783    25.322658    49.754033      720 
      53            0   -925.60457   0.17411518   -800.78058   -966.77924   -1009.2539 -1.0076637e-11 5.6825217e-12    265.88396            0   -2366.5454   -2366.5454    25200.251    19.975701    25.335522    49.793538      720 
      54            0   -792.41422    0.1766901   -413.00102     -821.133   -1143.1086 -5.648715e-12 1.8941138e-11    265.60778            0   -2366.6333   -2366.6333    25196.942    19.955451    25.332749    49.842979      720 
      55            0   -5.5877925   0.17924905    315.74765   -8.1634971   -324.34753 -2.0960726e-12 4.0493589e-12    270.57294            0   -2366.6506   -2366.6506    25143.907    19.948042    25.314184     49.79303      720 
      56            0   -29.807672   0.18181014    17.579679    -29.40573   -77.596966 -3.8000451e-12 -7.6383371e-14    268.28283            0   -2366.6588   -2366.6588    25143.159    19.967991    25.313533    49.743082      720 
      57            0     395.2088   0.18437004    289.03418    403.44289    493.14932 2.0541187e-12 6.8390389e-12    271.03235            0   -2366.6649   -2366.6649    25114.032    19.972625    25.303751    49.693134      720 
      58            0    94.029552   0.18692899   -232.41209    86.352102    428.14864 6.5782411e-13 1.2846923e-11    268.18858            0   -2366.6799   -2366.6799    25132.651    19.992875    25.310581    49.666201      720 
      59            0    -188.6576   0.18948698   -329.54198   -199.07681   -37.354011 -1.8107454e-12 1.0278372e-12    265.64138            0   -2366.6891   -2366.6891    25153.163     19.98388    25.317179    49.716149      720 
      60            0    182.46359   0.19455719    190.63722    187.38296    169.37058 -6.3740298e-12 1.0135174e-11    268.75779            0   -2366.6931   -2366.6931    25129.977     19.96768    25.308785    49.727106      720 
      61            0    115.56733   0.19712901    360.68232     125.7954   -139.77573 -1.3225875e-12 1.6055698e-11     268.8968            0   -2366.6979   -2366.6979    25136.854    19.951764    25.310484    49.777054      720 
      62            0   -410.10613   0.20219612   -262.02232   -416.97873   -551.31734 2.2082757e-12 4.6891991e-12    264.14523            0   -2366.7039   -2366.7039     25171.19    19.966495    25.322381    49.784868      720 
      63            0    -373.4095   0.20475316   -479.30301    -384.3937   -256.53178 1.2940259e-12 3.2667874e-12    262.89585            0   -2366.7227   -2366.7227    25167.066    19.984197     25.32121     49.73492      720 
      64            0    63.524916   0.20982814  -0.33003928    65.596907    125.30788 -5.4472643e-12 4.4586542e-12    266.48736            0   -2366.7267   -2366.7267    25138.428    19.974641    25.311304    49.721545      720 
      65            0    34.919812   0.21238804    227.31856    32.708125   -155.26725 -9.6079945e-12 1.3653942e-11    267.36449            0   -2366.7356   -2366.7356    25142.956     19.95677    25.313105    49.771493      720 
      66            0   -382.28521   0.21494913   -385.75501   -391.01935   -370.08129 -5.0957496e-12 6.777898e-12    262.25695            0   -2366.7506   -2366.7506    25169.582     19.97702    25.321596    49.757005      720 
      67            0    87.493969   0.21750903   -68.408521    97.433299    233.45713 -1.04211e-11 8.4577377e-12    264.71214            0   -2366.7688   -2366.7688    25137.676    19.980919     25.30997    49.707056      720 
      68            0   -131.47651   0.22006798   -72.741206   -156.51246   -165.17586 -1.3568844e-11 6.8456713e-12    263.60068            0   -2366.8291   -2366.8291    25156.081    19.968934    25.318261    49.757005      720 
      69            0    690.57802   0.22515202    757.21988    718.16178    596.35241 -3.0270619e-12 8.3079751e-12    267.66931            0   -2366.8431   -2366.8431    25102.894    19.956227    25.297182    49.724816      720 
      70            0    1056.3888   0.23023105    1116.6253    1113.3617    939.17924 -7.4891001e-12 1.1261362e-11    268.88538            0   -2366.8459   -2366.8459    25079.584    19.951318    25.287362    49.710165      720 
      71            0    978.05188   0.23279619    772.29922    1195.4255    966.43094 -5.8463927e-12 7.5103142e-12    253.25939            0   -2367.0084   -2367.0084    25089.926    19.971568    25.275086    49.704371      720 
      72            0    32.144557   0.23535204    -158.7865    171.74729    83.472874 -9.7442738e-12 8.9555713e-12    248.96544            0   -2367.0295   -2367.0295    25152.059    19.984657    25.300701    49.744412      720 
      73            0   -140.83977   0.24042702   -62.737342   -216.37542   -143.40656 8.1600658e-13 7.529637e-12    260.84618            0   -2367.0336   -2367.0336    25164.513    19.968028    25.323432    49.765778      720 
      74            0    145.12755   0.24551511    317.76959    23.906463    93.706589 -2.3373236e-12 3.4852615e-12    266.50146            0   -2367.0356   -2367.0356    25146.094    19.957054    25.321798    49.759908      720 
      75            0    116.93944   0.24807906     324.2475    185.50171   -158.93089 -5.2588376e-12 1.8487206e-12    252.98374            0    -2367.133    -2367.133    25153.835     19.95514    25.306619    49.809856      720 
      76            0   -327.08814   0.25316215   -305.04053   -322.03519   -354.18871 -3.0039533e-12 3.1685593e-12    251.56251            0   -2367.1394   -2367.1394    25181.507    19.975021    25.320507    49.787701      720 
      77            0   -226.22957   0.25572109   -386.18206   -276.65809   -15.848557 -5.3623226e-12 1.3226826e-11    255.42262            0    -2367.145    -2367.145    25172.975     19.98661    25.322656    49.737753      720 
      78            0    121.36076   0.26080608    23.685179    95.580537    244.81656 2.0938044e-12 -4.2928951e-12    257.42696            0   -2367.1477   -2367.1477    25150.569    19.976947    25.313655    49.735196      720 
      79            0    23.013591   0.26336908     107.3321      50.2779   -88.569229 -5.0677956e-12 1.1590445e-11    253.57979            0   -2367.1521   -2367.1521    25159.314    19.965378     25.31171    49.785144      720 
      80            0   -508.84789   0.26844406   -559.12421    -542.5535   -424.86595 -3.744348e-13 4.190283e-12    251.35991            0   -2367.1592   -2367.1592    25193.717    19.982997    25.327402    49.778404      720 
      81            0   -453.29627   0.27101111   -689.55879   -558.35909   -111.97093 -6.582803e-12 -1.3374038e-12    255.63891            0   -2367.1791   -2367.1791    25188.804    19.995616    25.331901    49.728456      720 
      82            0    145.73113     0.276088    -7.041762    84.326508    359.90866 -3.5672805e-12 3.7287364e-12    259.02428            0    -2367.187    -2367.187    25149.936    19.980631    25.316169    49.719836      720 
      83            0     85.00591    0.2786541    103.93265    99.312013    51.773069 -6.3018288e-12 1.6581351e-11    253.87025            0   -2367.1925   -2367.1925    25156.196     19.96924    25.311488    49.769784      720 
      84            0   -138.26876   0.28373504   -139.50964    -138.7955   -136.50116 -8.3673388e-12 1.3243679e-11    252.51086            0   -2367.1936   -2367.1936    25170.847    19.974006    25.317237    49.775581      720 
      85            0   -91.912911   0.28629899   -236.16139   -213.21744     173.6401 -1.1162536e-12 1.2464669e-11    259.67376            0   -2367.2176   -2367.2176    25166.733    19.983667    25.326277    49.725632      720 
      86            0    409.23061   0.29138112    411.43471    418.87777    397.37936 3.4426913e-12 8.280217e-12    256.53828            0   -2367.2254   -2367.2254    25136.027    19.965727    25.305389    49.750618      720 
      87            0    381.40921   0.29395509    516.77372    513.67787    113.77604 -6.4751603e-12 1.4400491e-11    249.04828            0   -2367.2326   -2367.2326    25140.431    19.956617    25.295981    49.800566      720 
      88            0   -126.57707   0.29903603   -34.313481   -34.427796   -310.98994 2.1485797e-12 1.3298078e-11    246.47174            0    -2367.238    -2367.238    25173.635    19.967208    25.309528    49.813212      720 
      89            0   -99.351493   0.30160213   -129.81239   -144.82856   -23.413527 3.3526014e-12 1.8756878e-11    254.51754            0   -2367.2437   -2367.2437    25169.821    19.975661    25.320374    49.763264      720 
      90            0    151.51592   0.30669498    136.74922    127.91469    189.88384 -1.2306452e-11 1.3710332e-11    255.66985            0    -2367.245    -2367.245    25153.471    19.970808    25.313452    49.756625      720 
      91            0     261.4167   0.30926204    338.48339    440.76328    5.0034315 -9.0621116e-12 1.6152557e-11    244.34999            0   -2367.2591   -2367.2591    25149.328    19.962596    25.294302    49.806573      720 
      92            0   -337.33668   0.31434202    -290.7036   -205.97942   -515.32701 -1.0871752e-11  4.81068e-12    241.33836            0   -2367.2666   -2367.2666    25188.985    19.973675    25.310414    49.825704      720 
      93            0   -694.91494   0.31691003   -716.06845   -778.23203   -590.44432 -5.336091e-12 1.1620052e-11    249.91242            0   -2367.2821   -2367.2821    25211.693    19.984009    25.336028    49.794439      720 
      94            0   -76.289931   0.31947207   -101.51117   -247.57136    120.21274 8.0380171e-13 1.416524e-11    261.21812            0   -2367.3042   -2367.3042    25170.149    19.975142    25.330917    49.744491      720 
      95            0    186.13025    0.3245542    185.04007    156.82246    216.52822 -1.9240371e-12 2.1601102e-11    255.19339            0   -2367.3068   -2367.3068    25153.998    19.969484    25.313505    49.760861      720 
      96            0   -47.142546   0.32964206   -44.303138    68.795472   -165.91997 -3.0747389e-12 7.3769773e-12    244.05693            0   -2367.3093   -2367.3093    25170.807    19.972621    25.305863    49.801328      720 
      97            0    -7.870972   0.33220816    273.30969   -30.303804    -266.6188 -7.3246067e-12 1.1538924e-11    252.00675            0   -2367.3959   -2367.3959    25173.858    19.952371    25.318094    49.833828      720 
      98            0   -16.773809   0.33477712   -15.741638    -22.42849   -12.151299 -4.7002544e-12 8.1351591e-13    249.98989            0   -2367.4091   -2367.4091    25172.374    19.972621    25.316007    49.784474      720 
      99            0    592.78672   0.33986306    591.43997    651.60224    535.31796 -6.0137291e-12 -4.9866031e-12    251.79325            0   -2367.4169   -2367.4169    25133.035    19.963808    25.298246    49.763527      720 
     100            0    660.02072   0.34243703    451.14689    1004.3605    524.55475 -3.1795446e-12 1.3724535e-11    232.33568            0   -2367.5349   -2367.5349    25134.933    19.977917    25.272631    49.782541      720 
     101            0   -127.10543   0.34500599   -310.50812    101.75471   -172.56289 -2.8737918e-12 3.7133921e-12    232.04571            0   -2367.5507   -2367.5507    25186.872    19.987886    25.298246    49.810049      720 
     102            0   -79.604808   0.34757018   -34.413252   -153.24132   -51.159853 -5.8270009e-12 6.4614472e-12    251.45421            0   -2367.5578   -2367.5578    25183.679    19.970885     25.32386    49.795713      720 
     103            0    164.13054   0.35266614    207.84687    121.08953    163.45522 -4.8438455e-12 1.6060088e-11    252.01107            0    -2367.559    -2367.559    25167.711    19.967387    25.316288    49.787745      720 
     104            0    299.71033     0.355232    178.06423    520.13076    200.93601 1.3470324e-12 3.8581088e-12    236.59969            0   -2367.5695   -2367.5695    25159.892    19.977172    25.290674    49.798284      720 
     105            0   -284.52709   0.36031508   -439.77518   -81.789009   -332.01707 -9.5895664e-13 9.9496835e-12    231.86254            0   -2367.5765   -2367.5765    25198.809    19.988319    25.303846    49.821547      720 
     106            0   -616.65236   0.36288309   -660.97165   -628.92717   -560.05826 -4.8999961e-12 1.0551952e-12     241.7749            0   -2367.5907   -2367.5907    25221.405    19.985428     25.32946    49.823002      720 
     107            0    102.98556   0.36545801    193.28905   -36.887091    152.55473 -6.9452985e-12 1.9117605e-12    256.75625            0   -2367.6114   -2367.6114    25174.144    19.965178     25.32619    49.786508      720 
     108            0    54.991955   0.36802411   -21.090412    222.82561   -36.759331 -2.2536353e-12 -1.4438321e-12    236.68864            0   -2367.6562   -2367.6562     25180.53    19.977873    25.300576    49.817877      720 
     109            0   -327.92603   0.37059617   -334.45743    -365.5578   -283.76287  9.76026e-13 9.3024666e-12    245.57163            0   -2367.6686   -2367.6686    25205.901    19.978688     25.32619    49.815605      720 
     110            0   -271.71978   0.37316418    -132.7063   -613.93586   -68.517194 -4.940197e-12 7.5773222e-12    264.38421            0   -2367.6877   -2367.6877    25202.385    19.967584    25.351805    49.786001      720 
     111            0    384.91108   0.37825799    517.61087    149.34553    487.77683 3.9832211e-12 6.7435953e-12    264.74747            0    -2367.697    -2367.697     25159.75    19.958395     25.32918    49.769075      720 
     112            0    584.13823   0.38083005    612.58733    598.79271    541.03463 3.0241556e-12 7.6326196e-12    251.19746            0   -2367.7082   -2367.7082    25148.156    19.962877    25.303566    49.785318      720 
     113            0   -179.72845   0.38591719   -247.44008    -67.96777   -223.77752 -4.0387332e-12 6.7318516e-12    237.36696            0   -2367.7208   -2367.7208    25199.306    19.981035     25.31043    49.827727      720 
     114            0   -942.82699     0.388484   -1068.7514   -756.53448   -1003.1951 -3.0490478e-12 6.2284858e-12    224.69743            0   -2367.7522   -2367.7522    25253.569    19.996805    25.319548    49.877675      720 
     115            0    62.439426   0.39106107    5.8691027     318.3965   -136.94732 1.0180194e-11 5.0745064e-12    229.96556            0   -2367.8491   -2367.8491    25191.698    19.977136    25.293934    49.854897      720 
     116            0   -74.899746   0.39363313     -66.5253   -83.118056   -75.055881 -6.0938309e-12 1.0720521e-11    245.30747            0   -2367.8646   -2367.8646    25200.093     19.97468    25.319548    49.827186      720 
     117            0    324.99844   0.39872599    361.29177     249.4502    364.25334 -5.8084556e-12 4.257579e-12    253.65424            0   -2367.8682   -2367.8682     25173.47    19.966849    25.317323    49.798443      720 
     118            0    565.24489   0.40382409    618.32728    422.20181    655.20559 3.3209727e-12 1.3201309e-11    260.43782            0   -2367.8697   -2367.8697    25157.524     19.96219    25.318304    49.776585      720 
     119            0    367.47136   0.40639305    411.86521   -26.239252    716.78811 -4.5205402e-12 1.1853735e-11    274.42709            0   -2367.8966   -2367.8966    25170.479    19.965973    25.343919    49.742456      720 
     120            0   -186.42442    0.4114821   -186.67539   -438.67532    66.077438 2.2263459e-12 3.3768472e-12    259.53523            0    -2367.904    -2367.904    25208.137    19.977273    25.343011    49.790481      720 
     121            0   -16.068873   0.41405821   -28.999758   -10.947671   -8.2591904 -6.4297509e-12 3.7217995e-12    245.06702            0    -2367.909    -2367.909    25198.679    19.975555    25.317397    49.826441      720 
     122            0     365.0478   0.41915417    437.75545    348.71284    308.67511 -3.088368e-12 9.0849663e-12    250.21283            0   -2367.9123   -2367.9123    25174.244    19.963844    25.311816    49.818306      720 
     123            0    231.21045   0.42173219    617.32814    45.694857    30.608367 -2.0948804e-12 1.0384635e-11    259.04957            0   -2367.9475   -2367.9475    25187.238    19.943594    25.330162    49.858491      720 
     124            0   -250.63327   0.42430115   -48.815469   -364.29245   -338.79189 4.8489239e-12 7.551667e-12    249.83248            0   -2367.9544   -2367.9544    25218.445    19.963844    25.333272    49.863509      720 
     125            0   -69.566989   0.42688298   -186.55967   0.35033915   -22.491633 -7.731264e-14 1.2108463e-11    240.56829            0   -2367.9609   -2367.9609    25204.934    19.984094    25.312926    49.826312      720 
     126            0    142.44809   0.43197513    90.537982    180.15909    156.64719 4.1032978e-12 1.465564e-11    244.71868            0    -2367.962    -2367.962    25191.171    19.976297    25.311598    49.821156      720 
     127            0    22.475558   0.43707919    227.08207   -124.59937   -35.056025 -1.4741634e-12 8.3558762e-12    254.68119            0   -2367.9654   -2367.9654     25200.47    19.959726    25.330642    49.843425      720 
     128            0   -562.93748    0.4421742   -498.58991    -606.9712   -583.25133 -1.5870455e-14 1.1517463e-11    242.41208            0   -2367.9733   -2367.9733     25240.07    19.978462    25.333368    49.869565      720 
     129            0   -416.73579   0.44474697   -604.86637    -204.3454   -440.99559 -2.5731594e-12 1.3871251e-11    227.88543            0   -2367.9998   -2367.9998    25231.445    19.994573    25.307754    49.862767      720 
     130            0    59.865767   0.44984317   -56.331146    223.98873    11.939716 -2.1892969e-14 1.4644632e-11    235.84318            0   -2368.0047   -2368.0047    25199.763    19.982326    25.302523    49.840982      720 
     131            0   -4.1118093   0.45493603    40.561947   -68.753638    15.856263 9.5412097e-13 1.4230901e-11    249.59971            0    -2368.007    -2368.007    25203.812    19.971816    25.323874    49.833171      720 
     132            0    77.396006   0.45751309     298.6611    53.211809   -119.68489 2.9517903e-12 2.1726626e-11    248.18524            0    -2368.132    -2368.132    25208.681    19.958668    25.320073    49.883119      720 
     133            0   -256.40712    0.4600842   -247.62314   -261.18234   -260.41587 5.4062237e-12 2.1753509e-11    243.87955            0   -2368.1391   -2368.1391    25229.528    19.978918    25.324589    49.864877      720 
     134            0   -67.422554   0.46266103    -307.9738   -28.844795    134.55093 6.4722852e-12 1.9219348e-11    244.14014            0   -2368.1454   -2368.1454    25215.315    19.994152    25.316396    49.814928      720 
     135            0    365.16378   0.46775913    247.56223    391.13401    456.79508 -8.3744465e-13 2.2548813e-11    249.12198            0   -2368.1498   -2368.1498    25187.816    19.978937    25.309142    49.812774      720 
     136            0    330.48963   0.47033906    503.35815    287.59555    200.51521 -2.0552246e-12 2.2958622e-11    252.27865            0   -2368.1612   -2368.1612    25193.153    19.958687    25.316628     49.85913      720 
     137            0   -73.813076   0.47544003    47.876894   -117.24447   -152.07165 6.3052178e-13 2.2666714e-11    248.20868            0   -2368.1646   -2368.1646    25219.759    19.968273    25.324704    49.871917      720 
     138            0   -54.952134   0.48053598   -169.21585   -10.033417     14.39287 -2.782123e-12 2.1242608e-11    243.42946            0   -2368.1671   -2368.1671    25217.063    19.984988    25.316084    49.841841      720 
     139            0    184.53947   0.48564005    89.772676    226.16297    237.68278 1.2031572e-12 2.5506005e-11    246.16208            0   -2368.1683   -2368.1683    25201.309    19.980061    25.311609    49.831796      720 
     140            0    151.61925   0.48821211    347.68442    17.439979    89.733353 -4.0184742e-12 2.2546349e-11    256.27444            0   -2368.1819   -2368.1819    25205.916    19.959811    25.328269    49.858654      720 
     141            0   -212.02463   0.49331617   -102.13729    -299.8757    -234.0609 -3.593731e-12 2.0254486e-11    249.74119            0   -2368.1849   -2368.1849    25230.002    19.971325     25.33144    49.871281      720 
     142            0   -300.85381   0.49588704   -453.92574   -182.64812   -265.98758 2.6534031e-12 2.0913917e-11    236.27436            0   -2368.1899   -2368.1899    25235.533    19.991575    25.314809    49.864426      720 
     143            0    108.63674   0.50099206    -66.28267    268.64334    123.54956 6.2062218e-12 2.032149e-11    237.96499            0   -2368.1934   -2368.1934    25208.359    19.987073     25.30296     49.84528      720 
     144            0    244.26398   0.50356412    325.72491    155.10152    251.96551 -6.3479536e-12 1.2787613e-11    254.93518            0   -2368.2013   -2368.2013     25200.26    19.966823    25.322335    49.841636      720 
     145            0   -130.83033   0.50867414   -27.909192   -263.21228   -101.36952 -2.5800954e-12 1.9735911e-11    253.61415            0   -2368.2042   -2368.2042    25225.421    19.970804    25.333736    49.859007      720 
     146            0   -653.80345   0.51124501   -707.65474   -526.02054   -727.73506 1.6130484e-12 1.783471e-11    231.92311            0   -2368.2147   -2368.2147    25262.656    19.989844      25.3216    49.908955      720 
     147            0   -348.35106   0.51382399   -498.21839    4.1837304   -551.01852 -5.8547797e-12 2.3695299e-11    220.65312            0   -2368.2344   -2368.2344    25244.285    19.992268    25.295985    49.917108      720 
     148            0    135.75069     0.518924    61.174174    376.58798   -30.510078 5.1029626e-12 1.8231349e-11     232.9444            0   -2368.2399   -2368.2399     25211.55    19.979746    25.296118    49.883361      720 
     149            0   0.87836906   0.52150512    15.825722   -22.710046    9.5194316 1.2973248e-12 1.6466963e-11    248.69406            0   -2368.2434   -2368.2434    25219.294    19.975445    25.321733    49.858939      720 
     150            0   -287.21094   0.52407598   -492.41423   -195.76133   -173.45727 -4.96248e-12 1.7559369e-11    239.07529            0   -2368.2593   -2368.2593    25238.827    19.995695    25.317191    49.855966      720 
     151            0    478.64775     0.529181    309.48613    606.12649    520.33062 8.1596248e-13 2.4477413e-11    244.98551            0   -2368.2716   -2368.2716    25189.291    19.981859    25.298959    49.828452      720 
     152            0    1182.7714   0.53175306    1157.0333    1285.8368    1105.4442 -3.41414e-13 2.6156634e-11    253.95507            0   -2368.2856   -2368.2856     25146.48    19.961609    25.287714    49.816371      720 
     153            0    818.66334     0.534338     1044.139    771.92349    639.92749 -2.7835983e-12 1.7261753e-11    260.09357            0    -2368.377    -2368.377    25177.863    19.949686    25.309029    49.866319      720 
     154            0   -24.237479   0.53944206    109.90712   -80.509007   -102.11055 -3.79205e-13 1.6751548e-11    252.02035            0   -2368.3918   -2368.3918    25233.183    19.968471    25.326543    49.894341      720 
     155            0     3.386549   0.54454517   -47.867708    31.143266    26.884089 3.8779903e-12 1.9878107e-11     247.6462            0   -2368.3934   -2368.3934    25230.234    19.981422    25.318258    49.872491      720 
     156            0   -33.988056   0.54712415   -58.488071   -290.91247    247.43637 -1.8278988e-12 2.540306e-11    266.60177            0   -2368.4214   -2368.4214    25233.196    19.980542    25.343873    49.830128      720 
     157            0    185.71266   0.54970407    194.98062    176.90982    185.24755 2.6894273e-12 1.814381e-11    252.34604            0   -2368.4359   -2368.4359    25221.748    19.974823    25.318258    49.872188      720 
     158            0   -215.63948   0.55480719   -220.17717   -137.03407    -289.7072 -3.7293587e-12 2.5274508e-11    242.22133            0   -2368.4398   -2368.4398    25249.702     19.98168    25.318818    49.909225      720 
     159            0   -429.15492   0.55991697   -436.13414   -258.99088   -592.33976 -2.7666395e-14 1.8387482e-11    233.93814            0   -2368.4413   -2368.4413    25265.391    19.984984     25.31526    49.938998      720 
     160            0   -111.27965   0.56249905   -74.755696    286.44107   -545.52434 -2.6337135e-12 2.0754106e-11    222.37086            0   -2368.4564   -2368.4564    25248.093    19.977175    25.289646    49.974879      720 
     161            0    164.99193   0.56508803     210.1009    371.30878   -86.433882 2.9753172e-12 1.7894456e-11    238.00392            0    -2368.467    -2368.467    25228.167    19.972712    25.300621    49.924931      720 
     162            0   -153.41272   0.57019806   -138.41228   -82.098474    -239.7274 -5.4151475e-12 1.8694684e-11    243.71667            0   -2368.4702   -2368.4702     25248.13    19.979657    25.318507    49.911785      720 
     163            0   -26.943716   0.57530117   -25.235613   -86.574302    30.978767 -5.1592665e-13 1.3898634e-11    253.96373            0   -2368.4717   -2368.4717    25238.425    19.978874    25.327204     49.87742      720 
     164            0    117.60659   0.58040404    118.35245    112.74663     121.7207 -5.5660795e-12 1.7808932e-11    251.91223            0   -2368.4722   -2368.4722    25229.229    19.976795    25.319583    49.879446      720 
     165            0   -24.415348   0.58551812   -53.652091    134.88943   -154.48339 3.2093639e-12 2.2954062e-11    239.45661            0    -2368.474    -2368.474    25240.113    19.980948    25.308273    49.912888      720 
     166            0   -414.09806   0.58809304    -314.6033    -454.1653    -473.5256 -3.4621801e-12 2.1948603e-11    248.18781            0   -2368.4982   -2368.4982    25268.279    19.977752    25.333888     49.92605      720 
     167            0    459.12322   0.59320903    626.08234     348.9005    402.38681 4.381984e-13 2.0273515e-11    262.40968            0   -2368.5146   -2368.5146    25211.187    19.960425     25.32264    49.878632      720 
     168            0    1062.3199     0.595788    1218.7285    854.69534    1113.5358 -1.0926102e-12 2.3595236e-11    276.54413            0   -2368.5272   -2368.5272    25173.004    19.952939    25.319128    49.828684      720 
     169            0    539.60967   0.59837103    532.00702    174.03279    912.78919 8.7987061e-12 2.7833628e-11    284.64293            0    -2368.602    -2368.602    25210.798    19.973189    25.343451    49.805056      720 
     170            0   -128.00722    0.6009531   -166.87425   -393.91268    176.76526 1.0388511e-11 2.5774247e-11    269.90405            0   -2368.6121   -2368.6121    25256.061    19.985121    25.348373    49.855005      720 
     171            0     1.696936   0.60352802   -14.085657    2.7781844     16.39828 -5.6825267e-14 1.8643696e-11    252.88366            0   -2368.6173   -2368.6173    25249.872    19.981338    25.322758     49.90265      720 
     172            0   -59.253671   0.60865021    171.29948   -84.379603   -264.68088 -1.2955838e-12 2.4891694e-11    252.54299            0   -2368.6207   -2368.6207    25256.937    19.964454    25.326962    49.950534      720 
     173            0    904.07224   0.61123013    1230.0074    953.53493    528.67444 2.5426084e-12 2.0116076e-11    257.94247            0   -2368.6416   -2368.6416     25197.94    19.944204    25.301991    49.933686      720 
     174            0    753.06429   0.61381698    980.28341    900.26228    378.64718 1.8415445e-12 1.5279318e-11    251.70278            0   -2368.7529   -2368.7529    25219.028    19.954931    25.297612    49.957255      720 
     175            0   -59.717869   0.61893821    76.885248     25.48651   -281.52537 7.0891379e-12 1.6306046e-11    247.40385            0   -2368.7669   -2368.7669    25272.072    19.973254     25.31885    49.974455      720 
     176            0    2.1238386   0.62405205   -2.4319031   -7.3746838    16.178103 1.3464521e-11 2.1132366e-11    255.72246            0   -2368.7696   -2368.7696    25265.558    19.982721    25.325427    49.924933      720 
     177            0   -151.92201   0.62663698   -403.18121    95.709705   -148.29453 -7.9917695e-13 1.5818995e-11    237.58193            0   -2368.7828   -2368.7828    25277.551    20.002971    25.305929    49.936511      720 
     178            0    507.36479   0.62922621    406.28343    663.49959    452.31135 3.825519e-12 1.3238458e-11     250.5002            0   -2368.7941   -2368.7941    25235.464    19.982721    25.301261    49.913095      720 
     179            0    714.20502   0.63180614    860.20896    632.49057    649.91553  5.79842e-14 1.9761897e-11    267.39622            0   -2368.8105   -2368.8105    25224.528    19.962471    25.318431    49.908206      720 
     180            0   -86.883702   0.63439417    88.731156    -276.4774   -72.904866 1.9283607e-12 1.0328038e-11    264.96209            0   -2368.8293   -2368.8293    25278.842    19.972133    25.344046     49.94095      720 
     181            0   -159.71141    0.6369791   -248.99321   -73.078433   -157.06258 5.0282108e-12 1.3997746e-11    247.20821            0   -2368.8393   -2368.8393    25284.488    19.992383    25.321065    49.946797      720 
     182            0    153.34472    0.6421001    58.079727    272.68244      129.272 3.6693731e-12 1.6176903e-11    248.65013            0   -2368.8414   -2368.8414    25263.873    19.988253    25.312018    49.934226      720 
     183            0    529.37325   0.64721704     492.3518    601.40466     494.3633 -1.8036232e-12 1.163245e-11     255.9379            0   -2368.8445   -2368.8445    25239.776    19.978756    25.308865    49.916532      720 
     184            0     425.0687   0.64980316    561.40925    233.21922    480.57764 6.8370428e-12 1.1527238e-11    271.56498            0   -2368.8731   -2368.8731    25249.771    19.968514    25.334479    49.911395      720 
     185            0   -37.541759   0.65492606     40.56394   -189.05701    35.867791 9.8848593e-12 1.3202973e-11    263.67956            0   -2368.8776   -2368.8776    25280.659    19.979383    25.340173    49.934042      720 
     186            0   0.13916434   0.66004205   -9.5686376    14.050914   -4.0647833 4.2222648e-12 1.1030498e-11    253.33558            0   -2368.8788   -2368.8788    25278.695    19.985068    25.324892    49.946082      720 
     187            0    257.50975   0.66262913    480.58266     254.3234    37.623183 1.7980615e-11 1.0227603e-11    254.60191            0   -2368.8947   -2368.8947      25266.2    19.964818    25.322084     49.97757      720 
     188            0   -460.64671   0.66775203   -292.71529   -495.07723   -594.14761 9.0919966e-12 1.401016e-11    248.15008            0   -2368.9057   -2368.9057    25315.648    19.979486    25.339255    50.004707      720 
     189            0   -992.91895   0.67033911   -986.65476   -1043.6092   -948.49289 -1.2243362e-12 1.1914717e-11    243.04754            0   -2368.9193   -2368.9193    25353.883    19.999736    25.351478    50.005403      720 
     190            0   -446.07349   0.67292619   -592.34762   -466.20267   -279.67019 6.4580519e-12 2.563125e-11    248.10514            0   -2368.9682   -2368.9682    25320.057    20.003685    25.337966    49.955455      720 
     191            0    22.933823   0.67804718   -68.093753     21.00768    115.88754 6.2479963e-12 2.2620147e-11    251.99675            0   -2368.9729   -2368.9729    25289.033    19.992766    25.327111    49.942894      720 
     192            0   -1.7886782   0.68316817    10.914846    -4.023735   -12.257146 7.5503949e-12 2.3542767e-11    250.42598            0   -2368.9736   -2368.9736    25291.852    19.985556    25.327878    49.964965      720 
     193            0    258.73448   0.68575811    188.27397    493.58848    94.341005 8.3380474e-13 2.8398126e-11    235.90233            0   -2368.9823   -2368.9823    25277.355    19.987859    25.302263    49.981119      720 
     194            0   -453.60544   0.69088411    -598.2613   -182.78845   -579.76658 7.9510641e-13 1.682424e-11    223.74674            0   -2368.9933   -2368.9933    25327.435    20.004007    25.313327    50.017846      720 
     195            0   -1213.9851      0.69347     -1389.52   -1051.3901   -1201.0451 -4.8242449e-12 1.3135525e-11    216.32155            0   -2369.0236   -2369.0236    25387.565    20.019152    25.338941    50.048022      720 
     196            0    -378.4565   0.69605517   -454.78334   -338.40782   -342.17834 -3.1775529e-12 4.2774186e-12    228.68271            0   -2369.1019   -2369.1019    25340.821    20.001488    25.334374    50.009004      720 
     197            0    4.0260987   0.70119619   -36.762041    45.574597    3.2657395 -5.831454e-12 1.9907208e-12    233.01437            0    -2369.105    -2369.105    25315.235    19.993323      25.3267    49.994056      720 
     198            0   -1.0773348   0.70632219    7.4024645   -11.490796   0.85632656 -4.1983305e-12 5.6876348e-12    236.13088            0   -2369.1051   -2369.1051    25315.644    19.989855    25.331418    49.994223      720 
     199            0    240.80579   0.71144414    327.31171     280.9483    114.15737 -5.4003073e-12 4.8199179e-12    232.76074            0    -2369.107    -2369.107      25301.3    19.980694    25.322493    50.006426      720 
     200            0    23.707342   0.71403599      210.444      138.847   -278.16897 -8.0935891e-13 1.2185581e-11    218.96516            0   -2369.1139   -2369.1139    25319.692     19.97663    25.320765    50.056374      720 
     201            0   -313.76587   0.71915913   -330.32625   -328.02309   -282.94827 2.8356881e-13 1.1198548e-11    224.54464            0   -2369.1207   -2369.1207    25339.947     19.99677    25.338408    50.011114      720 
     202            0   -29.568412   0.72428107   -147.52764   -105.55942    164.38182 -5.1405524e-13  1.39661e-11     233.1471            0    -2369.124    -2369.124    25319.491    20.000284    25.337964    49.962838      720 
     203            0    157.66209   0.72941399    125.17399    142.02801    205.78425 -1.8530344e-12 1.6507407e-11    229.34407            0   -2369.1256   -2369.1256    25308.448    19.991239     25.32919     49.98095      720 
     204            0    3.3857666   0.73453617    23.525951    22.685286   -36.053937 -2.5858346e-12 1.8502335e-11    223.73361            0   -2369.1265   -2369.1265     25319.91    19.989567    25.329352    50.007447      720 
     205            0   -47.597324   0.73966217   -45.909749   -50.455674   -46.426548 5.2771521e-12 1.6852264e-11    224.96186            0   -2369.1266   -2369.1266    25322.961    19.991692    25.332254    50.002432      720 
     206            0    4.4313463   0.74479008   -7.4209232   -14.459543    35.174506 3.6347573e-12 2.3103744e-11    226.99842            0   -2369.1267   -2369.1267    25319.141     19.99196    25.332583    49.993567      720 
     207            0    84.144094   0.74991798    84.551108    117.93206    49.949115 3.1701402e-12 2.4322844e-11    223.61008            0    -2369.127    -2369.127    25314.485    19.989852    25.326467    50.001715      720 
     208            0    -25.93683   0.75504208   -17.362636    53.358228   -113.80608 6.3004288e-12 2.1847929e-11    218.27313            0   -2369.1275   -2369.1275    25322.634    19.990798    25.324743    50.018849      720 
     209            0   -258.43345   0.75763011    -168.8756   -415.93444   -190.49031 1.1185795e-11 2.4709742e-11    228.33177            0   -2369.1318   -2369.1318    25338.369    19.988733    25.350358    50.004523      720 
     210            0    150.84684   0.76276112    298.16906   -136.80813     291.1796 5.7326529e-12 2.5593839e-11    238.90288            0   -2369.1364   -2369.1364    25311.378    19.979019    25.353787    49.968785      720 
     211            0     407.2466   0.76535106    241.00588    345.50187    635.23205 7.2704534e-12 2.426921e-11    210.34577            0    -2369.163    -2369.163    25300.629    19.999269    25.329581    49.944676      720 
     212            0   -211.12977    0.7704742   -415.00428   -217.69883  -0.68620825 7.8455047e-13 2.3978453e-11     193.6478            0   -2369.1715   -2369.1715    25344.506    20.011238    25.337287    49.986161      720 
     213            0   -298.86133   0.77306914   -380.37888   -218.39714   -297.80799 5.8576581e-12 2.4912157e-11    177.99362            0   -2369.1779   -2369.1779    25355.007    20.003705    25.332018    50.036109      720 
     214            0     45.89793     0.778198    20.904516    125.26102   -8.4717481 5.2799286e-12 3.0654786e-11    180.93494            0   -2369.1805   -2369.1805    25332.478    19.994604    25.325442    50.027388      720 
     215            0    61.762006   0.78332305    112.18985    17.252661    55.843505 2.0329763e-12 2.6657854e-11    188.82556            0   -2369.1812   -2369.1812    25331.293    19.989058    25.336081    50.017916      720 
     216            0   -25.181887   0.78845501    17.075918   -78.753632   -13.867948 -1.4998511e-12 3.1182625e-11    188.38552            0   -2369.1814   -2369.1814    25337.064    19.990929     25.33859    50.019675      720 
     217            0   -26.981709   0.79358315   -57.199093   -8.8432837   -14.902752 7.2337843e-12 3.071377e-11    183.77928            0   -2369.1817   -2369.1817     25337.15    19.996197    25.332254    50.019174      720 
     218            0    17.359653   0.79871416    -9.323254    39.429541    21.972671 8.3034215e-14 3.1328953e-11    183.95872            0   -2369.1817   -2369.1817    25334.229    19.995293    25.331042    50.018061      720 
     219            0    14.490018   0.80384398    37.651704    3.0414758    2.7768738 5.4339142e-12 2.9819183e-11    185.55775            0   -2369.1818   -2369.1818    25334.707    19.991721    25.334121    50.021864      720 
     220            0   -19.830531   0.80897713   0.66745134   -33.191031   -26.968012 -4.9907497e-12 2.7319835e-11    185.25927            0   -2369.1818   -2369.1818        25337    19.992415    25.334965    50.022987      720 
     221            0   -16.463389   0.81410098   -51.645126   0.55495309    1.7000067 5.8054324e-13 2.835291e-11    183.62114            0    -2369.182    -2369.182    25336.486     19.99643    25.332156    50.017477      720 
     222            0    35.993065   0.81923318    4.7708382    54.067081    49.141276 7.8705022e-12 3.2393688e-11    184.05035            0    -2369.182    -2369.182    25333.003    19.995384    25.331036    50.015426      720 
     223            0    27.414327   0.82436609     96.34469    -15.24826    1.1465523 4.7520299e-12 2.9238598e-11    186.04155            0   -2369.1825   -2369.1825    25334.352    19.988254    25.336732    50.024682      720 
     224            0   -78.975435   0.82949615   -19.129197   -118.64927   -99.147836 4.2823006e-12 3.2182703e-11     184.0501            0   -2369.1827   -2369.1827    25341.624    19.990459    25.338594    50.029846      720 
     225            0   -54.540473   0.83462811   -179.93772    65.346197   -49.029896 -2.1136799e-13 2.3930388e-11    171.04037            0   -2369.1846   -2369.1846    25340.273    20.003628    25.324039    50.022977      720 
     226            0    156.44919    0.8397572    51.624656    258.25359    159.46933 1.3709818e-11 2.5696603e-11    172.77382            0   -2369.1855   -2369.1855    25326.452    19.999151    25.321582     50.01174      720 
     227            0    72.180382   0.84234715    167.81549   -92.295337      141.021 6.0578823e-12 1.3589345e-11    180.12978            0     -2369.19     -2369.19    25333.749    19.986283    25.347196    50.007773      720 
     228            0   -157.84659    0.8474791   -94.675125    -272.7024   -106.16226 1.3082723e-11 1.5142129e-11    171.59585            0   -2369.1912   -2369.1912    25350.003    19.991957    25.347504    50.025046      720 
     229            0   -74.876983   0.85260606   -112.38786    36.653905   -148.89699 7.1616778e-12 7.6085845e-12    152.04828            0   -2369.1936   -2369.1936    25346.499    19.997965    25.326152    50.045264      720 
     230            0     69.07286   0.85774398    46.437987    157.30178    3.4788127 1.8133113e-12 1.2525331e-12    154.96729            0   -2369.1941   -2369.1941    25336.753    19.994849    25.325389    50.035322      720 
     231            0    19.595804   0.86286902    29.715644    -11.38091    40.452676 9.2623234e-12 8.0136529e-12    162.31067            0   -2369.1948   -2369.1948     25339.45    19.993362     25.33683    50.021772      720 
     232            0   -21.442575   0.86799216   -16.810585   -45.229064   -2.2880765 -1.1813032e-13 1.0515504e-11    161.25313            0   -2369.1948   -2369.1948     25342.26    19.994346    25.337011    50.024501      720 
     233            0   -6.4078821   0.87313604   -12.353366     6.342566   -13.212846 9.6259018e-12 6.6008001e-12    158.68896            0   -2369.1949   -2369.1949    25341.499    19.994852    25.333516    50.028633      720 
     234            0    12.870018     0.878263    10.786175    21.906425    5.9174531 2.7292834e-12 1.0990565e-11    159.14374            0   -2369.1949   -2369.1949    25340.197    19.994297    25.333465    50.027553      720 
     235            0    2.7235305   0.88339019    11.328902   -11.323631    8.1653196 1.161087e-11 1.2156601e-11    160.55004            0   -2369.1949   -2369.1949    25340.785    19.993692    25.335699    50.025815      720 
     236            0   -28.069831   0.88851309    -28.14244   -36.187118   -19.879935 1.2533561e-12 1.142124e-11    159.73295            0   -2369.1949   -2369.1949    25342.844    19.994766     25.33578    50.027033      720 
     237            0   -3.3215841   0.89364719   -37.738048    34.806629   -7.0333324 6.9152372e-12 1.3192186e-11    156.53685            0    -2369.195    -2369.195    25341.253     19.99687    25.331215    50.027643      720 
     238            0    96.103641    0.8987751    95.518446    115.90241    76.890065 8.9123642e-12 1.2751041e-11    157.52576            0   -2369.1953   -2369.1953    25334.768    19.992982    25.330945    50.025099      720 
     239            0     5.143755   0.90390706    126.37786   -95.112309   -15.834283 2.2061207e-13  1.35153e-11    158.59484            0   -2369.1963   -2369.1963    25341.446    19.985524    25.343604    50.031955      720 
     240            0   -261.80109      0.90906   -251.54511   -299.67124   -234.18693 -1.7192252e-12 6.1399413e-12    142.01431            0   -2369.1985   -2369.1985    25359.508    19.997493    25.343602    50.037654      720 
     241            0   -7.4895294   0.91418815   -200.57452    140.53905    37.566887 -2.9582326e-11 8.6281831e-12    112.89641            0    -2369.203    -2369.203    25342.838    20.008636    25.322714    50.018139      720 
     242            0    219.24198   0.91932511    206.13446    238.35738    213.23409 -2.8703893e-11 2.0860127e-12    109.53356            0   -2369.2058   -2369.2058    25328.952    19.992374    25.330237    50.016534      720 
     243            0    2.7377298   0.92445803    80.759383   -69.963734   -2.5824605 -2.8058472e-11 -5.9503349e-13    104.77448            0   -2369.2074   -2369.2074    25344.224    19.988942    25.342948    50.030177      720 
     244            0   -72.758699   0.92959714   -68.191813   -76.349452    -73.73483 -3.76079e-11 -5.1152093e-12    97.658053            0   -2369.2078   -2369.2078    25349.307     19.99534    25.338356    50.033267      720 
     245            0   -1.1833023    0.9347322    -20.84025    25.491619   -8.2012762 -4.3805689e-11 -7.025591e-12    95.854566            0   -2369.2079   -2369.2079    25344.496    19.996054    25.334284    50.030027      720 
     246            0    21.176046   0.93986702    20.121354    22.307756    21.099027 -3.280144e-11 -6.4790481e-12    97.629493            0    -2369.208    -2369.208    25342.942    19.994404    25.336106    50.027489      720 
     247            0  -0.18305472   0.94500804    3.7136128   -8.5065358    4.2437589 -4.1283845e-11 -7.9286195e-13    97.948167            0    -2369.208    -2369.208     25344.36    19.994361    25.337364    50.027912      720 
     248            0   -8.6802497   0.95013809   -9.5154102   -6.7931969   -9.7321419 -3.4458102e-11 1.7855128e-12     97.07943            0    -2369.208    -2369.208    25344.987    19.994815    25.336635    50.029451      720 
     249            0    1.2997134   0.95527315  -0.66139724    7.4724924    -2.911955 -4.6132928e-11 2.389801e-12    96.869049            0    -2369.208    -2369.208    25344.338    19.994747    25.336063    50.029469      720 
     250            0    12.397931   0.96040201    15.260778    4.9973976    16.935617 -4.2532027e-11 3.6008458e-12        97.88            0    -2369.208    -2369.208    25343.494    19.994255    25.337037    50.027113      720 
     251            0   -4.9624416   0.96554208   -1.3778981   -19.279003    5.7695769 -4.2504071e-11 3.6131615e-12    98.103178            0    -2369.208    -2369.208    25344.609    19.994462    25.337987    50.026919      720 
     252            0   -38.909214   0.97067118   -53.819442   -11.989996   -50.918204 -3.0191701e-11 4.3662535e-12    93.648382            0   -2369.2081   -2369.2081    25347.053    19.996239    25.335063     50.03307      720 
     253            0    16.527056   0.97580409   -1.3969684    65.597674   -14.619536 -2.4723455e-11 1.0774251e-11    91.744046            0   -2369.2082   -2369.2082    25343.412    19.995623    25.332058    50.033359      720 
     254            0    83.722961   0.98094606    138.35676    19.283662    93.528466 3.6606611e-11 1.7421396e-11    91.893342            0    -2369.209    -2369.209    25338.006    19.989462     25.34096    50.020526      720 
     255            0   -38.094142   0.98607898    18.540041   -130.96183   -1.8606339 5.5837047e-11 1.8978607e-11    88.586407            0   -2369.2094   -2369.2094    25345.777    19.991087    25.345967    50.021917      720 
     256            0   -57.925069   0.99121904   -108.79743   -16.701042   -48.276739 1.4620639e-10 2.6132925e-11    67.700677            0   -2369.2105   -2369.2105    25346.453    19.999024    25.334797    50.025444      720 
     257            0    23.383223    0.9963541   -19.818652    69.559387    20.408935 1.5196374e-10  2.86632e-11    66.642044            0   -2369.2106   -2369.2106    25340.961    19.997272    25.332815    50.022901      720 
     258            0    17.129314    1.0014942    34.179892    5.6768134    11.531235 1.720815e-10 3.2745797e-11     67.88511            0   -2369.2108   -2369.2108    25341.372    19.993002    25.338124    50.023914      720 
     259            0   -7.8473322    1.0066252    6.3217045   -19.794024   -10.069677 1.7425856e-10 3.2378439e-11     67.51601            0   -2369.2108   -2369.2108    25343.023    19.993572    25.338661    50.024686      720 
     260            0   -5.2890682     1.011755   -10.611691   -1.4654494   -3.7900643 1.6948045e-10 2.9836378e-11    66.439755            0   -2369.2108   -2369.2108    25342.766    19.994947    25.337206    50.023611      720 
     261            0     2.819466    1.0168941   -1.6405431    6.5808564    3.5180848 1.7455909e-10 2.5297857e-11    66.515984            0   -2369.2108   -2369.2108    25342.223    19.994767    25.337053    50.023291      720 
     262            0    1.8052588    1.0220261    4.4761071  -0.64661491    1.5862842 1.6331911e-10 2.5588261e-11    66.840184            0   -2369.2108   -2369.2108    25342.311    19.994265    25.337629    50.023585      720 
     263            0   -3.1615337    1.0271602  -0.94491831    -5.417162   -3.1225208 1.668916e-10 2.8767318e-11     66.76503            0   -2369.2108   -2369.2108    25342.646    19.994369    25.337709    50.023825      720 
     264            0    -2.017382     1.032289   -6.6329569    3.7700074   -3.1891965 1.7517153e-10 2.8618858e-11    66.231346            0   -2369.2108   -2369.2108    25342.567    19.994842    25.336976    50.023935      720 
     265            0     9.088413    1.0374291    5.2972567    14.247997    7.7199853 1.6320849e-10 2.5114699e-11    66.376036            0   -2369.2108   -2369.2108    25341.813    19.994621    25.336814    50.023318      720 
     266            0    4.6012693    1.0425601    13.455359   -12.759714    13.108163 1.3699953e-10  2.03659e-11    67.623144            0   -2369.2109   -2369.2109    25342.024    19.993778    25.338903    50.021719      720 
     267            0   -27.175981    1.0476892   -21.047535   -41.338785   -19.141622 9.9582852e-11 2.0054895e-11     66.77129            0   -2369.2109   -2369.2109    25344.173    19.994417    25.339267    50.023647      720 
     268            0   -8.1694315     1.052839    -17.35206     20.76873   -27.924964 -2.82037e-11 1.1237278e-11    62.683118            0    -2369.211    -2369.211    25343.072    19.995137    25.335192    50.027716      720 
     269            0    31.371707    1.0579731    28.678801    47.445383    17.990938 -8.4765864e-11 1.5470744e-11    63.579917            0   -2369.2111   -2369.2111    25340.299    19.994087    25.335575    50.024114      720 
     270            0    3.4103965    1.0631082    7.7003152    -9.983035    12.513909 -1.4102476e-10 8.0741704e-12    64.775062            0   -2369.2111   -2369.2111    25341.948     19.99399     25.33875    50.021341      720 
     271            0   -12.556166    1.0682411   -12.327352   -18.111131   -7.2300158 -1.6115332e-10 6.0256212e-12    63.932006            0   -2369.2111   -2369.2111    25343.061      19.9945    25.338383    50.022986      720 
     272            0   -1.1615326    1.0733812   -3.6346299    3.8397096   -3.6896774 -1.6702751e-10 8.4046449e-12    63.202954            0   -2369.2111   -2369.2111    25342.356    19.994513     25.33724    50.023821      720 
     273            0    4.7302089    1.0785151    4.6245909     6.459005    3.1070307 -1.7759697e-10 4.4391881e-12    63.476755            0   -2369.2111   -2369.2111    25341.949    19.994259    25.337413    50.023311      720 
     274            0   0.10859545    1.0836482    1.7435941   -2.2518384   0.83403066 -1.7563226e-10 3.143774e-12    63.695497            0   -2369.2111   -2369.2111    25342.242    19.994203    25.337865    50.023137      720 
     275            0   -4.5326668    1.0887861   -5.6475735   -4.3132022   -3.6372248 -1.6994718e-10 -7.7866139e-15    63.467342            0   -2369.2111   -2369.2111    25342.551    19.994468    25.337727    50.023355      720 
     276            0   0.57176455    1.0939181   -3.2302987      4.66529   0.28030243 -1.7321976e-10 2.6174067e-12    63.250142            0   -2369.2111   -2369.2111     25342.21    19.994585    25.337285    50.023262      720 
     277            0    11.913349    1.0990531    16.468409    9.9454316    9.3262076 -1.6706203e-10 -2.5453168e-12     63.60308            0   -2369.2111   -2369.2111     25341.47    19.993812    25.337608    50.023098      720 
     278            0   -2.4665864     1.104187    9.7495052   -12.665927   -4.4833373 -1.6663314e-10 3.3184544e-12     63.76767            0   -2369.2111   -2369.2111    25342.448    19.993462     25.33863    50.023887      720 
     279            0   -29.722892    1.1093261   -40.816616   -23.860346   -24.491714 -1.1430285e-10 1.8629943e-12    61.607952            0   -2369.2112   -2369.2112     25344.15    19.995517    25.337763    50.023816      720 
     280            0     4.213975    1.1144562   -18.482724    22.257415    8.8672335 -5.9872568e-11 -2.8567307e-12    60.478167            0   -2369.2112   -2369.2112    25341.794    19.995842    25.336038     50.02176      720 
     281            0    20.685855    1.1195922    27.658129    14.925921    19.473515 6.3657122e-12 -3.5989351e-12    60.856458            0   -2369.2113   -2369.2113    25340.732     19.99342    25.337882    50.022081      720 
     282            0   -2.2008124     1.124732    7.7968004   -12.087141   -2.3120968 2.3211987e-11 -6.5566478e-12     60.58817            0   -2369.2113   -2369.2113    25342.272    19.993524    25.338709    50.023226      720 
     283            0   -6.8391919     1.129863   -8.7336872   -4.2806615    -7.503227 3.3275362e-11 -8.4975487e-12    59.563301            0   -2369.2113   -2369.2113    25342.565    19.994442    25.337702    50.023498      720 
     284            0   0.78989852     1.134999    -1.817976    4.5889613  -0.40128964 3.7573691e-11 -5.0081256e-12    59.544809            0   -2369.2113   -2369.2113    25342.049    19.994382    25.337443    50.023141      720 
     285            0    2.1675023    1.1401322    2.7605814   0.99095905    2.7509664 3.5429341e-11 -5.239201e-12    59.873399            0   -2369.2113   -2369.2113    25341.942    19.994134    25.337856    50.022735      720 
     286            0  -0.66117917    1.1452751  0.074659269   -2.3027616   0.24456479 4.3055615e-11 -4.4159057e-12     59.86872            0   -2369.2113   -2369.2113    25342.131    19.994165    25.337952     50.02284      720 
     287            0   -1.5725467    1.1504061   -2.2172598   0.19978914   -2.7001694 4.2114356e-11 -3.3197741e-12    59.602743            0   -2369.2113   -2369.2113    25342.211    19.994274    25.337671    50.023281      720 
     288            0     1.609322    1.1555371   0.97197199    3.8785338 -0.022539726 3.381826e-11 -4.9296095e-12    59.598415            0   -2369.2113   -2369.2113        25342    19.994227    25.337565    50.023191      720 
     289            0    3.3767407    1.1606781    5.0904575   -1.7909974     6.830762 3.3276822e-11 -7.7184539e-12    60.106697            0   -2369.2113   -2369.2113     25341.83    19.994043    25.338181      50.0221      720 
     290            0   -5.1917957    1.1658111   -3.9088318   -11.393647  -0.27290849 3.4544824e-11 -1.6830156e-12     60.05502            0   -2369.2113   -2369.2113    25342.396      19.9942     25.33844    50.022313      720 
     291            0   -7.7856958    1.1709471   -13.941732    4.5221665   -13.937522 2.7900507e-11 9.3207002e-12    58.314149            0   -2369.2113   -2369.2113    25342.662    19.994766    25.336863    50.024535      720 
     292            0     9.743362    1.1760812    5.6019556    22.066154    1.5619761 2.0536217e-11 2.1756765e-11    58.348446            0   -2369.2113   -2369.2113    25341.489     19.99437    25.336518    50.023892      720 
     293            0    4.4334534    1.1812201    10.681545   -3.5714826    6.1902976 2.0626279e-11 4.1244059e-11    59.236216            0   -2369.2114   -2369.2114    25341.752    19.993729    25.338408    50.022284      720 
     294            0   -5.9417788    1.1863501   -2.3316145   -12.284595    -3.209127 2.1173607e-11 4.6302447e-11    58.965361            0   -2369.2114   -2369.2114    25342.443    19.994071    25.338464     50.02268      720 
     295            0    -1.455229    1.1914821   -4.2715703    1.0359047   -1.1300214 9.840174e-12 4.8364221e-11    58.346394            0   -2369.2114   -2369.2114    25342.149    19.994469    25.337593    50.022824      720 
     296            0    2.2196218    1.1966231    0.6068724    4.0689296    1.9830634 1.5275929e-11 5.2501839e-11    58.413586            0   -2369.2114   -2369.2114    25341.906    19.994328    25.337579    50.022725      720 
     297            0   0.38004954    1.2017531     1.475506  -0.45338502   0.11802767 1.6205397e-11 4.9174233e-11    58.542083            0   -2369.2114   -2369.2114    25342.036     19.99416    25.337854     50.02286      720 
     298            0   -1.3724174    1.2068882  -0.86456768   -1.9135556   -1.3391291 1.3003137e-11 4.6314605e-11    58.504008            0   -2369.2114   -2369.2114    25342.151    19.994228    25.337862    50.022901      720 
     299            0  -0.16115413     1.212018   -1.4762668   0.85336391   0.13944054 1.2640385e-11 4.7166567e-11    58.417023            0   -2369.2114   -2369.2114    25342.063    19.994343    25.337699     50.02276      720 
     300            0    2.8435747      1.21716    2.5196799    3.2356254    2.7754189 1.2804296e-11 4.1471862e-11    58.470189            0   -2369.2114   -2369.2114    25341.863    19.994228    25.337696    50.022661      720 
     301            0   0.18351836    1.2222922      3.59004   -2.9325781  -0.10690685 1.2144354e-11 3.8261432e-11    58.582802            0   -2369.2114   -2369.2114    25342.052    19.993997    25.338062    50.022887      720 
     302            0   -8.5563289     1.227422   -7.8038069   -9.2247713   -8.6404085 1.1731508e-11 3.0227311e-11    58.176833            0   -2369.2114   -2369.2114    25342.638    19.994316     25.33802    50.023331      720 
     303            0  -0.49818232    1.2325571   -7.5330215    8.7975663   -2.7590917 1.5668239e-12 6.9967007e-12    57.128141            0   -2369.2114   -2369.2114    25342.092    19.994763    25.336986    50.023176      720 
     304            0    14.900577    1.2377021    13.775666    16.169265    14.756801 -1.5678223e-11 -2.5443253e-11    57.144147            0   -2369.2114   -2369.2114    25341.023    19.994127    25.337401    50.021836      720 
     305            0   0.25658583    1.2428391    4.2865442   -8.2629301    4.7461433 -3.2955651e-11 -5.2190179e-11    56.928608            0   -2369.2114   -2369.2114    25341.971     19.99398    25.338564    50.021778      720 
     306            0   -7.9767302    1.2479692   -7.8566707   -8.4201132   -7.6534067 -2.9310213e-11 -7.4358702e-11    55.886066            0   -2369.2114   -2369.2114    25342.562    19.994377    25.338023    50.023022      720 
     307            0  -0.15929576     1.253108   -1.0894806    3.0396546   -2.4280613 -2.5265125e-11 -8.1962054e-11    55.568816            0   -2369.2114   -2369.2114    25342.053    19.994337    25.337551    50.023046      720 
     308            0    2.5588037    1.2582412    2.7276535    2.6650993    2.2836584 -3.6572888e-11 -8.0410394e-11    55.779936            0   -2369.2114   -2369.2114    25341.849    19.994223     25.33777    50.022499      720 
     309            0 -0.015238891    1.2633781   0.28070958  -0.99615674   0.66973048 -3.1332366e-11 -8.4858176e-11    55.816942            0   -2369.2114   -2369.2114    25342.014    19.994252    25.337916    50.022463      720 
     310            0    -1.056619    1.2685151   -1.2917444  -0.81448763   -1.0636249 -3.4589588e-11 -8.6111585e-11    55.708378            0   -2369.2114   -2369.2114    25342.091    19.994304    25.337829    50.022656      720 
     311            0   0.15266536    1.2736521  -0.15403366   0.90994239  -0.29791264 -2.977837e-11 -8.5019644e-11    55.679646            0   -2369.2114   -2369.2114    25342.013    19.994292     25.33776    50.022671      720 
     312            0     1.361053    1.2787881    2.1008804   0.51382257     1.468456 -3.2268138e-11 -7.8617287e-11    55.782787            0   -2369.2114   -2369.2114    25341.927      19.9942    25.337878    50.022497      720 
     313            0  -0.60505436    1.2839191   0.36736344   -2.2421598  0.059633284 -2.8746669e-11 -8.0007511e-11    55.802046            0   -2369.2114   -2369.2114    25342.056    19.994212    25.337987    50.022506      720 
     314            0   -3.6211017    1.2890582   -6.5530044   -1.2239696   -3.0863312 -2.1259469e-11 -6.8352478e-11    55.353305            0   -2369.2114   -2369.2114    25342.259    19.994537    25.337691    50.022678      720 
     315            0    1.9866432    1.2941902    -1.900971    6.2593784    1.6015223 -2.7182465e-11 -6.1348526e-11    55.173236            0   -2369.2114   -2369.2114    25341.887    19.994524    25.337417    50.022517      720 
     316            0    6.4586048    1.2993221    12.578893    2.3579783    4.4389427 1.6582443e-11 1.7448269e-11    54.772221            0   -2369.2114   -2369.2114    25341.631    19.993736    25.338095    50.022645      720 
     317            0   -3.4304789    1.3044581    3.1130748   -9.0047067   -4.3998047 3.7047952e-11 4.576592e-11    54.426417            0   -2369.2114   -2369.2114      25342.3     19.99385    25.338427    50.023026      720 
     318            0    -3.971491    1.3095942   -7.5821294   -1.4682653   -2.8640784 7.0984519e-11 1.2150365e-10    53.055373            0   -2369.2114   -2369.2114    25342.313    19.994594    25.337733     50.02256      720 
     319            0    1.5983812     1.314733   -1.6191547    4.2441188    2.1701794 6.9522573e-11 1.3655299e-10     53.00934            0   -2369.2114   -2369.2114    25341.942    19.994485    25.337613    50.022337      720 
     320            0    1.2076009    1.3198681    2.3053259   0.18939972     1.128077 7.6323489e-11 1.4983792e-10    53.082141            0   -2369.2114   -2369.2114    25341.985    19.994178     25.33795    50.022522      720 
     321            0  -0.64927006    1.3250082   0.30360687   -1.6283345  -0.62308255 7.0778041e-11 1.478617e-10    53.047793            0   -2369.2114   -2369.2114     25342.11    19.994216    25.337983     50.02261      720 
     322            0  -0.47289798    1.3301392  -0.98679203   0.19100495  -0.62290688 7.6581413e-11 1.460454e-10    52.924754            0   -2369.2114   -2369.2114    25342.098    19.994319    25.337835    50.022623      720 
     323            0   0.66890582     1.335274   0.22529238    1.2916286   0.48979643 8.3516854e-11 1.4713301e-10    52.936449            0   -2369.2114   -2369.2114    25342.021    19.994297    25.337816    50.022562      720 
     324            0   0.41794215    1.3404121    1.0629596  -0.79237589    0.9832427 7.7640638e-11 1.4568896e-10    53.035571            0   -2369.2114   -2369.2114    25342.033    19.994224    25.337983     50.02244      720 
     325            0   -1.8497383    1.3455451   -1.3283055   -2.9709467   -1.2499627 7.5319172e-11 1.4540076e-10    52.984779            0   -2369.2114   -2369.2114    25342.188    19.994265     25.33802    50.022568      720 
     326            0    -1.114007     1.350683   -2.2989047    2.4876461   -3.5307623 7.4429005e-11 1.4309871e-10    52.487358            0   -2369.2114   -2369.2114    25342.173    19.994372    25.337594    50.023112      720 
     327            0    5.5849499    1.3558171    4.9506777    8.7231303    3.0810417 6.5152813e-11 1.3042566e-10    52.432994            0   -2369.2114   -2369.2114    25341.726    19.994237    25.337505    50.022746      720 
     328            0    2.1497244    1.3609581    4.4054788   -5.2959287     7.339623 2.925993e-11 7.1175005e-11    52.148267            0   -2369.2114   -2369.2114    25341.933    19.994092    25.338515    50.021521      720 
     329            0   -9.1944611    1.3660901   -8.8467478   -13.912639   -4.8239962 7.3934316e-12 3.6026644e-11     51.25043            0   -2369.2114   -2369.2114    25342.736    19.994391    25.338508    50.022374      720 
     330            0   -1.4339349    1.3712242   -3.8080507    3.5694206   -4.0631747 -2.474756e-11 -2.7228441e-11    49.540844            0   -2369.2114   -2369.2114    25342.325    19.994464    25.337519     50.02333      720 
     331            0    4.2219473    1.3763621    3.7749707    6.5667693    2.3241019 -4.862303e-11 -4.1124725e-11    49.623277            0   -2369.2114   -2369.2114    25341.943    19.994246    25.337645    50.022875      720 
     332            0   0.31366477    1.3814991    1.4493338   -1.1965213   0.68818178 -5.4988276e-11 -4.5026507e-11    49.706117            0   -2369.2114   -2369.2114    25342.195    19.994192    25.338063    50.022682      720 
     333            0   -1.5090102    1.3866332     -1.35574   -2.0829492   -1.0883414 -5.4650412e-11 -4.8853307e-11    49.604523            0   -2369.2114   -2369.2114    25342.318    19.994289    25.338016    50.022775      720 
     334            0 -0.061830994     1.391768  -0.71836765   0.57161594 -0.038741277 -5.0309277e-11 -5.4155831e-11    49.521013            0   -2369.2114   -2369.2114    25342.223    19.994326    25.337881    50.022762      720 
     335            0    1.0885724     1.396909    1.2008392    1.1741696    0.8907083 -4.8600948e-11 -5.7945006e-11    49.553605            0   -2369.2114   -2369.2114    25342.149    19.994253    25.337907    50.022744      720 
     336            0 -0.099418745    1.4020422   0.75198888  -0.79665062   -0.2535945 -5.556765e-11 -5.329818e-11    49.573734            0   -2369.2114   -2369.2114    25342.231    19.994217    25.338001    50.022812      720 
     337            0   -2.4021846    1.4071741   -3.1161262   -2.1121477   -1.9782798 -4.0071142e-11 -5.4422681e-11    49.441037            0   -2369.2114   -2369.2114    25342.381    19.994364    25.337958    50.022826      720 
     338            0   0.38725022     1.412312   -2.1307644    2.3007523   0.99176275 -4.9205136e-11 -5.320606e-11    49.289702            0   -2369.2114   -2369.2114     25342.19    19.994454    25.337759    50.022615      720 
     339            0    6.5966965    1.4174502    8.5852586    5.1577995    6.0470315 -4.6966774e-11 -4.2167514e-11    49.095048            0   -2369.2114   -2369.2114    25341.802    19.994036    25.337942    50.022536      720 
     340            0   -1.0523659     1.422595    4.7569121   -6.3394777   -1.5745321 -4.301523e-11 -3.0660613e-11    48.663455            0   -2369.2114   -2369.2114    25342.348    19.993867    25.338442    50.023047      720 
     341            0   -9.3894588    1.4277282   -11.631433   -6.5736794   -9.9632637 -2.7428507e-11 5.9619548e-12    46.393377            0   -2369.2115   -2369.2115     25342.96     19.99456    25.337906    50.023581      720 
     342            0    0.9203777    1.4328711   -3.4649695    6.7892076  -0.56310495 -1.5298454e-11 1.9902899e-11    45.559424            0   -2369.2115   -2369.2115     25342.29    19.994562    25.337441    50.023172      720 
     343            0    3.9683947     1.438004    4.6053837     2.631494    4.6683065 -9.7105767e-12 3.6741117e-11    45.388031            0   -2369.2115   -2369.2115    25342.092    19.994156    25.338025    50.022641      720 
     344            0  -0.41054021    1.4431381   0.59884264   -2.6494802   0.81901693 -6.954834e-12 3.9653694e-11    45.288094            0   -2369.2115   -2369.2115    25342.389    19.994193    25.338192    50.022806      720 
     345            0   -1.3334216     1.448276   -1.5338583  -0.77822078   -1.6881857 -7.1598145e-12 4.3671035e-11    44.982376            0   -2369.2115   -2369.2115    25342.469     19.99429    25.337966    50.023167      720 
[...]
Comm    | 0.00054502 | 0.00054502 | 0.00054502 |   0.0 |  0.37
Output  | 0.00079393 | 0.00079393 | 0.00079393 |   0.0 |  0.54
Modify  | 0          | 0          | 0          |   0.0 |  0.00
Other   |            | 0.001074   |            |       |  0.72

Nlocal:    720 ave 720 max 720 min
Histogram: 1 0 0 0 0 0 0 0 0 0
Nghost:    1279 ave 1279 max 1279 min
Histogram: 1 0 0 0 0 0 0 0 0 0
Neighs:    41740 ave 41740 max 41740 min
Histogram: 1 0 0 0 0 0 0 0 0 0

Total # of neighbors = 41740
Ave neighs/atom = 57.9722
Neighbor list builds = 0
Dangerous builds = 0
Reading restart file ...
  restart file = 13 Jan 2016, LAMMPS = 13 Jan 2016
  triclinic box = (0.127935 0.138125 -0.0372007) to (20.1221 25.4763 49.9854) with tilt (0 0 0)
  1 by 1 by 1 MPI processor grid
  720 atoms
Changing box ...
  triclinic box = (0.127935 0.138125 -0.0372007) to (20.1221 25.4763 49.9854) with tilt (-2.53382e-05 0 0)
Neighbor list info ...
  1 neighbor list requests
  update every 1 steps, delay 0 steps, check yes
  max neighbors/atom: 2000, page size: 100000
  master list distance cutoff = 7.72488
  ghost atom cutoff = 7.72488
Setting up cg style minimization ...
  Unit style: metal
Memory usage per processor = 3.36457 Mbytes
Step Temp Press CPU Pxx Pyy Pzz Pxy Pxz Pyz KinEng PotEng TotEng Volume Lx Ly Lz Atoms 
    1018            0 -3.652131e-07            0 -3.1742931e-07 -1.1195736e-06 3.4136358e-07   0.16955632 0.0084902167 9.7227898e-08            0   -2369.2116   -2369.2116    25342.199    19.994129    25.338199    50.022577      720 
    1019            0 -3.8207486e-07 0.0050230026 -3.2796351e-07 -1.1415565e-06 3.2329539e-07   0.16403878  0.006922316 8.463922e-08            0   -2369.2116   -2369.2116    25342.199    19.994129    25.338199    50.022577      720 
    1020            0 -3.9272219e-07  0.010047913 -3.3129774e-07 -1.1538063e-06 3.0693749e-07   0.16274436   0.00653405 8.6003687e-08            0   -2369.2116   -2369.2116    25342.199    19.994129    25.338199    50.022577      720 
    1021            0 -4.1067611e-07  0.015070915 -3.5036369e-07 -1.1656214e-06 2.8395679e-07   0.16213342 0.0055783475 7.830709e-08            0   -2369.2116   -2369.2116    25342.199    19.994129    25.338199    50.022577      720 
    1022            0 -4.2878996e-07  0.020100117 -3.6821666e-07 -1.1771303e-06 2.5897712e-07   0.16186381 0.0049389158 6.8820191e-08            0   -2369.2116   -2369.2116    25342.199    19.994129    25.338199    50.022577      720 
    1023            0 -4.4277563e-07  0.025126934 -3.7586893e-07 -1.1891898e-06 2.3673185e-07   0.16177284 0.0046923724 6.622421e-08            0   -2369.2116   -2369.2116    25342.199    19.994129    25.338199    50.022577      720 
    1024            0 -4.5716133e-07  0.030153036 -3.8810843e-07 -1.1998901e-06 2.1651452e-07   0.16173846 0.0045260827 6.3311676e-08            0   -2369.2116   -2369.2116    25342.199    19.994129    25.338199    50.022577      720 
    1025            0 -4.7303817e-07  0.035175085 -4.00686e-07 -1.2119344e-06 1.9350589e-07   0.16172097 0.0043113693 5.9923848e-08            0   -2369.2116   -2369.2116    25342.199    19.994129    25.338199    50.022577      720 
    1026            0 -4.9532424e-07  0.040196896 -4.1749605e-07 -1.2296264e-06 1.6114972e-07   0.16170423 0.0039777522 5.6591566e-08            0   -2369.2116   -2369.2116    25342.199    19.994129    25.338199    50.022577      720 
    1027            0 -5.1711618e-07  0.045227051 -4.3586708e-07 -1.2459772e-06 1.3049578e-07   0.16169306 0.0037042042 5.2465506e-08            0   -2369.2116   -2369.2116    25342.199    19.994129    25.338199    50.022577      720 
    1028            0 -5.5674686e-07  0.050250053 -4.6902141e-07 -1.2758037e-06 7.4584567e-08   0.16167735 0.0031811725 4.4477954e-08            0   -2369.2116   -2369.2116    25342.199    19.994129    25.338199    50.022577      720 
    1029            0 -6.3188617e-07  0.055279016 -5.2897737e-07 -1.3339015e-06 -3.2779582e-08    0.1616495 0.0022025736 2.9459017e-08            0   -2369.2116   -2369.2116    25342.199    19.994129    25.338199    50.022577      720 
    1030            0 -6.8482454e-07  0.060301065 -5.7292217e-07 -1.3735355e-06 -1.0801598e-07    0.1616302 0.0014938566 1.8875335e-08            0   -2369.2116   -2369.2116    25342.199    19.994129    25.338199    50.022577      720 
    1031            0 -7.365657e-07  0.065340042 -6.1524955e-07 -1.41321e-06 -1.8123755e-07     0.161608 0.00079694764 6.4908305e-09            0   -2369.2116   -2369.2116    25342.199    19.994129    25.338199    50.022577      720 
    1032            0 -7.7212239e-07  0.070363045 -6.3923587e-07 -1.4418737e-06 -2.352576e-07   0.16158914 0.0002126503 -5.3068836e-10            0   -2369.2116   -2369.2116    25342.199    19.994129    25.338199    50.022577      720 
    1033            0 -7.7849537e-07  0.075386047 -6.4668992e-07 -1.4462593e-06 -2.4253683e-07   0.16157951 -6.4174054e-05 -4.829933e-09            0   -2369.2116   -2369.2116    25342.199    19.994129    25.338199    50.022577      720 
    1034            0 -7.7590323e-07  0.080414057 -6.4354163e-07 -1.4441046e-06 -2.4006341e-07   0.16157721 -6.9309997e-05 -4.6566004e-09            0   -2369.2116   -2369.2116    25342.199    19.994129    25.338199    50.022577      720 
    1035            0 -7.5546633e-07  0.085438967 -6.2789451e-07 -1.4297534e-06 -2.087511e-07   0.16157646 -3.3757164e-05 -2.9312608e-09            0   -2369.2116   -2369.2116    25342.199    19.994129    25.338199    50.022577      720 
    1036            0 -7.5420206e-07  0.090465069 -6.2593541e-07 -1.4259248e-06 -2.10746e-07    0.1615761 -1.6346768e-06 -4.654395e-09            0   -2369.2116   -2369.2116    25342.199    19.994129    25.338199    50.022577      720 
    1037            0 -7.1866983e-07  0.095487118 -5.9842596e-07 -1.403677e-06 -1.5390658e-07   0.16157599 1.1844684e-06 1.124274e-09            0   -2369.2116   -2369.2116    25342.199    19.994129    25.338199    50.022577      720 
    1038            0 -7.3410335e-07   0.10051012 -6.1037037e-07 -1.4097625e-06 -1.8217717e-07   0.16157594 -4.6888896e-06 -6.6391756e-09            0   -2369.2116   -2369.2116    25342.199    19.994129    25.338199    50.022577      720 
    1039            0 -6.9358216e-07   0.10553908 -5.7686128e-07 -1.3860406e-06 -1.1784464e-07   0.16157592 -2.6988711e-06 5.6054646e-09            0   -2369.2116   -2369.2116    25342.199    19.994129    25.338199    50.022577      720 
    1040            0 -7.1296622e-07   0.11056209 -5.9445104e-07 -1.3940008e-06 -1.5044678e-07   0.16157591 -1.7189572e-06 -7.0656052e-09            0   -2369.2116   -2369.2116    25342.199    19.994129    25.338199    50.022577      720 
    1041            0 -6.9228077e-07    0.1155901 -5.7562011e-07 -1.382627e-06 -1.1859525e-07   0.16157591 -1.3635062e-06 2.3221281e-09            0   -2369.2116   -2369.2116    25342.199    19.994129    25.338199    50.022577      720 
    1042            0 -6.8904137e-07   0.12061405 -5.7481051e-07 -1.3782714e-06 -1.1404217e-07   0.16157591 -7.5494864e-07 -2.5145428e-09            0   -2369.2116   -2369.2116    25342.199    19.994129    25.338199    50.022577      720 
    1043            0 -6.8201893e-07   0.12564301 -5.6736107e-07 -1.3732284e-06 -1.054673e-07   0.16157591 -5.6747501e-08 4.6982536e-10            0   -2369.2116   -2369.2116    25342.199    19.994129    25.338199    50.022577      720 
    1044            0 -6.7038829e-07   0.13066506 -5.6072622e-07 -1.3645025e-06 -8.5936114e-08   0.16157591 -8.4080877e-08 -2.8448411e-09            0   -2369.2116   -2369.2116    25342.199    19.994129    25.338199    50.022577      720 
    1045            0 -6.7449948e-07   0.13568711 -5.6196205e-07 -1.3673911e-06 -9.4145304e-08   0.16157591 -6.2042786e-08 -3.5643556e-10            0   -2369.2116   -2369.2116    25342.199    19.994129    25.338199    50.022577      720 
    1046            0 -6.6947306e-07   0.14071512 -5.5837007e-07 -1.3637576e-06 -8.6291473e-08   0.16157591 -2.794844e-08 -6.8658413e-10            0   -2369.2116   -2369.2116    25342.199    19.994129    25.338199    50.022577      720 
    1047            0 -6.6603174e-07   0.14821911 -5.5599089e-07 -1.3609437e-06 -8.116067e-08   0.16157591 -9.0344361e-09 -1.3570496e-09            0   -2369.2116   -2369.2116    25342.199    19.994129    25.338199    50.022577      720 
Loop time of 0.148237 on 1 procs for 29 steps with 720 atoms

99.8% CPU use with 1 MPI tasks x no OpenMP threads

Minimization stats:
  Stopping criterion = force tolerance
  Energy initial, next-to-last, final = 
        -2369.21161167     -2369.21161167     -2369.21161167
  Force two-norm initial, final = 2.00828e-05 4.83617e-11
  Force max component initial, final = 2.61355e-06 3.19049e-12
  Final line search alpha, max atom move = 1 3.19049e-12
  Iterations, force evaluations = 29 58

MPI task timing breakdown:
Section |  min time  |  avg time  |  max time  |%varavg| %total
---------------------------------------------------------------
Pair    | 0.14582    | 0.14582    | 0.14582    |   0.0 | 98.37
Neigh   | 0          | 0          | 0          |   0.0 |  0.00
Comm    | 0.00053954 | 0.00053954 | 0.00053954 |   0.0 |  0.36
Output  | 0.00079417 | 0.00079417 | 0.00079417 |   0.0 |  0.54
Modify  | 0          | 0          | 0          |   0.0 |  0.00
Other   |            | 0.001086   |            |       |  0.73

Nlocal:    720 ave 720 max 720 min
Histogram: 1 0 0 0 0 0 0 0 0 0
Nghost:    1279 ave 1279 max 1279 min
Histogram: 1 0 0 0 0 0 0 0 0 0
Neighs:    41740 ave 41740 max 41740 min
Histogram: 1 0 0 0 0 0 0 0 0 0

Total # of neighbors = 41740
Ave neighs/atom = 57.9722
Neighbor list builds = 0
Dangerous builds = 0
Reading restart file ...
  restart file = 13 Jan 2016, LAMMPS = 13 Jan 2016
  triclinic box = (0.127935 0.138125 -0.0372007) to (20.1221 25.4763 49.9854) with tilt (0 0 0)
  1 by 1 by 1 MPI processor grid
  720 atoms
Changing box ...
  triclinic box = (0.127935 0.138125 -0.0372007) to (20.1221 25.4763 49.9854) with tilt (2.53382e-05 0 0)
Neighbor list info ...
  1 neighbor list requests
  update every 1 steps, delay 0 steps, check yes
  max neighbors/atom: 2000, page size: 100000
  master list distance cutoff = 7.72488
  ghost atom cutoff = 7.72488
Setting up cg style minimization ...
  Unit style: metal
Memory usage per processor = 3.36457 Mbytes
Step Temp Press CPU Pxx Pyy Pzz Pxy Pxz Pyz KinEng PotEng TotEng Volume Lx Ly Lz Atoms 
    1018            0 -3.6521548e-07            0 -3.1743366e-07 -1.1195776e-06 3.4136481e-07  -0.16955632 -0.0084902168 9.7225878e-08            0   -2369.2116   -2369.2116    25342.199    19.994129    25.338199    50.022577      720 
    1019            0 -3.8207046e-07 0.0050079823 -3.2795488e-07 -1.1415589e-06 3.2330241e-07  -0.16403878 -0.0069223159 8.4638589e-08            0   -2369.2116   -2369.2116    25342.199    19.994129    25.338199    50.022577      720 
    1020            0 -3.9271792e-07  0.010020018 -3.3129262e-07 -1.1538041e-06 3.0694296e-07  -0.16274436 -0.0065340501 8.6000782e-08            0   -2369.2116   -2369.2116    25342.199    19.994129    25.338199    50.022577      720 
    1021            0 -4.1067851e-07  0.015030146 -3.50368e-07 -1.1656295e-06 2.8396199e-07  -0.16213342 -0.0055783473 7.8302931e-08            0   -2369.2116   -2369.2116    25342.199    19.994129    25.338199    50.022577      720 
    1022            0 -4.2880365e-07  0.020048141 -3.6822956e-07 -1.1771422e-06 2.5896075e-07  -0.16186381 -0.0049389158 6.8817398e-08            0   -2369.2116   -2369.2116    25342.199    19.994129    25.338199    50.022577      720 
    1023            0 -4.4277366e-07  0.025060177 -3.7587038e-07 -1.1891891e-06 2.3673856e-07  -0.16177284 -0.0046923718 6.6217717e-08            0   -2369.2116   -2369.2116    25342.199    19.994129    25.338199    50.022577      720 
    1024            0 -4.5718665e-07   0.03007412 -3.8812989e-07 -1.1999083e-06 2.1647821e-07  -0.16173846 -0.0045260816 6.3313404e-08            0   -2369.2116   -2369.2116    25342.199    19.994129    25.338199    50.022577      720 
    1025            0 -4.7302643e-07  0.035087109 -4.0067319e-07 -1.2119224e-06 1.9351629e-07  -0.16172097 -0.0043113647 5.9933561e-08            0   -2369.2116   -2369.2116    25342.199    19.994129    25.338199    50.022577      720 
    1026            0 -4.9532519e-07  0.040101051 -4.1750671e-07 -1.2296216e-06 1.6115273e-07  -0.16170423 -0.0039777475 5.6589158e-08            0   -2369.2116   -2369.2116    25342.199    19.994129    25.338199    50.022577      720 
    1027            0 -5.1710845e-07  0.045112133 -4.35866e-07 -1.245969e-06 1.3050968e-07  -0.16169306 -0.0037042028 5.2485037e-08            0   -2369.2116   -2369.2116    25342.199    19.994129    25.338199    50.022577      720 
    1028            0 -5.5681311e-07  0.050122023 -4.6908117e-07 -1.2758471e-06 7.4488982e-08  -0.16167735 -0.003181172 4.4462963e-08            0   -2369.2116   -2369.2116    25342.199    19.994129    25.338199    50.022577      720 
    1029            0 -6.3186135e-07  0.055139065 -5.2893585e-07 -1.3339086e-06 -3.2739545e-08   -0.1616495 -0.0022025734 2.9472416e-08            0   -2369.2116   -2369.2116    25342.199    19.994129    25.338199    50.022577      720 
    1030            0 -6.8485764e-07  0.060149193 -5.7296333e-07 -1.3735501e-06 -1.0805948e-07   -0.1616302 -0.0014938565 1.8833898e-08            0   -2369.2116   -2369.2116    25342.199    19.994129    25.338199    50.022577      720 
    1031            0 -7.3651681e-07  0.065165043 -6.1518298e-07 -1.4131839e-06 -1.8118354e-07    -0.161608 -0.00079694768 6.5637664e-09            0   -2369.2116   -2369.2116    25342.199    19.994129    25.338199    50.022577      720 
    1032            0 -7.7216175e-07  0.070175171 -6.3931458e-07 -1.4418715e-06 -2.3529913e-07  -0.16158914 -0.00021265039 -6.6455757e-10            0   -2369.2116   -2369.2116    25342.199    19.994129    25.338199    50.022577      720 
    1033            0 -7.7838874e-07  0.075191021 -6.4654632e-07 -1.446225e-06 -2.4239486e-07  -0.16157951 6.4174027e-05 -4.6741171e-09            0   -2369.2116   -2369.2116    25342.199    19.994129    25.338199    50.022577      720 
    1034            0 -7.75973e-07  0.080201149 -6.4366584e-07 -1.4440953e-06 -2.4015787e-07  -0.16157721 6.9309944e-05 -4.8386711e-09            0   -2369.2116   -2369.2116    25342.199    19.994129    25.338199    50.022577      720 
    1035            0 -7.5519437e-07  0.085211039 -6.2752042e-07 -1.4297023e-06 -2.0836043e-07  -0.16157646 3.3757156e-05 -2.4698666e-09            0   -2369.2116   -2369.2116    25342.199    19.994129    25.338199    50.022577      720 
    1036            0 -7.5484666e-07  0.090226173 -6.2680436e-07 -1.4260685e-06 -2.1166716e-07   -0.1615761 1.6343496e-06 -5.6925593e-09            0   -2369.2116   -2369.2116    25342.199    19.994129    25.338199    50.022577      720 
    1037            0 -7.1784463e-07  0.095239162 -5.9731131e-07 -1.4034977e-06 -1.527249e-07  -0.16157599 -1.1842746e-06 2.4166306e-09            0   -2369.2116   -2369.2116    25342.199    19.994129    25.338199    50.022577      720 
    1038            0 -7.3502804e-07    0.1002512 -6.116069e-07 -1.4099698e-06 -1.8350739e-07  -0.16157594 4.6895067e-06 -8.062039e-09            0   -2369.2116   -2369.2116    25342.199    19.994129    25.338199    50.022577      720 
    1039            0 -6.9239087e-07   0.10526204 -5.753212e-07 -1.3857281e-06 -1.1612335e-07  -0.16157592 2.6970936e-06 7.315455e-09            0   -2369.2116   -2369.2116    25342.199    19.994129    25.338199    50.022577      720 
    1040            0 -7.1377984e-07   0.11028314 -5.9549274e-07 -1.3942111e-06 -1.5163569e-07  -0.16157591 1.718727e-06 -8.2240677e-09            0   -2369.2116   -2369.2116    25342.199    19.994129    25.338199    50.022577      720 
    1041            0 -6.9180962e-07   0.11530113 -5.7504424e-07 -1.3824827e-06 -1.179019e-07  -0.16157591 1.3631591e-06 2.9084865e-09            0   -2369.2116   -2369.2116    25342.199    19.994129    25.338199    50.022577      720 
    1042            0 -6.8909364e-07   0.12031102 -5.7486989e-07 -1.3782876e-06 -1.1412349e-07  -0.16157591 7.5486695e-07 -2.5759551e-09            0   -2369.2116   -2369.2116    25342.199    19.994129    25.338199    50.022577      720 
    1043            0 -6.820506e-07    0.1253252 -5.6744452e-07 -1.3732013e-06 -1.0550595e-07  -0.16157591 5.6697732e-08 3.0984727e-10            0   -2369.2116   -2369.2116    25342.199    19.994129    25.338199    50.022577      720 
    1044            0 -6.7027537e-07   0.13033605 -5.6054768e-07 -1.3644802e-06 -8.579819e-08  -0.16157591 8.4126251e-08 -2.609254e-09            0   -2369.2116   -2369.2116    25342.199    19.994129    25.338199    50.022577      720 
    1045            0 -6.7456653e-07     0.135355 -5.6204353e-07 -1.3674165e-06 -9.4239611e-08  -0.16157591 6.1863576e-08 -4.5766393e-10            0   -2369.2116   -2369.2116    25342.199    19.994129    25.338199    50.022577      720 
    1046            0 -6.6945532e-07   0.14036512 -5.5835284e-07 -1.3637453e-06 -8.6267847e-08  -0.16157591 2.7923805e-08 -6.7908233e-10            0   -2369.2116   -2369.2116    25342.199    19.994129    25.338199    50.022577      720 
    1047            0 -6.6602181e-07   0.14784217 -5.5598313e-07 -1.3609328e-06 -8.1149537e-08  -0.16157591 8.9803671e-09 -1.3613177e-09            0   -2369.2116   -2369.2116    25342.199    19.994129    25.338199    50.022577      720 
Loop time of 0.147859 on 1 procs for 29 steps with 720 atoms

100.1% CPU use with 1 MPI tasks x no OpenMP threads

Minimization stats:
  Stopping criterion = force tolerance
  Energy initial, next-to-last, final = 
        -2369.21161167     -2369.21161167     -2369.21161167
  Force two-norm initial, final = 2.00828e-05 4.81819e-11
  Force max component initial, final = 2.61355e-06 3.29035e-12
  Final line search alpha, max atom move = 1 3.29035e-12
  Iterations, force evaluations = 29 58

MPI task timing breakdown:
Section |  min time  |  avg time  |  max time  |%varavg| %total
---------------------------------------------------------------
Pair    | 0.14544    | 0.14544    | 0.14544    |   0.0 | 98.37
Neigh   | 0          | 0          | 0          |   0.0 |  0.00
Comm    | 0.00053287 | 0.00053287 | 0.00053287 |   0.0 |  0.36
Output  | 0.00080585 | 0.00080585 | 0.00080585 |   0.0 |  0.55
Modify  | 0          | 0          | 0          |   0.0 |  0.00
Other   |            | 0.001076   |            |       |  0.73

Nlocal:    720 ave 720 max 720 min
Histogram: 1 0 0 0 0 0 0 0 0 0
Nghost:    1279 ave 1279 max 1279 min
Histogram: 1 0 0 0 0 0 0 0 0 0
Neighs:    41740 ave 41740 max 41740 min
Histogram: 1 0 0 0 0 0 0 0 0 0

Total # of neighbors = 41740
Ave neighs/atom = 57.9722
Neighbor list builds = 0
Dangerous builds = 0
Elastic Constant C11all = 41.036521787319 GPa
Elastic Constant C22all = 43.1793800560392 GPa
Elastic Constant C33all = -1.32382032790498e-08 GPa
Elastic Constant C12all = 14.8721441485777 GPa
Elastic Constant C13all = -3.88718290737176e-07 GPa
Elastic Constant C23all = -3.37161349435074e-07 GPa
Elastic Constant C44all = 9.10820609550597e-08 GPa
Elastic Constant C55all = 4.54896737562847e-10 GPa
Elastic Constant C66all = 16.1575907737662 GPa
Elastic Constant C14all = -2.64681412188181e-06 GPa
Elastic Constant C15all = 3.41171194569581e-10 GPa
Elastic Constant C16all = -3.60911652252951e-10 GPa
Elastic Constant C24all = -5.35804163649698e-07 GPa
Elastic Constant C25all = 2.05405698907674e-10 GPa
Elastic Constant C26all = -3.9164689967011e-11 GPa
Elastic Constant C34all = 8.62732927031342e-07 GPa
Elastic Constant C35all = 6.27495702736603e-10 GPa
Elastic Constant C36all = -4.85411320680666e-10 GPa
Elastic Constant C45all = 1.93110022234194e-10 GPa
Elastic Constant C46all = -8.46326282741151e-12 GPa
Elastic Constant C56all = -3.28406797814293e-07 GPa
Total wall time: 0:00:07
