LAMMPS data file via write_data, version 13 Jan 2016, timestep = 263

1008 atoms
1 atom types

1.8807392243114085e-01 2.9016891174568844e+01 xlo xhi
1.5194307945428262e-01 2.5065358470545707e+01 ylo yhi
-3.3898374250574966e-02 4.8742259321250600e+01 zlo zhi
4.4389268915168776e+00 0.0000000000000000e+00 0.0000000000000000e+00 xy xz yz

Masses

1 26.982

Atoms # charge

1 1 0.0000000000000000e+00 3.1265762155657704e+01 1.6466458053265775e+01 1.6183874468854228e+01 0 0 0
2 1 0.0000000000000000e+00 1.6851353529588849e+01 1.6466458053265772e+01 1.6183874468854228e+01 0 0 0
3 1 0.0000000000000000e+00 2.5739228211458791e+01 1.2338397325903323e+01 1.6181150328677489e+01 0 0 0
4 1 0.0000000000000000e+00 1.1324819585389941e+01 1.2338397325903319e+01 1.6181150328677493e+01 0 0 0
5 1 0.0000000000000000e+00 2.7913146509392721e+01 1.7071101261594979e+01 1.4083220314196961e+01 0 0 0
6 1 0.0000000000000000e+00 1.3498737883323866e+01 1.7071101261594976e+01 1.4083220314196961e+01 0 0 0
7 1 0.0000000000000000e+00 2.9065425540263899e+01 4.0265846364365672e+00 1.6195421924586274e+01 0 0 0
8 1 0.0000000000000000e+00 1.4651016914195043e+01 4.0265846364365627e+00 1.6195421924586277e+01 0 0 0
9 1 0.0000000000000000e+00 2.4102357933911156e+00 8.7816648047561721e+00 1.4094839316392315e+01 0 0 0
10 1 0.0000000000000000e+00 1.6824644419459965e+01 8.7816648047561721e+00 1.4094839316392317e+01 0 0 0
11 1 0.0000000000000000e+00 2.4608989229796219e+00 1.2613030990968136e+01 1.5077664756680065e+01 0 0 0
12 1 0.0000000000000000e+00 1.6875307549048472e+01 1.2613030990968136e+01 1.5077664756680061e+01 0 0 0
13 1 0.0000000000000000e+00 2.2396636238089307e+01 9.1115444383710109e+00 1.3163325537150410e+01 0 0 0
14 1 0.0000000000000000e+00 7.9822276120204609e+00 9.1115444383710109e+00 1.3163325537150410e+01 0 0 0
15 1 0.0000000000000000e+00 2.2363604600085470e+01 1.2891743740405639e+01 1.4022008050647804e+01 0 0 0
16 1 0.0000000000000000e+00 7.9491959740166171e+00 1.2891743740405639e+01 1.4022008050647804e+01 0 0 0
17 1 0.0000000000000000e+00 2.2382359292723070e+01 1.6795356615526906e+01 1.5148164831726929e+01 0 0 0
18 1 0.0000000000000000e+00 7.9679506666542217e+00 1.6795356615526906e+01 1.5148164831726930e+01 0 0 0
19 1 0.0000000000000000e+00 2.5664064876879618e+01 8.5267184722006018e-01 1.3154775043820386e+01 0 0 0
20 1 0.0000000000000000e+00 1.1249656250810768e+01 8.5267184722006129e-01 1.3154775043820381e+01 0 0 0
21 1 0.0000000000000000e+00 2.5668811016995694e+01 4.5423464499213404e+00 1.4040738179775689e+01 0 0 0
22 1 0.0000000000000000e+00 1.1254402390926842e+01 4.5423464499213386e+00 1.4040738179775687e+01 0 0 0
23 1 0.0000000000000000e+00 2.5704680278541463e+01 8.4734082686855956e+00 1.5032310103930248e+01 0 0 0
24 1 0.0000000000000000e+00 1.1290271652472610e+01 8.4734082686855903e+00 1.5032310103930252e+01 0 0 0
25 1 0.0000000000000000e+00 4.6321493180821083e+00 2.1236791467478287e+01 1.4089468742698006e+01 0 0 0
26 1 0.0000000000000000e+00 1.9046557944150958e+01 2.1236791467478287e+01 1.4089468742698003e+01 0 0 0
27 1 0.0000000000000000e+00 2.2396482332635198e-01 1.5425217006436273e-01 1.5045025489661350e+01 0 0 0
28 1 0.0000000000000000e+00 1.4638373449395205e+01 1.5425217006436273e-01 1.5045025489661354e+01 0 0 0
29 1 0.0000000000000000e+00 2.4612161187580345e+01 2.1568240921230892e+01 1.3163445552043850e+01 0 0 0
30 1 0.0000000000000000e+00 1.0197752561511496e+01 2.1568240921230892e+01 1.3163445552043852e+01 0 0 0
31 1 0.0000000000000000e+00 2.0140652913615039e+01 4.3344511459240120e-01 1.4022707372307851e+01 0 0 0
32 1 0.0000000000000000e+00 5.7262442875461845e+00 4.3344511459239521e-01 1.4022707372307856e+01 0 0 0
33 1 0.0000000000000000e+00 2.0173429076157575e+01 4.3339581812852099e+00 1.5135581393413919e+01 0 0 0
34 1 0.0000000000000000e+00 5.7590204500887276e+00 4.3339581812852037e+00 1.5135581393413913e+01 0 0 0
35 1 0.0000000000000000e+00 2.7920363465654866e+01 2.0913159092658503e+01 1.5029645399595408e+01 0 0 0
36 1 0.0000000000000000e+00 1.3505954839586014e+01 2.0913159092658496e+01 1.5029645399595408e+01 0 0 0
37 1 0.0000000000000000e+00 6.3045525857592839e+00 1.8940254982388268e+01 1.4494596272663950e+01 0 0 0
38 1 0.0000000000000000e+00 2.0718961211828134e+01 1.8940254982388264e+01 1.4494596272663950e+01 0 0 0
39 1 0.0000000000000000e+00 2.9564497185795588e+01 1.4782707708675069e+01 1.4531863291887603e+01 0 0 0
40 1 0.0000000000000000e+00 1.5150088559726729e+01 1.4782707708675066e+01 1.4531863291887605e+01 0 0 0
41 1 0.0000000000000000e+00 2.9580626351237701e+01 1.8719779569056932e+01 1.5625621789978794e+01 0 0 0
42 1 0.0000000000000000e+00 1.5166217725168847e+01 1.8719779569056936e+01 1.5625621789978799e+01 0 0 0
43 1 0.0000000000000000e+00 4.0903026776773137e+00 6.4883922885716503e+00 1.4496703998322305e+01 0 0 0
44 1 0.0000000000000000e+00 1.8504711303746166e+01 6.4883922885716467e+00 1.4496703998322305e+01 0 0 0
45 1 0.0000000000000000e+00 4.0767179988134963e+00 1.0411100893183031e+01 1.5619574370575299e+01 0 0 0
46 1 0.0000000000000000e+00 1.8491126624882344e+01 1.0411100893183029e+01 1.5619574370575302e+01 0 0 0
47 1 0.0000000000000000e+00 6.3022069111689509e+00 1.5209382822287770e+01 1.3617798960331845e+01 0 0 0
48 1 0.0000000000000000e+00 2.0716615537237800e+01 1.5209382822287775e+01 1.3617798960331848e+01 0 0 0
49 1 0.0000000000000000e+00 2.4049133307754349e+01 1.0704364235051088e+01 1.4580479554638963e+01 0 0 0
50 1 0.0000000000000000e+00 9.6347246816854959e+00 1.0704364235051086e+01 1.4580479554638957e+01 0 0 0
51 1 0.0000000000000000e+00 2.4047762710832775e+01 1.4543897830354764e+01 1.5676574027056846e+01 0 0 0
52 1 0.0000000000000000e+00 9.6333540847639103e+00 1.4543897830354762e+01 1.5676574027056848e+01 0 0 0
53 1 0.0000000000000000e+00 2.6240400458194742e+01 1.9295786385131926e+01 1.3613922569013507e+01 0 0 0
54 1 0.0000000000000000e+00 1.1825991832125894e+01 1.9295786385131930e+01 1.3613922569013505e+01 0 0 0
55 1 0.0000000000000000e+00 2.7375360026690547e+01 2.3605252901358651e+00 1.4600639713904798e+01 0 0 0
56 1 0.0000000000000000e+00 1.2960951400621699e+01 2.3605252901358673e+00 1.4600639713904794e+01 0 0 0
57 1 0.0000000000000000e+00 2.7344424160210714e+01 6.2548620662642227e+00 1.5607274761542083e+01 0 0 0
58 1 0.0000000000000000e+00 1.2930015534141853e+01 6.2548620662642227e+00 1.5607274761542083e+01 0 0 0
59 1 0.0000000000000000e+00 2.9592867255673031e+01 1.1028951658338855e+01 1.3663067356669552e+01 0 0 0
60 1 0.0000000000000000e+00 1.5178458629604183e+01 1.1028951658338858e+01 1.3663067356669554e+01 0 0 0
61 1 0.0000000000000000e+00 6.3006701376485879e+00 2.2867815411033568e+01 1.5619954990632277e+01 0 0 0
62 1 0.0000000000000000e+00 2.0715078763717440e+01 2.2867815411033568e+01 1.5619954990632280e+01 0 0 0
63 1 0.0000000000000000e+00 4.1024453645243799e+00 2.7472714226436943e+00 1.3611076421459115e+01 0 0 0
64 1 0.0000000000000000e+00 1.8516853990593230e+01 2.7472714226436921e+00 1.3611076421459117e+01 0 0 0
65 1 0.0000000000000000e+00 2.6284713810277154e+01 2.3168542552803718e+01 1.4565551065313795e+01 0 0 0
66 1 0.0000000000000000e+00 1.1870305184208302e+01 2.3168542552803714e+01 1.4565551065313798e+01 0 0 0
67 1 0.0000000000000000e+00 2.1828459765538366e+01 2.0796457626221510e+00 1.5672715069664473e+01 0 0 0
68 1 0.0000000000000000e+00 7.4140511394695148e+00 2.0796457626221554e+00 1.5672715069664470e+01 0 0 0
69 1 0.0000000000000000e+00 2.4041444148805891e+01 6.8392003157767300e+00 1.3615537641309338e+01 0 0 0
70 1 0.0000000000000000e+00 9.6270355227370406e+00 6.8392003157767336e+00 1.3615537641309338e+01 0 0 0
71 1 0.0000000000000000e+00 3.1794551355191590e+01 2.3497476235023832e+01 1.3619372248101175e+01 0 0 0
72 1 0.0000000000000000e+00 1.7380142729122728e+01 2.3497476235023832e+01 1.3619372248101172e+01 0 0 0
73 1 0.0000000000000000e+00 3.5673775466653863e+00 1.8844883291919274e+01 1.5072235329595500e+01 0 0 0
74 1 0.0000000000000000e+00 1.7981786172734239e+01 1.8844883291919274e+01 1.5072235329595495e+01 0 0 0
75 1 0.0000000000000000e+00 2.6816456400660019e+01 1.4692567055233434e+01 1.5032613579330764e+01 0 0 0
76 1 0.0000000000000000e+00 1.2402047774591162e+01 1.4692567055233436e+01 1.5032613579330764e+01 0 0 0
77 1 0.0000000000000000e+00 2.6848306766414044e+01 1.8563183301430129e+01 1.6181496279657296e+01 0 0 0
78 1 0.0000000000000000e+00 1.2433898140345200e+01 1.8563183301430133e+01 1.6181496279657303e+01 0 0 0
79 1 0.0000000000000000e+00 1.3441783053768832e+00 6.3785485017016850e+00 1.5056708928544952e+01 0 0 0
80 1 0.0000000000000000e+00 1.5758586931445732e+01 6.3785485017016894e+00 1.5056708928544952e+01 0 0 0
81 1 0.0000000000000000e+00 3.0156925741317622e+01 1.0238088707963067e+01 1.6184100038172520e+01 0 0 0
82 1 0.0000000000000000e+00 1.5742517115248774e+01 1.0238088707963064e+01 1.6184100038172520e+01 0 0 0
83 1 0.0000000000000000e+00 3.5164263776091849e+00 1.5005395522988147e+01 1.4096662453819228e+01 0 0 0
84 1 0.0000000000000000e+00 1.7930835003678041e+01 1.5005395522988147e+01 1.4096662453819222e+01 0 0 0
85 1 0.0000000000000000e+00 2.1275467107319905e+01 1.0568019746190998e+01 1.5145441010258292e+01 0 0 0
86 1 0.0000000000000000e+00 6.8610584812510478e+00 1.0568019746191002e+01 1.5145441010258295e+01 0 0 0
87 1 0.0000000000000000e+00 2.3495979103285642e+01 1.5344431243647938e+01 1.3163051958648625e+01 0 0 0
88 1 0.0000000000000000e+00 9.0815704772167916e+00 1.5344431243647939e+01 1.3163051958648627e+01 0 0 0
89 1 0.0000000000000000e+00 2.3472640591618354e+01 1.9114696326895931e+01 1.4022043536067791e+01 0 0 0
90 1 0.0000000000000000e+00 9.0582319655495027e+00 1.9114696326895931e+01 1.4022043536067791e+01 0 0 0
91 1 0.0000000000000000e+00 2.4560510932070144e+01 2.2706567746569912e+00 1.5128813802282561e+01 0 0 0
92 1 0.0000000000000000e+00 1.0146102306001298e+01 2.2706567746569948e+00 1.5128813802282558e+01 0 0 0
93 1 0.0000000000000000e+00 2.4632104857363796e+01 6.1038450757516527e+00 1.6172664263566546e+01 0 0 0
94 1 0.0000000000000000e+00 1.0217696231294950e+01 6.1038450757516554e+00 1.6172664263566546e+01 0 0 0
95 1 0.0000000000000000e+00 2.6804208961966953e+01 1.0847623151653996e+01 1.4081749663403263e+01 0 0 0
96 1 0.0000000000000000e+00 1.2389800335898105e+01 1.0847623151653995e+01 1.4081749663403260e+01 0 0 0
97 1 0.0000000000000000e+00 3.2372644217162090e+01 2.2704010009770883e+01 1.6162174246837893e+01 0 0 0
98 1 0.0000000000000000e+00 1.7958235591093239e+01 2.2704010009770890e+01 1.6162174246837896e+01 0 0 0
99 1 0.0000000000000000e+00 1.2895137978682882e+00 2.5428435820435151e+00 1.4081383303933061e+01 0 0 0
100 1 0.0000000000000000e+00 1.5703922423937140e+01 2.5428435820435134e+00 1.4081383303933057e+01 0 0 0
101 1 0.0000000000000000e+00 2.3498761389584583e+01 2.3022138772561206e+01 1.5146594261804186e+01 0 0 0
102 1 0.0000000000000000e+00 9.0843527635157386e+00 2.3022138772561210e+01 1.5146594261804184e+01 0 0 0
103 1 0.0000000000000000e+00 2.1329147824831242e+01 2.8725850888233677e+00 1.3148456940217006e+01 0 0 0
104 1 0.0000000000000000e+00 6.9147391987623932e+00 2.8725850888233739e+00 1.3148456940217008e+01 0 0 0
105 1 0.0000000000000000e+00 2.1261670324922097e+01 6.6631243779552820e+00 1.4021466788920755e+01 0 0 0
106 1 0.0000000000000000e+00 6.8472616988532451e+00 6.6631243779552864e+00 1.4021466788920755e+01 0 0 0
107 1 0.0000000000000000e+00 2.9024227723816235e+01 2.3295741462907376e+01 1.4045161861776966e+01 0 0 0
108 1 0.0000000000000000e+00 1.4609819097747383e+01 2.3295741462907383e+01 1.4045161861776963e+01 0 0 0
109 1 0.0000000000000000e+00 5.1831476134980381e+00 1.6640280508225409e+01 1.5619886580702433e+01 0 0 0
110 1 0.0000000000000000e+00 1.9597556239566892e+01 1.6640280508225413e+01 1.5619886580702435e+01 0 0 0
111 1 0.0000000000000000e+00 2.8468689391013218e+01 1.2487672337237894e+01 1.5631377609363810e+01 0 0 0
112 1 0.0000000000000000e+00 1.4054280764944366e+01 1.2487672337237900e+01 1.5631377609363804e+01 0 0 0
113 1 0.0000000000000000e+00 3.0700989503381162e+01 1.7249631135930247e+01 1.3662909927534798e+01 0 0 0
114 1 0.0000000000000000e+00 1.6286580877312311e+01 1.7249631135930247e+01 1.3662909927534796e+01 0 0 0
115 1 0.0000000000000000e+00 2.9711312764150204e+00 4.1793230258930620e+00 1.5610539068636852e+01 0 0 0
116 1 0.0000000000000000e+00 1.7385539902483877e+01 4.1793230258930603e+00 1.5610539068636852e+01 0 0 0
117 1 0.0000000000000000e+00 5.1988763056557028e+00 8.9809011925060407e+00 1.3615725327550306e+01 0 0 0
118 1 0.0000000000000000e+00 1.9613284931724550e+01 8.9809011925060425e+00 1.3615725327550305e+01 0 0 0
119 1 0.0000000000000000e+00 5.1954869613688546e+00 1.2713693513727369e+01 1.4495515751644515e+01 0 0 0
120 1 0.0000000000000000e+00 1.9609895587437702e+01 1.2713693513727375e+01 1.4495515751644515e+01 0 0 0
121 1 0.0000000000000000e+00 2.2940486197855176e+01 8.3165066287029230e+00 1.5675721079829753e+01 0 0 0
122 1 0.0000000000000000e+00 8.5260775717863311e+00 8.3165066287029177e+00 1.5675721079829746e+01 0 0 0
123 1 0.0000000000000000e+00 2.5135977848695305e+01 1.3077521118699392e+01 1.3614996433485459e+01 0 0 0
124 1 0.0000000000000000e+00 1.0721569222626462e+01 1.3077521118699389e+01 1.3614996433485459e+01 0 0 0
125 1 0.0000000000000000e+00 2.5157888631898906e+01 1.6925781771197656e+01 1.4581865123649244e+01 0 0 0
126 1 0.0000000000000000e+00 1.0743480005830042e+01 1.6925781771197649e+01 1.4581865123649242e+01 0 0 0
127 1 0.0000000000000000e+00 3.0705412313025896e+01 2.4932289861836882e+01 1.5677199969589903e+01 0 0 0
128 1 0.0000000000000000e+00 1.6291003686957037e+01 2.4932289861836875e+01 1.5677199969589905e+01 0 0 0
129 1 0.0000000000000000e+00 2.8445583528852360e+01 4.7641424912818247e+00 1.3653407861655332e+01 0 0 0
130 1 0.0000000000000000e+00 1.4031174902783498e+01 4.7641424912818238e+00 1.3653407861655330e+01 0 0 0
131 1 0.0000000000000000e+00 2.8456662061748911e+01 8.5636176772900416e+00 1.4532149140475736e+01 0 0 0
132 1 0.0000000000000000e+00 1.4042253435680063e+01 8.5636176772900434e+00 1.4532149140475738e+01 0 0 0
133 1 0.0000000000000000e+00 7.4201944510633551e+00 2.1432450691075001e+01 1.3616940623491239e+01 0 0 0
134 1 0.0000000000000000e+00 2.1834603077132204e+01 2.1432450691075001e+01 1.3616940623491242e+01 0 0 0
135 1 0.0000000000000000e+00 2.9763099447054540e+00 2.5689694025507520e-01 1.4498605080530467e+01 0 0 0
136 1 0.0000000000000000e+00 1.7390718570774300e+01 2.5689694025507787e-01 1.4498605080530467e+01 0 0 0
137 1 0.0000000000000000e+00 2.5158078183141175e+01 2.0773224611780318e+01 1.5674668209039481e+01 0 0 0
138 1 0.0000000000000000e+00 1.0743669557072321e+01 2.0773224611780321e+01 1.5674668209039481e+01 0 0 0
139 1 0.0000000000000000e+00 2.2917872648693660e+01 6.2722624812254979e-01 1.3587712773815142e+01 0 0 0
140 1 0.0000000000000000e+00 8.5034640226248079e+00 6.2722624812255034e-01 1.3587712773815142e+01 0 0 0
141 1 0.0000000000000000e+00 2.2943815091063339e+01 4.4673480255007094e+00 1.4583893968910486e+01 0 0 0
142 1 0.0000000000000000e+00 8.5294064649944925e+00 4.4673480255007014e+00 1.4583893968910489e+01 0 0 0
143 1 0.0000000000000000e+00 3.0674009754746589e+01 2.1031624763378250e+01 1.4513606563362455e+01 0 0 0
144 1 0.0000000000000000e+00 1.6259601128677740e+01 2.1031624763378250e+01 1.4513606563362451e+01 0 0 0
145 1 0.0000000000000000e+00 2.9063836321107043e+01 1.5596212216143025e+01 1.9366750782742539e+01 0 0 0
146 1 0.0000000000000000e+00 1.4649427695038195e+01 1.5596212216143025e+01 1.9366750782742539e+01 0 0 0
147 1 0.0000000000000000e+00 2.3513706424480379e+01 1.1441767922178538e+01 1.9365749980369920e+01 0 0 0
148 1 0.0000000000000000e+00 9.0992977984115306e+00 1.1441767922178535e+01 1.9365749980369916e+01 0 0 0
149 1 0.0000000000000000e+00 2.5748558008193829e+01 1.6190653266264484e+01 1.7171438665735479e+01 0 0 0
150 1 0.0000000000000000e+00 1.1334149382124977e+01 1.6190653266264476e+01 1.7171438665735479e+01 0 0 0
151 1 0.0000000000000000e+00 2.6844022108715823e+01 3.1408896744223451e+00 1.9371061794166227e+01 0 0 0
152 1 0.0000000000000000e+00 1.2429613482646971e+01 3.1408896744223465e+00 1.9371061794166234e+01 0 0 0
153 1 0.0000000000000000e+00 2.9072676560447071e+01 7.8802285728630181e+00 1.7162027392058786e+01 0 0 0
154 1 0.0000000000000000e+00 1.4658267934378221e+01 7.8802285728630181e+00 1.7162027392058789e+01 0 0 0
155 1 0.0000000000000000e+00 2.9055821066776385e+01 1.1755275023382612e+01 1.8266034917776576e+01 0 0 0
156 1 0.0000000000000000e+00 1.4641412440707530e+01 1.1755275023382612e+01 1.8266034917776580e+01 0 0 0
157 1 0.0000000000000000e+00 2.0189968132687227e+01 8.1608810647088976e+00 1.6133885854404294e+01 0 0 0
158 1 0.0000000000000000e+00 5.7755595066183751e+00 8.1608810647088976e+00 1.6133885854404294e+01 0 0 0
159 1 0.0000000000000000e+00 2.0180431065661690e+01 1.2059022259114398e+01 1.7196043529272242e+01 0 0 0
160 1 0.0000000000000000e+00 5.7660224395928354e+00 1.2059022259114391e+01 1.7196043529272242e+01 0 0 0
161 1 0.0000000000000000e+00 2.0186588969012476e+01 1.5904211765002168e+01 1.8261115449735442e+01 0 0 0
162 1 0.0000000000000000e+00 5.7721803429436314e+00 1.5904211765002165e+01 1.8261115449735442e+01 0 0 0
163 1 0.0000000000000000e+00 2.7972185077010284e+01 2.4794421700251462e+01 1.6152053973333761e+01 0 0 0
164 1 0.0000000000000000e+00 1.3557776450941429e+01 2.4794421700251466e+01 1.6152053973333761e+01 0 0 0
165 1 0.0000000000000000e+00 2.3508136765709811e+01 3.7557578065075932e+00 1.7210816322428997e+01 0 0 0
166 1 0.0000000000000000e+00 9.0937281396409606e+00 3.7557578065075901e+00 1.7210816322428993e+01 0 0 0
167 1 0.0000000000000000e+00 2.3521349447144988e+01 7.5966227938505799e+00 1.8298967611929239e+01 0 0 0
168 1 0.0000000000000000e+00 9.1069408210761367e+00 7.5966227938505799e+00 1.8298967611929239e+01 0 0 0
169 1 0.0000000000000000e+00 3.1292955875578258e+01 2.0347800972204535e+01 1.7162946170184131e+01 0 0 0
170 1 0.0000000000000000e+00 1.6878547249509417e+01 2.0347800972204531e+01 1.7162946170184128e+01 0 0 0
171 1 0.0000000000000000e+00 3.1280886406564857e+01 2.4199541498372973e+01 1.8295310639364718e+01 0 0 0
172 1 0.0000000000000000e+00 1.6866477780496009e+01 2.4199541498372973e+01 1.8295310639364711e+01 0 0 0
173 1 0.0000000000000000e+00 2.2409040161825736e+01 2.0613758109719925e+01 1.6134732872224514e+01 0 0 0
174 1 0.0000000000000000e+00 7.9946315357568842e+00 2.0613758109719914e+01 1.6134732872224522e+01 0 0 0
175 1 0.0000000000000000e+00 2.2402597324260146e+01 2.4513845201970074e+01 1.7198547778249015e+01 0 0 0
176 1 0.0000000000000000e+00 7.9881886981912906e+00 2.4513845201970074e+01 1.7198547778249019e+01 0 0 0
177 1 0.0000000000000000e+00 1.7963637056589395e+01 3.4472510085462118e+00 1.8259258790695579e+01 0 0 0
178 1 0.0000000000000000e+00 3.5492284305205475e+00 3.4472510085462091e+00 1.8259258790695583e+01 0 0 0
179 1 0.0000000000000000e+00 2.5740077660173419e+01 2.0052420138628097e+01 1.8300721069820383e+01 0 0 0
180 1 0.0000000000000000e+00 1.1325669034104571e+01 2.0052420138628097e+01 1.8300721069820387e+01 0 0 0
181 1 0.0000000000000000e+00 4.1017048718982254e+00 1.8133758513919961e+01 1.7728054298075502e+01 0 0 0
182 1 0.0000000000000000e+00 1.8516113497967076e+01 1.8133758513919958e+01 1.7728054298075502e+01 0 0 0
183 1 0.0000000000000000e+00 2.7400245911125420e+01 1.3989896883465317e+01 1.7725107479397664e+01 0 0 0
184 1 0.0000000000000000e+00 1.2985837285056560e+01 1.3989896883465317e+01 1.7725107479397664e+01 0 0 0
185 1 0.0000000000000000e+00 2.7403284466323409e+01 1.7818552546039335e+01 1.8828245840185911e+01 0 0 0
186 1 0.0000000000000000e+00 1.2988875840254558e+01 1.7818552546039339e+01 1.8828245840185907e+01 0 0 0
187 1 0.0000000000000000e+00 1.8896857497898760e+00 5.6811091495002293e+00 1.7727510517515725e+01 0 0 0
188 1 0.0000000000000000e+00 1.6304094375858721e+01 5.6811091495002284e+00 1.7727510517515729e+01 0 0 0
189 1 0.0000000000000000e+00 1.8936059890491257e+00 9.5136110756443362e+00 1.8824186044391151e+01 0 0 0
190 1 0.0000000000000000e+00 1.6308014615117976e+01 9.5136110756443344e+00 1.8824186044391151e+01 0 0 0
191 1 0.0000000000000000e+00 4.1331272703431425e+00 1.4256507425988298e+01 1.6661428724734691e+01 0 0 0
192 1 0.0000000000000000e+00 1.8547535896411997e+01 1.4256507425988298e+01 1.6661428724734694e+01 0 0 0
193 1 0.0000000000000000e+00 2.1849042667811695e+01 9.8278503941762292e+00 1.7736845650527812e+01 0 0 0
194 1 0.0000000000000000e+00 7.4346340417428376e+00 9.8278503941762327e+00 1.7736845650527815e+01 0 0 0
195 1 0.0000000000000000e+00 2.1850923644269933e+01 1.3672507088544251e+01 1.8829191981538354e+01 0 0 0
196 1 0.0000000000000000e+00 7.4365150182010806e+00 1.3672507088544252e+01 1.8829191981538358e+01 0 0 0
197 1 0.0000000000000000e+00 2.4084902359125884e+01 1.8424266679367694e+01 1.6651804750023498e+01 0 0 0
198 1 0.0000000000000000e+00 9.6704937330570324e+00 1.8424266679367697e+01 1.6651804750023494e+01 0 0 0
199 1 0.0000000000000000e+00 2.5182087668119724e+01 1.5289086144105863e+00 1.7742080991853555e+01 0 0 0
200 1 0.0000000000000000e+00 1.0767679042050863e+01 1.5289086144105879e+00 1.7742080991853566e+01 0 0 0
201 1 0.0000000000000000e+00 2.5182962190349897e+01 5.3678140158574221e+00 1.8836379261320751e+01 0 0 0
202 1 0.0000000000000000e+00 1.0768553564281046e+01 5.3678140158574212e+00 1.8836379261320751e+01 0 0 0
203 1 0.0000000000000000e+00 2.7416424305070727e+01 1.0101898231782171e+01 1.6656267662551368e+01 0 0 0
204 1 0.0000000000000000e+00 1.3002015679001873e+01 1.0101898231782171e+01 1.6656267662551368e+01 0 0 0
205 1 0.0000000000000000e+00 4.1150866908096164e+00 2.1968966033422962e+01 1.8821739752512141e+01 0 0 0
206 1 0.0000000000000000e+00 1.8529495316878471e+01 2.1968966033422962e+01 1.8821739752512141e+01 0 0 0
207 1 0.0000000000000000e+00 1.9115407180826454e+00 1.7970593646253856e+00 1.6655004565967364e+01 0 0 0
208 1 0.0000000000000000e+00 1.6325949344151496e+01 1.7970593646253876e+00 1.6655004565967364e+01 0 0 0
209 1 0.0000000000000000e+00 2.4066284801660125e+01 2.2280453667208349e+01 1.7739446859893359e+01 0 0 0
210 1 0.0000000000000000e+00 9.6518761755912728e+00 2.2280453667208352e+01 1.7739446859893359e+01 0 0 0
211 1 0.0000000000000000e+00 1.9629458976405989e+01 1.2149443808499947e+00 1.8831949887149634e+01 0 0 0
212 1 0.0000000000000000e+00 5.2150503503371324e+00 1.2149443808499987e+00 1.8831949887149634e+01 0 0 0
213 1 0.0000000000000000e+00 2.1861683689702151e+01 5.9712410244589860e+00 1.6652579051916888e+01 0 0 0
214 1 0.0000000000000000e+00 7.4472750636332927e+00 5.9712410244589877e+00 1.6652579051916891e+01 0 0 0
215 1 0.0000000000000000e+00 2.9630744536411473e+01 2.2563676626375500e+01 1.6638891415919826e+01 0 0 0
216 1 0.0000000000000000e+00 1.5216335910342631e+01 2.2563676626375507e+01 1.6638891415919826e+01 0 0 0
217 1 0.0000000000000000e+00 3.0165328109180528e+01 1.7985433974963037e+01 1.8263858596063358e+01 0 0 0
218 1 0.0000000000000000e+00 1.5750919483111673e+01 1.7985433974963041e+01 1.8263858596063358e+01 0 0 0
219 1 0.0000000000000000e+00 2.4630347525853207e+01 1.3825620485065434e+01 1.8301234439772710e+01 0 0 0
220 1 0.0000000000000000e+00 1.0215938899784355e+01 1.3825620485065436e+01 1.8301234439772710e+01 0 0 0
221 1 0.0000000000000000e+00 2.4623881998174035e+01 1.7668758681867523e+01 1.9365711688272341e+01 0 0 0
222 1 0.0000000000000000e+00 1.0209473372105187e+01 1.7668758681867523e+01 1.9365711688272345e+01 0 0 0
223 1 0.0000000000000000e+00 2.7945877115533083e+01 5.5317768424595144e+00 1.8264398206276621e+01 0 0 0
224 1 0.0000000000000000e+00 1.3531468489464240e+01 5.5317768424595144e+00 1.8264398206276621e+01 0 0 0
225 1 0.0000000000000000e+00 2.7954408716057529e+01 9.3665144917185437e+00 1.9364595843286828e+01 0 0 0
226 1 0.0000000000000000e+00 1.3540000089988670e+01 9.3665144917185472e+00 1.9364595843286825e+01 0 0 0
227 1 0.0000000000000000e+00 3.0184757757193569e+01 1.4113789194254240e+01 1.7171239441547336e+01 0 0 0
228 1 0.0000000000000000e+00 1.5770349131124718e+01 1.4113789194254243e+01 1.7171239441547332e+01 0 0 0
229 1 0.0000000000000000e+00 1.9076345652287070e+01 9.6748746192555402e+00 1.8259652195511709e+01 0 0 0
230 1 0.0000000000000000e+00 4.6619370262182187e+00 9.6748746192555437e+00 1.8259652195511716e+01 0 0 0
231 1 0.0000000000000000e+00 2.1298731253742826e+01 1.4387814106947671e+01 1.6134684430389054e+01 0 0 0
232 1 0.0000000000000000e+00 6.8843226276739813e+00 1.4387814106947676e+01 1.6134684430389054e+01 0 0 0
233 1 0.0000000000000000e+00 2.1289065140359675e+01 1.8287303631858990e+01 1.7196079617908737e+01 0 0 0
234 1 0.0000000000000000e+00 6.8746565142908214e+00 1.8287303631858993e+01 1.7196079617908737e+01 0 0 0
235 1 0.0000000000000000e+00 2.2408559332888281e+01 1.3641393899394847e+00 1.8303530099443027e+01 0 0 0
236 1 0.0000000000000000e+00 7.9941507068194291e+00 1.3641393899394840e+00 1.8303530099443027e+01 0 0 0
237 1 0.0000000000000000e+00 2.2397088242698928e+01 5.2209990954204555e+00 1.9378689336702376e+01 0 0 0
238 1 0.0000000000000000e+00 7.9826796166300769e+00 5.2209990954204590e+00 1.9378689336702376e+01 0 0 0
239 1 0.0000000000000000e+00 2.4638354829246556e+01 9.9647953563348519e+00 1.7171250122114078e+01 0 0 0
240 1 0.0000000000000000e+00 1.0223946203177704e+01 9.9647953563348519e+00 1.7171250122114081e+01 0 0 0
241 1 0.0000000000000000e+00 3.0171087244196048e+01 2.1820229576429174e+01 1.9364844113607091e+01 0 0 0
242 1 0.0000000000000000e+00 1.5756678618127204e+01 2.1820229576429170e+01 1.9364844113607091e+01 0 0 0
243 1 0.0000000000000000e+00 2.7969371168437448e+01 1.6531374794527540e+00 1.7182446134985916e+01 0 0 0
244 1 0.0000000000000000e+00 1.3554962542368603e+01 1.6531374794527551e+00 1.7182446134985916e+01 0 0 0
245 1 0.0000000000000000e+00 2.1297598705824218e+01 2.2129420823699213e+01 1.8261973213980571e+01 0 0 0
246 1 0.0000000000000000e+00 6.8831900797553685e+00 2.2129420823699217e+01 1.8261973213980571e+01 0 0 0
247 1 0.0000000000000000e+00 1.9078570060247038e+01 1.9302159214674872e+00 1.6138105128685456e+01 0 0 0
248 1 0.0000000000000000e+00 4.6641614341781823e+00 1.9302159214674897e+00 1.6138105128685453e+01 0 0 0
249 1 0.0000000000000000e+00 1.9071615349222448e+01 5.8286638166500193e+00 1.7191806885100519e+01 0 0 0
250 1 0.0000000000000000e+00 4.6572067231535978e+00 5.8286638166500238e+00 1.7191806885100515e+01 0 0 0
251 1 0.0000000000000000e+00 2.6853985382600150e+01 2.2419505574753874e+01 1.7170390979051874e+01 0 0 0
252 1 0.0000000000000000e+00 1.2439576756531292e+01 2.2419505574753877e+01 1.7170390979051874e+01 0 0 0
253 1 0.0000000000000000e+00 3.0042269819418177e+00 1.5744332776490561e+01 1.8826936371192719e+01 0 0 0
254 1 0.0000000000000000e+00 1.7418635608010661e+01 1.5744332776490564e+01 1.8826936371192723e+01 0 0 0
255 1 0.0000000000000000e+00 2.6293241467668217e+01 1.1590841470744762e+01 1.8828121451002254e+01 0 0 0
256 1 0.0000000000000000e+00 1.1878832841599358e+01 1.1590841470744760e+01 1.8828121451002250e+01 0 0 0
257 1 0.0000000000000000e+00 2.8527070352779401e+01 1.6330168340825264e+01 1.6655393939030404e+01 0 0 0
258 1 0.0000000000000000e+00 1.4112661726710547e+01 1.6330168340825267e+01 1.6655393939030400e+01 0 0 0
259 1 0.0000000000000000e+00 7.8639154694245661e-01 3.2890818928059757e+00 1.8831569948199828e+01 0 0 0
260 1 0.0000000000000000e+00 1.5200800173011313e+01 3.2890818928059744e+00 1.8831569948199824e+01 0 0 0
261 1 0.0000000000000000e+00 3.0214241570137479e+00 8.0261677093737891e+00 1.6656371208134026e+01 0 0 0
262 1 0.0000000000000000e+00 1.7435832783082599e+01 8.0261677093737962e+00 1.6656371208134029e+01 0 0 0
263 1 0.0000000000000000e+00 2.9935331838544514e+00 1.1903523024850493e+01 1.7730273894839247e+01 0 0 0
264 1 0.0000000000000000e+00 1.7407941809923305e+01 1.1903523024850491e+01 1.7730273894839247e+01 0 0 0
265 1 0.0000000000000000e+00 2.0740043022926422e+01 7.4451282872497462e+00 1.8828564506952052e+01 0 0 0
266 1 0.0000000000000000e+00 6.3256343968575646e+00 7.4451282872497435e+00 1.8828564506952056e+01 0 0 0
267 1 0.0000000000000000e+00 2.2974567187893705e+01 1.2196806003997727e+01 1.6652504335859025e+01 0 0 0
268 1 0.0000000000000000e+00 8.5601585618248457e+00 1.2196806003997729e+01 1.6652504335859028e+01 0 0 0
269 1 0.0000000000000000e+00 2.2958606438414414e+01 1.6055802017708096e+01 1.7737711570421716e+01 0 0 0
270 1 0.0000000000000000e+00 8.5441978123455566e+00 1.6055802017708096e+01 1.7737711570421713e+01 0 0 0
271 1 0.0000000000000000e+00 2.8509005440791501e+01 2.4044354740521552e+01 1.8828106952680262e+01 0 0 0
272 1 0.0000000000000000e+00 1.4094596814722649e+01 2.4044354740521555e+01 1.8828106952680255e+01 0 0 0
273 1 0.0000000000000000e+00 2.6303266977880810e+01 3.8807430694975831e+00 1.6660727799287130e+01 0 0 0
274 1 0.0000000000000000e+00 1.1888858351811955e+01 3.8807430694975857e+00 1.6660727799287130e+01 0 0 0
275 1 0.0000000000000000e+00 2.6290389872435231e+01 7.7615284651550684e+00 1.7721601607397638e+01 0 0 0
276 1 0.0000000000000000e+00 1.1875981246366377e+01 7.7615284651550711e+00 1.7721601607397634e+01 0 0 0
277 1 0.0000000000000000e+00 5.2421848977984817e+00 2.0485654153165516e+01 1.6657999684636881e+01 0 0 0
278 1 0.0000000000000000e+00 1.9656593523867336e+01 2.0485654153165516e+01 1.6657999684636881e+01 0 0 0
279 1 0.0000000000000000e+00 5.2144750888377089e+00 2.4358605857554220e+01 1.7724201667051311e+01 0 0 0
280 1 0.0000000000000000e+00 1.9628883714906554e+01 2.4358605857554217e+01 1.7724201667051307e+01 0 0 0
281 1 0.0000000000000000e+00 2.2960831660305775e+01 1.9898263449111493e+01 1.8829522734441259e+01 0 0 0
282 1 0.0000000000000000e+00 8.5464230342369216e+00 1.9898263449111496e+01 1.8829522734441262e+01 0 0 0
283 1 0.0000000000000000e+00 2.5193661120946786e+01 2.4647927362715478e+01 1.6656256761840041e+01 0 0 0
284 1 0.0000000000000000e+00 1.0779252494877934e+01 2.4647927362715471e+01 1.6656256761840034e+01 0 0 0
285 1 0.0000000000000000e+00 2.0732725768099769e+01 3.5989146408329979e+00 1.7737708344200335e+01 0 0 0