LAMMPS (13 Jan 2016)
include /users/knc6/inelast.mod
# Compute elastic constant tensor for a crystal
#
# Written by Aidan Thompson (Sandia, athomps@sandia.gov)
#
#  This script uses the following three include files.
#
#   init.mod      (must be modified for different crystal structures)
# 	       	  Define units, deformation parameters and initial
#		  configuration of the atoms and simulation cell.
#
#
#   potential.mod    (must be modified for different pair styles)
# 		     Define pair style and other attributes
#		     not stored in restart file
#
#
#   displace.mod    (displace.mod should not need to be modified)
# 		    Perform positive and negative box displacements
# 		    in direction ${dir} and size ${up}.
# 		    It uses the resultant changes
#		    in stress to compute one
# 		    row of the elastic stiffness tensor
#
#		    Inputs variables:
#		    	   dir = the Voigt deformation component
#		    		    (1,2,3,4,5,6)
#		    Global constants:
#       	    	   up = the deformation magnitude (strain units)
#       		   cfac = conversion from LAMMPS pressure units to
#               	   output units for elastic constants
#
#
#  To run this on a different system, it should only be necessary to
#  modify the files init.mod and potential.mod. In order to calculate
#  the elastic constants correctly, care must be taken to specify
#  the correct units in init.mod (units, cfac and cunits). It is also
#  important to verify that the minimization of energy w.r.t atom
#  positions in the deformed cell is fully converged.
#  One indication of this is that the elastic constants are insensitive
#  to the choice of the variable ${up} in init.mod. Another is to check
#  the final max and two-norm forces reported in the log file. If you know
#  that minimization is not required, you can set maxiter = 0.0 in
#  init.mod.
#
#  There are two alternate versions of displace.mod provided.
#  They are displace_restart.mod and displace_reverse.mod.
#  The former resets the box using a restart file while
#  the latter reverses the deformation. Copy whichever
#  one you like best to displace.mod.
#

include init.mod
variable dump_file string "None"
variable up  equal 1.0e-6
variable cfac  equal 1.0e-4
variable cunits  string GPa
variable etol  equal 0
variable ftol  equal 1.0e-10
variable maxiter equal 1000
variable maxeval equal 10000
variable dmax equal 1.0e-2
variable data_file string "data"
units metal
atom_style charge
boundary p p p
atom_modify sort 0 0.0

read_data data
  triclinic box = (0 0 0) to (29.205 25.2173 48.7084) with tilt (4.49307 0 0)
  1 by 1 by 1 MPI processor grid
  reading atoms ...
  1008 atoms

### interactions
mass 1 26.98154
include potential.mod
pair_style eam/alloy
pair_coeff * * /users/knc6/Software/jarvis/jarvis/lammps/examples/Al03.eam.alloy  Al
neighbor 1.0 nsq
neigh_modify once no every 1 delay 0 check yes
min_style  cg
min_modify           dmax ${dmax} line quadratic
min_modify           dmax 0.01 line quadratic
thermo          1
thermo_style custom step temp press cpu pxx pyy pzz pxy pxz pyz ke pe etotal vol lx ly lz atoms
thermo_modify norm no
#fix 3 all nph aniso 0.0 0.0 1.0
#fix langevin all langevin 0.0 0.0 1.0 12233

#fix 3 all box/relax tri 0.0 vmax 0.001
fix            3 all box/relax aniso 0.0 vmax 0.001
#fix 3 all box/relax  aniso 0.0
#dump            2a all cfg 100 *.cfg mass type xs ys zs  vx vy vz fx fy fz
#dump_modify     2a element  Mo S

#fix 1a all qeq/comb 1 0.0001 file fq.out
#fix             2 all qeq/reax 1 0.0 10.0 1e-6 /scratch/lfs/kamal/JARVIS/All2/ReaxFF/param.qeq
minimize ${etol} ${ftol} ${maxiter} ${maxeval}
minimize 0 ${ftol} ${maxiter} ${maxeval}
minimize 0 1e-10 ${maxiter} ${maxeval}
minimize 0 1e-10 1000 ${maxeval}
minimize 0 1e-10 1000 10000
Neighbor list info ...
  1 neighbor list requests
  update every 1 steps, delay 0 steps, check yes
  max neighbors/atom: 2000, page size: 100000
  master list distance cutoff = 7.72488
  ghost atom cutoff = 7.72488
Memory usage per processor = 3.38915 Mbytes
Step Temp Press CPU Pxx Pyy Pzz Pxy Pxz Pyz KinEng PotEng TotEng Volume Lx Ly Lz Atoms 
       0            0   -11324.454            0   -12121.738   -12050.115   -9801.5086   -212.62088   -116.06089   -360.80229            0   -3304.3573   -3304.3573    35872.267    29.204965    25.217302    48.708361     1008 
       1            0   -10381.358 0.0035309792    -11150.71   -11070.562   -8922.8008   -220.13169   -115.21429   -365.79733            0   -3305.0442   -3305.0442    35771.822     29.17576    25.192233    48.668976     1008 
       2            0   -9428.3775 0.0070650578   -10167.996   -10079.785   -8037.3509    -227.6906   -114.45925   -370.91175            0   -3305.6683   -3305.6683    35671.915    29.146555    25.167197    48.630007     1008 
       3            0    -8465.948   0.01061511   -9173.8306   -9078.1354   -7145.8781   -235.30122   -113.81781   -376.16707            0   -3306.2294   -3306.2294    35572.599     29.11735    25.142199     48.59152     1008 
       4            0   -7494.7027  0.014178038   -8168.5967   -8066.1387   -6249.3729    -242.9735   -113.32144   -381.58307            0   -3306.7272   -3306.7272    35473.945    29.088145    25.117245    48.553602     1008 
       5            0   -6515.7829  0.017738104    -7153.105   -7044.7875   -5349.4563   -250.71077   -112.99543   -387.20947            0   -3307.1617   -3307.1617    35376.048     29.05894    25.092345    48.516369     1008 
       6            0   -5530.6699  0.021303892   -6128.4044   -6015.3708   -4448.2345   -258.52461   -112.88907   -393.07172            0   -3307.5328   -3307.5328    35279.037    29.029735    25.067511    48.479981     1008 
       7            0   -4541.3345  0.024877071   -5095.8264   -4979.5784   -3548.5985   -266.44029   -113.06382   -399.25147            0   -3307.8408   -3307.8408    35183.105     29.00053     25.04276    48.444673     1008 
       8            0   -3551.0104  0.028454065   -4057.6428   -3940.2012   -2655.1873   -274.50675   -113.62858   -405.84798            0   -3308.0861   -3308.0861    35088.546    28.971325     25.01812    48.410808     1008 
       9            0   -2565.3261  0.032035112   -3017.9312   -2902.1309    -1775.916    -282.7456   -114.71727   -412.99318            0   -3308.2697   -3308.2697    34995.856     28.94212    24.993635    48.378995     1008 
      10            0   -1594.7586   0.04675889   -1984.1802   -1874.4316   -925.66405   -291.28042   -116.61113   -421.02984            0   -3308.3932   -3308.3932    34905.981    28.912915    24.969389    48.350397     1008 
      11            0   -663.55872  0.050359011   -973.87182   -878.03506   -138.76927   -300.37331   -119.94503   -430.64642            0   -3308.4605   -3308.4605     34821.13     28.88371     24.94557    48.327734     1008 
      12            0    141.89335  0.053962946   -49.360474    12.692244     462.3483   -310.92207   -126.87005   -444.37953            0   -3308.4811   -3308.4811    34749.249    28.854506     24.92284    48.320816     1008 
      13            0     29.49748  0.057576895    9.8020973  -0.88208309    79.572427   -319.86299   -140.61646   -463.21703            0   -3308.4904   -3308.4904    34761.633    28.842637    24.916865    48.369524     1008 
      14            0   -378.23817  0.061197042   -325.65268    -310.1687   -498.89313   -317.48763   -148.08774    -477.0768            0   -3308.5027   -3308.5027     34800.61    28.846254    24.916584    48.418233     1008 
      15            0    261.91947  0.064820051    419.63924    487.01094   -120.89176   -320.25003   -155.02344   -496.74073            0   -3308.5338   -3308.5338    34745.372    28.822727    24.891366    48.429853     1008 
      16            0   -356.03633  0.068453074   -379.70472   -256.55273   -431.85156   -304.12658   -136.80474   -460.74721            0   -3308.7055   -3308.7055    34802.608    28.851932    24.913393    48.417684     1008 
      17            0    381.37725  0.072091103    345.59251    410.72749    387.81173   -311.15308   -130.61822   -447.38727            0   -3308.7506   -3308.7506      34735.8    28.835293    24.904972    48.368976     1008 
      18            0    779.35304  0.075731993    725.08922    629.46346    983.50644   -322.47363   -121.25395   -418.65283            0   -3308.8188   -3308.8188    34700.082    28.826614    24.911939    48.320268     1008 
      19            0    174.56376  0.079359055    100.57985   -140.98076     564.0922   -326.57707   -115.21986   -392.82332            0   -3308.9174   -3308.9174    34755.186    28.841465    24.937157    48.323164     1008 
      20            0   -164.75105  0.082993984   -199.73552   -323.79383     29.27619   -317.35011   -122.23391   -412.32483            0   -3308.9277   -3308.9277    34787.706    28.846696    24.930834    48.371873     1008 
      21            0    165.74011  0.090219021    179.39152    174.45643    143.37238   -312.49285   -127.73846    -432.7471            0   -3308.9337   -3308.9337    34759.576    28.835421    24.910626    48.390883     1008 
      22            0   -59.941315  0.093871117   -13.170546    140.61336   -307.26676   -301.27938   -134.24341   -456.11463            0   -3308.9398   -3308.9398     34782.34    28.838561    24.899162    48.439591     1008 
      23            0   -227.33054  0.097517014   -449.74156   -158.87563   -73.374431   -279.45141   -107.65379   -413.08179            0   -3309.1259   -3309.1259    34798.598      28.8649    24.913121    48.390883     1008 
      24            0    394.05982   0.10116005    336.89319    421.26906     424.0172   -301.62239    -115.0945   -413.93869            0   -3309.1383   -3309.1383    34743.332    28.835695    24.904571    48.379567     1008 
      25            0     681.3287   0.10481405    880.46284    616.43847    547.08478   -333.79888   -128.60685   -413.15808            0   -3309.1486   -3309.1486    34719.091     28.80649    24.906547    48.390987     1008 
      26            0    -9.962586   0.10847807    393.62524   -191.20112   -232.31188   -356.64753   -141.14406   -408.74069            0   -3309.1819   -3309.1819    34783.056    28.804216    24.929311    48.439695     1008 
      27            0   -127.06435   0.11213303    -23.82871   -180.60452   -176.75981   -318.35426   -123.69317   -408.40782            0    -3309.199    -3309.199    34792.603    28.833421    24.921132    48.419799     1008 
      28            0     152.4043   0.11936212    197.81528    139.31302     120.0846    -311.6356   -119.66983   -409.57409            0   -3309.2018   -3309.2018    34767.119    28.832091    24.912436    48.403457     1008 
      29            0    29.320936   0.12300611   -222.21687    140.88101    169.29868    -273.4545   -102.49981   -408.94609            0   -3309.2142   -3309.2142    34777.464    28.861296    24.904579    48.384124     1008 
      30            0   -390.16308   0.12666106   -297.20147   -445.66902   -427.61876   -315.11213   -122.26866   -404.68922            0   -3309.2377   -3309.2377     34817.57    28.840318    24.926342    48.432832     1008 
      31            0    88.049017   0.13031602    386.03477   -31.107098   -90.780625   -341.51121   -132.36252   -404.63682            0   -3309.2571   -3309.2571    34775.531    28.811113    24.922279    48.431284     1008 
      32            0    177.65338   0.13396692    119.47979    199.78787    213.69249   -297.28924   -109.45088   -399.83185            0   -3309.3082   -3309.3082    34766.907    28.840318    24.908989    48.396049     1008 
      33            0   -299.58312   0.14120603   -366.23186   -292.54318   -239.97432    -294.5384   -109.90978   -397.91138            0   -3309.3146   -3309.3146    34810.389    28.852158    24.919395    48.416466     1008 
      34            0   -833.02712     0.148458    -856.4091   -850.26277   -792.40949   -296.71224   -113.13635   -396.07784            0   -3309.3227   -3309.3227    34860.092    28.860756    24.931687    48.447251     1008 
      35            0   -734.80787   0.15212703    -456.8098    -776.6666   -970.94722   -325.54134   -127.24049    -396.8567            0   -3309.4502   -3309.4502    34856.617    28.831552    24.931611    48.491641     1008 
      36            0    69.771746   0.15939713    281.95198    67.015918   -139.65266   -321.12267   -121.02292    -396.2588            0   -3309.4695   -3309.4695     34782.79    28.818782    24.912891    48.446751     1008 
      37            0  0.099646917   0.16304612   -104.82208    12.119105    93.001912   -289.06878   -100.26522    -382.5883            0   -3309.4777   -3309.4777    34786.811    28.847987     24.91309    48.402915     1008 
      38            0   -282.47973   0.16670489   -167.17244   -511.33576   -168.93098   -322.60826   -106.52025     -356.606            0   -3309.5862   -3309.5862    34815.106    28.834072    24.938307    48.416654     1008 
      39            0    419.17996   0.17037106      500.386    331.70397     425.4499   -313.53622   -104.01103    -367.9572            0   -3309.6042   -3309.6042    34752.725    28.821259     24.91309     48.40033     1008 
      40            0    778.50165   0.17403102    758.04769    915.46804    661.98922   -289.89456   -99.528923   -385.80616            0   -3309.6205   -3309.6205    34722.223    28.822561    24.887872    48.404661     1008 
      41            0    143.15514    0.1776979   -34.269995    501.36194   -37.626514   -255.12749   -94.425189   -401.99238            0   -3309.6706   -3309.6706    34781.619    28.851766    24.881764    48.450271     1008 
      42            0   -202.53212   0.18136406   -274.89567     -71.4522   -261.24848   -278.87745   -97.765145   -381.23481            0   -3309.6767   -3309.6767    34811.858    28.849773    24.906982    48.446645     1008 
      43            0    90.146449    0.1886251    139.60774    18.769844    112.06176   -306.03497   -100.52823   -362.95209            0   -3309.6803   -3309.6803    34784.349     28.83149    24.918032    48.417577     1008 
      44            0   -159.59227   0.19229198   -18.689104   -478.05018    17.962465   -329.80001   -101.89502   -338.73562            0   -3309.6873   -3309.6873    34805.985    28.828294     24.94325    48.404079     1008 
      45            0    864.86757   0.19595098    959.57301    585.18814    1049.8416   -327.60314   -93.093411   -332.62187            0   -3309.7376   -3309.7376    34714.979    28.808522    24.920182    48.355371     1008 
      46            0    588.78835     0.199615    425.11819    558.43633    782.81052     -280.668   -74.879845   -334.86895            0   -3309.9223   -3309.9223    34744.689    28.837727    24.904957    48.377297     1008 
      47            0   -53.802213   0.20688105   -180.25436   -96.645114    115.49284   -281.25709   -79.489158   -336.49959            0   -3309.9339   -3309.9339    34803.228    28.849476    24.918281    48.413169     1008 
      48            0      4.58712   0.21416593    124.09536    27.679575   -138.01357   -300.58571   -96.880948   -355.08459            0    -3309.939    -3309.939    34800.679     28.82697    24.911654    48.460306     1008 
      49            0   -106.79582   0.21784902   -228.15567    247.51846   -339.75026   -251.20108   -82.102858   -369.87116            0   -3310.0784   -3310.0784    34816.164    28.851431    24.886437    48.489848     1008 
      50            0    242.71334   0.22152495    226.81399    306.90004    194.42598   -282.83917   -81.101463   -338.97379            0    -3310.099    -3310.099    34782.822    28.832856    24.903638     48.44114     1008 
      51            0   -144.56379   0.22519898   -106.48271   -296.28075   -30.927921   -300.32081   -81.181094   -316.92035            0   -3310.1085   -3310.1085    34816.836    28.836253    24.928855    48.433754     1008 
      52            0   -231.96285   0.22887492   -98.914219   -667.83288    70.858539   -327.56008   -80.661546    -287.0266            0   -3310.1277   -3310.1277    34823.932    28.828741    24.954073    48.407282     1008 
      53            0    563.09692   0.23254895    692.68471    244.96256    751.64349   -323.24916   -78.313243    -294.6201            0   -3310.1626   -3310.1626    34753.742    28.811017    24.928855    48.388332     1008 
      54            0    547.62941   0.23622894    569.72111    539.80093     533.3662   -290.41885   -75.195649   -320.00786            0   -3310.2258   -3310.2258    34758.733     28.82177    24.903638    48.426212     1008 
      55            0   -23.401852   0.24354196   -21.194246   -46.766708    -2.244602   -286.28165     -75.6225   -318.69373            0    -3310.235    -3310.235    34810.342    28.836681    24.915828    48.449321     1008 
      56            0   -26.253297    0.2472229   -71.401061     256.7259   -264.08473   -260.05981   -77.252891    -348.7718            0   -3310.2679   -3310.2679    34814.303    28.842002    24.890611    48.494975     1008 
      57            0    90.981889   0.25090599    102.17212    58.341118    112.43243    -287.2269   -73.053716   -312.70518            0   -3310.2934   -3310.2934    34801.666    28.833012    24.914357    48.446267     1008 
      58            0   -322.03612   0.25821495    -324.9005   -391.86769   -249.34015   -285.87409   -72.544909   -308.20508            0   -3310.2982   -3310.2982     34839.17    28.843687    24.925363     48.45912     1008 
      59            0   -823.74392   0.26552391   -849.08078   -941.86053   -680.29046    -283.5643   -70.872862   -300.88136            0   -3310.3054   -3310.3054    34885.399    28.857148    24.939069    48.474134     1008 
      60            0   -666.74145     0.269207   -792.12843   -1018.8151   -189.28079   -283.04364   -40.482707   -235.04038            0    -3310.689    -3310.689    34880.438    28.859924    24.955264    48.431126     1008 
      61            0    106.00143   0.27289295     39.44758   -123.43063    401.98733   -284.76763   -43.942433   -249.08183            0   -3310.7085   -3310.7085    34811.261    28.837185    24.930047     48.42212     1008 
      62            0  -0.33744111   0.27659011  -0.62268563   -33.426618     33.03698   -276.80362   -52.990467    -274.5398            0   -3310.7166   -3310.7166    34823.429    28.834716    24.915833    48.470828     1008 
      63            0    56.792777   0.28028798    60.437278    315.96292   -206.02186   -257.12695   -58.225636   -306.83883            0   -3310.7325   -3310.7325    34821.832    28.834171    24.890616    48.518626     1008 
      64            0   -390.20081   0.28398204   -407.11678   -333.51865   -429.96701   -265.89006   -53.119967   -281.21738            0   -3310.7591   -3310.7591    34861.451     28.84547    24.915833    48.505662     1008 
      65            0    93.543711    0.2876811    89.866571    -12.92919    203.69375   -280.63156   -47.596394   -259.76218            0   -3310.7841   -3310.7841     34816.45      28.8323    24.920061    48.456953     1008 
      66            0   -722.23033   0.29137993   -649.95622   -945.01909   -571.71569   -285.62251   -41.010935   -229.94892            0   -3311.0227   -3311.0227    34899.869    28.843317    24.945278    48.505419     1008 
      67            0    225.43156   0.29508901    353.77491    84.488079    238.03169   -286.73419   -32.570735   -221.01524            0   -3311.2269   -3311.2269    34821.416    28.816108    24.920061    48.491097     1008 
      68            0   -162.55759    0.2988019   -242.45572   -14.128379   -231.08868   -240.28521   -14.356482   -225.65196            0   -3311.4364   -3311.4364    34866.368    28.843611    24.903423    48.539805     1008 
      69            0     520.9733    0.3025279    350.60672    817.01639    395.29678   -218.97617    8.5839793   -208.18869            0    -3311.695    -3311.695    34816.519    28.835119    24.878206    48.533827     1008 
      70            0    760.06139   0.30625796    522.85762    1124.4319    632.89467     -202.663    32.197421    -181.4666            0   -3311.9523   -3311.9523    34808.242    28.834459    24.867932    48.543448     1008 
      71            0   -97.996047   0.30999589   -327.13032     151.8014   -118.65922    -201.7686    47.134716   -145.94101            0   -3312.1761   -3312.1761    34897.084    28.852171    24.893149    48.588199     1008 
      72            0    21.243456   0.31374002    75.904048   -33.362316    21.188637   -248.73096    41.058204   -114.44439            0   -3312.2454   -3312.2454    34889.604    28.822966     24.91598    48.582448     1008 
      73            0   -550.26352   0.31748796   -459.93057   -778.28855   -412.57146   -256.58215    54.751465    -76.92986            0   -3312.3933   -3312.3933    34951.287    28.831386    24.941197    48.604933     1008 
      74            0   -715.32588   0.32123804   -589.13701   -1089.7353   -467.10529   -263.79757      75.0828   -34.346256            0   -3312.5668   -3312.5668    34979.454    28.830198    24.956466    48.616347     1008 
      75            0    232.46373   0.32499695    361.18094   -59.541838    395.75208   -260.81534    90.978793    -21.84452            0   -3312.6811   -3312.6811    34901.586    28.807787    24.931249     48.59496     1008 
      76            0    246.32598   0.32875609    232.10671    253.60767    253.26357   -224.40042     105.1073   -36.038158            0   -3312.7611   -3312.7611    34909.495    28.820513    24.906031    48.633702     1008 
      77            0   -80.375037   0.33622003   -101.36899   -82.290931   -57.465189   -222.59439    104.18139   -36.154513            0   -3312.7642   -3312.7642    34939.542    28.828563    24.912942     48.64847     1008 
      78            0   -415.04989   0.34368706   -342.82933   -412.53679   -489.78353   -229.06109    96.712128   -42.174282            0    -3312.768    -3312.768    34972.312    28.828064    24.918819    48.683456     1008 
      79            0   -148.83482   0.34745908    188.89151   -84.561608   -550.83435   -250.73894    81.328499   -58.732286            0   -3312.7915   -3312.7915     34953.76    28.798859    24.908419    48.727313     1008 
      80            0    210.06255   0.35121989    371.61065    267.66467   -9.0876736   -236.12215    96.131153   -46.242946            0   -3312.8039   -3312.8039    34919.053    28.806006    24.902405    48.678605     1008 
      81            0   -110.44287   0.35868406   -129.92206   -99.649272   -101.75727   -220.46899    108.25915   -33.211091            0   -3312.8097   -3312.8097    34946.337    28.828946    24.912457    48.658232     1008 
      82            0   -20.948702   0.36614394   -131.58926   -36.878302    105.62146   -214.18419    115.87251   -25.025772            0    -3312.811    -3312.811    34936.976    28.834755    24.913066    48.634209     1008 
      83            0    213.17908   0.37361097    197.70454    192.72974    249.10297   -224.66145    110.72928   -27.835176            0   -3312.8128   -3312.8128    34916.475    28.821027    24.908987    48.636786     1008 
      84            0    1.4315227   0.38108301    233.39761     -42.6176   -186.48545   -248.31996    93.001453   -38.590948            0   -3312.8175   -3312.8175    34938.701    28.804202    24.914774    48.684863     1008 
      85            0   -428.71256   0.38484907   -413.82854    -380.4975   -491.81163   -218.97358    104.17694   -41.395385            0   -3312.8289   -3312.8289    34978.067    28.833407    24.915349    48.689225     1008 
      86            0    48.517277   0.38861203    -252.2999    251.23193    146.61981   -180.45848    125.96221   -42.027346            0   -3312.8514   -3312.8514    34933.763    28.850739    24.893745    48.640517     1008 
      87            0    199.64239   0.39237499    180.45239    146.71114    271.76365   -225.28247    113.86773   -24.909435            0    -3312.875    -3312.875    34920.994    28.821534    24.912117    48.636114     1008 
      88            0   -179.97722   0.39984989   -150.51624   -265.34028   -124.07513   -229.94011    109.15975   -25.663932            0   -3312.8791   -3312.8791    34956.357    28.825872    24.921964    48.658808     1008 
      89            0   -444.58643   0.40731907   -329.27626   -520.07549   -484.40756   -235.75776    101.65715   -32.840638            0   -3312.8817   -3312.8817    34982.348    28.824472    24.926101    48.689268     1008 
      90            0   -120.12376     0.411093    240.81194   -59.995055   -541.18815   -251.07971    84.065555   -60.862846            0    -3312.904    -3312.904    34958.218    28.796155    24.908484    48.737976     1008 
      91            0    217.25446   0.41486502    376.07504    289.68808   -13.999742   -232.61841    99.960646   -50.030861            0   -3312.9185   -3312.9185    34925.387    28.806153    24.901341    48.689268     1008 
      92            0   -130.78181   0.42233491   -138.53558    -104.3574   -149.45246   -218.14721     110.7836   -38.178244            0   -3312.9244   -3312.9244    34955.324    28.828477    24.911832    48.672759     1008 
      93            0   -51.322633   0.42979407   -162.70177   -62.709923    71.443796   -211.40821    119.43527   -28.224398            0    -3312.926    -3312.926    34946.596    28.835575    24.913574    48.645225     1008 
      94            0      131.082   0.43726897    78.094902    117.72208    197.42901   -218.00744     116.4419   -29.877974            0   -3312.9269   -3312.9269    34930.397    28.826254    24.910277    48.644836     1008 
      95            0    14.461482   0.44475293     138.5739   -11.841784   -83.347667    -234.8857    103.62595   -37.926386            0    -3312.929    -3312.929    34942.954    28.813417    24.913433    48.677837     1008 
      96            0   -251.69519   0.45222402   -235.26093   -230.05448   -289.77017   -219.95393    108.58653   -40.072604            0    -3312.932    -3312.932    34967.176    28.829139    24.914521    48.682889     1008 
      97            0    1.5076891   0.45969105   -344.51749    209.74746     139.2931   -173.79447    131.00992   -44.116413            0   -3312.9422   -3312.9422    34942.963    28.855926    24.894462     48.64318     1008 
      98            0    476.06892    0.4634521    330.80755     519.8271    577.57212   -206.46755    123.80072    -33.45482            0   -3312.9639   -3312.9639    34900.652    28.826721    24.899288    48.624077     1008 
      99            0   -78.370299   0.46721292   -24.168024   -212.76582    1.8229511   -234.22035    110.74447   -26.425564            0   -3312.9872   -3312.9872    34952.544    28.821361    24.924505    48.656151     1008 
     100            0     108.1159   0.47098708    301.83811    171.16824   -148.65866   -234.31538    97.505219    -58.13719            0   -3313.0117   -3313.0117    34940.554    28.805794    24.904489     48.70486     1008 
     101            0   -279.37039   0.47475696   -190.78488    25.551628    -672.8779   -205.02755    97.301911    -88.50731            0   -3313.0513   -3313.0513    34980.832    28.824902    24.891776    48.753568     1008 
     102            0    67.308781   0.47853112   -146.01872    605.85872   -257.91365    -159.6481    115.21971   -108.03758            0    -3313.146    -3313.146    34954.206    28.844651    24.866559    48.732474     1008 
     103            0   -38.096607   0.48230505   -193.64749    221.76395   -142.40629     -183.511    117.45448   -79.509805            0   -3313.1822   -3313.1822    34962.665    28.840978    24.891776    48.701088     1008 
     104            0    85.188296   0.48978496    93.043467    101.14262    61.378803   -216.58689    112.58838   -57.543414            0   -3313.1851   -3313.1851    34950.084    28.822832    24.909727    48.679107     1008 
     105            0   -16.577091   0.49726796   -1.0009633     -30.7171    -18.01321    -218.8465    112.15167    -54.91455            0   -3313.1853   -3313.1853    34959.213    28.824372    24.914146    48.680586     1008 
     106            0    19.536884   0.50474811   -194.02333    -32.29333    284.92731    -200.0327    129.66956   -39.563184            0   -3313.1903   -3313.1903    34953.738    28.843483    24.916803    48.635524     1008 
     107            0   -1.4946018   0.50852013   -192.87543   -22.101205    210.49283   -195.85778    128.89876   -52.657604            0   -3313.3357   -3313.3357    34967.141     28.84256    24.915159    48.658942     1008 
     108            0    34.568282   0.51601601    46.139478     26.15153    31.413838   -214.18011     114.3196   -63.870458            0   -3313.3383   -3313.3383    34966.047    28.823991    24.913322    48.692354     1008 
     109            0   -32.147773   0.52350307   -20.412933   -38.205877   -37.824509   -213.66169     113.8329   -64.560632            0   -3313.3385   -3313.3385    34972.254    28.825519    24.914375    48.696359     1008 
     110            0   -3.4281461   0.53099394   -144.94912    261.85106   -127.18638   -180.19618    118.29062   -89.872516            0   -3313.3437   -3313.3437    34971.958    28.839413    24.891296    48.717614     1008 
     111            0    315.41976   0.53477192    247.28961    519.37918    179.59049   -189.60239    119.08051   -89.598648            0   -3313.4614   -3313.4614    34953.746    28.825705    24.890859    48.716257     1008 
     112            0   -287.77759    0.5422771   -331.01505   -216.24494   -316.07279   -197.66674    116.96075   -78.830629            0   -3313.4721   -3313.4721    35009.142    28.836899    24.913158    48.730867     1008 
     113            0   -599.44278   0.54977798   -557.34993   -753.45476   -487.52366   -219.13893    114.88613   -58.623885            0   -3313.4768   -3313.4768     35037.85    28.835713    24.938002    48.724243     1008 
     114            0   -115.21702   0.55356598    98.950561   -584.12295    139.52133   -258.95012    114.32283    -28.27683            0   -3313.4999   -3313.4999    34993.823    28.808299    24.955314    48.675535     1008 
     115            0    165.38033   0.55734897    274.96854   -65.948918    287.12136    -234.3193    117.79283   -49.490686            0    -3313.511    -3313.511    34969.677    28.811996    24.930096    48.684904     1008 
     116            0   -110.81367   0.56485605   -86.638362    -201.5678   -44.234839   -214.95051    118.56994   -63.736125            0   -3313.5151   -3313.5151    34996.017    28.826364    24.923571    48.710039     1008 
     117            0   -14.372121   0.57235789   -33.395599    7.4898383   -17.210602   -203.56426    119.43852   -74.543779            0   -3313.5164   -3313.5164    34988.002    28.828391    24.912352    48.717389     1008 
     118            0    42.216722   0.57986903    45.891817    43.456924    37.301424   -207.44525    118.70926   -72.854848            0   -3313.5164   -3313.5164    34982.772    28.825019    24.913005    48.714529     1008 
     119            0     -15.9096   0.58736897    38.784513   -81.234895   -5.2784165   -216.53207    116.35923    -67.77395            0   -3313.5165   -3313.5165    34987.956    28.821619    24.919632    48.714537     1008 
     120            0    72.834372   0.59115291   -19.715418   -144.12762    382.34616   -212.97557    132.55986    -43.55807            0   -3313.5521   -3313.5521    34981.332    28.831977    24.930891    48.665829     1008 
     121            0   -137.25574   0.59493589   -176.48869   -198.23685   -37.041668   -205.35552    123.41688   -66.413079            0    -3313.568    -3313.568    35004.508    28.832828    24.921728    48.714537     1008 
     122            0    124.58259   0.60244989    126.72727    134.10162    112.91889   -205.69042    120.40296   -75.455361            0   -3313.5706   -3313.5706    34981.796    28.823474    24.910887    48.719922     1008 
     123            0    206.72114   0.60996389    251.17834    288.80953    80.175534   -204.96266    116.07916    -86.03521            0   -3313.5716   -3313.5716    34975.855    28.818193    24.903257    48.735503     1008 
     124            0   -69.831166   0.61748195     3.110515    68.688468   -281.29248   -202.13385    110.83941   -96.377261            0   -3313.5745   -3313.5745     35002.95    28.822262    24.903648    48.765605     1008 
     125            0   -335.74277   0.62126708   -416.46395   -428.58097   -162.18338   -201.91139    126.53293    -62.81201            0   -3313.5886   -3313.5886     35025.27    28.841016    24.928223    48.716896     1008 
     126            0    170.76674   0.62877893    65.621985    15.651521    431.02672   -206.78103    133.72953   -51.501588            0   -3313.5967   -3313.5967     34978.52    28.831234     24.92397    48.676684     1008 
     127            0    690.71217   0.63257408    790.67882    632.32332    649.13437   -220.63975    121.20058   -72.079465            0   -3313.6306   -3313.6306    34940.278    28.802029    24.906114    48.707665     1008 
     128            0    130.87263   0.63637209    278.05967    109.91069    4.6475367   -218.62883    113.74138    -83.85219            0   -3313.6634   -3313.6634    34996.207    28.810878    24.913405    48.756373     1008 
     129            0   -56.944943    0.6438911    27.568398   -75.171751   -123.23148   -211.52043    116.94144   -82.180765            0   -3313.6648   -3313.6648    35012.965    28.820659    24.916739    48.756642     1008 
     130            0   0.14618664   0.65141392    -6.314744    4.8306965    1.9226074   -201.72397    123.34811   -79.932874            0   -3313.6657   -3313.6657     35006.97    28.827417    24.913832    48.742551     1008 
     131            0     93.84588   0.65893102    160.26244   -26.632459    147.90766   -217.81452    121.98005   -68.047482            0   -3313.6663   -3313.6663    34997.909    28.818398    24.922523    48.728187     1008 
     132            0    -141.3853   0.66645694   -43.174053   -356.04308   -24.938759   -225.94037    120.45744   -60.171808            0    -3313.668    -3313.668    35019.565    28.820647    24.934838    48.730457     1008 
     133            0    -126.2253   0.67025089   -118.28264   -278.99875     18.60549   -212.37448    124.87426   -68.818339            0   -3313.7301   -3313.7301    35029.341    28.828955    24.929378    48.740685     1008 
     134            0    66.809756   0.67778611    77.346948   -22.568944    145.65126   -209.27503    124.34011    -75.34583            0   -3313.7316   -3313.7316    35012.229    28.824552    24.920423    48.741825     1008 
     135            0   -1.3156831   0.68532205   -3.2201673    1.6453086   -2.3721906    -201.2035    122.23138   -86.418424            0   -3313.7326   -3313.7326    35019.566    28.827578    24.913945    48.759595     1008 
     136            0    111.93758   0.69285798    183.32188    123.25361    29.237271   -208.10431    117.31925   -90.679048            0   -3313.7332   -3313.7332    35010.281    28.818614    24.911061    48.767477     1008 
     137            0   -93.890153   0.70039892    94.891292   -87.892159   -288.66959   -218.28982    106.98703   -98.252037            0   -3313.7353   -3313.7353    35031.642     28.81307    24.915196    48.798519     1008 
     138            0    -24.26175   0.70420194    100.71799    49.854837   -223.35808   -207.73408    105.94216   -109.86036            0   -3313.7788   -3313.7788     35036.53    28.818015    24.907996     48.81106     1008 
     139            0    35.296288   0.71175098    31.167479    48.462237    26.259149   -200.25085    117.56734   -95.022818            0   -3313.7811   -3313.7811    35028.759    28.827742    24.912149    48.775634     1008 
     140            0   -3.1508751   0.71928501   -9.7677527    3.4784332   -3.1633057   -200.25537    117.64656   -94.352445            0   -3313.7812   -3313.7812    35032.222    28.828817    24.913415    48.776158     1008 
     141            0   -3.1508751   0.85409307   -9.7677527    3.4784332   -3.1633057   -200.25537    117.64656   -94.352445            0   -3313.7812   -3313.7812    35032.222    28.828817    24.913415    48.776158     1008 
Loop time of 0.854112 on 1 procs for 141 steps with 1008 atoms

100.2% CPU use with 1 MPI tasks x no OpenMP threads

Minimization stats:
  Stopping criterion = linesearch alpha is zero
  Energy initial, next-to-last, final = 
        -3304.35727945     -3313.78117772     -3313.78117772
  Force two-norm initial, final = 441.191 0.392483
  Force max component initial, final = 271.402 0.216362
  Final line search alpha, max atom move = 4.51698e-08 9.77304e-09
  Iterations, force evaluations = 141 226

MPI task timing breakdown:
Section |  min time  |  avg time  |  max time  |%varavg| %total
---------------------------------------------------------------
Pair    | 0.81695    | 0.81695    | 0.81695    |   0.0 | 95.65
Neigh   | 0.011053   | 0.011053   | 0.011053   |   0.0 |  1.29
Comm    | 0.0026991  | 0.0026991  | 0.0026991  |   0.0 |  0.32
Output  | 0.0045013  | 0.0045013  | 0.0045013  |   0.0 |  0.53
Modify  | 0          | 0          | 0          |   0.0 |  0.00
Other   |            | 0.01891    |            |       |  2.21

Nlocal:    1008 ave 1008 max 1008 min
Histogram: 1 0 0 0 0 0 0 0 0 0
Nghost:    1518 ave 1518 max 1518 min
Histogram: 1 0 0 0 0 0 0 0 0 0
Neighs:    58476 ave 58476 max 58476 min
Histogram: 1 0 0 0 0 0 0 0 0 0

Total # of neighbors = 58476
Ave neighs/atom = 58.0119
Neighbor list builds = 1
Dangerous builds = 0
#minimize ${etol} ${ftol} ${maxiter} ${maxeval}
#minimize ${etol} ${ftol} ${maxiter} ${maxeval}

variable tmp equal pxx
variable pxx0 equal ${tmp}
variable pxx0 equal -9.76775269188134
variable tmp equal pyy
variable pyy0 equal ${tmp}
variable pyy0 equal 3.4784331634787
variable tmp equal pzz
variable pzz0 equal ${tmp}
variable pzz0 equal -3.1633056990644
variable tmp equal pyz
variable pyz0 equal ${tmp}
variable pyz0 equal -94.3524452281641
variable tmp equal pxz
variable pxz0 equal ${tmp}
variable pxz0 equal 117.646557371418
variable tmp equal pxy
variable pxy0 equal ${tmp}
variable pxy0 equal -200.255373509556

variable tmp equal lx
variable lx0 equal ${tmp}
variable lx0 equal 28.8288172521377
variable tmp equal ly
variable ly0 equal ${tmp}
variable ly0 equal 24.9134153910914
variable tmp equal lz
variable lz0 equal ${tmp}
variable lz0 equal 48.7761576955012

# These formulas define the derivatives w.r.t. strain components
# Constants uses $, variables use v_
variable d1 equal -(v_pxx1-${pxx0})/(v_delta/v_len0)*${cfac}
variable d1 equal -(v_pxx1--9.76775269188134)/(v_delta/v_len0)*${cfac}
variable d1 equal -(v_pxx1--9.76775269188134)/(v_delta/v_len0)*0.0001
variable d2 equal -(v_pyy1-${pyy0})/(v_delta/v_len0)*${cfac}
variable d2 equal -(v_pyy1-3.4784331634787)/(v_delta/v_len0)*${cfac}
variable d2 equal -(v_pyy1-3.4784331634787)/(v_delta/v_len0)*0.0001
variable d3 equal -(v_pzz1-${pzz0})/(v_delta/v_len0)*${cfac}
variable d3 equal -(v_pzz1--3.1633056990644)/(v_delta/v_len0)*${cfac}
variable d3 equal -(v_pzz1--3.1633056990644)/(v_delta/v_len0)*0.0001
variable d4 equal -(v_pyz1-${pyz0})/(v_delta/v_len0)*${cfac}
variable d4 equal -(v_pyz1--94.3524452281641)/(v_delta/v_len0)*${cfac}
variable d4 equal -(v_pyz1--94.3524452281641)/(v_delta/v_len0)*0.0001
variable d5 equal -(v_pxz1-${pxz0})/(v_delta/v_len0)*${cfac}
variable d5 equal -(v_pxz1-117.646557371418)/(v_delta/v_len0)*${cfac}
variable d5 equal -(v_pxz1-117.646557371418)/(v_delta/v_len0)*0.0001
variable d6 equal -(v_pxy1-${pxy0})/(v_delta/v_len0)*${cfac}
variable d6 equal -(v_pxy1--200.255373509556)/(v_delta/v_len0)*${cfac}
variable d6 equal -(v_pxy1--200.255373509556)/(v_delta/v_len0)*0.0001

# Write restart
unfix 3
minimize ${etol} ${ftol} ${maxiter} ${maxeval}
minimize 0 ${ftol} ${maxiter} ${maxeval}
minimize 0 1e-10 ${maxiter} ${maxeval}
minimize 0 1e-10 1000 ${maxeval}
minimize 0 1e-10 1000 10000
Memory usage per processor = 3.38915 Mbytes
Step Temp Press CPU Pxx Pyy Pzz Pxy Pxz Pyz KinEng PotEng TotEng Volume Lx Ly Lz Atoms 
     141            0   -3.1508751            0   -9.7677527    3.4784332   -3.1633057   -200.25537    117.64656   -94.352445            0   -3313.7812   -3313.7812    35032.222    28.828817    24.913415    48.776158     1008 
     142            0    102.32696 0.0037522316    79.659693    79.653522    147.66765   -201.89714    108.96149   -97.955116            0   -3313.8084   -3313.8084    35032.222    28.828817    24.913415    48.776158     1008 
     143            0    129.89275 0.0075180531    124.50235    92.536802     172.6391    -202.5325    77.663055   -108.46684            0   -3313.8228   -3313.8228    35032.222    28.828817    24.913415    48.776158     1008 
     144            0    144.92719  0.014983177    135.28193     101.2624    198.23724     -205.923    71.794168    -106.6167            0    -3313.825    -3313.825    35032.222    28.828817    24.913415    48.776158     1008 
     145            0    108.24851  0.018755198    130.16955    65.551767    129.02421   -205.28921    32.468669   -105.70503            0   -3313.8297   -3313.8297    35032.222    28.828817    24.913415    48.776158     1008 
     146            0    79.854234  0.026235104    116.41512    43.963496    79.184084   -204.39179    18.803916   -113.03141            0   -3313.8308   -3313.8308    35032.222    28.828817    24.913415    48.776158     1008 
     147            0    73.302292  0.033716202     113.8007    40.507945    65.598236   -204.05051    13.889153   -112.24983            0   -3313.8312   -3313.8312    35032.222    28.828817    24.913415    48.776158     1008 
     148            0    79.680142  0.041199207     116.5985    46.320522    76.121402   -204.18647    14.384232   -105.67439            0   -3313.8315   -3313.8315    35032.222    28.828817    24.913415    48.776158     1008 
     149            0    80.089337  0.048682213    115.54059      47.4821    77.245317   -205.03285    14.238412   -101.14837            0   -3313.8317   -3313.8317    35032.222    28.828817    24.913415    48.776158     1008 
     150            0    65.081292  0.056163073    104.24171    36.419496    54.582671   -205.22849    11.876275   -96.086159            0   -3313.8319   -3313.8319    35032.222    28.828817    24.913415    48.776158     1008 
     151            0    37.046354  0.063642025    83.249661    14.098811    13.790591   -204.84732    9.2299894    -84.66276            0   -3313.8321   -3313.8321    35032.222    28.828817    24.913415    48.776158     1008 
     152            0    23.999809   0.07112813    73.721253    1.8587557   -3.5805827   -204.71733    9.0241994    -77.27955            0   -3313.8322   -3313.8322    35032.222    28.828817    24.913415    48.776158     1008 
     153            0    12.367481  0.078616142    64.998382    -10.16903   -17.726908    -205.0024    9.1886448   -66.868022            0   -3313.8323   -3313.8323    35032.222    28.828817    24.913415    48.776158     1008 
     154            0    1.7336595  0.086099148    57.622305   -21.143089   -31.278238   -204.49201    9.0210876   -49.587625            0   -3313.8325   -3313.8325    35032.222    28.828817    24.913415    48.776158     1008 
     155            0   -3.1724212  0.093588114    54.927051   -26.474742   -37.969572   -203.71734    8.9360586   -40.248431            0   -3313.8326   -3313.8326    35032.222    28.828817    24.913415    48.776158     1008 
     156            0    -5.082068   0.10107613    54.002085   -28.457243   -40.791046   -203.51319    8.5967017   -36.028284            0   -3313.8326   -3313.8326    35032.222    28.828817    24.913415    48.776158     1008 
     157            0   -4.8974563   0.10855818    53.882756   -28.009931   -40.565194   -203.62841    7.8003054   -29.338512            0   -3313.8327   -3313.8327    35032.222    28.828817    24.913415    48.776158     1008 
     158            0   -3.0658879   0.11603904    54.503294   -25.959051   -37.741907   -203.92222     7.225657   -23.537232            0   -3313.8328   -3313.8328    35032.222    28.828817    24.913415    48.776158     1008 
     159            0   -1.0233067   0.12352419    55.510425   -24.524928   -34.055417   -204.10599    6.2911802   -19.350246            0   -3313.8328   -3313.8328    35032.222    28.828817    24.913415    48.776158     1008 
     160            0    2.3318867   0.13101506    57.809358    -22.63053   -28.183168   -204.06634    5.0173535   -15.513253            0   -3313.8328   -3313.8328    35032.222    28.828817    24.913415    48.776158     1008 
     161            0    8.1692754   0.13849902    62.185852    -18.71345   -18.964575   -203.78206    3.7244492   -10.916041            0   -3313.8329   -3313.8329    35032.222    28.828817    24.913415    48.776158     1008 
     162            0    13.155177   0.14598012     65.83078   -15.215301   -11.149947   -203.63535    3.0247196   -7.0896964            0   -3313.8329   -3313.8329    35032.222    28.828817    24.913415    48.776158     1008 
     163            0    16.562979   0.15346622    68.616056   -12.944005   -5.9831147   -203.63646     2.303593   -3.9336472            0   -3313.8329   -3313.8329    35032.222    28.828817    24.913415    48.776158     1008 
     164            0    18.512082   0.16094923     70.64725   -11.579934   -3.5310697    -203.5974    1.6392385   -1.9759759            0   -3313.8329   -3313.8329    35032.222    28.828817    24.913415    48.776158     1008 
     165            0    19.490726   0.16842818    71.662923   -10.959231   -2.2315124   -203.54241    1.4238922  -0.91523512            0   -3313.8329   -3313.8329    35032.222    28.828817    24.913415    48.776158     1008 
     166            0    20.075778   0.17591906    72.287546   -10.766347   -1.2938665   -203.51572    1.4273562  -0.27897994            0   -3313.8329   -3313.8329    35032.222    28.828817    24.913415    48.776158     1008 
     167            0    20.673419   0.18340206    72.839879   -10.504837  -0.31478464   -203.44512    1.4828362   0.10104855            0   -3313.8329   -3313.8329    35032.222    28.828817    24.913415    48.776158     1008 
     168            0    21.167531   0.19088507    73.224626   -10.145977   0.42394386   -203.38235    1.5040828   0.27562277            0   -3313.8329   -3313.8329    35032.222    28.828817    24.913415    48.776158     1008 
     169            0    21.328248   0.19837022    73.326372   -9.9934468   0.65181968   -203.36688    1.5128669   0.33948706            0   -3313.8329   -3313.8329    35032.222    28.828817    24.913415    48.776158     1008 
     170            0    21.347782   0.20585012    73.287568   -9.9546865   0.71046525   -203.37919    1.5220735   0.38495642            0   -3313.8329   -3313.8329    35032.222    28.828817    24.913415    48.776158     1008 
     171            0    21.326289   0.21333408    73.209718    -9.939899    0.7090482    -203.4134    1.5057735   0.39470842            0   -3313.8329   -3313.8329    35032.222    28.828817    24.913415    48.776158     1008 
     172            0    21.288991   0.22081709     73.14739   -9.9518199     0.671404   -203.44191    1.4730597   0.37550754            0   -3313.8329   -3313.8329    35032.222    28.828817    24.913415    48.776158     1008 
     173            0    21.238106   0.22829509    73.105199   -9.9925744   0.60169234   -203.45198    1.4318049   0.34098198            0   -3313.8329   -3313.8329    35032.222    28.828817    24.913415    48.776158     1008 
     174            0    21.137011   0.23577905     73.03648   -10.072636   0.44718814   -203.44545    1.3727138   0.28515098            0   -3313.8329   -3313.8329    35032.222    28.828817    24.913415    48.776158     1008 
     175            0     21.05039   0.24325705     72.97612   -10.138423    0.3134724   -203.43421    1.2977167   0.22842907            0   -3313.8329   -3313.8329    35032.222    28.828817    24.913415    48.776158     1008 
     176            0    20.989668    0.2507441    72.951204   -10.180838   0.19863728   -203.42806    1.1871763   0.17445441            0   -3313.8329   -3313.8329    35032.222    28.828817    24.913415    48.776158     1008 
     177            0     20.92583   0.25822806    72.931462   -10.227121  0.073149273   -203.43106     1.044697   0.13531991            0   -3313.8329   -3313.8329    35032.222    28.828817    24.913415    48.776158     1008 
     178            0    20.856958   0.26570821    72.887223   -10.276358 -0.039990294   -203.44001   0.88842002   0.11328468            0   -3313.8329   -3313.8329    35032.222    28.828817    24.913415    48.776158     1008 
     179            0    20.775448   0.27319407    72.823146   -10.338657  -0.15814485   -203.44885   0.74538765   0.10123091            0   -3313.8329   -3313.8329    35032.222    28.828817    24.913415    48.776158     1008 
     180            0    20.688538   0.28067803    72.768201   -10.416599  -0.28598805   -203.45376   0.59953568   0.09583399            0   -3313.8329   -3313.8329    35032.222    28.828817    24.913415    48.776158     1008 
     181            0    20.655359   0.28815317    72.753591   -10.454025  -0.33348993   -203.45279    0.4954394  0.097242563            0   -3313.8329   -3313.8329    35032.222    28.828817    24.913415    48.776158     1008 
     182            0    20.655469   0.29563403    72.751767   -10.459432  -0.32592903   -203.45322   0.42555923  0.094360906            0   -3313.8329   -3313.8329    35032.222    28.828817    24.913415    48.776158     1008 
     183            0    20.668571   0.30311203    72.760605   -10.448605   -0.3062873   -203.45639   0.35230261  0.079923156            0   -3313.8329   -3313.8329    35032.222    28.828817    24.913415    48.776158     1008 
     184            0    20.698999   0.31059504    72.791306   -10.422655  -0.27165417   -203.45971   0.27207624  0.063291261            0   -3313.8329   -3313.8329    35032.222    28.828817    24.913415    48.776158     1008 
     185            0    20.744483   0.31807923    72.834007   -10.388525  -0.21203241   -203.46057   0.19922897  0.054249035            0   -3313.8329   -3313.8329    35032.222    28.828817    24.913415    48.776158     1008 
     186            0    20.792759   0.32555819    72.876993    -10.35088  -0.14783692   -203.45892     0.137549  0.045991817            0   -3313.8329   -3313.8329    35032.222    28.828817    24.913415    48.776158     1008 
     187            0    20.835307   0.33304214    72.913083   -10.315055 -0.092107451   -203.45822  0.086964232  0.036922424            0   -3313.8329   -3313.8329    35032.222    28.828817    24.913415    48.776158     1008 
     188            0     20.86458    0.3405261    72.938137   -10.290234 -0.054164139   -203.45931  0.052439296  0.026788054            0   -3313.8329   -3313.8329    35032.222    28.828817    24.913415    48.776158     1008 
     189            0    20.878127    0.3480022    72.950717   -10.280109 -0.036228536   -203.45904   0.03461025  0.017289896            0   -3313.8329   -3313.8329    35032.222    28.828817    24.913415    48.776158     1008 
     190            0    20.889542   0.35548615    72.958704   -10.271912 -0.018166782   -203.45874   0.02355524 0.0092988227            0   -3313.8329   -3313.8329    35032.222    28.828817    24.913415    48.776158     1008 
     191            0    20.899512    0.3629632    72.964232   -10.263578 -0.0021180755    -203.4597  0.017482418 0.0041106988            0   -3313.8329   -3313.8329    35032.222    28.828817    24.913415    48.776158     1008 
     192            0    20.906159   0.37044716    72.967943   -10.257443  0.007976638   -203.46008  0.014709777 0.0018154966            0   -3313.8329   -3313.8329    35032.222    28.828817    24.913415    48.776158     1008 
     193            0    20.909316   0.37793303    72.970137   -10.254103  0.011912978   -203.45991  0.012750413 0.0010409961            0   -3313.8329   -3313.8329    35032.222    28.828817    24.913415    48.776158     1008 
     194            0    20.910696   0.38541317     72.97117   -10.252174  0.013092689    -203.4599  0.010806428 5.9616591e-05            0   -3313.8329   -3313.8329    35032.222    28.828817    24.913415    48.776158     1008 
     195            0    20.911401   0.39289713    72.971403   -10.250704  0.013504929   -203.46011  0.009434538 -0.0006260796            0   -3313.8329   -3313.8329    35032.222    28.828817    24.913415    48.776158     1008 
     196            0    20.910722   0.40037704    72.971225   -10.251242  0.012184159   -203.46023 0.0078465029 -0.00058703597            0   -3313.8329   -3313.8329    35032.222    28.828817    24.913415    48.776158     1008 
     197            0    20.909345   0.40785813     72.97056   -10.252932   0.01040751   -203.46039 0.0059167719 -0.00015189039            0   -3313.8329   -3313.8329    35032.222    28.828817    24.913415    48.776158     1008 
     198            0    20.907691   0.41538906    72.969487   -10.254519 0.0081026413   -203.46047 0.0038929789 0.00049192925            0   -3313.8329   -3313.8329    35032.222    28.828817    24.913415    48.776158     1008 
     199            0    20.906175   0.42286611    72.968514   -10.255831 0.0058408561   -203.46051 0.0020478338 0.0010358409            0   -3313.8329   -3313.8329    35032.222    28.828817    24.913415    48.776158     1008 
     200            0    20.905759   0.43035102    72.968262   -10.256215 0.0052291119    -203.4607  0.000764747 0.0011713883            0   -3313.8329   -3313.8329    35032.222    28.828817    24.913415    48.776158     1008 
     201            0    20.905388   0.43783712    72.968105    -10.25653 0.0045900144   -203.46064 0.00023474811  0.001040468            0   -3313.8329   -3313.8329    35032.222    28.828817    24.913415    48.776158     1008 
     202            0    20.904589   0.44531822    72.967615   -10.257127 0.0032796172   -203.46049 1.9419677e-05 0.00066803612            0   -3313.8329   -3313.8329    35032.222    28.828817    24.913415    48.776158     1008 
     203            0     20.90399   0.45281219    72.967245   -10.257635 0.0023590011   -203.46042 -0.00011149512 0.00035362455            0   -3313.8329   -3313.8329    35032.222    28.828817    24.913415    48.776158     1008 
     204            0     20.90364   0.46029019    72.967034    -10.25792 0.0018060681   -203.46038 -0.00017485329 0.00013172887            0   -3313.8329   -3313.8329    35032.222    28.828817    24.913415    48.776158     1008 
     205            0    20.903387   0.46777201    72.966834   -10.258048  0.001375021   -203.46035 -0.00020369815 -3.6067231e-05            0   -3313.8329   -3313.8329    35032.222    28.828817    24.913415    48.776158     1008 
     206            0    20.903266   0.47525811    72.966692   -10.258088 0.0011925245   -203.46034 -0.00019521046 -8.9411272e-05            0   -3313.8329   -3313.8329    35032.222    28.828817    24.913415    48.776158     1008 
     207            0    20.903129   0.48273802    72.966564   -10.258154 0.00097679947   -203.46035 -0.00017420168 -0.00016903499            0   -3313.8329   -3313.8329    35032.222    28.828817    24.913415    48.776158     1008 
     208            0    20.902978   0.49022102    72.966448   -10.258241 0.00072679567   -203.46036 -0.00016055173 -0.000235216            0   -3313.8329   -3313.8329    35032.222    28.828817    24.913415    48.776158     1008 
     209            0    20.902915   0.49770522    72.966391   -10.258277 0.00063136506   -203.46038 -0.00013411319 -0.00024689922            0   -3313.8329   -3313.8329    35032.222    28.828817    24.913415    48.776158     1008 
     210            0    20.902847   0.50518703    72.966353   -10.258338 0.0005258856    -203.4604 -0.00011227927 -0.00024790801            0   -3313.8329   -3313.8329    35032.222    28.828817    24.913415    48.776158     1008 
     211            0    20.902764   0.51267314    72.966315   -10.258417 0.00039271807   -203.46039 -0.0001034541 -0.0002371561            0   -3313.8329   -3313.8329    35032.222    28.828817    24.913415    48.776158     1008 
     212            0    20.902682   0.52015018    72.966262   -10.258488 0.00027274349   -203.46039 -8.8840265e-05 -0.00022115813            0   -3313.8329   -3313.8329    35032.222    28.828817    24.913415    48.776158     1008 
     213            0    20.902602    0.5276351      72.9662   -10.258558 0.00016511033   -203.46039 -7.258969e-05 -0.00021035381            0   -3313.8329   -3313.8329    35032.222    28.828817    24.913415    48.776158     1008 
     214            0    20.902552   0.53511906    72.966155     -10.2586 0.00010029611   -203.46039 -7.0065681e-05 -0.00019503082            0   -3313.8329   -3313.8329    35032.222    28.828817    24.913415    48.776158     1008 
     215            0    20.902524   0.54259706    72.966126   -10.258618 6.5608636e-05   -203.46039 -7.2217373e-05 -0.00017762685            0   -3313.8329   -3313.8329    35032.222    28.828817    24.913415    48.776158     1008 
     216            0    20.902506   0.55008221    72.966106   -10.258631 4.3409533e-05   -203.46039 -7.2388803e-05 -0.00016152351            0   -3313.8329   -3313.8329    35032.222    28.828817    24.913415    48.776158     1008 
     217            0    20.902493   0.55756617    72.966094   -10.258642 2.6989077e-05   -203.46039 -7.4319732e-05 -0.0001504232            0   -3313.8329   -3313.8329    35032.222    28.828817    24.913415    48.776158     1008 
     218            0    20.902482   0.56504607    72.966086   -10.258653 1.2013299e-05   -203.46039 -7.4638564e-05 -0.00014355658            0   -3313.8329   -3313.8329    35032.222    28.828817    24.913415    48.776158     1008 
     219            0    20.902478   0.57252812    72.966083   -10.258656 7.2614653e-06    -203.4604 -7.2211158e-05 -0.00013805016            0   -3313.8329   -3313.8329    35032.222    28.828817    24.913415    48.776158     1008 
     220            0    20.902478   0.58000517    72.966083   -10.258656 6.5500612e-06    -203.4604 -7.0207463e-05 -0.00013272612            0   -3313.8329   -3313.8329    35032.222    28.828817    24.913415    48.776158     1008 
     221            0    20.902474   0.58749008    72.966081   -10.258659 1.1227816e-06    -203.4604 -6.9252977e-05 -0.00012855706            0   -3313.8329   -3313.8329    35032.222    28.828817    24.913415    48.776158     1008 
     222            0    20.902472   0.59497213    72.966079   -10.258662 -2.227669e-06    -203.4604 -6.6935006e-05 -0.0001226201            0   -3313.8329   -3313.8329    35032.222    28.828817    24.913415    48.776158     1008 
     223            0    20.902471   0.60245514    72.966079   -10.258664 -3.4352843e-06    -203.4604 -6.2334761e-05 -0.00011390814            0   -3313.8329   -3313.8329    35032.222    28.828817    24.913415    48.776158     1008 
     224            0     20.90247   0.60993814     72.96608   -10.258665 -3.9544045e-06   -203.46039 -5.7225457e-05 -0.00010521131            0   -3313.8329   -3313.8329    35032.222    28.828817    24.913415    48.776158     1008 
     225            0    20.902471   0.61742306     72.96608   -10.258666 -1.5977733e-06   -203.46039 -5.0728204e-05 -9.3404016e-05            0   -3313.8329   -3313.8329    35032.222    28.828817    24.913415    48.776158     1008 
     226            0    20.902471   0.62490416     72.96608   -10.258668 2.9006401e-07   -203.46039 -4.2154382e-05 -7.7372657e-05            0   -3313.8329   -3313.8329    35032.222    28.828817    24.913415    48.776158     1008 
     227            0    20.902469   0.63238621    72.966078   -10.258672 -6.7909019e-07   -203.46039 -3.2798351e-05 -5.9890341e-05            0   -3313.8329   -3313.8329    35032.222    28.828817    24.913415    48.776158     1008 
     228            0    20.902467   0.63986421    72.966077   -10.258674 -8.5278301e-07   -203.46039 -2.5013835e-05 -4.3934376e-05            0   -3313.8329   -3313.8329    35032.222    28.828817    24.913415    48.776158     1008 
     229            0    20.902467   0.64734817    72.966075   -10.258675 8.3797388e-08   -203.46039 -1.8315967e-05 -3.072918e-05            0   -3313.8329   -3313.8329    35032.222    28.828817    24.913415    48.776158     1008 
     230            0    20.902466   0.65483117    72.966074   -10.258676 4.563912e-07   -203.46039 -1.3113309e-05 -2.1188566e-05            0   -3313.8329   -3313.8329    35032.222    28.828817    24.913415    48.776158     1008 
     231            0    20.902465   0.66231322    72.966073   -10.258677 4.6743263e-07   -203.46039 -9.2678062e-06 -1.4091895e-05            0   -3313.8329   -3313.8329    35032.222    28.828817    24.913415    48.776158     1008 
     232            0    20.902465   0.66979814    72.966073   -10.258678 4.2420062e-07   -203.46039 -6.9392602e-06 -9.5457758e-06            0   -3313.8329   -3313.8329    35032.222    28.828817    24.913415    48.776158     1008 
     233            0    20.902465   0.67729402    72.966073   -10.258679 1.1243946e-06   -203.46039 -5.3377874e-06 -6.4436598e-06            0   -3313.8329   -3313.8329    35032.222    28.828817    24.913415    48.776158     1008 
     234            0    20.902465   0.68477511    72.966072   -10.258679 1.5714078e-06   -203.46039 -4.2897646e-06 -4.3855813e-06            0   -3313.8329   -3313.8329    35032.222    28.828817    24.913415    48.776158     1008 
     235            0    20.902465   0.69225717    72.966072   -10.258679 1.3991138e-06   -203.46039 -3.4671016e-06 -2.872099e-06            0   -3313.8329   -3313.8329    35032.222    28.828817    24.913415    48.776158     1008 
     236            0    20.902465   0.69973516    72.966072   -10.258679 1.0873083e-06   -203.46039 -2.7921381e-06 -1.5748796e-06            0   -3313.8329   -3313.8329    35032.222    28.828817    24.913415    48.776158     1008 
     237            0    20.902464   0.70721912    72.966072    -10.25868 5.8844084e-07   -203.46039 -2.3295837e-06 -7.1810202e-07            0   -3313.8329   -3313.8329    35032.222    28.828817    24.913415    48.776158     1008 
     238            0    20.902464   0.71471214    72.966072    -10.25868 4.659389e-07   -203.46039 -1.8920901e-06 -2.2098885e-07            0   -3313.8329   -3313.8329    35032.222    28.828817    24.913415    48.776158     1008 
     239            0    20.902464     0.722193    72.966072    -10.25868 6.463057e-07   -203.46039 -1.605641e-06 3.8765115e-08            0   -3313.8329   -3313.8329    35032.222    28.828817    24.913415    48.776158     1008 
     240            0    20.902464   0.72967815    72.966072    -10.25868 5.0624352e-07   -203.46039 -1.42423e-06 1.5809874e-07            0   -3313.8329   -3313.8329    35032.222    28.828817    24.913415    48.776158     1008 
     241            0    20.902464   0.73716307    72.966072    -10.25868 4.0245902e-07   -203.46039 -1.2670242e-06 2.5506955e-07            0   -3313.8329   -3313.8329    35032.222    28.828817    24.913415    48.776158     1008 
     242            0    20.902464   0.74464512    72.966072    -10.25868 3.2871905e-07   -203.46039 -1.1510455e-06 3.4729195e-07            0   -3313.8329   -3313.8329    35032.222    28.828817    24.913415    48.776158     1008 
     243            0    20.902464   0.75212622    72.966072    -10.25868 2.629926e-07   -203.46039 -1.0847046e-06 3.9598985e-07            0   -3313.8329   -3313.8329    35032.222    28.828817    24.913415    48.776158     1008 
     244            0    20.902464   0.75960708    72.966072    -10.25868 2.0937866e-07   -203.46039 -1.0190906e-06 4.3136247e-07            0   -3313.8329   -3313.8329    35032.222    28.828817    24.913415    48.776158     1008 
     245            0    20.902464   0.76709104    72.966072    -10.25868 1.2720731e-07   -203.46039 -9.5757066e-07 4.5464809e-07            0   -3313.8329   -3313.8329    35032.222    28.828817    24.913415    48.776158     1008 
     246            0    20.902464   0.77457309    72.966071    -10.25868 6.7982628e-08   -203.46039 -9.0787614e-07 4.5705108e-07            0   -3313.8329   -3313.8329    35032.222    28.828817    24.913415    48.776158     1008 
     247            0    20.902464   0.78205419    72.966071    -10.25868 4.9745224e-08   -203.46039 -8.5207258e-07 4.5575881e-07            0   -3313.8329   -3313.8329    35032.222    28.828817    24.913415    48.776158     1008 
     248            0    20.902464   0.78954101    72.966071    -10.25868 2.8175518e-08   -203.46039 -7.9540447e-07 4.3805421e-07            0   -3313.8329   -3313.8329    35032.222    28.828817    24.913415    48.776158     1008 
     249            0    20.902464   0.79702401    72.966071    -10.25868 1.9677736e-08   -203.46039 -7.3509446e-07 4.2373515e-07            0   -3313.8329   -3313.8329    35032.222    28.828817    24.913415    48.776158     1008 
     250            0    20.902464   0.80450511    72.966071    -10.25868 -2.188737e-08   -203.46039 -6.7663116e-07 3.9693204e-07            0   -3313.8329   -3313.8329    35032.222    28.828817    24.913415    48.776158     1008 
     251            0    20.902464   0.81198502    72.966071    -10.25868 -5.5419576e-08   -203.46039 -6.1182359e-07 3.6141637e-07            0   -3313.8329   -3313.8329    35032.222    28.828817    24.913415    48.776158     1008 
     252            0    20.902464   0.81946421    72.966071    -10.25868 -5.615602e-08   -203.46039 -5.5128813e-07 3.3086959e-07            0   -3313.8329   -3313.8329    35032.222    28.828817    24.913415    48.776158     1008 
     253            0    20.902464   0.82694912    72.966071    -10.25868 -5.9957439e-08   -203.46039 -5.0203819e-07 3.0403987e-07            0   -3313.8329   -3313.8329    35032.222    28.828817    24.913415    48.776158     1008 
     254            0    20.902464   0.83443308    72.966071    -10.25868 -6.0887849e-08   -203.46039 -4.5855578e-07 2.8028097e-07            0   -3313.8329   -3313.8329    35032.222    28.828817    24.913415    48.776158     1008 
     255            0    20.902464   0.84191418    72.966071    -10.25868 -5.7537659e-08   -203.46039 -4.2070482e-07 2.5589773e-07            0   -3313.8329   -3313.8329    35032.222    28.828817    24.913415    48.776158     1008 
     256            0    20.902464   0.84939909    72.966071    -10.25868 -5.0185479e-08   -203.46039 -3.8594597e-07 2.3103754e-07            0   -3313.8329   -3313.8329    35032.222    28.828817    24.913415    48.776158     1008 
     257            0    20.902464     0.856884    72.966071    -10.25868 -3.7681047e-08   -203.46039 -3.4992749e-07 2.0719818e-07            0   -3313.8329   -3313.8329    35032.222    28.828817    24.913415    48.776158     1008 
     258            0    20.902464   0.86436105    72.966071    -10.25868 -2.6323728e-08   -203.46039 -3.1031871e-07 1.8302136e-07            0   -3313.8329   -3313.8329    35032.222    28.828817    24.913415    48.776158     1008 
     259            0    20.902464   0.87184405    72.966071    -10.25868 -1.9045901e-08   -203.46039 -2.7280545e-07 1.6326888e-07            0   -3313.8329   -3313.8329    35032.222    28.828817    24.913415    48.776158     1008 
     260            0    20.902464    0.8793242    72.966071    -10.25868 -1.4247712e-08   -203.46039 -2.3482342e-07 1.4217805e-07            0   -3313.8329   -3313.8329    35032.222    28.828817    24.913415    48.776158     1008 
     261            0    20.902464   0.88681102    72.966071    -10.25868 -4.5309851e-09   -203.46039 -1.9504229e-07 1.2073538e-07            0   -3313.8329   -3313.8329    35032.222    28.828817    24.913415    48.776158     1008 
     262            0    20.902464   0.89429712    72.966071    -10.25868 6.8705621e-09   -203.46039 -1.5806603e-07 1.0051974e-07            0   -3313.8329   -3313.8329    35032.222    28.828817    24.913415    48.776158     1008 
     263            0    20.902464   0.90550709    72.966071    -10.25868 1.4293985e-08   -203.46039 -1.2552113e-07 8.3083423e-08            0   -3313.8329   -3313.8329    35032.222    28.828817    24.913415    48.776158     1008 
Loop time of 0.905525 on 1 procs for 122 steps with 1008 atoms

99.8% CPU use with 1 MPI tasks x no OpenMP threads

Minimization stats:
  Stopping criterion = force tolerance
  Energy initial, next-to-last, final = 
        -3313.78117772     -3313.83289318     -3313.83289318
  Force two-norm initial, final = 0.310697 9.78411e-11
  Force max component initial, final = 0.0268147 5.58071e-12
  Final line search alpha, max atom move = 1 5.58071e-12
  Iterations, force evaluations = 122 241

MPI task timing breakdown:
Section |  min time  |  avg time  |  max time  |%varavg| %total
---------------------------------------------------------------
Pair    | 0.8928     | 0.8928     | 0.8928     |   0.0 | 98.60
Neigh   | 0          | 0          | 0          |   0.0 |  0.00
Comm    | 0.0028558  | 0.0028558  | 0.0028558  |   0.0 |  0.32
Output  | 0.0038359  | 0.0038359  | 0.0038359  |   0.0 |  0.42
Modify  | 0          | 0          | 0          |   0.0 |  0.00
Other   |            | 0.006029   |            |       |  0.67

Nlocal:    1008 ave 1008 max 1008 min
Histogram: 1 0 0 0 0 0 0 0 0 0
Nghost:    1524 ave 1524 max 1524 min
Histogram: 1 0 0 0 0 0 0 0 0 0
Neighs:    58476 ave 58476 max 58476 min
Histogram: 1 0 0 0 0 0 0 0 0 0

Total # of neighbors = 58476
Ave neighs/atom = 58.0119
Neighbor list builds = 0
Dangerous builds = 0
#fix 1a all qeq/comb 1 0.0001 file fq.out
write_restart restart.equil
write_data data0

# uxx Perturbation

variable dir equal 1
include /users/knc6/displace.mod
# NOTE: This script should not need to be
# modified. See in.elastic for more info.
#
# Find which reference length to use

if "${dir} == 1" then    "variable len0 equal ${lx0}"
variable len0 equal ${lx0}
variable len0 equal 28.8288172521377
if "${dir} == 2" then    "variable len0 equal ${ly0}"
if "${dir} == 3" then    "variable len0 equal ${lz0}"
if "${dir} == 4" then    "variable len0 equal ${lz0}"
if "${dir} == 5" then    "variable len0 equal ${lz0}"
if "${dir} == 6" then    "variable len0 equal ${ly0}"

# Reset box and simulation parameters

clear
box tilt large
read_restart restart.equil
  triclinic box = (0.188074 0.151943 -0.0338984) to (29.0169 25.0654 48.7423) with tilt (4.43893 0 0)
  1 by 1 by 1 MPI processor grid
  1008 atoms
include potential.mod
pair_style eam/alloy
pair_coeff * * /users/knc6/Software/jarvis/jarvis/lammps/examples/Al03.eam.alloy  Al
neighbor 1.0 nsq
neigh_modify once no every 1 delay 0 check yes
min_style  cg
min_modify           dmax ${dmax} line quadratic
min_modify           dmax 0.01 line quadratic
thermo          1
thermo_style custom step temp press cpu pxx pyy pzz pxy pxz pyz ke pe etotal vol lx ly lz atoms
thermo_modify norm no
# Negative deformation

variable delta equal -${up}*${len0}
variable delta equal -1e-06*${len0}
variable delta equal -1e-06*28.8288172521377
if "${dir} == 1" then    "change_box all x delta 0 ${delta} remap units box"
change_box all x delta 0 ${delta} remap units box
change_box all x delta 0 -2.88288172521377e-05 remap units box
  triclinic box = (0.188074 0.151943 -0.0338984) to (29.0169 25.0654 48.7423) with tilt (4.43893 0 0)
if "${dir} == 2" then    "change_box all y delta 0 ${delta} remap units box"
if "${dir} == 3" then    "change_box all z delta 0 ${delta} remap units box"
if "${dir} == 4" then    "change_box all yz delta ${delta} remap units box"
if "${dir} == 5" then    "change_box all xz delta ${delta} remap units box"
if "${dir} == 6" then    "change_box all xy delta ${delta} remap units box"

# Relax atoms positions

minimize ${etol} ${ftol} ${maxiter} ${maxeval}
minimize 0 ${ftol} ${maxiter} ${maxeval}
minimize 0 1e-10 ${maxiter} ${maxeval}
minimize 0 1e-10 1000 ${maxeval}
minimize 0 1e-10 1000 10000
Neighbor list info ...
  1 neighbor list requests
  update every 1 steps, delay 0 steps, check yes
  max neighbors/atom: 2000, page size: 100000
  master list distance cutoff = 7.72488
  ghost atom cutoff = 7.72488
Memory usage per processor = 3.39011 Mbytes
Step Temp Press CPU Pxx Pyy Pzz Pxy Pxz Pyz KinEng PotEng TotEng Volume Lx Ly Lz Atoms 
     263            0    21.294079            0    73.580095   -9.9562913   0.25843326   -203.48979 -0.011070766 0.0024820681            0   -3313.8329   -3313.8329    35032.187    28.828788    24.913415    48.776158     1008 
     264            0    21.252601 0.0075230598    73.544218   -9.9893653   0.20294903   -203.49014 -0.012747984 -0.0015188769            0   -3313.8329   -3313.8329    35032.187    28.828788    24.913415    48.776158     1008 
     265            0    21.221776  0.015053034    73.516305   -10.013545   0.16256918   -203.49119 -0.013344305 -0.0019563531            0   -3313.8329   -3313.8329    35032.187    28.828788    24.913415    48.776158     1008 
     266            0    21.194648  0.022577047    73.493256   -10.035446   0.12613309   -203.49208 -0.011888912 -0.0019875812            0   -3313.8329   -3313.8329    35032.187    28.828788    24.913415    48.776158     1008 
     267            0    21.166657  0.030092001    73.470868   -10.057659  0.086760366   -203.49221 -0.0097778273 -0.0020343646            0   -3313.8329   -3313.8329    35032.187    28.828788    24.913415    48.776158     1008 
     268            0    21.135554  0.037615061    73.446691   -10.080833   0.04080511   -203.49206 -0.0063537351 -0.0028586718            0   -3313.8329   -3313.8329    35032.187    28.828788    24.913415    48.776158     1008 
     269            0    21.124703  0.045139074    73.439134   -10.088785  0.023760016   -203.49218 -0.0051678568 -0.0033506485            0   -3313.8329   -3313.8329    35032.187    28.828788    24.913415    48.776158     1008 
     270            0    21.118797  0.052654982    73.435599   -10.093454   0.01424528   -203.49232 -0.004856866 -0.0036668115            0   -3313.8329   -3313.8329    35032.187    28.828788    24.913415    48.776158     1008 
     271            0    21.115088  0.060178995    73.433753   -10.096381  0.007891306   -203.49238 -0.0051015543 -0.0040906526            0   -3313.8329   -3313.8329    35032.187    28.828788    24.913415    48.776158     1008 
     272            0    21.112955  0.067699909    73.432927   -10.098098 0.0040364641   -203.49228 -0.0054336583 -0.0040959529            0   -3313.8329   -3313.8329    35032.187    28.828788    24.913415    48.776158     1008 
     273            0     21.11143  0.075218916    73.432581   -10.099425  0.001134557    -203.4921 -0.0057910801 -0.0042198952            0   -3313.8329   -3313.8329    35032.187    28.828788    24.913415    48.776158     1008 
     274            0    21.110629  0.083338976    73.432432   -10.100219 -0.00032611231   -203.49202 -0.0060131554 -0.0044006081            0   -3313.8329   -3313.8329    35032.187    28.828788    24.913415    48.776158     1008 
     275            0    21.110419  0.090895891    73.432295   -10.100645 -0.00039183339   -203.49202 -0.0060523122 -0.0043425638            0   -3313.8329   -3313.8329    35032.187    28.828788    24.913415    48.776158     1008 
     276            0    21.110392  0.098432064    73.432202   -10.100758 -0.00026765547   -203.49202 -0.006021406 -0.0041876979            0   -3313.8329   -3313.8329    35032.187    28.828788    24.913415    48.776158     1008 
     277            0    21.110302   0.10596609    73.432133   -10.100775 -0.00045340144   -203.49204 -0.0059886461 -0.0040777848            0   -3313.8329   -3313.8329    35032.187    28.828788    24.913415    48.776158     1008 
     278            0    21.110264   0.11349702     73.43208   -10.100728 -0.00055881826   -203.49204 -0.0058374021 -0.0038683518            0   -3313.8329   -3313.8329    35032.187    28.828788    24.913415    48.776158     1008 
     279            0    21.110224   0.12103391    73.432032   -10.100657 -0.00070374454   -203.49202 -0.0054483549 -0.0035103231            0   -3313.8329   -3313.8329    35032.187    28.828788    24.913415    48.776158     1008 
     280            0    21.110162   0.12857199    73.431979   -10.100614 -0.00087953684   -203.49203 -0.0048833112 -0.003117505            0   -3313.8329   -3313.8329    35032.187    28.828788    24.913415    48.776158     1008 
     281            0    21.110108   0.13610506    73.431915   -10.100615 -0.00097748768   -203.49204 -0.0041181627 -0.002626121            0   -3313.8329   -3313.8329    35032.187    28.828788    24.913415    48.776158     1008 
     282            0    21.110043     0.143646    73.431844   -10.100773 -0.00094380845     -203.492 -0.0030187331 -0.0018212913            0   -3313.8329   -3313.8329    35032.187    28.828788    24.913415    48.776158     1008 
     283            0    21.110065   0.15118408     73.43178    -10.10097 -0.00061527307   -203.49196 -0.001906319 -0.0009610995            0   -3313.8329   -3313.8329    35032.187    28.828788    24.913415    48.776158     1008 
     284            0    21.110182   0.15871787    73.431734   -10.100984 -0.00020562771   -203.49195 -0.0010604359 -0.00026066635            0   -3313.8329   -3313.8329    35032.187    28.828788    24.913415    48.776158     1008 
     285            0    21.110222    0.1662569    73.431716   -10.100983 -6.6137876e-05   -203.49193 -0.00063113046 0.00011850703            0   -3313.8329   -3313.8329    35032.187    28.828788    24.913415    48.776158     1008 
     286            0    21.110216   0.17378592    73.431711   -10.101013 -4.8636484e-05   -203.49191 -0.00043473351 0.00027247712            0   -3313.8329   -3313.8329    35032.187    28.828788    24.913415    48.776158     1008 
     287            0    21.110206   0.18133903    73.431708   -10.101041 -4.7898115e-05   -203.49189 -0.00032109029 0.00031195014            0   -3313.8329   -3313.8329    35032.187    28.828788    24.913415    48.776158     1008 
     288            0      21.1102   0.18887687    73.431707   -10.101051 -5.6949227e-05   -203.49189 -0.00023589833 0.00028365439            0   -3313.8329   -3313.8329    35032.187    28.828788    24.913415    48.776158     1008 
     289            0    21.110212   0.19640803    73.431705    -10.10103 -4.0384993e-05   -203.49189 -0.00018371492 0.00024495265            0   -3313.8329   -3313.8329    35032.187    28.828788    24.913415    48.776158     1008 
     290            0    21.110225   0.20394802    73.431704   -10.101007 -2.2858194e-05   -203.49189 -0.00014864417 0.00021231315            0   -3313.8329   -3313.8329    35032.187    28.828788    24.913415    48.776158     1008 
     291            0    21.110234   0.21149087    73.431704   -10.100988 -1.5323107e-05   -203.49189 -0.000128565 0.0001865122            0   -3313.8329   -3313.8329    35032.187    28.828788    24.913415    48.776158     1008 
     292            0    21.110245   0.21902299    73.431703   -10.100966 -3.1668299e-06   -203.49189 -0.0001183299 0.00017044675            0   -3313.8329   -3313.8329    35032.187    28.828788    24.913415    48.776158     1008 
     293            0    21.110251   0.22655988    73.431703   -10.100952 2.3926977e-06   -203.49189 -0.00011420619 0.0001606138            0   -3313.8329   -3313.8329    35032.187    28.828788    24.913415    48.776158     1008 
     294            0    21.110254   0.23409009    73.431703   -10.100946 4.2529878e-06   -203.49189 -0.00011075806 0.00015243094            0   -3313.8329   -3313.8329    35032.187    28.828788    24.913415    48.776158     1008 
[...]
     280            0    20.906369   0.12716508    72.969727    -10.25145 0.00082908326   -203.61704 -0.0004199989 -0.00041180965            0   -3313.8329   -3313.8329    35032.222    28.828817    24.913415    48.776158     1008 
     281            0    20.906364   0.13463998    72.969726    -10.25147 0.00083523203   -203.61704 -0.00035264561 -0.00030951408            0   -3313.8329   -3313.8329    35032.222    28.828817    24.913415    48.776158     1008 
     282            0    20.906306   0.14212394    72.969684   -10.251514 0.00074846384   -203.61704 -0.00029200069 -0.00021997238            0   -3313.8329   -3313.8329    35032.222    28.828817    24.913415    48.776158     1008 
     283            0    20.906216   0.14960408    72.969614   -10.251576 0.00060935991   -203.61704 -0.00023270539 -0.00014494315            0   -3313.8329   -3313.8329    35032.222    28.828817    24.913415    48.776158     1008 
     284            0    20.906127   0.15708208     72.96954   -10.251639 0.00048054438   -203.61704 -0.00017812582 -8.4376884e-05            0   -3313.8329   -3313.8329    35032.222    28.828817    24.913415    48.776158     1008 
     285            0    20.906032   0.16457105    72.969458   -10.251714 0.0003502063   -203.61704 -0.00012507837 -3.4013216e-05            0   -3313.8329   -3313.8329    35032.222    28.828817    24.913415    48.776158     1008 
     286            0    20.905945   0.17208505    72.969386   -10.251785 0.00023432208   -203.61704 -8.4483111e-05 -5.8899506e-06            0   -3313.8329   -3313.8329    35032.222    28.828817    24.913415    48.776158     1008 
     287            0    20.905885     0.179564    72.969337   -10.251836 0.00015484942   -203.61704 -5.9410927e-05 2.8034143e-06            0   -3313.8329   -3313.8329    35032.222    28.828817    24.913415    48.776158     1008 
     288            0    20.905849   0.18704104    72.969308   -10.251868 0.00010713862   -203.61704 -4.5168566e-05 8.1385582e-06            0   -3313.8329   -3313.8329    35032.222    28.828817    24.913415    48.776158     1008 
     289            0     20.90582   0.19451904    72.969287   -10.251895 6.7471164e-05   -203.61704 -3.5621388e-05 1.5037813e-05            0   -3313.8329   -3313.8329    35032.222    28.828817    24.913415    48.776158     1008 
     290            0    20.905799   0.20200109    72.969272   -10.251914 3.9097456e-05   -203.61704 -3.0267385e-05 2.0412273e-05            0   -3313.8329   -3313.8329    35032.222    28.828817    24.913415    48.776158     1008 
     291            0    20.905787   0.20948315    72.969265   -10.251924 2.0513727e-05   -203.61704 -2.8537716e-05 2.3610186e-05            0   -3313.8329   -3313.8329    35032.222    28.828817    24.913415    48.776158     1008 
     292            0    20.905782    0.2169621    72.969261   -10.251927 1.0993566e-05   -203.61704 -2.7575634e-05 2.4839365e-05            0   -3313.8329   -3313.8329    35032.222    28.828817    24.913415    48.776158     1008 
     293            0    20.905779   0.22444606     72.96926   -10.251929 5.2021247e-06   -203.61704 -2.6578407e-05 2.4202691e-05            0   -3313.8329   -3313.8329    35032.222    28.828817    24.913415    48.776158     1008 
     294            0    20.905778   0.23193002    72.969259    -10.25193 3.5879154e-06   -203.61704 -2.5322556e-05 2.3747715e-05            0   -3313.8329   -3313.8329    35032.222    28.828817    24.913415    48.776158     1008 
     295            0    20.905777   0.23940802    72.969259    -10.25193 2.6126752e-06   -203.61704 -2.4001264e-05 2.251555e-05            0   -3313.8329   -3313.8329    35032.222    28.828817    24.913415    48.776158     1008 
     296            0    20.905776   0.24688792    72.969258   -10.251931 1.9533462e-07   -203.61704 -2.2840623e-05 2.0617878e-05            0   -3313.8329   -3313.8329    35032.222    28.828817    24.913415    48.776158     1008 
     297            0    20.905774   0.25436306    72.969256   -10.251932 -1.5934951e-06   -203.61704 -2.1437107e-05 1.923814e-05            0   -3313.8329   -3313.8329    35032.222    28.828817    24.913415    48.776158     1008 
     298            0    20.905773   0.26184511    72.969255   -10.251933 -3.2876464e-06   -203.61704 -1.9677999e-05 1.7703387e-05            0   -3313.8329   -3313.8329    35032.222    28.828817    24.913415    48.776158     1008 
     299            0    20.905772   0.26932812    72.969254   -10.251933 -4.6278657e-06   -203.61704 -1.8075748e-05  1.62276e-05            0   -3313.8329   -3313.8329    35032.222    28.828817    24.913415    48.776158     1008 
     300            0    20.905772   0.27680397    72.969254   -10.251933 -4.999869e-06   -203.61704 -1.6403068e-05 1.4866907e-05            0   -3313.8329   -3313.8329    35032.222    28.828817    24.913415    48.776158     1008 
     301            0    20.905772   0.28428507    72.969254   -10.251933 -4.8526893e-06   -203.61704 -1.4534904e-05 1.3281512e-05            0   -3313.8329   -3313.8329    35032.222    28.828817    24.913415    48.776158     1008 
     302            0    20.905772   0.29176593    72.969254   -10.251932 -4.5868477e-06   -203.61704 -1.2498709e-05 1.1445089e-05            0   -3313.8329   -3313.8329    35032.222    28.828817    24.913415    48.776158     1008 
     303            0    20.905773   0.29924202    72.969254   -10.251932 -4.1993165e-06   -203.61704 -1.0512996e-05 9.5172879e-06            0   -3313.8329   -3313.8329    35032.222    28.828817    24.913415    48.776158     1008 
     304            0    20.905773   0.30672097    72.969255   -10.251931 -3.4243929e-06   -203.61704 -8.4570218e-06 7.7283583e-06            0   -3313.8329   -3313.8329    35032.222    28.828817    24.913415    48.776158     1008 
     305            0    20.905774   0.31419706    72.969255   -10.251931 -2.5916156e-06   -203.61704 -6.6927391e-06 6.2647805e-06            0   -3313.8329   -3313.8329    35032.222    28.828817    24.913415    48.776158     1008 
     306            0    20.905774   0.32168007    72.969255    -10.25193 -2.1311509e-06   -203.61704 -5.1188038e-06 4.801579e-06            0   -3313.8329   -3313.8329    35032.222    28.828817    24.913415    48.776158     1008 
     307            0    20.905774   0.32916212    72.969255    -10.25193 -1.7366681e-06   -203.61704 -3.5830759e-06 3.5628813e-06            0   -3313.8329   -3313.8329    35032.222    28.828817    24.913415    48.776158     1008 
     308            0    20.905775   0.33663797    72.969255   -10.251929 -8.3370427e-07   -203.61704 -2.3205801e-06 2.5742838e-06            0   -3313.8329   -3313.8329    35032.222    28.828817    24.913415    48.776158     1008 
     309            0    20.905776   0.34412193    72.969255   -10.251929 9.3662687e-08   -203.61704 -1.4343617e-06 1.7826977e-06            0   -3313.8329   -3313.8329    35032.222    28.828817    24.913415    48.776158     1008 
     310            0    20.905776   0.35160613    72.969256   -10.251928 5.8574336e-07   -203.61704 -8.3784334e-07 1.1468651e-06            0   -3313.8329   -3313.8329    35032.222    28.828817    24.913415    48.776158     1008 
     311            0    20.905776   0.35907912    72.969256   -10.251928 8.3451307e-07   -203.61704 -4.4616958e-07 7.0880948e-07            0   -3313.8329   -3313.8329    35032.222    28.828817    24.913415    48.776158     1008 
     312            0    20.905776   0.36655807    72.969256   -10.251928 8.4572353e-07   -203.61704 -2.5922483e-07 4.4901629e-07            0   -3313.8329   -3313.8329    35032.222    28.828817    24.913415    48.776158     1008 
     313            0    20.905776   0.37403297    72.969256   -10.251928 7.308376e-07   -203.61704 -1.7797882e-07 2.7003282e-07            0   -3313.8329   -3313.8329    35032.222    28.828817    24.913415    48.776158     1008 
     314            0    20.905776   0.38151598    72.969256   -10.251928 7.2344892e-07   -203.61704 -1.2693791e-07 1.7213904e-07            0   -3313.8329   -3313.8329    35032.222    28.828817    24.913415    48.776158     1008 
     315            0    20.905776   0.38899803    72.969256   -10.251928 6.4898537e-07   -203.61704 -1.155231e-07 1.2494997e-07            0   -3313.8329   -3313.8329    35032.222    28.828817    24.913415    48.776158     1008 
     316            0    20.905776   0.39647603    72.969256   -10.251928 5.4940823e-07   -203.61704 -1.011618e-07 1.0401624e-07            0   -3313.8329   -3313.8329    35032.222    28.828817    24.913415    48.776158     1008 
     317            0    20.905776   0.40395999    72.969256   -10.251928 4.7081013e-07   -203.61704 -8.1177586e-08 9.0633593e-08            0   -3313.8329   -3313.8329    35032.222    28.828817    24.913415    48.776158     1008 
     318            0    20.905776   0.41144204    72.969256   -10.251928 4.0662008e-07   -203.61704 -6.1373545e-08  7.74755e-08            0   -3313.8329   -3313.8329    35032.222    28.828817    24.913415    48.776158     1008 
     319            0    20.905776   0.41891503    72.969256   -10.251928 3.3861788e-07   -203.61704 -4.6867003e-08 6.5212554e-08            0   -3313.8329   -3313.8329    35032.222    28.828817    24.913415    48.776158     1008 
     320            0    20.905776   0.42639709    72.969256   -10.251928 2.2682884e-07   -203.61704 -4.0563207e-08 4.2808067e-08            0   -3313.8329   -3313.8329    35032.222    28.828817    24.913415    48.776158     1008 
     321            0    20.905776   0.43388295    72.969256   -10.251928 1.489322e-07   -203.61704 -3.1351066e-08 2.3610621e-08            0   -3313.8329   -3313.8329    35032.222    28.828817    24.913415    48.776158     1008 
     322            0    20.905776   0.44137096    72.969256   -10.251928 7.5062904e-08   -203.61704 -2.1700385e-08 8.3313002e-09            0   -3313.8329   -3313.8329    35032.222    28.828817    24.913415    48.776158     1008 
     323            0    20.905776   0.44885612    72.969256   -10.251928 1.4583329e-08   -203.61704 -1.3664167e-08 6.5383027e-10            0   -3313.8329   -3313.8329    35032.222    28.828817    24.913415    48.776158     1008 
     324            0    20.905776   0.45633292    72.969256   -10.251928 -1.4768712e-08   -203.61704 -4.8666649e-09 2.0147089e-09            0   -3313.8329   -3313.8329    35032.222    28.828817    24.913415    48.776158     1008 
     325            0    20.905776   0.46754313    72.969256   -10.251928 -3.7636825e-08   -203.61704 3.6281747e-10 2.3522468e-09            0   -3313.8329   -3313.8329    35032.222    28.828817    24.913415    48.776158     1008 
Loop time of 0.46756 on 1 procs for 62 steps with 1008 atoms

99.2% CPU use with 1 MPI tasks x no OpenMP threads

Minimization stats:
  Stopping criterion = force tolerance
  Energy initial, next-to-last, final = 
        -3313.83288873     -3313.83288873     -3313.83288873
  Force two-norm initial, final = 1.61636e-05 9.89851e-11
  Force max component initial, final = 1.41225e-06 6.17728e-12
  Final line search alpha, max atom move = 1 6.17728e-12
  Iterations, force evaluations = 62 124

MPI task timing breakdown:
Section |  min time  |  avg time  |  max time  |%varavg| %total
---------------------------------------------------------------
Pair    | 0.46104    | 0.46104    | 0.46104    |   0.0 | 98.60
Neigh   | 0          | 0          | 0          |   0.0 |  0.00
Comm    | 0.0014641  | 0.0014641  | 0.0014641  |   0.0 |  0.31
Output  | 0.0019469  | 0.0019469  | 0.0019469  |   0.0 |  0.42
Modify  | 0          | 0          | 0          |   0.0 |  0.00
Other   |            | 0.003113   |            |       |  0.67

Nlocal:    1008 ave 1008 max 1008 min
Histogram: 1 0 0 0 0 0 0 0 0 0
Nghost:    1521 ave 1521 max 1521 min
Histogram: 1 0 0 0 0 0 0 0 0 0
Neighs:    58476 ave 58476 max 58476 min
Histogram: 1 0 0 0 0 0 0 0 0 0

Total # of neighbors = 58476
Ave neighs/atom = 58.0119
Neighbor list builds = 0
Dangerous builds = 0

# Obtain new stress tensor

variable tmp equal pe
variable e1 equal ${tmp}
variable e1 equal -3313.83288873436
variable tmp equal press
variable p1 equal ${tmp}
variable p1 equal 20.9057757408417
variable tmp equal pxx
variable pxx1 equal ${tmp}
variable pxx1 equal 72.9692556161861
variable tmp equal pyy
variable pyy1 equal ${tmp}
variable pyy1 equal -10.2519283560242
variable tmp equal pzz
variable pzz1 equal ${tmp}
variable pzz1 equal -3.76368254165726e-08
variable tmp equal pxy
variable pxy1 equal ${tmp}
variable pxy1 equal -203.617035969872
variable tmp equal pxz
variable pxz1 equal ${tmp}
variable pxz1 equal 3.62817468982443e-10
variable tmp equal pyz
variable pyz1 equal ${tmp}
variable pyz1 equal 2.35224680669572e-09

# Compute elastic constant from pressure tensor

variable C1pos equal ${d1}
variable C1pos equal -8273.70083080675
variable C2pos equal ${d2}
variable C2pos equal 1373.03615195029
variable C3pos equal ${d3}
variable C3pos equal -316.330566142758
variable C4pos equal ${d4}
variable C4pos equal -9435.24452305164
variable C5pos equal ${d5}
variable C5pos equal 11764.6557371055
variable C6pos equal ${d6}
variable C6pos equal 336.166246031601

# Combine positive and negative

variable C1${dir} equal 0.5*(${C1neg}+${C1pos})
variable C16 equal 0.5*(${C1neg}+${C1pos})
variable C16 equal 0.5*(8273.06401432144+${C1pos})
variable C16 equal 0.5*(8273.06401432144+-8273.70083080675)
variable C2${dir} equal 0.5*(${C2neg}+${C2pos})
variable C26 equal 0.5*(${C2neg}+${C2pos})
variable C26 equal 0.5*(-1374.38642040867+${C2pos})
variable C26 equal 0.5*(-1374.38642040867+1373.03615195029)
variable C3${dir} equal 0.5*(${C3neg}+${C3pos})
variable C36 equal 0.5*(${C3neg}+${C3pos})
variable C36 equal 0.5*(316.330573666826+${C3pos})
variable C36 equal 0.5*(316.330573666826+-316.330566142758)
variable C4${dir} equal 0.5*(${C4neg}+${C4pos})
variable C46 equal 0.5*(${C4neg}+${C4pos})
variable C46 equal 0.5*(9435.24452258409+${C4pos})
variable C46 equal 0.5*(9435.24452258409+-9435.24452305164)
variable C5${dir} equal 0.5*(${C5neg}+${C5pos})
variable C56 equal 0.5*(${C5neg}+${C5pos})
variable C56 equal 0.5*(-11764.6557371804+${C5pos})
variable C56 equal 0.5*(-11764.6557371804+11764.6557371055)
variable C6${dir} equal 0.5*(${C6neg}+${C6pos})
variable C66 equal 0.5*(${C6neg}+${C6pos})
variable C66 equal 0.5*(-304.837422720101+${C6pos})
variable C66 equal 0.5*(-304.837422720101+336.166246031601)

# Delete dir to make sure it is not reused

variable dir delete

# Output final values

variable C11all equal ${C11}
variable C11all equal 46.5628465251502
variable C22all equal ${C22}
variable C22all equal 42.5752751547451
variable C33all equal ${C33}
variable C33all equal 3.36001448886236e-10

variable C12all equal 0.5*(${C12}+${C21})
variable C12all equal 0.5*(15.6627077032244+${C21})
variable C12all equal 0.5*(15.6627077032244+15.774677119065)
variable C13all equal 0.5*(${C13}+${C31})
variable C13all equal 0.5*(0.00729644035982346+${C31})
variable C13all equal 0.5*(0.00729644035982346+1.49151986761353e-07)
variable C23all equal 0.5*(${C23}+${C32})
variable C23all equal 0.5*(-0.00102596891997564+${C32})
variable C23all equal 0.5*(-0.00102596891997564+-1.3112298802298e-07)

variable C44all equal ${C44}
variable C44all equal 9.79525793809444e-10
variable C55all equal ${C55}
variable C55all equal -3.00133251585066e-10
variable C66all equal ${C66}
variable C66all equal 15.66441165575

variable C14all equal 0.5*(${C14}+${C41})
variable C14all equal 0.5*(-1.82095391210169e-07+${C41})
variable C14all equal 0.5*(-1.82095391210169e-07+-1.00952456705272e-06)
variable C15all equal 0.5*(${C15}+${C51})
variable C15all equal 0.5*(-1.52990924107144e-06+${C51})
variable C15all equal 0.5*(-1.52990924107144e-06+4.30600266554393e-07)
variable C16all equal 0.5*(${C16}+${C61})
variable C16all equal 0.5*(-0.318408242655096+${C61})
variable C16all equal 0.5*(-0.318408242655096+-3.1500956135005)

variable C24all equal 0.5*(${C24}+${C42})
variable C24all equal 0.5*(-6.28160023552482e-07+${C42})
variable C24all equal 0.5*(-6.28160023552482e-07+-3.56203599949367e-08)
variable C25all equal 0.5*(${C25}+${C52})
variable C25all equal 0.5*(-1.69073007327825e-06+${C52})
variable C25all equal 0.5*(-1.69073007327825e-06+1.57149770529941e-07)
variable C26all equal 0.5*(${C26}+${C62})
variable C26all equal 0.5*(-0.675134229189894+${C62})
variable C26all equal 0.5*(-0.675134229189894+-0.675136122998509)

variable C34all equal 0.5*(${C34}+${C43})
variable C34all equal 0.5*(-2.44601494614471e-07+${C43})
variable C34all equal 0.5*(-2.44601494614471e-07+-1.44205478136428e-06)
variable C35all equal 0.5*(${C35}+${C53})
variable C35all equal 0.5*(-2.6153275030083e-06+${C53})
variable C35all equal 0.5*(-2.6153275030083e-06+4.09019958169665e-06)
variable C36all equal 0.5*(${C36}+${C63})
variable C36all equal 0.5*(3.76203399810038e-06+${C63})
variable C36all equal 0.5*(3.76203399810038e-06+-0.020345975450482)

variable C45all equal 0.5*(${C45}+${C54})
variable C45all equal 0.5*(1.81835275725462e-07+${C54})
variable C45all equal 0.5*(1.81835275725462e-07+-3.22599589708261e-07)
variable C46all equal 0.5*(${C46}+${C64})
variable C46all equal 0.5*(-2.33775608649012e-07+${C64})
variable C46all equal 0.5*(-2.33775608649012e-07+1.54649484329639e-07)
variable C56all equal 0.5*(${C56}+${C65})
variable C56all equal 0.5*(-3.74493538402021e-08+${C65})
variable C56all equal 0.5*(-3.74493538402021e-08+-9.90515047760709e-08)

# For Stillinger-Weber silicon, the analytical results
# are known to be (E. R. Cowley, 1988):
#               C11 = 151.4 GPa
#               C12 = 76.4 GPa
#               C44 = 56.4 GPa

print "Elastic Constant C11all = ${C11all} ${cunits}"
Elastic Constant C11all = 46.5628465251502 GPa
print "Elastic Constant C22all = ${C22all} ${cunits}"
Elastic Constant C22all = 42.5752751547451 GPa
print "Elastic Constant C33all = ${C33all} ${cunits}"
Elastic Constant C33all = 3.36001448886236e-10 GPa

print "Elastic Constant C12all = ${C12all} ${cunits}"
Elastic Constant C12all = 15.7186924111447 GPa
print "Elastic Constant C13all = ${C13all} ${cunits}"
Elastic Constant C13all = 0.00364829475590511 GPa
print "Elastic Constant C23all = ${C23all} ${cunits}"
Elastic Constant C23all = -0.000513050021481832 GPa

print "Elastic Constant C44all = ${C44all} ${cunits}"
Elastic Constant C44all = 9.79525793809444e-10 GPa
print "Elastic Constant C55all = ${C55all} ${cunits}"
Elastic Constant C55all = -3.00133251585066e-10 GPa
print "Elastic Constant C66all = ${C66all} ${cunits}"
Elastic Constant C66all = 15.66441165575 GPa

print "Elastic Constant C14all = ${C14all} ${cunits}"
Elastic Constant C14all = -5.95809979131445e-07 GPa
print "Elastic Constant C15all = ${C15all} ${cunits}"
Elastic Constant C15all = -5.49654487258524e-07 GPa
print "Elastic Constant C16all = ${C16all} ${cunits}"
Elastic Constant C16all = -1.7342519280778 GPa

print "Elastic Constant C24all = ${C24all} ${cunits}"
Elastic Constant C24all = -3.31890191773709e-07 GPa
print "Elastic Constant C25all = ${C25all} ${cunits}"
Elastic Constant C25all = -7.66790151374155e-07 GPa
print "Elastic Constant C26all = ${C26all} ${cunits}"
Elastic Constant C26all = -0.675135176094201 GPa

print "Elastic Constant C34all = ${C34all} ${cunits}"
Elastic Constant C34all = -8.43328137989375e-07 GPa
print "Elastic Constant C35all = ${C35all} ${cunits}"
Elastic Constant C35all = 7.37436039344175e-07 GPa
print "Elastic Constant C36all = ${C36all} ${cunits}"
Elastic Constant C36all = -0.010171106708242 GPa

print "Elastic Constant C45all = ${C45all} ${cunits}"
Elastic Constant C45all = -7.03821569913995e-08 GPa
print "Elastic Constant C46all = ${C46all} ${cunits}"
Elastic Constant C46all = -3.95630621596865e-08 GPa
print "Elastic Constant C56all = ${C56all} ${cunits}"
Elastic Constant C56all = -6.82504293081365e-08 GPa

Total wall time: 0:00:08
