LAMMPS (13 Jan 2016)
include /users/knc6/inelast.mod
# Compute elastic constant tensor for a crystal
#
# Written by Aidan Thompson (Sandia, athomps@sandia.gov)
#
#  This script uses the following three include files.
#
#   init.mod      (must be modified for different crystal structures)
# 	       	  Define units, deformation parameters and initial
#		  configuration of the atoms and simulation cell.
#
#
#   potential.mod    (must be modified for different pair styles)
# 		     Define pair style and other attributes
#		     not stored in restart file
#
#
#   displace.mod    (displace.mod should not need to be modified)
# 		    Perform positive and negative box displacements
# 		    in direction ${dir} and size ${up}.
# 		    It uses the resultant changes
#		    in stress to compute one
# 		    row of the elastic stiffness tensor
#
#		    Inputs variables:
#		    	   dir = the Voigt deformation component
#		    		    (1,2,3,4,5,6)
#		    Global constants:
#       	    	   up = the deformation magnitude (strain units)
#       		   cfac = conversion from LAMMPS pressure units to
#               	   output units for elastic constants
#
#
#  To run this on a different system, it should only be necessary to
#  modify the files init.mod and potential.mod. In order to calculate
#  the elastic constants correctly, care must be taken to specify
#  the correct units in init.mod (units, cfac and cunits). It is also
#  important to verify that the minimization of energy w.r.t atom
#  positions in the deformed cell is fully converged.
#  One indication of this is that the elastic constants are insensitive
#  to the choice of the variable ${up} in init.mod. Another is to check
#  the final max and two-norm forces reported in the log file. If you know
#  that minimization is not required, you can set maxiter = 0.0 in
#  init.mod.
#
#  There are two alternate versions of displace.mod provided.
#  They are displace_restart.mod and displace_reverse.mod.
#  The former resets the box using a restart file while
#  the latter reverses the deformation. Copy whichever
#  one you like best to displace.mod.
#

include init.mod
variable dump_file string "None"
variable up  equal 1.0e-6
variable cfac  equal 1.0e-4
variable cunits  string GPa
variable etol  equal 0
variable ftol  equal 1.0e-10
variable maxiter equal 1000
variable maxeval equal 10000
variable dmax equal 1.0e-2
variable data_file string "data"
units metal
atom_style charge
boundary p p p
atom_modify sort 0 0.0

read_data data
  triclinic box = (0 0 0) to (2.85595 2.47333 2.33188) with tilt (-1.42798 -1.42798 0.824443)
  1 by 1 by 1 MPI processor grid
  reading atoms ...
  1 atoms

### interactions
mass 1 26.98154
include potential.mod
pair_style eam/alloy
pair_coeff * * /users/knc6/Software/jarvis/jarvis/lammps/examples/Al03.eam.alloy  Al
neighbor 1.0 nsq
neigh_modify once no every 1 delay 0 check yes
min_style  cg
min_modify           dmax ${dmax} line quadratic
min_modify           dmax 0.01 line quadratic
thermo          1
thermo_style custom step temp press cpu pxx pyy pzz pxy pxz pyz ke pe etotal vol lx ly lz atoms
thermo_modify norm no
#fix 3 all nph aniso 0.0 0.0 1.0
#fix langevin all langevin 0.0 0.0 1.0 12233

#fix 3 all box/relax tri 0.0 vmax 0.001
fix            3 all box/relax aniso 0.0 vmax 0.001
#fix 3 all box/relax  aniso 0.0
#dump            2a all cfg 100 *.cfg mass type xs ys zs  vx vy vz fx fy fz
#dump_modify     2a element  Mo S

#fix 1a all qeq/comb 1 0.0001 file fq.out
#fix             2 all qeq/reax 1 0.0 10.0 1e-6 /scratch/lfs/kamal/JARVIS/All2/ReaxFF/param.qeq
minimize ${etol} ${ftol} ${maxiter} ${maxeval}
minimize 0 ${ftol} ${maxiter} ${maxeval}
minimize 0 1e-10 ${maxiter} ${maxeval}
minimize 0 1e-10 1000 ${maxeval}
minimize 0 1e-10 1000 10000
Neighbor list info ...
  1 neighbor list requests
  update every 1 steps, delay 0 steps, check yes
  max neighbors/atom: 2000, page size: 100000
  master list distance cutoff = 7.72488
  ghost atom cutoff = 7.72488
Memory usage per processor = 3.36448 Mbytes
Step Temp Press CPU Pxx Pyy Pzz Pxy Pxz Pyz KinEng PotEng TotEng Volume Lx Ly Lz Atoms 
       0            0    6601.9253            0    6601.9253     6601.924    6601.9264 -7.7463221e-05 -0.00058577259 0.0001886835            0   -3.3597222   -3.3597222    16.471717    2.8559546    2.4733292    2.3318771        1 
       1            0    4164.5979 3.6001205e-05     4164.598    4164.5968     4164.599 -0.00011009092 -0.00053625677 0.00014287512            0   -3.3598883   -3.3598883    16.521182    2.8588105    2.4758025     2.334209        1 
       2            0    1760.3432 7.9154968e-05    1760.3433    1760.3423    1760.3441 -0.00015529006 -0.00047156339 8.163806e-05            0   -3.3599799   -3.3599799    16.570745    2.8616665    2.4782759    2.3365409        1 
       3            0   -2.1770946 0.00014805794   -2.1770491   -2.1777613   -2.1764735 -0.00022154085 -0.00038476153 -3.8453542e-06            0        -3.36        -3.36    16.607577    2.8637851    2.4801106    2.3382707        1 
       4            0 -0.00021159846 0.00021004677 -0.00017794874 -0.00070051306 0.00024366644 -0.00027125934 -0.0003256174 -6.509835e-05            0        -3.36        -3.36    16.607531    2.8637824    2.4801083    2.3382686        1 
       5            0 0.00027358748 0.00027108192 0.0002871663 8.358419e-05 0.00045001194 -0.00035492476 -0.00022622794 -0.00016808838            0        -3.36        -3.36    16.607531    2.8637824    2.4801083    2.3382686        1 
       6            0 -5.575175e-05 0.00033307076 -4.6424961e-05 -0.00018477444 6.3944153e-05 -0.0003720434 -0.00020602912 -0.00018907821            0        -3.36        -3.36    16.607531    2.8637824    2.4801083    2.3382686        1 
       7            0 3.222955e-10 0.00040698051 2.5210016e-07 -1.1169225e-07 -1.3944102e-07 -0.00040825907 -0.00016337177 -0.00023343836            0        -3.36        -3.36    16.607531    2.8637824    2.4801083    2.3382686        1 
Loop time of 0.000421047 on 1 procs for 7 steps with 1 atoms

0.0% CPU use with 1 MPI tasks x no OpenMP threads

Minimization stats:
  Stopping criterion = force tolerance
  Energy initial, next-to-last, final = 
         -3.3597222026     -3.36000002291     -3.36000002291
  Force two-norm initial, final = 0.11756 3.19409e-12
  Force max component initial, final = 0.0678733 2.60603e-12
  Final line search alpha, max atom move = 1 2.60603e-12
  Iterations, force evaluations = 7 12

MPI task timing breakdown:
Section |  min time  |  avg time  |  max time  |%varavg| %total
---------------------------------------------------------------
Pair    | 0.00012207 | 0.00012207 | 0.00012207 |   0.0 | 28.99
Neigh   | 0          | 0          | 0          |   0.0 |  0.00
Comm    | 4.3154e-05 | 4.3154e-05 | 4.3154e-05 |   0.0 | 10.25
Output  | 0.00010276 | 0.00010276 | 0.00010276 |   0.0 | 24.41
Modify  | 0          | 0          | 0          |   0.0 |  0.00
Other   |            | 0.0001531  |            |       | 36.35

Nlocal:    1 ave 1 max 1 min
Histogram: 1 0 0 0 0 0 0 0 0 0
Nghost:    511 ave 511 max 511 min
Histogram: 1 0 0 0 0 0 0 0 0 0
Neighs:    67 ave 67 max 67 min
Histogram: 1 0 0 0 0 0 0 0 0 0

Total # of neighbors = 67
Ave neighs/atom = 67
Neighbor list builds = 0
Dangerous builds = 0
#minimize ${etol} ${ftol} ${maxiter} ${maxeval}
#minimize ${etol} ${ftol} ${maxiter} ${maxeval}

variable tmp equal pxx
variable pxx0 equal ${tmp}
variable pxx0 equal 2.52100155478174e-07
variable tmp equal pyy
variable pyy0 equal ${tmp}
variable pyy0 equal -1.11692252418244e-07
variable tmp equal pzz
variable pzz0 equal ${tmp}
variable pzz0 equal -1.39441016553227e-07
variable tmp equal pyz
variable pyz0 equal ${tmp}
variable pyz0 equal -0.000233438362270814
variable tmp equal pxz
variable pxz0 equal ${tmp}
variable pxz0 equal -0.000163371767198626
variable tmp equal pxy
variable pxy0 equal ${tmp}
variable pxy0 equal -0.000408259069747848

variable tmp equal lx
variable lx0 equal ${tmp}
variable lx0 equal 2.863782440789
variable tmp equal ly
variable ly0 equal ${tmp}
variable ly0 equal 2.48010834473723
variable tmp equal lz
variable lz0 equal ${tmp}
variable lz0 equal 2.33826857147401

# These formulas define the derivatives w.r.t. strain components
# Constants uses $, variables use v_
variable d1 equal -(v_pxx1-${pxx0})/(v_delta/v_len0)*${cfac}
variable d1 equal -(v_pxx1-2.52100155478174e-07)/(v_delta/v_len0)*${cfac}
variable d1 equal -(v_pxx1-2.52100155478174e-07)/(v_delta/v_len0)*0.0001
variable d2 equal -(v_pyy1-${pyy0})/(v_delta/v_len0)*${cfac}
variable d2 equal -(v_pyy1--1.11692252418244e-07)/(v_delta/v_len0)*${cfac}
variable d2 equal -(v_pyy1--1.11692252418244e-07)/(v_delta/v_len0)*0.0001
variable d3 equal -(v_pzz1-${pzz0})/(v_delta/v_len0)*${cfac}
variable d3 equal -(v_pzz1--1.39441016553227e-07)/(v_delta/v_len0)*${cfac}
variable d3 equal -(v_pzz1--1.39441016553227e-07)/(v_delta/v_len0)*0.0001
variable d4 equal -(v_pyz1-${pyz0})/(v_delta/v_len0)*${cfac}
variable d4 equal -(v_pyz1--0.000233438362270814)/(v_delta/v_len0)*${cfac}
variable d4 equal -(v_pyz1--0.000233438362270814)/(v_delta/v_len0)*0.0001
variable d5 equal -(v_pxz1-${pxz0})/(v_delta/v_len0)*${cfac}
variable d5 equal -(v_pxz1--0.000163371767198626)/(v_delta/v_len0)*${cfac}
variable d5 equal -(v_pxz1--0.000163371767198626)/(v_delta/v_len0)*0.0001
variable d6 equal -(v_pxy1-${pxy0})/(v_delta/v_len0)*${cfac}
variable d6 equal -(v_pxy1--0.000408259069747848)/(v_delta/v_len0)*${cfac}
variable d6 equal -(v_pxy1--0.000408259069747848)/(v_delta/v_len0)*0.0001

# Write restart
unfix 3
minimize ${etol} ${ftol} ${maxiter} ${maxeval}
minimize 0 ${ftol} ${maxiter} ${maxeval}
minimize 0 1e-10 ${maxiter} ${maxeval}
minimize 0 1e-10 1000 ${maxeval}
minimize 0 1e-10 1000 10000
Memory usage per processor = 3.36448 Mbytes
Step Temp Press CPU Pxx Pyy Pzz Pxy Pxz Pyz KinEng PotEng TotEng Volume Lx Ly Lz Atoms 
       7            0 4.1439587e-10            0 2.5214174e-07 -1.113993e-07 -1.3949926e-07 -0.00040825903 -0.00016337178 -0.0002334384            0        -3.36        -3.36    16.607531    2.8637824    2.4801083    2.3382686        1 
       8            0 3.222955e-10 4.5061111e-05 2.5210016e-07 -1.1169225e-07 -1.3944102e-07 -0.00040825907 -0.00016337177 -0.00023343836            0        -3.36        -3.36    16.607531    2.8637824    2.4801083    2.3382686        1 
Loop time of 5.91278e-05 on 1 procs for 1 steps with 1 atoms

0.0% CPU use with 1 MPI tasks x no OpenMP threads

Minimization stats:
  Stopping criterion = quadratic factors are zero
  Energy initial, next-to-last, final = 
        -3.36000002291     -3.36000002291     -3.36000002291
  Force two-norm initial, final = 4.70619e-17 3.18453e-17
  Force max component initial, final = 4.16334e-17 2.77556e-17
  Final line search alpha, max atom move = 1 2.77556e-17
  Iterations, force evaluations = 1 2

MPI task timing breakdown:
Section |  min time  |  avg time  |  max time  |%varavg| %total
---------------------------------------------------------------
Pair    | 2.8133e-05 | 2.8133e-05 | 2.8133e-05 |   0.0 | 47.58
Neigh   | 0          | 0          | 0          |   0.0 |  0.00
Comm    | 8.8215e-06 | 8.8215e-06 | 8.8215e-06 |   0.0 | 14.92
Output  | 0          | 0          | 0          |   0.0 |  0.00
Modify  | 0          | 0          | 0          |   0.0 |  0.00
Other   |            | 2.217e-05  |            |       | 37.50

Nlocal:    1 ave 1 max 1 min
Histogram: 1 0 0 0 0 0 0 0 0 0
Nghost:    511 ave 511 max 511 min
Histogram: 1 0 0 0 0 0 0 0 0 0
Neighs:    67 ave 67 max 67 min
Histogram: 1 0 0 0 0 0 0 0 0 0

Total # of neighbors = 67
Ave neighs/atom = 67
Neighbor list builds = 0
Dangerous builds = 0
#fix 1a all qeq/comb 1 0.0001 file fq.out
write_restart restart.equil
write_data data0

# uxx Perturbation

variable dir equal 1
include /users/knc6/displace.mod
# NOTE: This script should not need to be
# modified. See in.elastic for more info.
#
# Find which reference length to use

if "${dir} == 1" then    "variable len0 equal ${lx0}"
variable len0 equal ${lx0}
variable len0 equal 2.863782440789
if "${dir} == 2" then    "variable len0 equal ${ly0}"
if "${dir} == 3" then    "variable len0 equal ${lz0}"
if "${dir} == 4" then    "variable len0 equal ${lz0}"
if "${dir} == 5" then    "variable len0 equal ${lz0}"
if "${dir} == 6" then    "variable len0 equal ${ly0}"

# Reset box and simulation parameters

clear
box tilt large
read_restart restart.equil
  triclinic box = (-0.00391395 -0.00338957 -0.00319572) to (2.85987 2.47672 2.33507) with tilt (-1.43189 -1.43189 0.826703)
  1 by 1 by 1 MPI processor grid
  1 atoms
include potential.mod
pair_style eam/alloy
pair_coeff * * /users/knc6/Software/jarvis/jarvis/lammps/examples/Al03.eam.alloy  Al
neighbor 1.0 nsq
neigh_modify once no every 1 delay 0 check yes
min_style  cg
min_modify           dmax ${dmax} line quadratic
min_modify           dmax 0.01 line quadratic
thermo          1
thermo_style custom step temp press cpu pxx pyy pzz pxy pxz pyz ke pe etotal vol lx ly lz atoms
thermo_modify norm no
# Negative deformation

variable delta equal -${up}*${len0}
variable delta equal -1e-06*${len0}
variable delta equal -1e-06*2.863782440789
if "${dir} == 1" then    "change_box all x delta 0 ${delta} remap units box"
change_box all x delta 0 ${delta} remap units box
change_box all x delta 0 -2.863782440789e-06 remap units box
WARNING: Triclinic box skew is large (../domain.cpp:185)
  triclinic box = (-0.00391395 -0.00338957 -0.00319572) to (2.85987 2.47672 2.33507) with tilt (-1.43189 -1.43189 0.826703)
if "${dir} == 2" then    "change_box all y delta 0 ${delta} remap units box"
if "${dir} == 3" then    "change_box all z delta 0 ${delta} remap units box"
if "${dir} == 4" then    "change_box all yz delta ${delta} remap units box"
if "${dir} == 5" then    "change_box all xz delta ${delta} remap units box"
if "${dir} == 6" then    "change_box all xy delta ${delta} remap units box"

# Relax atoms positions

minimize ${etol} ${ftol} ${maxiter} ${maxeval}
minimize 0 ${ftol} ${maxiter} ${maxeval}
minimize 0 1e-10 ${maxiter} ${maxeval}
minimize 0 1e-10 1000 ${maxeval}
minimize 0 1e-10 1000 10000
Neighbor list info ...
  1 neighbor list requests
  update every 1 steps, delay 0 steps, check yes
  max neighbors/atom: 2000, page size: 100000
  master list distance cutoff = 7.72488
  ghost atom cutoff = 7.72488
Memory usage per processor = 3.36448 Mbytes
Step Temp Press CPU Pxx Pyy Pzz Pxy Pxz Pyz KinEng PotEng TotEng Volume Lx Ly Lz Atoms 
       8            0   0.79016964            0    1.2012663   0.59013885   0.57910372   0.18237958   0.12908715  0.015372557            0        -3.36        -3.36    16.607514    2.8637796    2.4801083    2.3382686        1 
       9            0   0.79016964 4.6014786e-05    1.2012663   0.59013885   0.57910372   0.18237958   0.12908715  0.015372557            0        -3.36        -3.36    16.607514    2.8637796    2.4801083    2.3382686        1 
Loop time of 6.00815e-05 on 1 procs for 1 steps with 1 atoms

0.0% CPU use with 1 MPI tasks x no OpenMP threads

Minimization stats:
  Stopping criterion = quadratic factors are zero
  Energy initial, next-to-last, final = 
         -3.3600000229      -3.3600000229      -3.3600000229
  Force two-norm initial, final = 7.35214e-17 3.19867e-17
  Force max component initial, final = 6.93889e-17 3.1225e-17
  Final line search alpha, max atom move = 1 3.1225e-17
  Iterations, force evaluations = 1 2

MPI task timing breakdown:
Section |  min time  |  avg time  |  max time  |%varavg| %total
---------------------------------------------------------------
Pair    | 2.7895e-05 | 2.7895e-05 | 2.7895e-05 |   0.0 | 46.43
Neigh   | 0          | 0          | 0          |   0.0 |  0.00
Comm    | 1.0252e-05 | 1.0252e-05 | 1.0252e-05 |   0.0 | 17.06
Output  | 0          | 0          | 0          |   0.0 |  0.00
Modify  | 0          | 0          | 0          |   0.0 |  0.00
Other   |            | 2.193e-05  |            |       | 36.51

Nlocal:    1 ave 1 max 1 min
Histogram: 1 0 0 0 0 0 0 0 0 0
Nghost:    511 ave 511 max 511 min
Histogram: 1 0 0 0 0 0 0 0 0 0
Neighs:    67 ave 67 max 67 min
Histogram: 1 0 0 0 0 0 0 0 0 0

Total # of neighbors = 67
Ave neighs/atom = 67
Neighbor list builds = 0
Dangerous builds = 0

# Obtain new stress tensor

variable tmp equal pxx
variable pxx1 equal ${tmp}
variable pxx1 equal 1.20126634789301
variable tmp equal pyy
variable pyy1 equal ${tmp}
variable pyy1 equal 0.590138850002559
variable tmp equal pzz
variable pzz1 equal ${tmp}
variable pzz1 equal 0.579103716717474
variable tmp equal pxy
variable pxy1 equal ${tmp}
variable pxy1 equal 0.182379581760892
variable tmp equal pxz
variable pxz1 equal ${tmp}
variable pxz1 equal 0.129087150282734
variable tmp equal pyz
variable pyz1 equal ${tmp}
variable pyz1 equal 0.0153725569937085

# Compute elastic constant from pressure tensor

variable C1neg equal ${d1}
variable C1neg equal 120.126609579285
variable C2neg equal ${d2}
variable C2neg equal 59.0138961694811
variable C3neg equal ${d3}
variable C3neg equal 57.9103856158491
variable C4neg equal ${d4}
variable C4neg equal 1.56059953559793
variable C5neg equal ${d5}
variable C5neg equal 12.9250522049933
variable C6neg equal ${d6}
variable C6neg equal 18.278784083064

# Reset box and simulation parameters

clear
box tilt large
read_restart restart.equil
  triclinic box = (-0.00391395 -0.00338957 -0.00319572) to (2.85987 2.47672 2.33507) with tilt (-1.43189 -1.43189 0.826703)
  1 by 1 by 1 MPI processor grid
  1 atoms
include potential.mod
pair_style eam/alloy
pair_coeff * * /users/knc6/Software/jarvis/jarvis/lammps/examples/Al03.eam.alloy  Al
neighbor 1.0 nsq
neigh_modify once no every 1 delay 0 check yes
min_style  cg
min_modify           dmax ${dmax} line quadratic
min_modify           dmax 0.01 line quadratic
thermo          1
thermo_style custom step temp press cpu pxx pyy pzz pxy pxz pyz ke pe etotal vol lx ly lz atoms
thermo_modify norm no

# Positive deformation

variable delta equal ${up}*${len0}
variable delta equal 1e-06*${len0}
variable delta equal 1e-06*2.863782440789
if "${dir} == 1" then    "change_box all x delta 0 ${delta} remap units box"
change_box all x delta 0 ${delta} remap units box
change_box all x delta 0 2.863782440789e-06 remap units box
  triclinic box = (-0.00391395 -0.00338957 -0.00319572) to (2.85987 2.47672 2.33507) with tilt (-1.43189 -1.43189 0.826703)
if "${dir} == 2" then    "change_box all y delta 0 ${delta} remap units box"
if "${dir} == 3" then    "change_box all z delta 0 ${delta} remap units box"
if "${dir} == 4" then    "change_box all yz delta ${delta} remap units box"
if "${dir} == 5" then    "change_box all xz delta ${delta} remap units box"
if "${dir} == 6" then    "change_box all xy delta ${delta} remap units box"

# Relax atoms positions

minimize ${etol} ${ftol} ${maxiter} ${maxeval}
minimize 0 ${ftol} ${maxiter} ${maxeval}
minimize 0 1e-10 ${maxiter} ${maxeval}
minimize 0 1e-10 1000 ${maxeval}
minimize 0 1e-10 1000 10000
Neighbor list info ...
  1 neighbor list requests
  update every 1 steps, delay 0 steps, check yes
  max neighbors/atom: 2000, page size: 100000
  master list distance cutoff = 7.72488
  ghost atom cutoff = 7.72488
Memory usage per processor = 3.36448 Mbytes
Step Temp Press CPU Pxx Pyy Pzz Pxy Pxz Pyz KinEng PotEng TotEng Volume Lx Ly Lz Atoms 
       8            0   -0.7901632            0   -1.2012531  -0.59013567  -0.57910084  -0.18319423  -0.12941257 -0.015839086            0        -3.36        -3.36    16.607547    2.8637853    2.4801083    2.3382686        1 
       9            0   -0.7901632 4.6014786e-05   -1.2012531  -0.59013567  -0.57910084  -0.18319423  -0.12941257 -0.015839086            0        -3.36        -3.36    16.607547    2.8637853    2.4801083    2.3382686        1 
Loop time of 5.88894e-05 on 1 procs for 1 steps with 1 atoms

0.0% CPU use with 1 MPI tasks x no OpenMP threads

Minimization stats:
  Stopping criterion = quadratic factors are zero
  Energy initial, next-to-last, final = 
         -3.3600000229      -3.3600000229      -3.3600000229
  Force two-norm initial, final = 2.3079e-17 4.04604e-17
  Force max component initial, final = 1.38778e-17 2.77556e-17
  Final line search alpha, max atom move = 1 2.77556e-17
  Iterations, force evaluations = 1 2

MPI task timing breakdown:
Section |  min time  |  avg time  |  max time  |%varavg| %total
---------------------------------------------------------------
Pair    | 2.7895e-05 | 2.7895e-05 | 2.7895e-05 |   0.0 | 47.37
Neigh   | 0          | 0          | 0          |   0.0 |  0.00
Comm    | 6.6757e-06 | 6.6757e-06 | 6.6757e-06 |   0.0 | 11.34
Output  | 0          | 0          | 0          |   0.0 |  0.00
Modify  | 0          | 0          | 0          |   0.0 |  0.00
Other   |            | 2.432e-05  |            |       | 41.30

Nlocal:    1 ave 1 max 1 min
Histogram: 1 0 0 0 0 0 0 0 0 0
Nghost:    511 ave 511 max 511 min
Histogram: 1 0 0 0 0 0 0 0 0 0
Neighs:    67 ave 67 max 67 min
Histogram: 1 0 0 0 0 0 0 0 0 0

Total # of neighbors = 67
Ave neighs/atom = 67
Neighbor list builds = 0
Dangerous builds = 0

# Obtain new stress tensor

variable tmp equal pe
variable e1 equal ${tmp}
variable e1 equal -3.36000002289815
variable tmp equal press
variable p1 equal ${tmp}
variable p1 equal -0.790163202091549
variable tmp equal pxx
variable pxx1 equal ${tmp}
variable pxx1 equal -1.20125309985783
variable tmp equal pyy
variable pyy1 equal ${tmp}
variable pyy1 equal -0.590135669075181
variable tmp equal pzz
variable pzz1 equal ${tmp}
variable pzz1 equal -0.579100837341639
variable tmp equal pxy
variable pxy1 equal ${tmp}
variable pxy1 equal -0.183194233237237
variable tmp equal pxz
variable pxz1 equal ${tmp}
variable pxz1 equal -0.129412574153817
variable tmp equal pyz
variable pyz1 equal ${tmp}
variable pyz1 equal -0.0158390864127896

# Compute elastic constant from pressure tensor

variable C1pos equal ${d1}
variable C1pos equal 120.125335195799
variable C2pos equal ${d2}
variable C2pos equal 59.0135557382929
variable C3pos equal ${d3}
variable C3pos equal 57.9100697900623
variable C4pos equal ${d4}
variable C4pos equal 1.56056480505188
variable C5pos equal ${d5}
variable C5pos equal 12.9249202386618
variable C6pos equal ${d6}
variable C6pos equal 18.2785974167489

# Combine positive and negative

variable C1${dir} equal 0.5*(${C1neg}+${C1pos})
variable C11 equal 0.5*(${C1neg}+${C1pos})
variable C11 equal 0.5*(120.126609579285+${C1pos})
variable C11 equal 0.5*(120.126609579285+120.125335195799)
variable C2${dir} equal 0.5*(${C2neg}+${C2pos})
variable C21 equal 0.5*(${C2neg}+${C2pos})
variable C21 equal 0.5*(59.0138961694811+${C2pos})
variable C21 equal 0.5*(59.0138961694811+59.0135557382929)
variable C3${dir} equal 0.5*(${C3neg}+${C3pos})
variable C31 equal 0.5*(${C3neg}+${C3pos})
variable C31 equal 0.5*(57.9103856158491+${C3pos})
variable C31 equal 0.5*(57.9103856158491+57.9100697900623)
variable C4${dir} equal 0.5*(${C4neg}+${C4pos})
variable C41 equal 0.5*(${C4neg}+${C4pos})
variable C41 equal 0.5*(1.56059953559793+${C4pos})
variable C41 equal 0.5*(1.56059953559793+1.56056480505188)
variable C5${dir} equal 0.5*(${C5neg}+${C5pos})
variable C51 equal 0.5*(${C5neg}+${C5pos})
variable C51 equal 0.5*(12.9250522049933+${C5pos})
variable C51 equal 0.5*(12.9250522049933+12.9249202386618)
variable C6${dir} equal 0.5*(${C6neg}+${C6pos})
variable C61 equal 0.5*(${C6neg}+${C6pos})
variable C61 equal 0.5*(18.278784083064+${C6pos})
variable C61 equal 0.5*(18.278784083064+18.2785974167489)

# Delete dir to make sure it is not reused

variable dir delete

# uyy Perturbation

variable dir equal 2
include /users/knc6/displace.mod
# NOTE: This script should not need to be
# modified. See in.elastic for more info.
#
# Find which reference length to use

if "${dir} == 1" then    "variable len0 equal ${lx0}"
if "${dir} == 2" then    "variable len0 equal ${ly0}"
variable len0 equal ${ly0}
variable len0 equal 2.48010834473723
if "${dir} == 3" then    "variable len0 equal ${lz0}"
if "${dir} == 4" then    "variable len0 equal ${lz0}"
if "${dir} == 5" then    "variable len0 equal ${lz0}"
if "${dir} == 6" then    "variable len0 equal ${ly0}"

# Reset box and simulation parameters

clear
box tilt large
read_restart restart.equil
  triclinic box = (-0.00391395 -0.00338957 -0.00319572) to (2.85987 2.47672 2.33507) with tilt (-1.43189 -1.43189 0.826703)
  1 by 1 by 1 MPI processor grid
  1 atoms
include potential.mod
pair_style eam/alloy
pair_coeff * * /users/knc6/Software/jarvis/jarvis/lammps/examples/Al03.eam.alloy  Al
neighbor 1.0 nsq
neigh_modify once no every 1 delay 0 check yes
min_style  cg
min_modify           dmax ${dmax} line quadratic
min_modify           dmax 0.01 line quadratic
thermo          1
thermo_style custom step temp press cpu pxx pyy pzz pxy pxz pyz ke pe etotal vol lx ly lz atoms
thermo_modify norm no
# Negative deformation

variable delta equal -${up}*${len0}
variable delta equal -1e-06*${len0}
variable delta equal -1e-06*2.48010834473723
if "${dir} == 1" then    "change_box all x delta 0 ${delta} remap units box"
if "${dir} == 2" then    "change_box all y delta 0 ${delta} remap units box"
change_box all y delta 0 ${delta} remap units box
change_box all y delta 0 -2.48010834473723e-06 remap units box
  triclinic box = (-0.00391395 -0.00338957 -0.00319572) to (2.85987 2.47672 2.33507) with tilt (-1.43189 -1.43189 0.826703)
if "${dir} == 3" then    "change_box all z delta 0 ${delta} remap units box"
if "${dir} == 4" then    "change_box all yz delta ${delta} remap units box"
if "${dir} == 5" then    "change_box all xz delta ${delta} remap units box"
if "${dir} == 6" then    "change_box all xy delta ${delta} remap units box"

# Relax atoms positions

minimize ${etol} ${ftol} ${maxiter} ${maxeval}
minimize 0 ${ftol} ${maxiter} ${maxeval}
minimize 0 1e-10 ${maxiter} ${maxeval}
minimize 0 1e-10 1000 ${maxeval}
minimize 0 1e-10 1000 10000
Neighbor list info ...
  1 neighbor list requests
  update every 1 steps, delay 0 steps, check yes
  max neighbors/atom: 2000, page size: 100000
  master list distance cutoff = 7.72488
  ghost atom cutoff = 7.72488
Memory usage per processor = 3.36448 Mbytes
Step Temp Press CPU Pxx Pyy Pzz Pxy Pxz Pyz KinEng PotEng TotEng Volume Lx Ly Lz Atoms 
       8            0   0.79016942            0   0.58462194    1.2067827   0.57910365 -0.00040826261 -0.0001633719  -0.11997063            0        -3.36        -3.36    16.607514    2.8637824    2.4801059    2.3382686        1 
       9            0   0.79016942 4.6014786e-05   0.58462194    1.2067827   0.57910365 -0.00040826256 -0.00016337188  -0.11997063            0        -3.36        -3.36    16.607514    2.8637824    2.4801059    2.3382686        1 
Loop time of 6.00815e-05 on 1 procs for 1 steps with 1 atoms

0.0% CPU use with 1 MPI tasks x no OpenMP threads

Minimization stats:
  Stopping criterion = quadratic factors are zero
  Energy initial, next-to-last, final = 
         -3.3600000229      -3.3600000229      -3.3600000229
  Force two-norm initial, final = 5.06349e-17 2.99585e-17
  Force max component initial, final = 3.46945e-17 2.77556e-17
  Final line search alpha, max atom move = 1 2.77556e-17
  Iterations, force evaluations = 1 2

MPI task timing breakdown:
Section |  min time  |  avg time  |  max time  |%varavg| %total
---------------------------------------------------------------
Pair    | 2.7895e-05 | 2.7895e-05 | 2.7895e-05 |   0.0 | 46.43
Neigh   | 0          | 0          | 0          |   0.0 |  0.00
Comm    | 7.1526e-06 | 7.1526e-06 | 7.1526e-06 |   0.0 | 11.90
Output  | 0          | 0          | 0          |   0.0 |  0.00
Modify  | 0          | 0          | 0          |   0.0 |  0.00
Other   |            | 2.503e-05  |            |       | 41.67

Nlocal:    1 ave 1 max 1 min
Histogram: 1 0 0 0 0 0 0 0 0 0
Nghost:    511 ave 511 max 511 min
Histogram: 1 0 0 0 0 0 0 0 0 0
Neighs:    67 ave 67 max 67 min
Histogram: 1 0 0 0 0 0 0 0 0 0

Total # of neighbors = 67
Ave neighs/atom = 67
Neighbor list builds = 0
Dangerous builds = 0

# Obtain new stress tensor

variable tmp equal pxx
variable pxx1 equal ${tmp}
variable pxx1 equal 0.584621936951013
variable tmp equal pyy
variable pyy1 equal ${tmp}
variable pyy1 equal 1.2067826654499
variable tmp equal pzz
variable pzz1 equal ${tmp}
variable pzz1 equal 0.579103647182742
variable tmp equal pxy
variable pxy1 equal ${tmp}
variable pxy1 equal -0.000408262561671296
variable tmp equal pxz
variable pxz1 equal ${tmp}
variable pxz1 equal -0.000163371877351999
variable tmp equal pyz
variable pyz1 equal ${tmp}
variable pyz1 equal -0.119970630189468

# Compute elastic constant from pressure tensor

variable C1neg equal ${d1}
variable C1neg equal 58.4621684850858
variable C2neg equal ${d2}
variable C2neg equal 120.678277714215
variable C3neg equal ${d3}
variable C3neg equal 57.9103786623759
variable C4neg equal ${d4}
variable C4neg equal -11.9737191827197
variable C5neg equal ${d5}
variable C5neg equal -1.10153373022396e-08
variable C6neg equal ${d6}
variable C6neg equal -3.49192344798691e-07

# Reset box and simulation parameters

clear
box tilt large
read_restart restart.equil
  triclinic box = (-0.00391395 -0.00338957 -0.00319572) to (2.85987 2.47672 2.33507) with tilt (-1.43189 -1.43189 0.826703)
  1 by 1 by 1 MPI processor grid
  1 atoms
include potential.mod
pair_style eam/alloy
pair_coeff * * /users/knc6/Software/jarvis/jarvis/lammps/examples/Al03.eam.alloy  Al
neighbor 1.0 nsq
neigh_modify once no every 1 delay 0 check yes
min_style  cg
min_modify           dmax ${dmax} line quadratic
min_modify           dmax 0.01 line quadratic
thermo          1
thermo_style custom step temp press cpu pxx pyy pzz pxy pxz pyz ke pe etotal vol lx ly lz atoms
thermo_modify norm no

# Positive deformation

variable delta equal ${up}*${len0}
variable delta equal 1e-06*${len0}
variable delta equal 1e-06*2.48010834473723
if "${dir} == 1" then    "change_box all x delta 0 ${delta} remap units box"
if "${dir} == 2" then    "change_box all y delta 0 ${delta} remap units box"
change_box all y delta 0 ${delta} remap units box
change_box all y delta 0 2.48010834473723e-06 remap units box
  triclinic box = (-0.00391395 -0.00338957 -0.00319572) to (2.85987 2.47672 2.33507) with tilt (-1.43189 -1.43189 0.826703)
if "${dir} == 3" then    "change_box all z delta 0 ${delta} remap units box"
if "${dir} == 4" then    "change_box all yz delta ${delta} remap units box"
if "${dir} == 5" then    "change_box all xz delta ${delta} remap units box"
if "${dir} == 6" then    "change_box all xy delta ${delta} remap units box"

# Relax atoms positions

minimize ${etol} ${ftol} ${maxiter} ${maxeval}
minimize 0 ${ftol} ${maxiter} ${maxeval}
minimize 0 1e-10 ${maxiter} ${maxeval}
minimize 0 1e-10 1000 ${maxeval}
minimize 0 1e-10 1000 10000
Neighbor list info ...
  1 neighbor list requests
  update every 1 steps, delay 0 steps, check yes
  max neighbors/atom: 2000, page size: 100000
  master list distance cutoff = 7.72488
  ghost atom cutoff = 7.72488
Memory usage per processor = 3.36448 Mbytes
Step Temp Press CPU Pxx Pyy Pzz Pxy Pxz Pyz KinEng PotEng TotEng Volume Lx Ly Lz Atoms 
       8            0  -0.79016343            0   -0.5846176   -1.2067718  -0.57910091 -0.00040825553 -0.00016337159   0.11950253            0        -3.36        -3.36    16.607547    2.8637824    2.4801108    2.3382686        1 
       9            0  -0.79016343 4.5061111e-05   -0.5846176   -1.2067718  -0.57910091 -0.0004082554 -0.00016337158   0.11950253            0        -3.36        -3.36    16.607547    2.8637824    2.4801108    2.3382686        1 
Loop time of 5.91278e-05 on 1 procs for 1 steps with 1 atoms

0.0% CPU use with 1 MPI tasks x no OpenMP threads

Minimization stats:
  Stopping criterion = quadratic factors are zero
  Energy initial, next-to-last, final = 
         -3.3600000229      -3.3600000229      -3.3600000229
  Force two-norm initial, final = 4.47091e-17 5.38603e-17
  Force max component initial, final = 4.16334e-17 4.16334e-17
  Final line search alpha, max atom move = 1 4.16334e-17
  Iterations, force evaluations = 1 2

MPI task timing breakdown:
Section |  min time  |  avg time  |  max time  |%varavg| %total
---------------------------------------------------------------
Pair    | 2.6941e-05 | 2.6941e-05 | 2.6941e-05 |   0.0 | 45.56
Neigh   | 0          | 0          | 0          |   0.0 |  0.00
Comm    | 1.1921e-05 | 1.1921e-05 | 1.1921e-05 |   0.0 | 20.16
Output  | 0          | 0          | 0          |   0.0 |  0.00
Modify  | 0          | 0          | 0          |   0.0 |  0.00
Other   |            | 2.027e-05  |            |       | 34.27

Nlocal:    1 ave 1 max 1 min
Histogram: 1 0 0 0 0 0 0 0 0 0
Nghost:    511 ave 511 max 511 min
Histogram: 1 0 0 0 0 0 0 0 0 0
Neighs:    67 ave 67 max 67 min
Histogram: 1 0 0 0 0 0 0 0 0 0

Total # of neighbors = 67
Ave neighs/atom = 67
Neighbor list builds = 0
Dangerous builds = 0

# Obtain new stress tensor

variable tmp equal pe
variable e1 equal ${tmp}
variable e1 equal -3.36000002289872
variable tmp equal press
variable p1 equal ${tmp}
variable p1 equal -0.790163427323917
variable tmp equal pxx
variable pxx1 equal ${tmp}
variable pxx1 equal -0.584617603568308
variable tmp equal pyy
variable pyy1 equal ${tmp}
variable pyy1 equal -1.20677176648936
variable tmp equal pzz
variable pzz1 equal ${tmp}
variable pzz1 equal -0.579100911914078
variable tmp equal pxy
variable pxy1 equal ${tmp}
variable pxy1 equal -0.000408255395248584
variable tmp equal pxz
variable pxz1 equal ${tmp}
variable pxz1 equal -0.000163371582238405
variable tmp equal pyz
variable pyz1 equal ${tmp}
variable pyz1 equal 0.119502525479306

# Compute elastic constant from pressure tensor

variable C1pos equal ${d1}
variable C1pos equal 58.4617855668464
variable C2pos equal ${d2}
variable C2pos equal 120.677165479711
variable C3pos equal ${d3}
variable C3pos equal 57.9100772473061
variable C4pos equal ${d4}
variable C4pos equal -11.9735963841577
variable C5pos equal ${d5}
variable C5pos equal -1.84960220994375e-08
variable C6pos equal ${d6}
variable C6pos equal -3.67449926399772e-07

# Combine positive and negative

variable C1${dir} equal 0.5*(${C1neg}+${C1pos})
variable C12 equal 0.5*(${C1neg}+${C1pos})
variable C12 equal 0.5*(58.4621684850858+${C1pos})
variable C12 equal 0.5*(58.4621684850858+58.4617855668464)
variable C2${dir} equal 0.5*(${C2neg}+${C2pos})
variable C22 equal 0.5*(${C2neg}+${C2pos})
variable C22 equal 0.5*(120.678277714215+${C2pos})
variable C22 equal 0.5*(120.678277714215+120.677165479711)
variable C3${dir} equal 0.5*(${C3neg}+${C3pos})
variable C32 equal 0.5*(${C3neg}+${C3pos})
variable C32 equal 0.5*(57.9103786623759+${C3pos})
variable C32 equal 0.5*(57.9103786623759+57.9100772473061)
variable C4${dir} equal 0.5*(${C4neg}+${C4pos})
variable C42 equal 0.5*(${C4neg}+${C4pos})
variable C42 equal 0.5*(-11.9737191827197+${C4pos})
variable C42 equal 0.5*(-11.9737191827197+-11.9735963841577)
variable C5${dir} equal 0.5*(${C5neg}+${C5pos})
variable C52 equal 0.5*(${C5neg}+${C5pos})
variable C52 equal 0.5*(-1.10153373022396e-08+${C5pos})
variable C52 equal 0.5*(-1.10153373022396e-08+-1.84960220994375e-08)
variable C6${dir} equal 0.5*(${C6neg}+${C6pos})
variable C62 equal 0.5*(${C6neg}+${C6pos})
variable C62 equal 0.5*(-3.49192344798691e-07+${C6pos})
variable C62 equal 0.5*(-3.49192344798691e-07+-3.67449926399772e-07)

# Delete dir to make sure it is not reused

variable dir delete

# uzz Perturbation

variable dir equal 3
include /users/knc6/displace.mod
# NOTE: This script should not need to be
# modified. See in.elastic for more info.
#
# Find which reference length to use

if "${dir} == 1" then    "variable len0 equal ${lx0}"
if "${dir} == 2" then    "variable len0 equal ${ly0}"
if "${dir} == 3" then    "variable len0 equal ${lz0}"
variable len0 equal ${lz0}
variable len0 equal 2.33826857147401
if "${dir} == 4" then    "variable len0 equal ${lz0}"
if "${dir} == 5" then    "variable len0 equal ${lz0}"
if "${dir} == 6" then    "variable len0 equal ${ly0}"

# Reset box and simulation parameters

clear
box tilt large
read_restart restart.equil
  triclinic box = (-0.00391395 -0.00338957 -0.00319572) to (2.85987 2.47672 2.33507) with tilt (-1.43189 -1.43189 0.826703)
  1 by 1 by 1 MPI processor grid
  1 atoms
include potential.mod
pair_style eam/alloy
pair_coeff * * /users/knc6/Software/jarvis/jarvis/lammps/examples/Al03.eam.alloy  Al
neighbor 1.0 nsq
neigh_modify once no every 1 delay 0 check yes
min_style  cg
min_modify           dmax ${dmax} line quadratic
min_modify           dmax 0.01 line quadratic
thermo          1
thermo_style custom step temp press cpu pxx pyy pzz pxy pxz pyz ke pe etotal vol lx ly lz atoms
thermo_modify norm no
# Negative deformation

variable delta equal -${up}*${len0}
variable delta equal -1e-06*${len0}
variable delta equal -1e-06*2.33826857147401
if "${dir} == 1" then    "change_box all x delta 0 ${delta} remap units box"
if "${dir} == 2" then    "change_box all y delta 0 ${delta} remap units box"
if "${dir} == 3" then    "change_box all z delta 0 ${delta} remap units box"
change_box all z delta 0 ${delta} remap units box
change_box all z delta 0 -2.33826857147401e-06 remap units box
  triclinic box = (-0.00391395 -0.00338957 -0.00319572) to (2.85987 2.47672 2.33507) with tilt (-1.43189 -1.43189 0.826703)
if "${dir} == 4" then    "change_box all yz delta ${delta} remap units box"
if "${dir} == 5" then    "change_box all xz delta ${delta} remap units box"
if "${dir} == 6" then    "change_box all xy delta ${delta} remap units box"

# Relax atoms positions

minimize ${etol} ${ftol} ${maxiter} ${maxeval}
minimize 0 ${ftol} ${maxiter} ${maxeval}
minimize 0 1e-10 ${maxiter} ${maxeval}
minimize 0 1e-10 1000 ${maxeval}
minimize 0 1e-10 1000 10000
Neighbor list info ...
  1 neighbor list requests
  update every 1 steps, delay 0 steps, check yes
  max neighbors/atom: 2000, page size: 100000
  master list distance cutoff = 7.72488
  ghost atom cutoff = 7.72488
Memory usage per processor = 3.36448 Mbytes
Step Temp Press CPU Pxx Pyy Pzz Pxy Pxz Pyz KinEng PotEng TotEng Volume Lx Ly Lz Atoms 
       8            0   0.79016934            0   0.57910423   0.57910387    1.2122999 -0.00040826037 -0.00016337357 -0.00023344017            0        -3.36        -3.36    16.607514    2.8637824    2.4801083    2.3382662        1 
       9            0   0.79016934 4.5061111e-05   0.57910423   0.57910387    1.2122999 -0.0004082604 -0.00016337358 -0.00023344026            0        -3.36        -3.36    16.607514    2.8637824    2.4801083    2.3382662        1 
Loop time of 5.79357e-05 on 1 procs for 1 steps with 1 atoms

0.0% CPU use with 1 MPI tasks x no OpenMP threads

Minimization stats:
  Stopping criterion = quadratic factors are zero
  Energy initial, next-to-last, final = 
         -3.3600000229      -3.3600000229      -3.3600000229
  Force two-norm initial, final = 1.55158e-17 4.46418e-17
  Force max component initial, final = 1.38778e-17 3.20924e-17
  Final line search alpha, max atom move = 1 3.20924e-17
  Iterations, force evaluations = 1 2

MPI task timing breakdown:
Section |  min time  |  avg time  |  max time  |%varavg| %total
---------------------------------------------------------------
Pair    | 2.8133e-05 | 2.8133e-05 | 2.8133e-05 |   0.0 | 48.56
Neigh   | 0          | 0          | 0          |   0.0 |  0.00
Comm    | 8.8215e-06 | 8.8215e-06 | 8.8215e-06 |   0.0 | 15.23
Output  | 0          | 0          | 0          |   0.0 |  0.00
Modify  | 0          | 0          | 0          |   0.0 |  0.00
Other   |            | 2.098e-05  |            |       | 36.21

Nlocal:    1 ave 1 max 1 min
Histogram: 1 0 0 0 0 0 0 0 0 0
Nghost:    511 ave 511 max 511 min
Histogram: 1 0 0 0 0 0 0 0 0 0
Neighs:    67 ave 67 max 67 min
Histogram: 1 0 0 0 0 0 0 0 0 0

Total # of neighbors = 67
Ave neighs/atom = 67
Neighbor list builds = 0
Dangerous builds = 0

# Obtain new stress tensor

variable tmp equal pxx
variable pxx1 equal ${tmp}
variable pxx1 equal 0.579104234501908
variable tmp equal pyy
variable pyy1 equal ${tmp}
variable pyy1 equal 0.579103871491515
variable tmp equal pzz
variable pzz1 equal ${tmp}
variable pzz1 equal 1.21229991864292
variable tmp equal pxy
variable pxy1 equal ${tmp}
variable pxy1 equal -0.000408260402303218
variable tmp equal pxz
variable pxz1 equal ${tmp}
variable pxz1 equal -0.000163373583692922
variable tmp equal pyz
variable pyz1 equal ${tmp}
variable pyz1 equal -0.000233440259542428

# Compute elastic constant from pressure tensor

variable C1neg equal ${d1}
variable C1neg equal 57.9103982401753
variable C2neg equal ${d2}
variable C2neg equal 57.9103983183767
variable C3neg equal ${d3}
variable C3neg equal 121.230005808394
variable C4neg equal ${d4}
variable C4neg equal -1.89727161401237e-07
variable C5neg equal ${d5}
variable C5neg equal -1.81649429601815e-07
variable C6neg equal ${d6}
variable C6neg equal -1.33255536997629e-07

# Reset box and simulation parameters

clear
box tilt large
read_restart restart.equil
  triclinic box = (-0.00391395 -0.00338957 -0.00319572) to (2.85987 2.47672 2.33507) with tilt (-1.43189 -1.43189 0.826703)
  1 by 1 by 1 MPI processor grid
  1 atoms
include potential.mod
pair_style eam/alloy
pair_coeff * * /users/knc6/Software/jarvis/jarvis/lammps/examples/Al03.eam.alloy  Al
neighbor 1.0 nsq
neigh_modify once no every 1 delay 0 check yes
min_style  cg
min_modify           dmax ${dmax} line quadratic
min_modify           dmax 0.01 line quadratic
thermo          1
thermo_style custom step temp press cpu pxx pyy pzz pxy pxz pyz ke pe etotal vol lx ly lz atoms
thermo_modify norm no

# Positive deformation

variable delta equal ${up}*${len0}
variable delta equal 1e-06*${len0}
variable delta equal 1e-06*2.33826857147401
if "${dir} == 1" then    "change_box all x delta 0 ${delta} remap units box"
if "${dir} == 2" then    "change_box all y delta 0 ${delta} remap units box"
if "${dir} == 3" then    "change_box all z delta 0 ${delta} remap units box"
change_box all z delta 0 ${delta} remap units box
change_box all z delta 0 2.33826857147401e-06 remap units box
  triclinic box = (-0.00391395 -0.00338957 -0.00319572) to (2.85987 2.47672 2.33508) with tilt (-1.43189 -1.43189 0.826703)
if "${dir} == 4" then    "change_box all yz delta ${delta} remap units box"
if "${dir} == 5" then    "change_box all xz delta ${delta} remap units box"
if "${dir} == 6" then    "change_box all xy delta ${delta} remap units box"

# Relax atoms positions

minimize ${etol} ${ftol} ${maxiter} ${maxeval}
minimize 0 ${ftol} ${maxiter} ${maxeval}
minimize 0 1e-10 ${maxiter} ${maxeval}
minimize 0 1e-10 1000 ${maxeval}
minimize 0 1e-10 1000 10000
Neighbor list info ...
  1 neighbor list requests
  update every 1 steps, delay 0 steps, check yes
  max neighbors/atom: 2000, page size: 100000
  master list distance cutoff = 7.72488
  ghost atom cutoff = 7.72488
Memory usage per processor = 3.36448 Mbytes
Step Temp Press CPU Pxx Pyy Pzz Pxy Pxz Pyz KinEng PotEng TotEng Volume Lx Ly Lz Atoms 
       8            0   -0.7901635            0  -0.57910032  -0.57910069   -1.2122895 -0.00040825777  -0.00016337 -0.00023343664            0        -3.36        -3.36    16.607547    2.8637824    2.4801083    2.3382709        1 
       9            0   -0.7901635 4.4822693e-05  -0.57910032  -0.57910069   -1.2122895 -0.0004082578 -0.00016337001 -0.00023343664            0        -3.36        -3.36    16.607547    2.8637824    2.4801083    2.3382709        1 
Loop time of 5.88894e-05 on 1 procs for 1 steps with 1 atoms

0.0% CPU use with 1 MPI tasks x no OpenMP threads

Minimization stats:
  Stopping criterion = quadratic factors are zero
  Energy initial, next-to-last, final = 
         -3.3600000229      -3.3600000229      -3.3600000229
  Force two-norm initial, final = 2.12636e-17 7.25272e-17
  Force max component initial, final = 2.08167e-17 6.93889e-17
  Final line search alpha, max atom move = 1 6.93889e-17
  Iterations, force evaluations = 1 2

MPI task timing breakdown:
Section |  min time  |  avg time  |  max time  |%varavg| %total
---------------------------------------------------------------
Pair    | 2.7895e-05 | 2.7895e-05 | 2.7895e-05 |   0.0 | 47.37
Neigh   | 0          | 0          | 0          |   0.0 |  0.00
Comm    | 1.0252e-05 | 1.0252e-05 | 1.0252e-05 |   0.0 | 17.41
Output  | 0          | 0          | 0          |   0.0 |  0.00
Modify  | 0          | 0          | 0          |   0.0 |  0.00
Other   |            | 2.074e-05  |            |       | 35.22

Nlocal:    1 ave 1 max 1 min
Histogram: 1 0 0 0 0 0 0 0 0 0
Nghost:    511 ave 511 max 511 min
Histogram: 1 0 0 0 0 0 0 0 0 0
Neighs:    67 ave 67 max 67 min
Histogram: 1 0 0 0 0 0 0 0 0 0

Total # of neighbors = 67
Ave neighs/atom = 67
Neighbor list builds = 0
Dangerous builds = 0

# Obtain new stress tensor

variable tmp equal pe
variable e1 equal ${tmp}
variable e1 equal -3.36000002289891
variable tmp equal press
variable p1 equal ${tmp}
variable p1 equal -0.790163501820795
variable tmp equal pxx
variable pxx1 equal ${tmp}
variable pxx1 equal -0.579100322135571
variable tmp equal pyy
variable pyy1 equal ${tmp}
variable pyy1 equal -0.579100686608409
variable tmp equal pzz
variable pzz1 equal ${tmp}
variable pzz1 equal -1.21228949671841
variable tmp equal pxy
variable pxy1 equal ${tmp}
variable pxy1 equal -0.000408257801877317
variable tmp equal pxz
variable pxz1 equal ${tmp}
variable pxz1 equal -0.000163370009449084
variable tmp equal pyz
variable pyz1 equal ${tmp}
variable pyz1 equal -0.000233436637879284

# Compute elastic constant from pressure tensor

variable C1pos equal ${d1}
variable C1pos equal 57.9100574235727
variable C2pos equal ${d2}
variable C2pos equal 57.9100574916157
variable C3pos equal ${d3}
variable C3pos equal 121.228935727739
variable C4pos equal ${d4}
variable C4pos equal -1.72439152998469e-07
variable C5pos equal ${d5}
variable C5pos equal -1.75774954200248e-07
variable C6pos equal ${d6}
variable C6pos equal -1.26787053100243e-07

# Combine positive and negative

variable C1${dir} equal 0.5*(${C1neg}+${C1pos})
variable C13 equal 0.5*(${C1neg}+${C1pos})
variable C13 equal 0.5*(57.9103982401753+${C1pos})
variable C13 equal 0.5*(57.9103982401753+57.9100574235727)
variable C2${dir} equal 0.5*(${C2neg}+${C2pos})
variable C23 equal 0.5*(${C2neg}+${C2pos})
variable C23 equal 0.5*(57.9103983183767+${C2pos})
variable C23 equal 0.5*(57.9103983183767+57.9100574916157)
variable C3${dir} equal 0.5*(${C3neg}+${C3pos})
variable C33 equal 0.5*(${C3neg}+${C3pos})
variable C33 equal 0.5*(121.230005808394+${C3pos})
variable C33 equal 0.5*(121.230005808394+121.228935727739)
variable C4${dir} equal 0.5*(${C4neg}+${C4pos})
variable C43 equal 0.5*(${C4neg}+${C4pos})
variable C43 equal 0.5*(-1.89727161401237e-07+${C4pos})
variable C43 equal 0.5*(-1.89727161401237e-07+-1.72439152998469e-07)
variable C5${dir} equal 0.5*(${C5neg}+${C5pos})
variable C53 equal 0.5*(${C5neg}+${C5pos})
variable C53 equal 0.5*(-1.81649429601815e-07+${C5pos})
variable C53 equal 0.5*(-1.81649429601815e-07+-1.75774954200248e-07)
variable C6${dir} equal 0.5*(${C6neg}+${C6pos})
variable C63 equal 0.5*(${C6neg}+${C6pos})
variable C63 equal 0.5*(-1.33255536997629e-07+${C6pos})
variable C63 equal 0.5*(-1.33255536997629e-07+-1.26787053100243e-07)

# Delete dir to make sure it is not reused

variable dir delete

# uyz Perturbation

variable dir equal 4
include /users/knc6/displace.mod
# NOTE: This script should not need to be
# modified. See in.elastic for more info.
#
# Find which reference length to use

if "${dir} == 1" then    "variable len0 equal ${lx0}"
if "${dir} == 2" then    "variable len0 equal ${ly0}"
if "${dir} == 3" then    "variable len0 equal ${lz0}"
if "${dir} == 4" then    "variable len0 equal ${lz0}"
variable len0 equal ${lz0}
variable len0 equal 2.33826857147401
if "${dir} == 5" then    "variable len0 equal ${lz0}"
if "${dir} == 6" then    "variable len0 equal ${ly0}"

# Reset box and simulation parameters

clear
box tilt large
read_restart restart.equil
  triclinic box = (-0.00391395 -0.00338957 -0.00319572) to (2.85987 2.47672 2.33507) with tilt (-1.43189 -1.43189 0.826703)
  1 by 1 by 1 MPI processor grid
  1 atoms
include potential.mod
pair_style eam/alloy
pair_coeff * * /users/knc6/Software/jarvis/jarvis/lammps/examples/Al03.eam.alloy  Al
neighbor 1.0 nsq
neigh_modify once no every 1 delay 0 check yes
min_style  cg
min_modify           dmax ${dmax} line quadratic
min_modify           dmax 0.01 line quadratic
thermo          1
thermo_style custom step temp press cpu pxx pyy pzz pxy pxz pyz ke pe etotal vol lx ly lz atoms
thermo_modify norm no
# Negative deformation

variable delta equal -${up}*${len0}
variable delta equal -1e-06*${len0}
variable delta equal -1e-06*2.33826857147401
if "${dir} == 1" then    "change_box all x delta 0 ${delta} remap units box"
if "${dir} == 2" then    "change_box all y delta 0 ${delta} remap units box"
if "${dir} == 3" then    "change_box all z delta 0 ${delta} remap units box"
if "${dir} == 4" then    "change_box all yz delta ${delta} remap units box"
change_box all yz delta ${delta} remap units box
change_box all yz delta -2.33826857147401e-06 remap units box
  triclinic box = (-0.00391395 -0.00338957 -0.00319572) to (2.85987 2.47672 2.33507) with tilt (-1.43189 -1.43189 0.8267)
if "${dir} == 5" then    "change_box all xz delta ${delta} remap units box"
if "${dir} == 6" then    "change_box all xy delta ${delta} remap units box"

# Relax atoms positions

minimize ${etol} ${ftol} ${maxiter} ${maxeval}
minimize 0 ${ftol} ${maxiter} ${maxeval}
minimize 0 1e-10 ${maxiter} ${maxeval}
minimize 0 1e-10 1000 ${maxeval}
minimize 0 1e-10 1000 10000
Neighbor list info ...
  1 neighbor list requests
  update every 1 steps, delay 0 steps, check yes
  max neighbors/atom: 2000, page size: 100000
  master list distance cutoff = 7.72488
  ghost atom cutoff = 7.72488
Memory usage per processor = 3.36448 Mbytes
Step Temp Press CPU Pxx Pyy Pzz Pxy Pxz Pyz KinEng PotEng TotEng Volume Lx Ly Lz Atoms 
       8            0 5.9545228e-07            0  0.015606305 -0.015605543 1.0248736e-06 -0.00040825908 -0.00016337249   0.29429258            0        -3.36        -3.36    16.607531    2.8637824    2.4801083    2.3382686        1 
       9            0 5.953069e-07 4.6014786e-05  0.015606305 -0.015605544 1.0248522e-06 -0.0004082591 -0.00016337246   0.29429258            0        -3.36        -3.36    16.607531    2.8637824    2.4801083    2.3382686        1 
Loop time of 6.00815e-05 on 1 procs for 1 steps with 1 atoms

0.0% CPU use with 1 MPI tasks x no OpenMP threads

Minimization stats:
  Stopping criterion = quadratic factors are zero
  Energy initial, next-to-last, final = 
         -3.3600000229      -3.3600000229      -3.3600000229
  Force two-norm initial, final = 3.73671e-17 5.72787e-17
  Force max component initial, final = 2.77556e-17 5.55112e-17
  Final line search alpha, max atom move = 1 5.55112e-17
  Iterations, force evaluations = 1 2

MPI task timing breakdown:
Section |  min time  |  avg time  |  max time  |%varavg| %total
---------------------------------------------------------------
Pair    | 2.8133e-05 | 2.8133e-05 | 2.8133e-05 |   0.0 | 46.83
Neigh   | 0          | 0          | 0          |   0.0 |  0.00
Comm    | 1.1921e-05 | 1.1921e-05 | 1.1921e-05 |   0.0 | 19.84
Output  | 0          | 0          | 0          |   0.0 |  0.00
Modify  | 0          | 0          | 0          |   0.0 |  0.00
Other   |            | 2.003e-05  |            |       | 33.33

Nlocal:    1 ave 1 max 1 min
Histogram: 1 0 0 0 0 0 0 0 0 0
Nghost:    511 ave 511 max 511 min
Histogram: 1 0 0 0 0 0 0 0 0 0
Neighs:    67 ave 67 max 67 min
Histogram: 1 0 0 0 0 0 0 0 0 0

Total # of neighbors = 67
Ave neighs/atom = 67
Neighbor list builds = 0
Dangerous builds = 0

# Obtain new stress tensor

variable tmp equal pxx
variable pxx1 equal ${tmp}
variable pxx1 equal 0.0156063048822243
variable tmp equal pyy
variable pyy1 equal ${tmp}
variable pyy1 equal -0.0156055438136811
variable tmp equal pzz
variable pzz1 equal ${tmp}
variable pzz1 equal 1.02485216862925e-06
variable tmp equal pxy
variable pxy1 equal ${tmp}
variable pxy1 equal -0.000408259095771362
variable tmp equal pxz
variable pxz1 equal ${tmp}
variable pxz1 equal -0.000163372458704476
variable tmp equal pyz
variable pyz1 equal ${tmp}
variable pyz1 equal 0.294292584342716

# Compute elastic constant from pressure tensor

variable C1neg equal ${d1}
variable C1neg equal 1.56060527820688
variable C2neg equal ${d2}
variable C2neg equal -1.56054321214287
variable C3neg equal ${d3}
variable C3neg equal 0.000116429318518248
variable C4neg equal ${d4}
variable C4neg equal 29.4526022704987
variable C5neg equal ${d5}
variable C5neg equal -6.91505850004175e-08
variable C6neg equal ${d6}
variable C6neg equal -2.60235139644058e-09

# Reset box and simulation parameters

clear
box tilt large
read_restart restart.equil
  triclinic box = (-0.00391395 -0.00338957 -0.00319572) to (2.85987 2.47672 2.33507) with tilt (-1.43189 -1.43189 0.826703)
  1 by 1 by 1 MPI processor grid
  1 atoms
include potential.mod
pair_style eam/alloy
pair_coeff * * /users/knc6/Software/jarvis/jarvis/lammps/examples/Al03.eam.alloy  Al
neighbor 1.0 nsq
neigh_modify once no every 1 delay 0 check yes
min_style  cg
min_modify           dmax ${dmax} line quadratic
min_modify           dmax 0.01 line quadratic
thermo          1
thermo_style custom step temp press cpu pxx pyy pzz pxy pxz pyz ke pe etotal vol lx ly lz atoms
thermo_modify norm no

# Positive deformation

variable delta equal ${up}*${len0}
variable delta equal 1e-06*${len0}
variable delta equal 1e-06*2.33826857147401
if "${dir} == 1" then    "change_box all x delta 0 ${delta} remap units box"
if "${dir} == 2" then    "change_box all y delta 0 ${delta} remap units box"
if "${dir} == 3" then    "change_box all z delta 0 ${delta} remap units box"
if "${dir} == 4" then    "change_box all yz delta ${delta} remap units box"
change_box all yz delta ${delta} remap units box
change_box all yz delta 2.33826857147401e-06 remap units box
  triclinic box = (-0.00391395 -0.00338957 -0.00319572) to (2.85987 2.47672 2.33507) with tilt (-1.43189 -1.43189 0.826705)
if "${dir} == 5" then    "change_box all xz delta ${delta} remap units box"
if "${dir} == 6" then    "change_box all xy delta ${delta} remap units box"

# Relax atoms positions

minimize ${etol} ${ftol} ${maxiter} ${maxeval}
minimize 0 ${ftol} ${maxiter} ${maxeval}
minimize 0 1e-10 ${maxiter} ${maxeval}
minimize 0 1e-10 1000 ${maxeval}
minimize 0 1e-10 1000 10000
Neighbor list info ...
  1 neighbor list requests
  update every 1 steps, delay 0 steps, check yes
  max neighbors/atom: 2000, page size: 100000
  master list distance cutoff = 7.72488
  ghost atom cutoff = 7.72488
Memory usage per processor = 3.36448 Mbytes
Step Temp Press CPU Pxx Pyy Pzz Pxy Pxz Pyz KinEng PotEng TotEng Volume Lx Ly Lz Atoms 
       8            0 5.9728042e-07            0  -0.01560534  0.015606103 1.0283634e-06 -0.00040825898 -0.00016337083  -0.29475991            0        -3.36        -3.36    16.607531    2.8637824    2.4801083    2.3382686        1 
       9            0 5.9715901e-07 4.3869019e-05  -0.01560534  0.015606103 1.0283741e-06 -0.00040825898 -0.00016337081  -0.29475991            0        -3.36        -3.36    16.607531    2.8637824    2.4801083    2.3382686        1 
Loop time of 5.79357e-05 on 1 procs for 1 steps with 1 atoms

0.0% CPU use with 1 MPI tasks x no OpenMP threads

Minimization stats:
  Stopping criterion = quadratic factors are zero
  Energy initial, next-to-last, final = 
         -3.3600000229      -3.3600000229      -3.3600000229
  Force two-norm initial, final = 1.61105e-17 4.18586e-17
  Force max component initial, final = 1.38778e-17 4.16334e-17
  Final line search alpha, max atom move = 1 4.16334e-17
  Iterations, force evaluations = 1 2

MPI task timing breakdown:
Section |  min time  |  avg time  |  max time  |%varavg| %total
---------------------------------------------------------------
Pair    | 2.8133e-05 | 2.8133e-05 | 2.8133e-05 |   0.0 | 48.56
Neigh   | 0          | 0          | 0          |   0.0 |  0.00
Comm    | 1.1921e-05 | 1.1921e-05 | 1.1921e-05 |   0.0 | 20.58
Output  | 0          | 0          | 0          |   0.0 |  0.00
Modify  | 0          | 0          | 0          |   0.0 |  0.00
Other   |            | 1.788e-05  |            |       | 30.86

Nlocal:    1 ave 1 max 1 min
Histogram: 1 0 0 0 0 0 0 0 0 0
Nghost:    511 ave 511 max 511 min
Histogram: 1 0 0 0 0 0 0 0 0 0
Neighs:    67 ave 67 max 67 min
Histogram: 1 0 0 0 0 0 0 0 0 0

Total # of neighbors = 67
Ave neighs/atom = 67
Neighbor list builds = 0
Dangerous builds = 0

# Obtain new stress tensor

variable tmp equal pe
variable e1 equal ${tmp}
variable e1 equal -3.36000002290367
variable tmp equal press
variable p1 equal ${tmp}
variable p1 equal 5.97159008305348e-07
variable tmp equal pxx
variable pxx1 equal ${tmp}
variable pxx1 equal -0.015605339856859
variable tmp equal pyy
variable pyy1 equal ${tmp}
variable pyy1 equal 0.0156061029597549
variable tmp equal pzz
variable pzz1 equal ${tmp}
variable pzz1 equal 1.02837412908508e-06
variable tmp equal pxy
variable pxy1 equal ${tmp}
variable pxy1 equal -0.000408258984397416
variable tmp equal pxz
variable pxz1 equal ${tmp}
variable pxz1 equal -0.000163370810604377
variable tmp equal pyz
variable pyz1 equal ${tmp}
variable pyz1 equal -0.294759912814875

# Compute elastic constant from pressure tensor

variable C1pos equal ${d1}
variable C1pos equal 1.56055919570145
variable C2pos equal ${d2}
variable C2pos equal -1.56062146520073
variable C3pos equal ${d3}
variable C3pos equal -0.000116781514563831
variable C4pos equal ${d4}
variable C4pos equal 29.4526474452604
variable C5pos equal ${d5}
variable C5pos equal -9.5659424898995e-08
variable C6pos equal ${d6}
variable C6pos equal -8.53504320171006e-09

# Combine positive and negative

variable C1${dir} equal 0.5*(${C1neg}+${C1pos})
variable C14 equal 0.5*(${C1neg}+${C1pos})
variable C14 equal 0.5*(1.56060527820688+${C1pos})
variable C14 equal 0.5*(1.56060527820688+1.56055919570145)
variable C2${dir} equal 0.5*(${C2neg}+${C2pos})
variable C24 equal 0.5*(${C2neg}+${C2pos})
variable C24 equal 0.5*(-1.56054321214287+${C2pos})
variable C24 equal 0.5*(-1.56054321214287+-1.56062146520073)
variable C3${dir} equal 0.5*(${C3neg}+${C3pos})
variable C34 equal 0.5*(${C3neg}+${C3pos})
variable C34 equal 0.5*(0.000116429318518248+${C3pos})
variable C34 equal 0.5*(0.000116429318518248+-0.000116781514563831)
variable C4${dir} equal 0.5*(${C4neg}+${C4pos})
variable C44 equal 0.5*(${C4neg}+${C4pos})
variable C44 equal 0.5*(29.4526022704987+${C4pos})
variable C44 equal 0.5*(29.4526022704987+29.4526474452604)
variable C5${dir} equal 0.5*(${C5neg}+${C5pos})
variable C54 equal 0.5*(${C5neg}+${C5pos})
variable C54 equal 0.5*(-6.91505850004175e-08+${C5pos})
variable C54 equal 0.5*(-6.91505850004175e-08+-9.5659424898995e-08)
variable C6${dir} equal 0.5*(${C6neg}+${C6pos})
variable C64 equal 0.5*(${C6neg}+${C6pos})
variable C64 equal 0.5*(-2.60235139644058e-09+${C6pos})
variable C64 equal 0.5*(-2.60235139644058e-09+-8.53504320171006e-09)

# Delete dir to make sure it is not reused

variable dir delete

# uxz Perturbation

variable dir equal 5
include /users/knc6/displace.mod
# NOTE: This script should not need to be
# modified. See in.elastic for more info.
#
# Find which reference length to use

if "${dir} == 1" then    "variable len0 equal ${lx0}"
if "${dir} == 2" then    "variable len0 equal ${ly0}"
if "${dir} == 3" then    "variable len0 equal ${lz0}"
if "${dir} == 4" then    "variable len0 equal ${lz0}"
if "${dir} == 5" then    "variable len0 equal ${lz0}"
variable len0 equal ${lz0}
variable len0 equal 2.33826857147401
if "${dir} == 6" then    "variable len0 equal ${ly0}"

# Reset box and simulation parameters

clear
box tilt large
read_restart restart.equil
  triclinic box = (-0.00391395 -0.00338957 -0.00319572) to (2.85987 2.47672 2.33507) with tilt (-1.43189 -1.43189 0.826703)
  1 by 1 by 1 MPI processor grid
  1 atoms
include potential.mod
pair_style eam/alloy
pair_coeff * * /users/knc6/Software/jarvis/jarvis/lammps/examples/Al03.eam.alloy  Al
neighbor 1.0 nsq
neigh_modify once no every 1 delay 0 check yes
min_style  cg
min_modify           dmax ${dmax} line quadratic
min_modify           dmax 0.01 line quadratic
thermo          1
thermo_style custom step temp press cpu pxx pyy pzz pxy pxz pyz ke pe etotal vol lx ly lz atoms
thermo_modify norm no
# Negative deformation

variable delta equal -${up}*${len0}
variable delta equal -1e-06*${len0}
variable delta equal -1e-06*2.33826857147401
if "${dir} == 1" then    "change_box all x delta 0 ${delta} remap units box"
if "${dir} == 2" then    "change_box all y delta 0 ${delta} remap units box"
if "${dir} == 3" then    "change_box all z delta 0 ${delta} remap units box"
if "${dir} == 4" then    "change_box all yz delta ${delta} remap units box"
if "${dir} == 5" then    "change_box all xz delta ${delta} remap units box"
change_box all xz delta ${delta} remap units box
change_box all xz delta -2.33826857147401e-06 remap units box
WARNING: Triclinic box skew is large (../domain.cpp:185)
  triclinic box = (-0.00391395 -0.00338957 -0.00319572) to (2.85987 2.47672 2.33507) with tilt (-1.43189 -1.43189 0.826703)
if "${dir} == 6" then    "change_box all xy delta ${delta} remap units box"

# Relax atoms positions

minimize ${etol} ${ftol} ${maxiter} ${maxeval}
minimize 0 ${ftol} ${maxiter} ${maxeval}
minimize 0 1e-10 ${maxiter} ${maxeval}
minimize 0 1e-10 1000 ${maxeval}
minimize 0 1e-10 1000 10000
Neighbor list info ...
  1 neighbor list requests
  update every 1 steps, delay 0 steps, check yes
  max neighbors/atom: 2000, page size: 100000
  master list distance cutoff = 7.72488
  ghost atom cutoff = 7.72488
Memory usage per processor = 3.36448 Mbytes
Step Temp Press CPU Pxx Pyy Pzz Pxy Pxz Pyz KinEng PotEng TotEng Volume Lx Ly Lz Atoms 
       8            0 5.955005e-07            0 6.4313148e-07 1.1872705e-07 1.024643e-06  0.015197564   0.29436288 -0.00023321339            0        -3.36        -3.36    16.607531    2.8637824    2.4801083    2.3382686        1 
       9            0 5.9538562e-07 4.5061111e-05 6.4307718e-07 1.1840222e-07 1.0246775e-06  0.015197564   0.29436288 -0.00023321338            0        -3.36        -3.36    16.607531    2.8637824    2.4801083    2.3382686        1 
Loop time of 5.91278e-05 on 1 procs for 1 steps with 1 atoms

0.0% CPU use with 1 MPI tasks x no OpenMP threads

Minimization stats:
  Stopping criterion = quadratic factors are zero
  Energy initial, next-to-last, final = 
         -3.3600000229      -3.3600000229      -3.3600000229
  Force two-norm initial, final = 3.10317e-17 3.46945e-17
  Force max component initial, final = 2.77556e-17 2.77556e-17
  Final line search alpha, max atom move = 1 2.77556e-17
  Iterations, force evaluations = 1 2

MPI task timing breakdown:
Section |  min time  |  avg time  |  max time  |%varavg| %total
---------------------------------------------------------------
Pair    | 2.7895e-05 | 2.7895e-05 | 2.7895e-05 |   0.0 | 47.18
Neigh   | 0          | 0          | 0          |   0.0 |  0.00
Comm    | 9.2983e-06 | 9.2983e-06 | 9.2983e-06 |   0.0 | 15.73
Output  | 0          | 0          | 0          |   0.0 |  0.00
Modify  | 0          | 0          | 0          |   0.0 |  0.00
Other   |            | 2.193e-05  |            |       | 37.10

Nlocal:    1 ave 1 max 1 min
Histogram: 1 0 0 0 0 0 0 0 0 0
Nghost:    511 ave 511 max 511 min
Histogram: 1 0 0 0 0 0 0 0 0 0
Neighs:    67 ave 67 max 67 min
Histogram: 1 0 0 0 0 0 0 0 0 0

Total # of neighbors = 67
Ave neighs/atom = 67
Neighbor list builds = 0
Dangerous builds = 0

# Obtain new stress tensor

variable tmp equal pxx
variable pxx1 equal ${tmp}
variable pxx1 equal 6.4307717789225e-07
variable tmp equal pyy
variable pyy1 equal ${tmp}
variable pyy1 equal 1.18402218847147e-07
variable tmp equal pzz
variable pzz1 equal ${tmp}
variable pzz1 equal 1.02467745127521e-06
variable tmp equal pxy
variable pxy1 equal ${tmp}
variable pxy1 equal 0.0151975635209518
variable tmp equal pxz
variable pxz1 equal ${tmp}
variable pxz1 equal 0.294362876165528
variable tmp equal pyz
variable pyz1 equal ${tmp}
variable pyz1 equal -0.000233213380039369

# Compute elastic constant from pressure tensor

variable C1neg equal ${d1}
variable C1neg equal 3.90977022414076e-05
variable C2neg equal ${d2}
variable C2neg equal 2.30094471265391e-05
variable C3neg equal ${d3}
variable C3neg equal 0.000116411846782844
variable C4neg equal ${d4}
variable C4neg equal 2.24982231445e-05
variable C5neg equal ${d5}
variable C5neg equal 29.4526247932727
variable C6neg equal ${d6}
variable C6neg equal 1.56058225906996

# Reset box and simulation parameters

clear
box tilt large
read_restart restart.equil
  triclinic box = (-0.00391395 -0.00338957 -0.00319572) to (2.85987 2.47672 2.33507) with tilt (-1.43189 -1.43189 0.826703)
  1 by 1 by 1 MPI processor grid
  1 atoms
include potential.mod
pair_style eam/alloy
pair_coeff * * /users/knc6/Software/jarvis/jarvis/lammps/examples/Al03.eam.alloy  Al
neighbor 1.0 nsq
neigh_modify once no every 1 delay 0 check yes
min_style  cg
min_modify           dmax ${dmax} line quadratic
min_modify           dmax 0.01 line quadratic
thermo          1
thermo_style custom step temp press cpu pxx pyy pzz pxy pxz pyz ke pe etotal vol lx ly lz atoms
thermo_modify norm no

# Positive deformation

variable delta equal ${up}*${len0}
variable delta equal 1e-06*${len0}
variable delta equal 1e-06*2.33826857147401
if "${dir} == 1" then    "change_box all x delta 0 ${delta} remap units box"
if "${dir} == 2" then    "change_box all y delta 0 ${delta} remap units box"
if "${dir} == 3" then    "change_box all z delta 0 ${delta} remap units box"
if "${dir} == 4" then    "change_box all yz delta ${delta} remap units box"
if "${dir} == 5" then    "change_box all xz delta ${delta} remap units box"
change_box all xz delta ${delta} remap units box
change_box all xz delta 2.33826857147401e-06 remap units box
  triclinic box = (-0.00391395 -0.00338957 -0.00319572) to (2.85987 2.47672 2.33507) with tilt (-1.43189 -1.43189 0.826703)
if "${dir} == 6" then    "change_box all xy delta ${delta} remap units box"

# Relax atoms positions

minimize ${etol} ${ftol} ${maxiter} ${maxeval}
minimize 0 ${ftol} ${maxiter} ${maxeval}
minimize 0 1e-10 ${maxiter} ${maxeval}
minimize 0 1e-10 1000 ${maxeval}
minimize 0 1e-10 1000 10000
Neighbor list info ...
  1 neighbor list requests
  update every 1 steps, delay 0 steps, check yes
  max neighbors/atom: 2000, page size: 100000
  master list distance cutoff = 7.72488
  ghost atom cutoff = 7.72488
Memory usage per processor = 3.36448 Mbytes
Step Temp Press CPU Pxx Pyy Pzz Pxy Pxz Pyz KinEng PotEng TotEng Volume Lx Ly Lz Atoms 
       8            0 5.9714713e-07            0 6.4375697e-07 1.1936885e-07 1.0283156e-06 -0.016014082  -0.29468962 -0.00023321178            0        -3.36        -3.36    16.607531    2.8637824    2.4801083    2.3382686        1 
       9            0 5.9692733e-07 4.4822693e-05 6.4359899e-07 1.1894511e-07 1.0282379e-06 -0.016014082  -0.29468962 -0.00023321176            0        -3.36        -3.36    16.607531    2.8637824    2.4801083    2.3382686        1 
Loop time of 5.88894e-05 on 1 procs for 1 steps with 1 atoms

0.0% CPU use with 1 MPI tasks x no OpenMP threads

Minimization stats:
  Stopping criterion = quadratic factors are zero
  Energy initial, next-to-last, final = 
         -3.3600000229      -3.3600000229      -3.3600000229
  Force two-norm initial, final = 2.94392e-17 4.56334e-17
  Force max component initial, final = 2.77556e-17 4.51028e-17
  Final line search alpha, max atom move = 1 4.51028e-17
  Iterations, force evaluations = 1 2

MPI task timing breakdown:
Section |  min time  |  avg time  |  max time  |%varavg| %total
---------------------------------------------------------------
Pair    | 2.7895e-05 | 2.7895e-05 | 2.7895e-05 |   0.0 | 47.37
Neigh   | 0          | 0          | 0          |   0.0 |  0.00
Comm    | 1.2159e-05 | 1.2159e-05 | 1.2159e-05 |   0.0 | 20.65
Output  | 0          | 0          | 0          |   0.0 |  0.00
Modify  | 0          | 0          | 0          |   0.0 |  0.00
Other   |            | 1.884e-05  |            |       | 31.98

Nlocal:    1 ave 1 max 1 min
Histogram: 1 0 0 0 0 0 0 0 0 0
Nghost:    511 ave 511 max 511 min
Histogram: 1 0 0 0 0 0 0 0 0 0
Neighs:    67 ave 67 max 67 min
Histogram: 1 0 0 0 0 0 0 0 0 0

Total # of neighbors = 67
Ave neighs/atom = 67
Neighbor list builds = 0
Dangerous builds = 0

# Obtain new stress tensor

variable tmp equal pe
variable e1 equal ${tmp}
variable e1 equal -3.36000002290367
variable tmp equal press
variable p1 equal ${tmp}
variable p1 equal 5.96927334878991e-07
variable tmp equal pxx
variable pxx1 equal ${tmp}
variable pxx1 equal 6.43598987001363e-07
variable tmp equal pyy
variable pyy1 equal ${tmp}
variable pyy1 equal 1.18945114533473e-07
variable tmp equal pzz
variable pzz1 equal ${tmp}
variable pzz1 equal 1.02823790310214e-06
variable tmp equal pxy
variable pxy1 equal ${tmp}
variable pxy1 equal -0.0160140817209459
variable tmp equal pxz
variable pxz1 equal ${tmp}
variable pxz1 equal -0.294689619753645
variable tmp equal pyz
variable pyz1 equal ${tmp}
variable pyz1 equal -0.000233211761393537

# Compute elastic constant from pressure tensor

variable C1pos equal ${d1}
variable C1pos equal -3.91498831523189e-05
variable C2pos equal ${d2}
variable C2pos equal -2.30637366951717e-05
variable C3pos equal ${d3}
variable C3pos equal -0.000116767891965537
variable C4pos equal ${d4}
variable C4pos equal -2.26600877277006e-05
variable C5pos equal ${d5}
variable C5pos equal 29.4526247986446
variable C6pos equal ${d6}
variable C6pos equal 1.56058226511981

# Combine positive and negative

variable C1${dir} equal 0.5*(${C1neg}+${C1pos})
variable C15 equal 0.5*(${C1neg}+${C1pos})
variable C15 equal 0.5*(3.90977022414076e-05+${C1pos})
variable C15 equal 0.5*(3.90977022414076e-05+-3.91498831523189e-05)
variable C2${dir} equal 0.5*(${C2neg}+${C2pos})
variable C25 equal 0.5*(${C2neg}+${C2pos})
variable C25 equal 0.5*(2.30094471265391e-05+${C2pos})
variable C25 equal 0.5*(2.30094471265391e-05+-2.30637366951717e-05)
variable C3${dir} equal 0.5*(${C3neg}+${C3pos})
variable C35 equal 0.5*(${C3neg}+${C3pos})
variable C35 equal 0.5*(0.000116411846782844+${C3pos})
variable C35 equal 0.5*(0.000116411846782844+-0.000116767891965537)
variable C4${dir} equal 0.5*(${C4neg}+${C4pos})
variable C45 equal 0.5*(${C4neg}+${C4pos})
variable C45 equal 0.5*(2.24982231445e-05+${C4pos})
variable C45 equal 0.5*(2.24982231445e-05+-2.26600877277006e-05)
variable C5${dir} equal 0.5*(${C5neg}+${C5pos})
variable C55 equal 0.5*(${C5neg}+${C5pos})
variable C55 equal 0.5*(29.4526247932727+${C5pos})
variable C55 equal 0.5*(29.4526247932727+29.4526247986446)
variable C6${dir} equal 0.5*(${C6neg}+${C6pos})
variable C65 equal 0.5*(${C6neg}+${C6pos})
variable C65 equal 0.5*(1.56058225906996+${C6pos})
variable C65 equal 0.5*(1.56058225906996+1.56058226511981)

# Delete dir to make sure it is not reused

variable dir delete

# uxy Perturbation

variable dir equal 6
include /users/knc6/displace.mod
# NOTE: This script should not need to be
# modified. See in.elastic for more info.
#
# Find which reference length to use

if "${dir} == 1" then    "variable len0 equal ${lx0}"
if "${dir} == 2" then    "variable len0 equal ${ly0}"
if "${dir} == 3" then    "variable len0 equal ${lz0}"
if "${dir} == 4" then    "variable len0 equal ${lz0}"
if "${dir} == 5" then    "variable len0 equal ${lz0}"
if "${dir} == 6" then    "variable len0 equal ${ly0}"
variable len0 equal ${ly0}
variable len0 equal 2.48010834473723

# Reset box and simulation parameters

clear
box tilt large
read_restart restart.equil
  triclinic box = (-0.00391395 -0.00338957 -0.00319572) to (2.85987 2.47672 2.33507) with tilt (-1.43189 -1.43189 0.826703)
  1 by 1 by 1 MPI processor grid
  1 atoms
include potential.mod
pair_style eam/alloy
pair_coeff * * /users/knc6/Software/jarvis/jarvis/lammps/examples/Al03.eam.alloy  Al
neighbor 1.0 nsq
neigh_modify once no every 1 delay 0 check yes
min_style  cg
min_modify           dmax ${dmax} line quadratic
min_modify           dmax 0.01 line quadratic
thermo          1
thermo_style custom step temp press cpu pxx pyy pzz pxy pxz pyz ke pe etotal vol lx ly lz atoms
thermo_modify norm no
# Negative deformation

variable delta equal -${up}*${len0}
variable delta equal -1e-06*${len0}
variable delta equal -1e-06*2.48010834473723
if "${dir} == 1" then    "change_box all x delta 0 ${delta} remap units box"
if "${dir} == 2" then    "change_box all y delta 0 ${delta} remap units box"
if "${dir} == 3" then    "change_box all z delta 0 ${delta} remap units box"
if "${dir} == 4" then    "change_box all yz delta ${delta} remap units box"
if "${dir} == 5" then    "change_box all xz delta ${delta} remap units box"
if "${dir} == 6" then    "change_box all xy delta ${delta} remap units box"
change_box all xy delta ${delta} remap units box
change_box all xy delta -2.48010834473723e-06 remap units box
WARNING: Triclinic box skew is large (../domain.cpp:185)
  triclinic box = (-0.00391395 -0.00338957 -0.00319572) to (2.85987 2.47672 2.33507) with tilt (-1.43189 -1.43189 0.826703)

# Relax atoms positions

minimize ${etol} ${ftol} ${maxiter} ${maxeval}
minimize 0 ${ftol} ${maxiter} ${maxeval}
minimize 0 1e-10 ${maxiter} ${maxeval}
minimize 0 1e-10 1000 ${maxeval}
minimize 0 1e-10 1000 10000
Neighbor list info ...
  1 neighbor list requests
  update every 1 steps, delay 0 steps, check yes
  max neighbors/atom: 2000, page size: 100000
  master list distance cutoff = 7.72488
  ghost atom cutoff = 7.72488
Memory usage per processor = 3.36448 Mbytes
Step Temp Press CPU Pxx Pyy Pzz Pxy Pxz Pyz KinEng PotEng TotEng Volume Lx Ly Lz Atoms 
       8            0 6.6944494e-07            0 6.916245e-07 1.2398969e-06 7.681338e-08   0.29963548 -0.088688303 -0.00023357156            0        -3.36        -3.36    16.607531    2.8637824    2.4801083    2.3382686        1 
       9            0 6.6944458e-07 4.5061111e-05 6.9155974e-07 1.2397981e-06 7.6975881e-08   0.29963548 -0.088688303 -0.0002335717            0        -3.36        -3.36    16.607531    2.8637824    2.4801083    2.3382686        1 
Loop time of 5.91278e-05 on 1 procs for 1 steps with 1 atoms

0.0% CPU use with 1 MPI tasks x no OpenMP threads

Minimization stats:
  Stopping criterion = quadratic factors are zero
  Energy initial, next-to-last, final = 
         -3.3600000229      -3.3600000229      -3.3600000229
  Force two-norm initial, final = 2.94903e-17 1.86835e-17
  Force max component initial, final = 2.08167e-17 1.73472e-17
  Final line search alpha, max atom move = 1 1.73472e-17
  Iterations, force evaluations = 1 2

MPI task timing breakdown:
Section |  min time  |  avg time  |  max time  |%varavg| %total
---------------------------------------------------------------
Pair    | 2.8133e-05 | 2.8133e-05 | 2.8133e-05 |   0.0 | 47.58
Neigh   | 0          | 0          | 0          |   0.0 |  0.00
Comm    | 1.0014e-05 | 1.0014e-05 | 1.0014e-05 |   0.0 | 16.94
Output  | 0          | 0          | 0          |   0.0 |  0.00
Modify  | 0          | 0          | 0          |   0.0 |  0.00
Other   |            | 2.098e-05  |            |       | 35.48

Nlocal:    1 ave 1 max 1 min
Histogram: 1 0 0 0 0 0 0 0 0 0
Nghost:    511 ave 511 max 511 min
Histogram: 1 0 0 0 0 0 0 0 0 0
Neighs:    67 ave 67 max 67 min
Histogram: 1 0 0 0 0 0 0 0 0 0

Total # of neighbors = 67
Ave neighs/atom = 67
Neighbor list builds = 0
Dangerous builds = 0

# Obtain new stress tensor

variable tmp equal pxx
variable pxx1 equal ${tmp}
variable pxx1 equal 6.91559737455778e-07
variable tmp equal pyy
variable pyy1 equal ${tmp}
variable pyy1 equal 1.23979810976678e-06
variable tmp equal pzz
variable pzz1 equal ${tmp}
variable pzz1 equal 7.69758806986537e-08
variable tmp equal pxy
variable pxy1 equal ${tmp}
variable pxy1 equal 0.299635480803899
variable tmp equal pxz
variable pxz1 equal ${tmp}
variable pxz1 equal -0.0886883029648696
variable tmp equal pyz
variable pyz1 equal ${tmp}
variable pyz1 equal -0.000233571699894741

# Compute elastic constant from pressure tensor

variable C1neg equal ${d1}
variable C1neg equal 4.39459581977604e-05
variable C2neg equal ${d2}
variable C2neg equal 0.000135149036218502
variable C3neg equal ${d3}
variable C3neg equal 2.16416897251881e-05
variable C4neg equal ${d4}
variable C4neg equal -1.33337623927005e-05
variable C5neg equal ${d5}
variable C5neg equal -8.8524931197671
variable C6neg equal ${d6}
variable C6neg equal 30.0043739873647

# Reset box and simulation parameters

clear
box tilt large
read_restart restart.equil
  triclinic box = (-0.00391395 -0.00338957 -0.00319572) to (2.85987 2.47672 2.33507) with tilt (-1.43189 -1.43189 0.826703)
  1 by 1 by 1 MPI processor grid
  1 atoms
include potential.mod
pair_style eam/alloy
pair_coeff * * /users/knc6/Software/jarvis/jarvis/lammps/examples/Al03.eam.alloy  Al
neighbor 1.0 nsq
neigh_modify once no every 1 delay 0 check yes
min_style  cg
min_modify           dmax ${dmax} line quadratic
min_modify           dmax 0.01 line quadratic
thermo          1
thermo_style custom step temp press cpu pxx pyy pzz pxy pxz pyz ke pe etotal vol lx ly lz atoms
thermo_modify norm no

# Positive deformation

variable delta equal ${up}*${len0}
variable delta equal 1e-06*${len0}
variable delta equal 1e-06*2.48010834473723
if "${dir} == 1" then    "change_box all x delta 0 ${delta} remap units box"
if "${dir} == 2" then    "change_box all y delta 0 ${delta} remap units box"
if "${dir} == 3" then    "change_box all z delta 0 ${delta} remap units box"
if "${dir} == 4" then    "change_box all yz delta ${delta} remap units box"
if "${dir} == 5" then    "change_box all xz delta ${delta} remap units box"
if "${dir} == 6" then    "change_box all xy delta ${delta} remap units box"
change_box all xy delta ${delta} remap units box
change_box all xy delta 2.48010834473723e-06 remap units box
  triclinic box = (-0.00391395 -0.00338957 -0.00319572) to (2.85987 2.47672 2.33507) with tilt (-1.43189 -1.43189 0.826703)

# Relax atoms positions

minimize ${etol} ${ftol} ${maxiter} ${maxeval}
minimize 0 ${ftol} ${maxiter} ${maxeval}
minimize 0 1e-10 ${maxiter} ${maxeval}
minimize 0 1e-10 1000 ${maxeval}
minimize 0 1e-10 1000 10000
Neighbor list info ...
  1 neighbor list requests
  update every 1 steps, delay 0 steps, check yes
  max neighbors/atom: 2000, page size: 100000
  master list distance cutoff = 7.72488
  ghost atom cutoff = 7.72488
Memory usage per processor = 3.36448 Mbytes
Step Temp Press CPU Pxx Pyy Pzz Pxy Pxz Pyz KinEng PotEng TotEng Volume Lx Ly Lz Atoms 
       8            0 6.7245137e-07            0 6.9321771e-07 1.2467756e-06 7.7360794e-08    -0.300452  0.088361559 -0.0002335717            0        -3.36        -3.36    16.607531    2.8637824    2.4801083    2.3382686        1 
       9            0 6.725725e-07 4.5061111e-05 6.9328365e-07 1.2468903e-06 7.7543545e-08    -0.300452  0.088361559 -0.00023357181            0        -3.36        -3.36    16.607531    2.8637824    2.4801083    2.3382686        1 
Loop time of 5.88894e-05 on 1 procs for 1 steps with 1 atoms

0.0% CPU use with 1 MPI tasks x no OpenMP threads

Minimization stats:
  Stopping criterion = quadratic factors are zero
  Energy initial, next-to-last, final = 
         -3.3600000229      -3.3600000229      -3.3600000229
  Force two-norm initial, final = 8.18267e-18 4.98035e-17
  Force max component initial, final = 6.93889e-18 4.0766e-17
  Final line search alpha, max atom move = 1 4.0766e-17
  Iterations, force evaluations = 1 2

MPI task timing breakdown:
Section |  min time  |  avg time  |  max time  |%varavg| %total
---------------------------------------------------------------
Pair    | 2.7895e-05 | 2.7895e-05 | 2.7895e-05 |   0.0 | 47.37
Neigh   | 0          | 0          | 0          |   0.0 |  0.00
Comm    | 1.0014e-05 | 1.0014e-05 | 1.0014e-05 |   0.0 | 17.00
Output  | 0          | 0          | 0          |   0.0 |  0.00
Modify  | 0          | 0          | 0          |   0.0 |  0.00
Other   |            | 2.098e-05  |            |       | 35.63

Nlocal:    1 ave 1 max 1 min
Histogram: 1 0 0 0 0 0 0 0 0 0
Nghost:    511 ave 511 max 511 min
Histogram: 1 0 0 0 0 0 0 0 0 0
Neighs:    67 ave 67 max 67 min
Histogram: 1 0 0 0 0 0 0 0 0 0

Total # of neighbors = 67
Ave neighs/atom = 67
Neighbor list builds = 0
Dangerous builds = 0

# Obtain new stress tensor

variable tmp equal pe
variable e1 equal ${tmp}
variable e1 equal -3.36000002290348
variable tmp equal press
variable p1 equal ${tmp}
variable p1 equal 6.72572501937135e-07
variable tmp equal pxx
variable pxx1 equal ${tmp}
variable pxx1 equal 6.93283648819784e-07
variable tmp equal pyy
variable pyy1 equal ${tmp}
variable pyy1 equal 1.24689031224611e-06
variable tmp equal pzz
variable pzz1 equal ${tmp}
variable pzz1 equal 7.7543544745514e-08
variable tmp equal pxy
variable pxy1 equal ${tmp}
variable pxy1 equal -0.300451998808842
variable tmp equal pxz
variable pxz1 equal ${tmp}
variable pxz1 equal 0.0883615594590898
variable tmp equal pyz
variable pyz1 equal ${tmp}
variable pyz1 equal -0.000233571809176764

# Compute elastic constant from pressure tensor

variable C1pos equal ${d1}
variable C1pos equal -4.4118349334161e-05
variable C2pos equal ${d2}
variable C2pos equal -0.000135858256466435
variable C3pos equal ${d3}
variable C3pos equal -2.16984561298741e-05
variable C4pos equal ${d4}
variable C4pos equal 1.33446905949998e-05
variable C5pos equal ${d5}
variable C5pos equal -8.85249312262884
variable C6pos equal ${d6}
variable C6pos equal 30.0043739739094

# Combine positive and negative

variable C1${dir} equal 0.5*(${C1neg}+${C1pos})
variable C16 equal 0.5*(${C1neg}+${C1pos})
variable C16 equal 0.5*(4.39459581977604e-05+${C1pos})
variable C16 equal 0.5*(4.39459581977604e-05+-4.4118349334161e-05)
variable C2${dir} equal 0.5*(${C2neg}+${C2pos})
variable C26 equal 0.5*(${C2neg}+${C2pos})
variable C26 equal 0.5*(0.000135149036218502+${C2pos})
variable C26 equal 0.5*(0.000135149036218502+-0.000135858256466435)
variable C3${dir} equal 0.5*(${C3neg}+${C3pos})
variable C36 equal 0.5*(${C3neg}+${C3pos})
variable C36 equal 0.5*(2.16416897251881e-05+${C3pos})
variable C36 equal 0.5*(2.16416897251881e-05+-2.16984561298741e-05)
variable C4${dir} equal 0.5*(${C4neg}+${C4pos})
variable C46 equal 0.5*(${C4neg}+${C4pos})
variable C46 equal 0.5*(-1.33337623927005e-05+${C4pos})
variable C46 equal 0.5*(-1.33337623927005e-05+1.33446905949998e-05)
variable C5${dir} equal 0.5*(${C5neg}+${C5pos})
variable C56 equal 0.5*(${C5neg}+${C5pos})
variable C56 equal 0.5*(-8.8524931197671+${C5pos})
variable C56 equal 0.5*(-8.8524931197671+-8.85249312262884)
variable C6${dir} equal 0.5*(${C6neg}+${C6pos})
variable C66 equal 0.5*(${C6neg}+${C6pos})
variable C66 equal 0.5*(30.0043739873647+${C6pos})
variable C66 equal 0.5*(30.0043739873647+30.0043739739094)

# Delete dir to make sure it is not reused

variable dir delete

# Output final values

variable C11all equal ${C11}
variable C11all equal 120.125972387542
variable C22all equal ${C22}
variable C22all equal 120.677721596963
variable C33all equal ${C33}
variable C33all equal 121.229470768067

variable C12all equal 0.5*(${C12}+${C21})
variable C12all equal 0.5*(58.4619770259661+${C21})
variable C12all equal 0.5*(58.4619770259661+59.013725953887)
variable C13all equal 0.5*(${C13}+${C31})
variable C13all equal 0.5*(57.910227831874+${C31})
variable C13all equal 0.5*(57.910227831874+57.9102277029557)
variable C23all equal 0.5*(${C23}+${C32})
variable C23all equal 0.5*(57.9102279049962+${C32})
variable C23all equal 0.5*(57.9102279049962+57.910227954841)

variable C44all equal ${C44}
variable C44all equal 29.4526248578795
variable C55all equal ${C55}
variable C55all equal 29.4526247959586
variable C66all equal ${C66}
variable C66all equal 30.004373980637

variable C14all equal 0.5*(${C14}+${C41})
variable C14all equal 0.5*(1.56058223695416+${C41})
variable C14all equal 0.5*(1.56058223695416+1.5605821703249)
variable C15all equal 0.5*(${C15}+${C51})
variable C15all equal 0.5*(-2.60904554556523e-08+${C51})
variable C15all equal 0.5*(-2.60904554556523e-08+12.9249862218275)
variable C16all equal 0.5*(${C16}+${C61})
variable C16all equal 0.5*(-8.6195568200298e-08+${C61})
variable C16all equal 0.5*(-8.6195568200298e-08+18.2786907499065)

variable C24all equal 0.5*(${C24}+${C42})
variable C24all equal 0.5*(-1.5605823386718+${C42})
variable C24all equal 0.5*(-1.5605823386718+-11.9736577834387)
variable C25all equal 0.5*(${C25}+${C52})
variable C25all equal 0.5*(-2.7144784316299e-08+${C52})
variable C25all equal 0.5*(-2.7144784316299e-08+-1.47556797008385e-08)
variable C26all equal 0.5*(${C26}+${C62})
variable C26all equal 0.5*(-3.5461012396649e-07+${C62})
variable C26all equal 0.5*(-3.5461012396649e-07+-3.58321135599231e-07)

variable C34all equal 0.5*(${C34}+${C43})
variable C34all equal 0.5*(-1.76098022791503e-07+${C43})
variable C34all equal 0.5*(-1.76098022791503e-07+-1.81083157199853e-07)
variable C35all equal 0.5*(${C35}+${C53})
variable C35all equal 0.5*(-1.78022591346495e-07+${C53})
variable C35all equal 0.5*(-1.78022591346495e-07+-1.78712191901032e-07)
variable C36all equal 0.5*(${C36}+${C63})
variable C36all equal 0.5*(-2.83832023429995e-08+${C63})
variable C36all equal 0.5*(-2.83832023429995e-08+-1.30021295048936e-07)

variable C45all equal 0.5*(${C45}+${C54})
variable C45all equal 0.5*(-8.09322916002997e-08+${C54})
variable C45all equal 0.5*(-8.09322916002997e-08+-8.24050049497062e-08)
variable C46all equal 0.5*(${C46}+${C64})
variable C46all equal 0.5*(5.46410114964986e-09+${C64})
variable C46all equal 0.5*(5.46410114964986e-09+-5.56869729907532e-09)
variable C56all equal 0.5*(${C56}+${C65})
variable C56all equal 0.5*(-8.85249312119797+${C65})
variable C56all equal 0.5*(-8.85249312119797+1.56058226209489)

# For Stillinger-Weber silicon, the analytical results
# are known to be (E. R. Cowley, 1988):
#               C11 = 151.4 GPa
#               C12 = 76.4 GPa
#               C44 = 56.4 GPa

print "Elastic Constant C11all = ${C11all} ${cunits}"
Elastic Constant C11all = 120.125972387542 GPa
print "Elastic Constant C22all = ${C22all} ${cunits}"
Elastic Constant C22all = 120.677721596963 GPa
print "Elastic Constant C33all = ${C33all} ${cunits}"
Elastic Constant C33all = 121.229470768067 GPa

print "Elastic Constant C12all = ${C12all} ${cunits}"
Elastic Constant C12all = 58.7378514899265 GPa
print "Elastic Constant C13all = ${C13all} ${cunits}"
Elastic Constant C13all = 57.9102277674149 GPa
print "Elastic Constant C23all = ${C23all} ${cunits}"
Elastic Constant C23all = 57.9102279299186 GPa

print "Elastic Constant C44all = ${C44all} ${cunits}"
Elastic Constant C44all = 29.4526248578795 GPa
print "Elastic Constant C55all = ${C55all} ${cunits}"
Elastic Constant C55all = 29.4526247959586 GPa
print "Elastic Constant C66all = ${C66all} ${cunits}"
Elastic Constant C66all = 30.004373980637 GPa

print "Elastic Constant C14all = ${C14all} ${cunits}"
Elastic Constant C14all = 1.56058220363953 GPa
print "Elastic Constant C15all = ${C15all} ${cunits}"
Elastic Constant C15all = 6.46249309786852 GPa
print "Elastic Constant C16all = ${C16all} ${cunits}"
Elastic Constant C16all = 9.13934533185546 GPa

print "Elastic Constant C24all = ${C24all} ${cunits}"
Elastic Constant C24all = -6.76712006105525 GPa
print "Elastic Constant C25all = ${C25all} ${cunits}"
Elastic Constant C25all = -2.09502320085688e-08 GPa
print "Elastic Constant C26all = ${C26all} ${cunits}"
Elastic Constant C26all = -3.56465629782861e-07 GPa

print "Elastic Constant C34all = ${C34all} ${cunits}"
Elastic Constant C34all = -1.78590589995678e-07 GPa
print "Elastic Constant C35all = ${C35all} ${cunits}"
Elastic Constant C35all = -1.78367391623764e-07 GPa
print "Elastic Constant C36all = ${C36all} ${cunits}"
Elastic Constant C36all = -7.92022486959678e-08 GPa

print "Elastic Constant C45all = ${C45all} ${cunits}"
Elastic Constant C45all = -8.16686482750029e-08 GPa
print "Elastic Constant C46all = ${C46all} ${cunits}"
Elastic Constant C46all = -5.22980747127298e-11 GPa
print "Elastic Constant C56all = ${C56all} ${cunits}"
Elastic Constant C56all = -3.64595542955154 GPa

Total wall time: 0:00:00
