LAMMPS (13 Jan 2016)
include /users/knc6/inelast.mod
# Compute elastic constant tensor for a crystal
#
# Written by Aidan Thompson (Sandia, athomps@sandia.gov)
#
#  This script uses the following three include files.
#
#   init.mod      (must be modified for different crystal structures)
# 	       	  Define units, deformation parameters and initial
#		  configuration of the atoms and simulation cell.
#
#
#   potential.mod    (must be modified for different pair styles)
# 		     Define pair style and other attributes
#		     not stored in restart file
#
#
#   displace.mod    (displace.mod should not need to be modified)
# 		    Perform positive and negative box displacements
# 		    in direction ${dir} and size ${up}.
# 		    It uses the resultant changes
#		    in stress to compute one
# 		    row of the elastic stiffness tensor
#
#		    Inputs variables:
#		    	   dir = the Voigt deformation component
#		    		    (1,2,3,4,5,6)
#		    Global constants:
#       	    	   up = the deformation magnitude (strain units)
#       		   cfac = conversion from LAMMPS pressure units to
#               	   output units for elastic constants
#
#
#  To run this on a different system, it should only be necessary to
#  modify the files init.mod and potential.mod. In order to calculate
#  the elastic constants correctly, care must be taken to specify
#  the correct units in init.mod (units, cfac and cunits). It is also
#  important to verify that the minimization of energy w.r.t atom
#  positions in the deformed cell is fully converged.
#  One indication of this is that the elastic constants are insensitive
#  to the choice of the variable ${up} in init.mod. Another is to check
#  the final max and two-norm forces reported in the log file. If you know
#  that minimization is not required, you can set maxiter = 0.0 in
#  init.mod.
#
#  There are two alternate versions of displace.mod provided.
#  They are displace_restart.mod and displace_reverse.mod.
#  The former resets the box using a restart file while
#  the latter reverses the deformation. Copy whichever
#  one you like best to displace.mod.
#

include init.mod
variable dump_file string "None"
variable up  equal 1.0e-6
variable cfac  equal 1.0e-4
variable cunits  string GPa
variable etol  equal 0
variable ftol  equal 1.0e-10
variable maxiter equal 1000
variable maxeval equal 10000
variable dmax equal 1.0e-2
variable data_file string "data"
units metal
atom_style charge
boundary p p p
atom_modify sort 0 0.0

read_data data
  triclinic box = (0 0 0) to (20.25 28.6378 45.8205) with tilt (0 0 0)
  1 by 1 by 1 MPI processor grid
  reading atoms ...
  700 atoms

### interactions
mass 1 26.98154
include potential.mod
pair_style eam/alloy
pair_coeff * * /users/knc6/Software/jarvis/jarvis/lammps/examples/Al03.eam.alloy  Al
neighbor 1.0 nsq
neigh_modify once no every 1 delay 0 check yes
min_style  cg
min_modify           dmax ${dmax} line quadratic
min_modify           dmax 0.01 line quadratic
thermo          1
thermo_style custom step temp press cpu pxx pyy pzz pxy pxz pyz ke pe etotal vol lx ly lz atoms
thermo_modify norm no
#fix 3 all nph aniso 0.0 0.0 1.0
#fix langevin all langevin 0.0 0.0 1.0 12233

#fix 3 all box/relax tri 0.0 vmax 0.001
fix            3 all box/relax aniso 0.0 vmax 0.001
#fix 3 all box/relax  aniso 0.0
#dump            2a all cfg 100 *.cfg mass type xs ys zs  vx vy vz fx fy fz
#dump_modify     2a element  Mo S

#fix 1a all qeq/comb 1 0.0001 file fq.out
#fix             2 all qeq/reax 1 0.0 10.0 1e-6 /scratch/lfs/kamal/JARVIS/All2/ReaxFF/param.qeq
minimize ${etol} ${ftol} ${maxiter} ${maxeval}
minimize 0 ${ftol} ${maxiter} ${maxeval}
minimize 0 1e-10 ${maxiter} ${maxeval}
minimize 0 1e-10 1000 ${maxeval}
minimize 0 1e-10 1000 10000
Neighbor list info ...
  1 neighbor list requests
  update every 1 steps, delay 0 steps, check yes
  max neighbors/atom: 2000, page size: 100000
  master list distance cutoff = 7.72488
  ghost atom cutoff = 7.72488
Memory usage per processor = 3.34842 Mbytes
Step Temp Press CPU Pxx Pyy Pzz Pxy Pxz Pyz KinEng PotEng TotEng Volume Lx Ly Lz Atoms 
       0            0   -12274.984            0   -14773.108   -12281.307   -9770.5372 9.8763838e-12 2.4291846e-06 1.1649497e-11            0   -2290.2735   -2290.2735    26572.049        20.25    28.637824    45.820519      700 
       1            0   -11501.174 0.0023989677   -13954.348   -11491.483   -9057.6893 -3.657422e-13 2.4516815e-06 -1.3581115e-12            0   -2290.7786   -2290.7786    26505.867     20.22975    28.614017    45.790215      700 
       2            0   -10723.559 0.0048089027   -13128.982   -10697.942   -8343.7532 -1.2788975e-11 2.4739173e-06 -1.0691677e-11            0   -2291.2473   -2291.2473    26440.336      20.2095    28.590438    45.760483      700 
       3            0   -9942.9853 0.0072131157   -12297.675   -9901.5852   -7629.6954 -1.8208892e-12 2.496145e-06 -5.8791117e-12            0   -2291.6798   -2291.6798    26375.508     20.18925    28.567111    45.731383      700 
       4            0   -9160.3355 0.0096080303   -11461.085   -9103.3534   -6916.5686 -1.8396884e-12 2.5180108e-06 2.0729241e-12            0   -2292.0764   -2292.0764    26311.448       20.169    28.544065    45.702985      700 
       5            0   -8376.7733  0.012010098   -10620.135   -8304.4951   -6205.6894 -6.7716529e-12 2.5392932e-06 8.062621e-12            0   -2292.4372   -2292.4372    26248.232     20.14875    28.521335    45.675373      700 
       6            0   -7593.8206  0.014405966   -9776.0455   -7506.6242    -5498.792 -4.1860957e-13 2.561029e-06 8.6600384e-12            0   -2292.7627   -2292.7627    26185.952      20.1285    28.498962    45.648648      700 
       7            0   -6813.2884   0.01680398   -8930.2739   -6711.6778   -4797.9134 8.790127e-12 2.582072e-06 7.5509302e-12            0   -2293.0534   -2293.0534    26124.722     20.10825    28.476998    45.622933      700 
       8            0   -6037.2424  0.019212008    -8084.427   -5921.8671   -4105.4333 -6.7579196e-12 2.6024704e-06 -4.1833928e-12            0   -2293.3099   -2293.3099    26064.681       20.088    28.455505    45.598382      700 
       9            0    -5268.394  0.021605968   -7240.6624    -5140.112   -3424.4075 2.552976e-12 2.6231276e-06 2.2685235e-11            0   -2293.5329   -2293.5329    26006.007     20.06775    28.434562    45.575187      700 
      10            0   -4510.3134  0.024004936   -6401.8729   -4370.1914   -2758.8759 -3.6965054e-12 2.6423546e-06 1.3724369e-11            0   -2293.7236   -2293.7236    25948.927      20.0475    28.414271    45.553596      700 
      11            0   -3767.5863  0.026405096   -5571.7073   -3617.0665   -2113.9851 -6.1009846e-12 2.6614765e-06 9.9049765e-12            0    -2293.883    -2293.883    25893.738     20.02725    28.394765    45.533933      700 
      12            0   -3046.3944  0.028809071   -4755.1663   -2887.3067   -1496.7101 -4.1335859e-12 2.6797627e-06 4.4132311e-12            0   -2294.0129   -2294.0129     25840.84       20.007    28.376221    45.516631      700 
      13            0   -2354.8778  0.031213999   -3958.7213   -2189.6694   -916.24264 -6.8133089e-12 2.696247e-06 1.2267922e-11            0   -2294.1154   -2294.1154    25790.782     19.98675    28.358882    45.502286      700 
      14            0   -1704.7748  0.033611059    -3191.818   -1536.7197   -385.78685 3.0539439e-12 2.7123357e-06 3.1040369e-12            0    -2294.193    -2294.193    25744.342      19.9665    28.343094    45.491746      700 
      15            0    -1112.987  0.036010981    -2468.016   -946.60323    75.658375 -1.9161357e-12 2.725791e-06 -4.9508101e-12            0   -2294.2494   -2294.2494     25702.66     19.94625    28.329358    45.486246      700 
      16            0   -604.52398  0.044964075   -1807.4054   -446.12511    439.95855 -5.9009602e-12 2.7378855e-06 -9.9349144e-13            0    -2294.289    -2294.289     25667.44       19.926    28.318421     45.48764      700 
      17            0   -216.35357  0.047373056   -1239.8237   -74.862612    665.62563 3.6307382e-12 2.7458778e-06 4.5774443e-12            0   -2294.3175   -2294.3175    25641.216     19.90575    28.311387    45.498695      700 
      18            0    4.1071818  0.049791098   -803.75269     116.5213    699.55294 -4.2907993e-12 2.7493423e-06 -1.4325114e-11            0   -2294.3407   -2294.3407    25627.285      19.8855    28.309667    45.523048      700 
      19            0    35.938425  0.052203894   -517.23843    106.43643    518.61727 3.4509726e-12 2.747804e-06 -2.4835723e-12            0   -2294.3612   -2294.3612    25627.089     19.86525    28.313792    45.562466      700 
      20            0    2.9158424  0.054613113   -283.14484    30.067406    261.82496 -7.3040686e-13 2.7439134e-06 -1.2560808e-11            0   -2294.3758   -2294.3758    25631.726       19.845    28.319639    45.607791      700 
      21            0    37.050531  0.057029963     3.598515    33.725479    73.827599 1.3285254e-12 2.7398084e-06 7.8332252e-13            0   -2294.3835   -2294.3835    25631.719     19.82475    28.322652    45.649508      700 
      22            0   -450.70059  0.061804056   -401.40298   -455.00229    -495.6965 -1.3089008e-12 2.7134081e-06 -2.0050178e-11            0   -2294.3895   -2294.3895    25667.781    19.825679    28.334849    45.691913      700 
      23            0   -290.57925  0.064217091   -15.408039    -263.3802    -592.9495 1.846519e-12 2.6776216e-06 -2.8820882e-11            0   -2294.4148   -2294.4148    25660.213    19.805429    28.329106    45.734416      700 
      24            0    195.35413  0.068994999    386.62689    221.68412   -22.248613 -1.5683735e-12 2.6862511e-06 -1.0203214e-11            0   -2294.4208   -2294.4208    25624.736    19.804928    28.317129    45.691657      700 
      25            0    38.275998  0.071408987     7.733372    27.510005    79.584618 -5.6581164e-12 2.6800316e-06 -8.027122e-12            0   -2294.4274   -2294.4274    25633.393    19.825178    28.323044    45.650871      700 
      26            0    -426.5484  0.076184988   -392.79095   -410.98558   -475.86868 3.5646065e-13 2.656637e-06 -2.0553768e-11            0   -2294.4329   -2294.4329    25667.812    19.827023    28.332233     45.69309      700 
      27            0   -258.65722  0.078594923   -25.677572   -159.29521   -590.99887 -1.8435151e-13 2.6224439e-06 -2.8773891e-11            0   -2294.4566   -2294.4566    25659.813    19.808386    28.321652     45.73891      700 
      28            0    212.83705  0.081013918    377.23304    271.52983   -10.251723 2.2796303e-12 2.631005e-06 -3.0968936e-11            0   -2294.4629   -2294.4629    25625.219    19.807174    28.313565     45.69309      700 
      29            0    17.330939  0.083430052   -16.417729   -30.051024    98.461571 4.259364e-12 2.6220914e-06 -1.3615914e-11            0   -2294.4699   -2294.4699    25636.326    19.826616    28.326465    45.647269      700 
      30            0   -348.58045  0.085844994   -402.56792   -222.78772   -420.38572 -3.9731608e-12 2.5944549e-06 -3.0086123e-11            0   -2294.4824   -2294.4824    25664.246    19.832753    28.320112     45.69309      700 
      31            0    381.21606  0.088258982    407.14511    640.07791    96.425156 3.6417912e-12 2.5789315e-06 -1.106046e-11            0   -2294.5022   -2294.5022     25615.29    19.814827    28.291475    45.693394      700 
      32            0    701.91846   0.09067297    941.98167    936.41594    227.35776 -2.0768028e-12 2.4632918e-06 -2.8255723e-11            0   -2294.5773   -2294.5773    25598.523    19.794577     28.28647    45.718285      700 
      33            0   -107.07605  0.093092918    94.678301    14.038135    -429.9446 -2.0929873e-13 2.4140835e-06 -2.1918733e-11            0   -2294.6147   -2294.6147    25655.539    19.810754    28.315108    45.736394      700 
      34            0   -22.246805  0.095511913    68.106519   -16.576632    -118.2703 -1.6428306e-13 2.4061901e-06 -1.2634408e-11            0   -2294.6269   -2294.6269    25647.618    19.819311    28.322519    45.690573      700 
      35            0    151.21173  0.097924948    61.137335    145.00313    247.49471 1.8553759e-12 2.4019907e-06 -3.0193987e-11            0   -2294.6327   -2294.6327    25633.593    19.831191    28.318472    45.644753      700 
      36            0   -297.11191   0.10271311   -461.42787   -319.16512   -110.74274 1.3545292e-12 2.3818188e-06 -1.0456883e-11            0   -2294.6373   -2294.6373    25664.932    19.844084    28.330263    45.651858      700 
      37            0   -926.57062   0.10513306   -1213.1683   -951.16094   -615.38268 3.3614016e-12 2.2971261e-06 -4.2901758e-12            0   -2294.6739   -2294.6739    25711.342    19.864334    28.344872     45.66424      700 
      38            0    80.864738   0.10755301   -154.37036    103.42442    293.54016 4.4936996e-12 2.2375897e-06 -1.0586207e-11            0   -2294.7516   -2294.7516    25642.826    19.845406    28.316234    45.632093      700 
      39            0   -45.262316    0.1099689   -56.934927    -50.37843    -28.47359 -9.4010733e-12 2.2185414e-06 -1.6418727e-11            0   -2294.7677   -2294.7677    25654.456    19.829986    28.322667    45.677914      700 
      40            0    396.16671   0.11475492    464.20744     410.5295    313.76317 3.5758386e-12 2.2147714e-06 -2.8724609e-11            0   -2294.7723   -2294.7723    25624.494    19.817052    28.310724    45.673604      700 
      41            0    709.86628   0.11717701     979.4676    751.60299    398.52824 -1.6628464e-12 2.1764433e-06 -2.2017845e-11            0   -2294.7948   -2294.7948    25606.325    19.796802    28.301647    45.702558      700 
      42            0   -230.39596     0.119596    31.820346   -217.85781   -505.15042 3.7445418e-12 2.1282653e-06 -1.9616246e-11            0   -2294.8277   -2294.8277    25673.938    19.811841    28.326438    45.748378      700 
      43            0   -209.91176   0.12201405   -167.20575   -216.19036   -246.33917 -7.2330766e-12 2.0929982e-06 -2.0112907e-11            0   -2294.8597   -2294.8597    25671.191    19.829613    28.326393    45.702558      700 
      44            0    68.115219   0.12680101    109.77364    70.844532    23.727486 6.1820091e-12 2.0970053e-06 -2.1851998e-11            0   -2294.8615   -2294.8615    25651.472    19.825481    28.318913    45.689034      700 
      45            0    37.232211   0.12922692   -164.65413    32.129821    244.22094 2.2532133e-12 2.0776239e-06 -1.2625947e-11            0   -2294.8742   -2294.8742    25651.816    19.845556    28.319047    45.643214      700 
      46            0   -190.49085   0.13164902   -221.33237   -196.66303   -153.47713 7.2020913e-13 2.0557142e-06 -2.7823437e-11            0   -2294.8903   -2294.8903    25670.494    19.835662    28.325368    45.689034      700 
      47            0    284.82943   0.13643694    358.12811    296.13841    200.22177 1.2436307e-12 2.0537693e-06 7.8393613e-12            0   -2294.8958   -2294.8958    25638.247    19.820259    28.312891    45.687226      700 
      48            0     672.2171    0.1412251    908.02165    698.50309    410.12657 -8.3299223e-12 2.0422045e-06 -1.3249466e-11            0   -2294.9006   -2294.9006    25613.479      19.8018    28.303038    45.701543      700 
      49            0    454.98085     0.143646    862.04701    474.84121    28.054333 6.3259194e-13 2.0031706e-06 4.8076554e-12            0   -2294.9259   -2294.9259    25632.052    19.791877    28.309378    45.747364      700 
      50            0   -147.94154    0.1460619    118.27245    -149.3089   -412.78817 -1.2215834e-12 1.9918304e-06 -8.7312253e-12            0    -2294.936    -2294.936    25673.233    19.812127    28.324975    45.748824      700 
      51            0   -8.7413461   0.14848208    58.569292   -6.6789514   -78.114379 -7.3654226e-12 1.9919562e-06 1.949556e-15            0   -2294.9429   -2294.9429    25661.226    19.825919    28.320396    45.703003      700 
      52            0    76.967424   0.15089798   -64.522921    71.452214    223.97298 4.608881e-12 1.9839252e-06 -3.8667363e-12            0   -2294.9496   -2294.9496    25653.262    19.841388    28.317927    45.657183      700 
      53            0    -584.5959   0.15568995   -682.73107   -603.96294    -467.0937 -5.6024164e-12 1.9533303e-06 9.7789245e-13            0   -2294.9596   -2294.9596    25701.712    19.848324     28.33521    45.699533      700 
      54            0   -805.02861   0.15811491   -746.18372   -817.97108   -850.93104 5.7789014e-13 1.9108349e-06 6.7855627e-12            0   -2294.9839   -2294.9839    25720.933    19.839562     28.34051    45.745354      700 
      55            0    103.90111   0.16053605    245.78789    122.20418    -56.28874 3.3355145e-12 1.9097856e-06 -1.4357163e-11            0   -2295.0091   -2295.0091    25657.579    19.819312    28.316178    45.718552      700 
      56            0    164.54512   0.16296005    108.83421    152.19593    232.60523 -8.9604409e-12 1.8907805e-06 -1.42393e-11            0   -2295.0261   -2295.0261    25651.735    19.834586    28.316306    45.672732      700 
      57            0    -217.5248   0.16774392   -289.11515   -235.64743   -127.81183 7.5205287e-12 1.8803337e-06 -2.0108788e-12            0   -2295.0293   -2295.0293    25678.937    19.841701    28.325903    45.689289      700 
      58            0    -745.6866   0.17016006   -759.28629   -735.86577   -741.90775 -4.1419793e-12 1.8488583e-06 8.2373818e-12            0   -2295.0371   -2295.0371     25718.69    19.845162    28.336387     45.73511      700 
      59            0   -493.86821   0.17258191   -304.00556   -389.79086   -787.80822 -2.456051e-12 1.7969132e-06 -1.3520714e-11            0   -2295.0833   -2295.0833    25706.034    19.825131    28.322685     45.78093      700 
      60            0    98.240073   0.17737103    267.37845    181.85764   -154.51587 -2.0228292e-12 1.8033126e-06 -5.0588059e-12            0   -2295.0914   -2295.0914    25663.257    19.818174    28.310197    45.740957      700 
      61            0    21.447492   0.17978907    31.586168   -6.1760513    38.932358 -5.1111861e-13 1.8012646e-06 -2.4433635e-11            0   -2295.0969   -2295.0969    25666.161    19.832805    28.320884    45.695137      700 
      62            0   -456.25999   0.18457294   -544.46144   -319.03609   -505.28243 -2.0659035e-12 1.7798224e-06 -2.1694474e-11            0   -2295.1031   -2295.1031    25701.289    19.846854    28.317538    45.730688      700 
      63            0   -282.09019   0.18699193   -466.08673    131.18794   -511.37179 1.018197e-11 1.7524498e-06 -2.1711222e-11            0   -2295.1258   -2295.1258    25691.575    19.850308      28.2889    45.751721      700 
      64            0    221.45319   0.19177604    156.18938    438.51264    69.657561 2.9276108e-12 1.7567966e-06 -9.1616756e-12            0   -2295.1331   -2295.1331    25655.288    19.834744    28.294376      45.7141      700 
      65            0    38.813331   0.19419098     75.52248   -20.242187      61.1597 -3.1909015e-12 1.7517021e-06 -1.8829654e-11            0   -2295.1378   -2295.1378    25667.164    19.831366    28.323013    45.696801      700 
      66            0   -248.79373   0.19898391   -295.44887   -198.98989   -251.94244 -4.458546e-12 1.744552e-06 -2.5349271e-12            0   -2295.1402   -2295.1402    25687.918    19.841613    28.320081    45.714865      700 
      67            0    -67.31169   0.20139599   -258.38465    255.22181   -198.77223 -1.5825375e-12 1.7331136e-06 -2.992771e-11            0   -2295.1497   -2295.1497    25676.391    19.848645    28.291443    45.724401      700 
      68            0    357.59316   0.20381689    371.33155    365.69351    335.75442 1.9411637e-12 1.7268672e-06 -8.008384e-12            0   -2295.1601   -2295.1601    25646.171    19.828395    28.309274    45.688431      700 
      69            0    74.088906   0.20623302    206.16467   -164.02682    180.12887 1.7975915e-13 1.7129974e-06 -2.1495513e-11            0   -2295.1679   -2295.1679    25665.971    19.825066    28.337912    45.685166      700 
      70            0   -227.65697   0.21102595   -228.62089   -252.09663   -202.25338 7.7801444e-12 1.7072283e-06 5.0331609e-12            0   -2295.1717   -2295.1717    25687.993    19.838726    28.325994    45.712106      700 
      71            0    17.009935   0.21580601   -86.574766    219.54313   -81.938563 -9.7611892e-12 1.7068854e-06 -2.1423732e-11            0   -2295.1749   -2295.1749    25671.532    19.841674         28.3     45.71798      700 
      72            0    533.63821    0.2182219    621.48837    413.96829    565.45797 -2.2004464e-12 1.6872557e-06 -1.3698039e-11            0   -2295.1916   -2295.1916     25635.41    19.821424    28.316153    45.674223      700 
      73            0    95.954234   0.22064209    254.44381   -229.86314    263.28203 1.0122604e-11 1.6601569e-06 -1.446965e-11            0   -2295.2113   -2295.2113    25666.524    19.824046    28.344791    45.677415      700 
      74            0   -185.86922   0.22543406    -180.1631   -231.54963   -145.89493 1.3377657e-12 1.6555783e-06 -7.53797e-12            0   -2295.2161   -2295.2161    25687.365    19.838501    28.326524    45.710652      700 
      75            0    43.918025   0.23021889    1.6355087    134.58634   -4.4677767 3.0054263e-12 1.6576341e-06 1.3292516e-11            0    -2295.218    -2295.218    25671.662    19.837937     28.30897    45.712336      700 
      76            0      134.441   0.23263907    385.51752    56.546703   -38.741216 3.2491605e-12 1.445158e-06 9.8011687e-12            0   -2295.3909   -2295.3909    25677.409    19.817687    28.321347    45.749287      700 
      77            0   -281.50352   0.23506093   -209.70391   -309.11897   -325.68768 1.833714e-13 1.4313274e-06 2.3997218e-12            0   -2295.3991   -2295.3991    25706.022    19.837937     28.32607    45.745884      700 
      78            0    -231.2402   0.23747396   -429.50278   -151.48517   -112.73264 -2.6844865e-12 1.4183341e-06 1.049636e-11            0   -2295.4093   -2295.4093    25701.067    19.858187    28.314162    45.709643      700 
      79            0    149.18033   0.24225903    7.5836769     214.7186    225.23872 -2.0117673e-12 1.4197554e-06 -1.9358173e-11            0   -2295.4126   -2295.4126    25674.504    19.848076    28.306532    45.697979      700 
      80            0    182.75135   0.24468112    304.32498    98.569562    145.35952 5.1139399e-13 1.413653e-06 -1.143102e-11            0   -2295.4188   -2295.4188    25674.079    19.827826    28.319885    45.722325      700 
      81            0   -133.86593      0.24947   -29.146279   -211.81603   -160.63547 -3.6475632e-12 1.4078012e-06 8.818009e-12            0   -2295.4211   -2295.4211    25696.671    19.833864    28.326865    45.737352      700 
      82            0   -285.20832   0.25188804   -425.53858   -112.26526   -317.82112 -2.6219571e-12 1.3947903e-06 -6.1530367e-12            0   -2295.4297   -2295.4297    25707.662    19.854114    28.307497    45.741521      700 
      83            0    245.18665   0.25667191    80.955737    459.44231    195.16189 1.0714449e-12 1.3931639e-06 -7.7433978e-12            0   -2295.4361   -2295.4361    25670.272    19.847875     28.29114    45.715768      700 
      84            0    671.44956     0.259094    636.62699     588.8701    788.85159 -4.6653466e-13 1.3673959e-06 -2.9687387e-12            0   -2295.4554   -2295.4554    25640.646    19.833842    28.306854    45.669947      700 
      85            0    94.034355   0.26151109    108.11384   -158.12754    332.11677 7.2486861e-12 1.3416619e-06 -5.6015526e-13            0   -2295.4797   -2295.4797    25681.859    19.840072    28.335492    45.682773      700 
      86            0   -172.59361    0.2662971   -205.26205   -205.99094   -106.52782 -5.5746081e-12 1.3387773e-06 3.9777692e-12            0   -2295.4836   -2295.4836    25702.288    19.846306    28.322724    45.725355      700 
      87            0    36.660112   0.27109003    8.9300246    121.17599   -20.125679 -2.2603853e-12 1.3395611e-06 9.7285718e-12            0   -2295.4852   -2295.4852    25688.466    19.841967    28.307518    45.735312      700 
      88            0     13.99174   0.27350593     262.3397    -49.87415   -170.49033 7.6163289e-12 1.3198276e-06 2.6675757e-13            0   -2295.5012   -2295.5012    25693.125    19.821717    28.322053    45.766841      700 
      89            0   -137.83278   0.27593398   -115.93356   -159.75785   -137.80691 2.7211005e-12 1.306761e-06 6.3925964e-12            0   -2295.5148   -2295.5148     25702.52    19.841967    28.320883    45.738741      700 
      90            0    198.03442      0.28072     175.2326    210.37579    208.49489 5.1394618e-12 1.3066867e-06 1.0395818e-11            0   -2295.5175   -2295.5175    25678.536    19.840333     28.30962    45.718005      700 
      91            0    498.25242   0.28551006    356.18927    571.79182    566.77617 -8.1526538e-12 1.301049e-06 3.756547e-12            0   -2295.5203   -2295.5203    25656.997    19.845055    28.296527     45.68992      700 
      92            0    292.65196   0.28792691   -67.154474     432.5525    512.55784 -3.5399064e-12 1.2793345e-06 2.8285905e-12            0   -2295.5362   -2295.5362    25671.039    19.865305    28.294481    45.671628      700 
      93            0   -178.44057   0.29270911   -414.96653   -119.20659   -1.1485935 6.0570448e-12 1.2746881e-06 3.6902346e-13            0    -2295.542    -2295.542    25705.315    19.863224    28.313301    45.706996      700 
      94            0   -30.232397   0.29513001    -32.88805   -55.238466    -2.570674 5.3988899e-12 1.2746444e-06 -8.6564379e-12            0   -2295.5467   -2295.5467    25696.615    19.842974    28.318161    45.730307      700 
      95            0    228.80722   0.29992008     235.4135     268.4893    182.51885 2.9383315e-12 1.2750033e-06 3.6270232e-12            0   -2295.5483   -2295.5483    25678.974    19.837973     28.30639    45.729439      700 
      96            0    96.696609   0.30233407    85.631373    372.27405   -167.81559 -8.8578636e-13 1.2560448e-06 3.1842007e-12            0   -2295.5632   -2295.5632      25691.5    19.839994    28.288968     45.77526      700 
      97            0   -290.36043   0.30475307   -279.98499   -238.90015   -352.19614 -1.2125497e-12 1.2466752e-06 -9.0598647e-12            0   -2295.5702   -2295.5702    25717.806    19.845796    28.317606    45.762406      700 
      98            0   -57.203169   0.30717707    1.4109813   -257.13607    84.115584 7.7462625e-12 1.2418441e-06 -7.1706028e-12            0   -2295.5768   -2295.5768    25699.888    19.840364    28.333995    45.716586      700 
      99            0    250.12832   0.31196499     253.3577    220.47644    276.55083 -1.8932254e-12 1.242646e-06 -7.1316323e-12            0   -2295.5799   -2295.5799     25678.98    19.839065     28.31155    45.718599      700 
     100            0    42.946875    0.3167491   -87.840931    315.95275   -99.271193 4.2967411e-12 1.2344661e-06 -1.4216108e-12            0   -2295.5846   -2295.5846    25695.342    19.850794    28.289717    45.755984      700 
     101            0   -419.49009   0.32153702   -458.31218   -342.77524   -457.38286 6.9084959e-12 1.2223225e-06 -4.6365954e-12            0   -2295.5906   -2295.5906    25728.309     19.85195    28.318072    45.766151      700 
     102            0   -146.46079   0.32395792     54.02612   -445.66401   -47.744469 1.4404169e-12 1.2104686e-06 3.0391023e-12            0   -2295.6048   -2295.6048     25709.11      19.8317    28.345233     45.73483      700 
     103            0    226.41857   0.32874703    334.68546    105.80247     238.7678 -5.1398504e-12 1.2124926e-06 -6.2076225e-12            0   -2295.6091   -2295.6091    25683.084    19.832315    28.320221    45.727463      700 
     104            0    38.146556   0.33353996   -53.620274    188.22198   -20.162035 -5.0985907e-12 1.207391e-06 1.4519194e-12            0    -2295.613    -2295.613    25696.859    19.849194    28.300351     45.74518      700 
     105            0   -255.42271   0.33832693   -304.01031   -230.61916   -231.63865 3.7323653e-12 1.2013391e-06 2.1940723e-12            0   -2295.6154   -2295.6154    25717.485    19.851104    28.318382    45.748346      700 
     106            0     10.98341   0.34313011    192.11837   -341.07046    181.90232 7.9988943e-13 1.1935949e-06 -1.7663324e-11            0   -2295.6227   -2295.6227    25698.487    19.831656    28.345738    45.715219      700 
     107            0    459.37433   0.34554601    603.99897    307.92291    466.20111 -2.8081966e-12 1.1746607e-06 -1.2051663e-11            0   -2295.6446   -2295.6446    25669.422    19.827026      28.3171     45.72037      700 
     108            0   -209.10957     0.347965    -207.3124   -166.20244   -253.81387 -2.3757704e-12 1.1533147e-06 -1.7305495e-11            0   -2295.6642   -2295.6642    25718.336    19.847276    28.315474    45.763382      700 
     109            0   -151.95957   0.35037708   -342.40221    192.98189   -306.45839 4.6441766e-12 1.125325e-06 4.4098712e-12            0   -2295.6883   -2295.6883    25716.831    19.860204    28.286837    45.777215      700 
     110            0    520.84281   0.35279799    473.27194    638.60534    450.65115 3.6180465e-12 1.1122127e-06 -1.5674665e-12            0   -2295.7053   -2295.7053    25669.708     19.84081    28.290921    45.731395      700 
     111            0    612.90804   0.35522389    730.86333    378.95586    728.90493 -3.8402567e-12 1.0883971e-06 -1.5365034e-11            0   -2295.7238   -2295.7238    25663.689    19.829264    28.319559    45.701032      700 
     112            0   -204.25331     0.360008   -116.10364   -481.05662   -15.599682 -7.5468657e-12 1.0725403e-06 -2.8790767e-12            0   -2295.7385   -2295.7385    25721.903    19.844234    28.342808    45.732599      700 
     113            0    -412.4747   0.36242199   -468.27029   -333.00159   -436.15223 -6.0468656e-15 1.0573012e-06 -9.7358856e-12            0   -2295.7519   -2295.7519    25739.394    19.856647     28.31598     45.77842      700 
     114            0    150.33509   0.36721301    94.936436    336.17015    19.898691 8.9478129e-12 1.0569243e-06 -4.3158003e-12            0   -2295.7593   -2295.7593    25700.362    19.847551    28.293307    45.766593      700 
     115            0     722.0887   0.36962891    838.92698    607.31202    720.02711 7.1674532e-12 1.0315202e-06 -1.2261873e-11            0   -2295.7773   -2295.7773    25661.158    19.828167    28.306107    45.720772      700 
     116            0     303.7831   0.37204909    479.61118    -25.41715    457.15526 -3.0026774e-12 1.0042811e-06 -1.6400594e-11            0    -2295.805    -2295.805    25691.462    19.831633    28.334745    45.720507      700 
     117            0   -128.65439    0.3768301   -44.084247   -331.77068   -10.108254 9.6424526e-13 1.0007126e-06 -6.7449626e-12            0   -2295.8099   -2295.8099     25722.47    19.844455    28.333794    45.747648      700 
     118            0     6.706782   0.38161612   -18.438396     54.63108   -16.072339 -8.1013542e-12 1.0011935e-06 -7.1481329e-12            0   -2295.8126   -2295.8126    25713.797    19.849448    28.308212    45.762036      700 
     119            0    160.22154   0.38403702    393.20497    137.25147   -49.791826 9.0516195e-13 9.2069241e-07 -4.8065245e-12            0   -2295.9004   -2295.9004    25712.676    19.829198    28.310917    45.802396      700 
     120            0   -337.92744   0.38645291   -263.56679   -359.32947   -390.88606 4.1874626e-12 9.0907448e-07 -9.8015469e-14            0    -2295.909    -2295.909    25747.309    19.849448    28.321864    45.799588      700 
     121            0    -473.0774   0.38887191   -624.75393    -466.8681   -327.61016 -6.6559699e-13 8.9660583e-07 -3.3776242e-12            0   -2295.9176   -2295.9176    25755.716    19.869698    28.321492    45.768453      700 
     122            0    190.74758   0.39365792   -26.132492    231.79779    366.57744 -6.0874721e-12 8.9380246e-07 -8.4138966e-12            0   -2295.9279   -2295.9279    25708.322    19.864868    28.302131    45.726602      700 
     123            0    622.82827   0.39607811    592.54311    614.82124    661.12047 7.1111029e-12 8.7163411e-07 -1.9363762e-11            0   -2295.9502   -2295.9502    25681.589    19.844618    28.296664    45.734498      700 
     124            0    -38.59559   0.39849401    16.947101   -99.244921   -33.488951 4.2640172e-12 8.5051143e-07 -1.9614414e-11            0    -2295.976    -2295.976     25730.89    19.848391    28.317225    45.780319      700 
     125            0    87.002182   0.40091801   -11.267418    311.92647   -39.652511 5.5287682e-12 8.3465343e-07 -8.7678926e-12            0   -2295.9923   -2295.9923    25724.363    19.857222    28.288587    45.794664      700 
     126            0   -382.37032   0.40334201   -642.22984   -31.087047   -473.79408 6.955627e-12 7.8734631e-07 -1.1870158e-11            0   -2296.0314   -2296.0314    25761.757    19.877472    28.287455    45.816346      700 
     127            0    267.13565   0.40576005   -134.86743    538.96587    397.30852 -2.2700725e-12 5.5710247e-07 -5.9575903e-12            0   -2296.2398   -2296.2398    25735.559    19.885875    28.275026    45.770525      700 
     128            0   -154.27081   0.40818095   -394.21745   -99.161498    30.566524 2.3475789e-12 4.9655019e-07 -1.8892791e-11            0   -2296.2901   -2296.2901    25771.455    19.882299    28.303663    45.796227      700 
     129            0    108.41668   0.41059589    89.254299    51.739805    184.25592 -2.1676725e-12 4.7603332e-07 -1.0822284e-11            0   -2296.3092   -2296.3092     25756.31    19.862049    28.307837    45.809222      700 
     130            0   -164.45782   0.41301703   -16.980911   -250.63648   -225.75606 2.077742e-12  4.57315e-07 -1.2577929e-11            0   -2296.3213   -2296.3213    25779.577    19.853361    28.317482    45.855043      700 
     131            0    -231.3802   0.41544294     92.62698   -302.24761   -484.51997 -7.679709e-12 4.3249747e-07 -9.265764e-12            0   -2296.3337   -2296.3337    25789.425    19.840616    28.318201    45.900863      700 
     132            0    324.58636   0.41785908    804.98863    372.50423   -203.73377 5.3193574e-12 3.8420936e-07 -9.4167236e-12            0   -2296.3579   -2296.3579    25757.917    19.820366    28.294588    45.929919      700 
     133            0    524.24638   0.42027998    980.62439    803.27244    -211.1577 -4.9633143e-12 2.4869183e-07 -9.2876837e-12            0   -2296.4258   -2296.4258    25759.981     19.82103    28.267709     45.97574      700 
     134            0   -56.606403   0.42269611    266.83132    160.10571   -596.75624 1.4879986e-12 2.2000648e-07 -7.3373392e-12            0   -2296.4549   -2296.4549    25802.247     19.84128    28.285674    45.974955      700 
     135            0   -2.9243454   0.42511702    207.98874    103.66349   -320.42526 -8.8104487e-12 2.1973282e-07 -6.2686581e-12            0   -2296.4647   -2296.4647    25795.693    19.850552    28.293479    45.929134      700 
     136            0   -47.249521   0.42754507    15.714309   -44.753144   -112.70973 1.9354935e-12 2.1913406e-07 -6.2485496e-12            0   -2296.4698   -2296.4698    25795.975    19.863993    28.302879    45.883314      700 
     137            0    60.089568    0.4323349    94.590966    64.523126    21.154612 -8.4971112e-13 2.1978127e-07 -3.4713782e-12            0   -2296.4701   -2296.4701    25787.897    19.864709    28.300017    45.871932      700 
     138            0   -6.1340005   0.43712807    -40.39896   -9.3099388    31.306897 2.1077916e-12 2.1988287e-07 -4.9311117e-12            0   -2296.4705   -2296.4705    25791.808    19.871299    28.301915    45.860597      700 
     139            0    514.42118   0.43955588    217.07772    668.75268    657.43315 -5.0041617e-13 5.301213e-07 -4.8813225e-12            0   -2296.5633   -2296.5633    25770.762    19.887542    28.273277    45.832126      700 
     140            0   -338.27101   0.44197607   -600.02309    -267.2641   -147.52585 1.3408244e-12 5.9571535e-07 9.7205464e-13            0   -2296.5868   -2296.5868    25836.052    19.898826     28.30054    45.877946      700 
     141            0    -532.9221   0.44439912   -538.17377   -604.20043    -456.3921 1.4876027e-12 6.9071398e-07 -5.2784099e-12            0   -2296.6088   -2296.6088    25857.692    19.883083    28.318388    45.923767      700 
     142            0    180.94277   0.44682002    301.00573    112.83377    128.98881 -8.1897884e-12 7.2890139e-07 -6.8259364e-12            0   -2296.6213   -2296.6213    25809.439    19.862833    28.301472    45.912228      700 
     143            0    731.74576   0.44924498    887.57829    838.75613    468.90286 -2.5939587e-13 8.567527e-07 -8.699357e-12            0   -2296.6327   -2296.6327    25779.422    19.852062    28.272834    45.930187      700 
     144            0    440.51485   0.45167589    553.39498    685.30392    82.845665 1.2306044e-12 1.0042126e-06 -1.0453892e-11            0   -2296.6595   -2296.6595     25810.26    19.860281    28.266741    45.976008      700 
     145            0   -92.532078   0.45647597   -23.051077    52.580141    -307.1253 2.2477865e-12 1.0002673e-06 -5.5103244e-12            0   -2296.6663   -2296.6663    25847.286     19.87232    28.287689    45.979994      700 
     146            0   0.11918762   0.46127391    33.584539    -27.68672   -5.5402566 3.2941169e-12 9.9918621e-07 -7.0448536e-12            0   -2296.6688   -2296.6688    25838.276    19.875273    28.300365    45.936551      700 
     147            0   0.36708554   0.46607804   -10.200294    7.1101248     4.191426 -2.3621806e-12 9.9705908e-07 -4.1162826e-12            0   -2296.6689   -2296.6689    25838.057    19.878581    28.297137    45.933757      700 
     148            0   -170.68156   0.46850395   -173.14832    -157.0985   -181.79786 7.7225052e-12 -1.1475612e-06 -6.8044692e-12            0   -2296.6945   -2296.6945    25866.766    19.880092    28.298198    45.979577      700 
     149            0    41.351176   0.47330403    51.159523    57.218373    15.675632 3.3792143e-12 -1.2336675e-06 -2.9234848e-12            0   -2296.6955   -2296.6955    25852.164    19.875975    28.292915    45.971721      700 
     150            0    118.15889   0.47810912    121.75205    83.915482    148.80914 3.5626269e-12 -1.4155775e-06 -3.2201493e-12            0    -2296.696    -2296.696    25847.463    19.875733    28.295187    45.960231      700 
     151            0   -12.718194   0.48291111   -27.573995    -79.61831    69.037723 -4.932737e-12 -1.5684199e-06 -3.2775636e-12            0   -2296.6966   -2296.6966    25857.685    19.879369    28.300857    45.960785      700 
     152            0    -43.04746   0.48771691   -67.738461   -14.212923   -47.190995 -7.2819796e-13 -1.7238589e-06 -2.3592281e-12            0   -2296.6972   -2296.6972    25862.146    19.879827    28.292978    45.980457      700 
     153            0    11.562947   0.49251509   -2.7309739    42.632474   -5.2126592 -4.7189069e-12 -1.7413869e-06 -5.9707543e-12            0   -2296.6972   -2296.6972    25858.498    19.878164    28.291511    45.980203      700 
     154            0    7.5164994   0.49731302    21.251959   -3.9418905    5.2394295 1.0700786e-12 -1.751437e-06 -7.5053825e-13            0   -2296.6973   -2296.6973    25858.887    19.876273    28.295418     45.97892      700 
     155            0    -20.54855   0.50212312   -12.646712   -32.470662   -16.528275 6.4320102e-12 -1.7492685e-06 -4.0548274e-12            0   -2296.6973   -2296.6973    25860.894    19.877161    28.296093    45.979338      700 
     156            0   -4.4655398   0.50692511    -42.73159    18.244371      11.0906 -3.6877576e-12 -1.7256857e-06 -2.3743863e-12            0   -2296.6974   -2296.6974    25859.747    19.880431    28.292445    45.975663      700 
     157            0     86.04303     0.511729      69.6509    99.008456    89.469734 -6.4759035e-13 -1.6670692e-06 -7.7336737e-12            0   -2296.6976   -2296.6976    25853.849    19.877431    28.291199     45.97414      700 
     158            0    7.6965516   0.51652908    99.899839   -68.902516   -7.9076687 5.6574084e-12 -1.3589334e-06 3.4553349e-12            0   -2296.6987   -2296.6987    25862.587    19.870521    28.301127    45.989531      700 
     159            0   -101.26955   0.52132607   -79.950807   -102.83122   -121.02661 -2.0466806e-12 -1.1479616e-06 4.0828335e-12            0   -2296.6994   -2296.6994    25872.066    19.877361    28.296665    45.997809      700 
     160            0   0.20340259   0.52613497   -16.742809    45.747225   -28.394208 5.9739568e-12 -1.0324384e-06 1.0266812e-11            0   -2296.6998   -2296.6998    25865.572    19.878678    28.289877    45.994247      700 
     161            0     23.82786   0.53093696    20.869966    21.365423    29.248191 -6.8993852e-12 -9.9396248e-07 1.513547e-11            0   -2296.6999   -2296.6999    25863.798    19.877592    28.293536    45.987659      700 
     162            0   -3.7852258   0.53574109    -5.269016   -14.174934    8.0882731 -1.9268308e-12 -9.8639596e-07 8.0020644e-12            0   -2296.6999   -2296.6999    25865.791    19.877938    28.294886    45.988206      700 
     163            0   -16.124658   0.54054594   -11.598281   -2.9042885   -33.871406 1.1612818e-12 -9.5402876e-07 1.2712856e-11            0      -2296.7      -2296.7    25867.134    19.877448    28.293145     45.99456      700 
     164            0     18.24107   0.54534793    26.952039    36.047082   -8.2759107 1.8761856e-12 -9.3365146e-07 1.6593389e-12            0      -2296.7      -2296.7    25864.796    19.876579    28.291947    45.994359      700 
     165            0    33.157641   0.55015111     49.70156   -32.590278     82.36164 -4.2627172e-12 -5.8078558e-07 3.8232064e-12            0   -2296.7005   -2296.7005    25863.923    19.876534    28.298886    45.981635      700 
     166            0    -64.30532   0.55495405   -69.361486   -117.18994   -6.3645313 -9.1567828e-12 -3.7446706e-07 4.3001514e-12            0   -2296.7007   -2296.7007    25871.449    19.879692    28.299969    45.985949      700 
     167            0   -9.5355832   0.55975699   -49.100702    27.911097    -7.417145 -5.2146276e-12 4.0563731e-08 8.6087125e-12            0   -2296.7012   -2296.7012    25869.098    19.881158    28.290602    45.993603      700 
     168            0    32.772024   0.56455708    24.166617    47.351921    26.797535 1.9035795e-12 1.0276941e-07 1.0751743e-11            0   -2296.7013   -2296.7013    25866.357    19.878222    28.291732    45.993684      700 
     169            0   0.45764293   0.56935501     9.176596   -5.4728198   -2.3308474 -2.1857497e-12 1.3493176e-07 6.4627023e-12            0   -2296.7014   -2296.7014    25868.815    19.877452    28.294367    45.995554      700 
     170            0     -14.0587   0.57415605   -17.385304   -12.225542   -12.565254 -5.1483033e-13 1.4450214e-07 9.4822464e-12            0   -2296.7014   -2296.7014    25869.814    19.878591     28.29398    45.995324      700 
     171            0    3.0918547   0.57895708   -9.2664016    12.768015    5.7739503 -3.8511027e-12 1.5459716e-07 1.1987798e-11            0   -2296.7014   -2296.7014    25868.544    19.879024    28.292848    45.993901      700 
     172            0    31.994573   0.58376098    45.207691    8.4087987     42.36723 -2.6217554e-12 2.2129151e-07 1.1161586e-11            0   -2296.7015   -2296.7015    25866.536    19.876832    28.295201    45.991578      700 
     173            0   -15.921446     0.588557    8.5077288   -56.800593   0.52852662 3.5930294e-12 2.8330798e-07 1.168304e-11            0   -2296.7015   -2296.7015    25870.097    19.876795    28.297921    45.993575      700 
     174            0   -24.321276   0.59335399   -20.156345    -4.051702   -48.755782  2.07724e-12 5.0643646e-07 1.3251322e-11            0   -2296.7018   -2296.7018    25871.438    19.878253    28.292765    46.000968      700 
     175            0    13.478079   0.59815407    16.621075    33.591162   -9.7780014 -8.1495351e-12 5.3654694e-07 1.2064754e-11            0   -2296.7018   -2296.7018    25868.713    19.877814    28.291887    45.998564      700 
     176            0    4.6185598   0.60295701     3.977508  -0.27244792    10.150619 -3.5880108e-12 5.7457952e-07 1.054561e-11            0   -2296.7019   -2296.7019      25869.1    19.878486    28.294271    45.993824      700 
     177            0   -5.1943909   0.60775995   -6.6002195   -8.7467167  -0.23623653 2.7189736e-12 5.7607882e-07 1.1657809e-11            0   -2296.7019   -2296.7019    25869.822    19.878682    28.294385    45.994469      700 
     178            0   -1.5656794   0.61255789   -2.6122472     4.733611   -6.8184021 -5.7658739e-12 5.7882173e-07 9.8679943e-12            0   -2296.7019   -2296.7019     25869.67    19.878526    28.293445    45.996085      700 
     179            0    13.076421   0.61735606    16.844724    14.818249    7.5662896 -3.756974e-12 5.796113e-07 1.6565905e-11            0   -2296.7019   -2296.7019    25868.617    19.877964    28.293522     45.99539      700 
     180            0  -0.73507998   0.62215805    13.178842   -19.638151    4.2540684 -8.9120754e-12 5.8095213e-07 1.7833175e-11            0   -2296.7019   -2296.7019    25869.535    19.877528    28.295713    45.994469      700 
     181            0    -34.25414   0.62695789   -45.035406   -35.257095    -22.46992 -5.3021722e-12 5.8173642e-07 1.9016102e-11            0    -2296.702    -2296.702    25871.806    19.879983    28.294889    45.994166      700 
     182            0     3.011943   0.63175797   -17.717383    16.626894    10.126318 -4.980844e-13 5.8217445e-07 1.6800786e-11            0    -2296.702    -2296.702    25869.087    19.880202    28.292721    45.992348      700 
     183            0    12.076298   0.63655591    15.855321    9.5649294    10.808644 4.6586223e-13 5.8079214e-07 2.1946129e-11            0   -2296.7021   -2296.7021    25868.568    19.878239    28.294053    45.993801      700 
     184            0   -1.3413397   0.64135408    3.7424814   -5.4951978   -2.2713026 1.8500565e-12 5.8024326e-07 2.3245391e-11            0   -2296.7021   -2296.7021    25869.544    19.878346    28.294525    45.994523      700 
     185            0   -3.5090397   0.64615202   -6.0222168  0.056093707    -4.560996 6.279846e-12 5.7806549e-07 2.1828406e-11            0   -2296.7021   -2296.7021    25869.676    19.878942    28.293871    45.994443      700 
     186            0    3.5959611    0.6509521   0.38580339    7.7618481    2.6402319 -7.3573627e-12 5.7681642e-07 2.461676e-11            0   -2296.7021   -2296.7021    25869.152    19.878893    28.293648    45.993988      700 
     187            0    3.5151515   0.65575004    4.8037658   -6.2733347    12.015023 3.3456368e-12 5.6452387e-07 2.5607551e-11            0   -2296.7021   -2296.7021    25869.047    19.878653    28.294896    45.992327      700 
     188            0   -17.700177   0.66054797   -15.885801   -27.805262   -9.4094697 2.3454611e-12 5.4649879e-07 2.5648593e-11            0   -2296.7021   -2296.7021    25870.564     19.87894    28.295443    45.993471      700 
     189            0   -5.7985878   0.66534495  -0.21540848    8.1193984   -25.299753 -4.0808267e-12 4.4226997e-07 1.9513601e-11            0   -2296.7022   -2296.7022    25869.805    19.878379    28.293157    45.997136      700 
     190            0    19.476377   0.67014599    24.506018    25.368363    8.5547502 -1.0465021e-12 4.0482855e-07 2.3656642e-11            0   -2296.7022   -2296.7022    25867.798    19.878163    28.293279    45.993868      700 
     191            0    1.1250846   0.67494702    1.8384394   -5.0518099    6.5886242 8.8186123e-13 3.7043504e-07 2.4267837e-11            0   -2296.7022   -2296.7022    25868.885    19.878915    28.294769    45.991637      700 
     192            0   -6.3881518   0.67974997   -8.5489679   -6.1943915   -4.4210959 -8.1652037e-12 3.638919e-07 2.3650835e-11            0   -2296.7022   -2296.7022    25869.449    19.879215    28.294383    45.992576      700 
     193            0   0.72923749   0.68454599   -1.8387844    5.3729774   -1.3464805 4.8803051e-12 3.594782e-07 2.053308e-11            0   -2296.7022   -2296.7022    25868.963    19.879113    28.293827     45.99285      700 
     194            0    6.4079104   0.68934298    12.481904     2.699286    4.0425416 -6.6978481e-12 3.4781705e-07 2.1017856e-11            0   -2296.7022   -2296.7022    25868.552    19.878401    28.294467    45.992727      700 
     195            0   -4.7927077   0.69414401    3.1897013   -12.300468   -5.2673563 -3.8931002e-12 3.3944072e-07 1.4488465e-11            0   -2296.7022   -2296.7022    25869.336    19.878444    28.295077    45.993028      700 
     196            0   -14.299011   0.69895101   -30.868665   -5.2102872   -6.8180815 1.8663788e-12 2.3807996e-07 2.2211648e-11            0   -2296.7023   -2296.7023    25869.656    19.880537     28.29379    45.990848      700 
     197            0    10.223407   0.70375204   -6.6029555    21.309954    15.963223 4.0570751e-13 2.0038569e-07 1.7185087e-11            0   -2296.7023   -2296.7023    25867.803    19.880216     28.29305      45.9895      700 
     198            0    6.6063087   0.70854902    14.535942   -2.2192134    7.5021972 6.9618792e-12 9.9548268e-08 1.1497372e-11            0   -2296.7023   -2296.7023    25867.969    19.878483    28.295037    45.990572      700 
     199            0   -6.2520751   0.71334505  -0.18459558   -12.774873   -5.7967571 -3.3237406e-12 8.8964937e-08 1.1833036e-11            0   -2296.7023   -2296.7023    25868.882    19.878812    28.295138    45.991272      700 
     200            0   -1.6870671   0.71814609   -3.2745894    3.3150389   -5.1016507 2.062002e-12 7.3447146e-08 9.192519e-12            0   -2296.7023   -2296.7023    25868.532    19.879291    28.293996    45.991396      700 
     201            0    7.0525702   0.72294497    5.6749424    9.5690909    5.9136773 2.1140583e-12 6.8574017e-08 1.4962904e-11            0   -2296.7023   -2296.7023    25867.857    19.879171    28.294009    45.990455      700 
     202            0   0.30117228   0.72774696  -0.45727045    -5.900718    7.2615053 -6.510551e-12 5.8571494e-08 9.1754331e-12            0   -2296.7023   -2296.7023    25868.237    19.879296    28.294936    45.989332      700 
     203            0   -20.998178   0.73254395      -21.196   -20.908163    -20.89037 9.1298748e-12 2.8568991e-08 7.0289722e-12            0   -2296.7023   -2296.7023    25869.767    19.879532    28.294911    45.991548      700 
     204            0  -0.20216572   0.73734307    4.1227852    15.133084   -19.862367 2.2154497e-12 -3.3820343e-08 9.2134558e-12            0   -2296.7024   -2296.7024     25868.27    19.878788    28.293139    45.993489      700 
     205            0    24.406063   0.74214697    31.813426    18.704332    22.700431 -5.299928e-12 -1.2833603e-07 6.8894551e-12            0   -2296.7024   -2296.7024     25865.98    19.878423    28.294446    45.988136      700 
     206            0   -1.7488636   0.74695206     2.436232   -15.331557     7.648734 4.3282934e-12 -1.6937304e-07 5.8831224e-12            0   -2296.7024   -2296.7024    25867.622    19.879162    28.295758    45.987216      700 
     207            0   -7.2052419    0.7517519   -12.633998      -3.6788   -5.3029282 8.0539268e-13 -1.9530279e-07 8.8938087e-12            0   -2296.7025   -2296.7025     25867.98    19.879911    28.294363    45.988386      700 
     208            0    2.8395945   0.75654912   -1.8401353    8.3187498    2.0401691 2.601482e-12 -1.9962113e-07 7.3757366e-12            0   -2296.7025   -2296.7025    25867.261    19.879692     28.29396     45.98827      700 
     209            0     2.998072   0.76134706    8.7306592  -0.57584044   0.83939719 1.0640163e-11 -2.071502e-07 5.0717739e-12            0   -2296.7025   -2296.7025    25867.254    19.878918    28.294799    45.988684      700 
     210            0   -7.1697058      0.76615    -2.084851   -11.449392   -7.9748746 -1.1715592e-12 -2.0941037e-07 6.2126804e-12            0   -2296.7025   -2296.7025    25867.962    19.879126      28.2951     45.98897      700 
     211            0   -5.6637548   0.77095103   -21.441625    5.2370651  -0.78670459 5.3082008e-12 -2.2864666e-07 8.5163937e-12            0   -2296.7025   -2296.7025    25867.555    19.880712    28.293657    45.986923      700 
     212            0    18.586277   0.77575207    6.4910775    26.853076    22.414676 -2.1778462e-12 -2.3877547e-07 7.6072035e-12            0   -2296.7025   -2296.7025    25865.704    19.880094    28.293336    45.985583      700 
     213            0    3.9624423      0.78055    15.232734   -12.729765    9.3843578 2.3505609e-12 -2.7156572e-07 1.1782246e-11            0   -2296.7026   -2296.7026    25866.461    19.878642    28.295997    45.985964      700 
     214            0   -15.252462   0.78534889   -9.6955353   -21.160887   -14.900965 2.8055719e-12 -2.8017495e-07 1.1734794e-11            0   -2296.7026   -2296.7026    25867.791    19.879314    28.295495     45.98759      700 
     215            0   -0.8454048   0.79015207  -0.99804849    5.7605024   -7.2986684 -7.2265396e-12 -2.8617188e-07 1.0516498e-11            0   -2296.7026   -2296.7026    25866.714    19.879481    28.294041    45.987652      700 
     216            0    7.4796168   0.79495192    7.0784064    7.7951945    7.5652496 4.0663827e-12 -2.8645058e-07 1.6185694e-11            0   -2296.7026   -2296.7026    25866.008    19.879434    28.294392    45.985936      700 
     217            0  -0.70470137    0.7997551   -1.6890066   -4.2793635    3.8542659 -3.7551268e-12 -2.8594639e-07 1.554185e-11            0   -2296.7026   -2296.7026    25866.539    19.879632    28.294923    45.985559      700 
     218            0   -12.004485   0.80455208   -12.533242   -6.6478634   -16.832348 1.655089e-12 -2.7633621e-07 1.3172914e-11            0   -2296.7026   -2296.7026      25867.4    19.879687    28.294417    45.987783      700 
     219            0      3.39341   0.80934906    5.2140101    14.264908   -9.2986883 1.9805172e-12 -2.6704391e-07 1.7324153e-11            0   -2296.7026   -2296.7026    25866.309    19.879227    28.293583    45.988265      700 
     220            0    14.357271     0.814152    24.773713   0.25714969    18.040949 8.9961351e-12 -2.1670704e-07 9.8406242e-12            0   -2296.7027   -2296.7027    25865.082     19.87856    28.295543    45.984442      700 
     221            0   -8.0380106   0.81895208   -1.1480119   -23.888645   0.92262522 -5.8581146e-13 -1.9940018e-07 1.6497598e-11            0   -2296.7027   -2296.7027    25866.555    19.879184    28.296212    45.984528      700 
     222            0   -4.4579557   0.82375407   -11.735258   0.43575347   -2.0743622 4.9973089e-12 -1.6925742e-07 9.7916438e-12            0   -2296.7027   -2296.7027    25866.167     19.88012    28.294254    45.984858      700 
     223            0    5.0070557   0.82855105   0.26671635    9.4050447    5.3494059 -3.8605833e-12 -1.6577651e-07 1.6839334e-11            0   -2296.7027   -2296.7027    25865.491    19.879778    28.294084    45.984721      700 
     224            0    1.0069632   0.83334899    4.3244338   -1.2025782  -0.10096608 -3.0387445e-12 -1.5900742e-07 2.0740828e-11            0   -2296.7027   -2296.7027    25865.795    19.879228    28.294793     45.98538      700 
     225            0   -5.6949045   0.83814907    -4.213789   -6.8681628   -6.0027617 8.709048e-12 -1.5574209e-07 1.8219137e-11            0   -2296.7027   -2296.7027    25866.262    19.879466    28.294853    45.985563      700 
     226            0  -0.59529757   0.84295106   -8.0274529    6.2452471 -0.0036868348 2.8195398e-13 -1.3942799e-07 1.5114947e-11            0   -2296.7027   -2296.7027    25865.818    19.880048     28.29399     45.98483      700 
     227            0    15.686484   0.84775591    13.085458    15.454899    18.519094 2.1891184e-12 -1.0837402e-07 7.0459695e-12            0   -2296.7027   -2296.7027    25864.557    19.879458    28.294239    45.983547      700 
     228            0  -0.52250248   0.85255504    5.3378599   -15.403122    8.4977547 -4.6604508e-12 -4.9514969e-08 1.0408111e-11            0   -2296.7027   -2296.7027    25865.575    19.879089    28.295935    45.983455      700 
     229            0   -12.934586   0.85735393    -10.88832    -12.08602   -15.829417 4.3624435e-12 2.0949654e-08 5.8638332e-12            0   -2296.7027   -2296.7027     25866.45    19.879419    28.294834    45.986038      700 
     230            0    0.6157206   0.86215496    1.9619516    5.7285786   -5.8433684 -8.1264898e-12 3.913879e-08 5.1720571e-12            0   -2296.7027   -2296.7027    25865.462    19.879236    28.294136    45.985838      700 
     231            0    3.6788212   0.86696196    3.7141035    2.4795558    4.8428042 -5.4862138e-12 5.1329313e-08 9.3202022e-12            0   -2296.7028   -2296.7028     25865.13    19.879342    28.294605     45.98424      700 
     232            0  -0.94883824   0.87176394   -1.4347128    -2.770018    1.3582161 -6.391764e-12 5.3252621e-08 1.0995824e-11            0   -2296.7028   -2296.7028     25865.45    19.879456    28.294767    45.984285      700 
     233            0   -2.9200051   0.87655997   -4.1218727    1.1125902   -5.7507328 3.8412207e-12 6.1900721e-08 7.5886352e-12            0   -2296.7028   -2296.7028    25865.632    19.879489    28.294299     45.98529      700 
     234            0    4.1934768   0.88135791    4.1773599    8.8719687  -0.46889807 1.5933404e-12 6.7870158e-08 1.0929769e-11            0   -2296.7028   -2296.7028    25865.127    19.879279    28.294079    45.985236      700 
     235            0     2.960477   0.88616204     11.94358   -6.7347608    3.6726119 2.6292068e-12 1.1617512e-07 1.1736548e-11            0   -2296.7028   -2296.7028     25865.11    19.878636    28.295398    45.984552      700 
     236            0   -12.820878   0.89096308   -8.9504076   -20.402622   -9.1096035 2.4184975e-12 1.5422468e-07 1.2476731e-11            0   -2296.7028   -2296.7028    25866.155    19.879233     28.29556    45.984764      700 
     237            0   -1.1054043   0.89576411   -7.3082662    2.5848394    1.4072139 6.8255163e-13 2.1822853e-07 1.5713731e-11            0   -2296.7028   -2296.7028    25865.185    19.879741    28.294244    45.984004      700 
     238            0    5.4563403    0.9005599      3.87225    6.6586769    5.8380941 1.3990836e-12 2.2697491e-07 1.0662156e-11            0   -2296.7028   -2296.7028    25864.729     19.87928    28.294325    45.984125      700 
     239            0  0.031434233   0.90535688    1.8530066   -1.4470534  -0.31165055 -4.776152e-12 2.3291363e-07 1.5681957e-11            0   -2296.7028   -2296.7028    25865.132    19.879096    28.294703    45.984653      700 
     240            0   -3.4188384   0.91015792   -4.1171171   -2.2494105   -3.8899875 -6.6019631e-13 2.3562855e-07 9.9593579e-12            0   -2296.7028   -2296.7028    25865.372    19.879327    28.294542    45.984807      700 
     241            0   0.96916025   0.91495705   -1.7602076    4.6510772  0.016611124 -2.2918042e-12 2.3869106e-07 7.8498161e-12            0   -2296.7028   -2296.7028    25865.045    19.879405    28.294209    45.984589      700 
     242            0    6.4616557   0.91975904     6.266086    1.4224353    11.696446 6.9847216e-12 2.5664026e-07 1.2976431e-11            0   -2296.7028   -2296.7028    25864.547    19.879156    28.294849    45.983238      700 
     243            0   -4.2221523   0.92455602    -3.793496   -12.167427     3.294466 -5.0580852e-12 2.6834494e-07 1.3527412e-11            0   -2296.7028   -2296.7028    25865.276    19.879261    28.295358    45.983463      700 
     244            0    -4.971343   0.92935205   -3.6351073   -1.6007935   -9.6781283 -3.8219209e-12 3.1685865e-07 1.9993843e-11            0   -2296.7028   -2296.7028     25865.35    19.879017    28.294391    45.985733      700 
     245            0    2.4219502   0.93415403    3.9564835    5.6137847   -2.3044177 -1.3814569e-12 3.2137736e-07 1.3988433e-11            0   -2296.7028   -2296.7028    25864.801    19.878886    28.294231    45.985319      700 
     246            0     1.011669   0.93895888    1.2828008  -0.56670057    2.3189068 -4.1366306e-12 3.2735059e-07 2.0705181e-11            0   -2296.7028   -2296.7028    25864.821    19.879035    28.294674     45.98429      700 
     247            0   -1.8931618   0.94376111   -2.2513172   -2.8273456  -0.60082254 2.2879372e-12 3.2772085e-07 8.6579918e-12            0   -2296.7028   -2296.7028    25865.029    19.879122    28.294684    45.984444      700 
     248            0  -0.30317361   0.94855905   -1.8994477    2.6293118   -1.6393849 4.1954986e-12 3.2836616e-07 1.5421284e-11            0   -2296.7028   -2296.7028    25864.932    19.879163    28.294304    45.984792      700 
     249            0     6.295296   0.95335603    7.9149264    7.0706017    3.9003598 5.053947e-12 3.2836184e-07 1.7254901e-11            0   -2296.7028   -2296.7028    25864.458    19.878809    28.294351    45.984691      700 
     250            0   -0.7215447   0.95815802    6.2106813   -6.4940762   -1.8812392 5.600587e-12 3.2789319e-07 9.3298344e-12            0   -2296.7028   -2296.7028     25864.94    19.878499    28.295116    45.985023      700 
     251            0   -10.959486    0.9629581   -13.463577   -10.475758    -8.939123 1.0263922e-12 3.2520925e-07 1.2638636e-11            0   -2296.7028   -2296.7028    25865.542    19.879288    28.294775    45.984822      700 
     252            0    0.5815841   0.96775699   -4.5510395    4.1832988     2.112493 -4.9937315e-12 3.2387685e-07 1.5316889e-11            0   -2296.7028   -2296.7028    25864.661    19.879275    28.294219     45.98419      700 
     253            0    3.1442767   0.97255492    3.9128495    1.9908031    3.5291774 1.7193201e-12 3.2263034e-07 1.8394898e-11            0   -2296.7028   -2296.7028    25864.486    19.878777    28.294602    45.984409      700 
     254            0   -0.5863798    0.9773519   0.72911456   -2.2628166  -0.22543733 -2.0412414e-12 3.2225167e-07 1.9303464e-11            0   -2296.7028   -2296.7028    25864.757    19.878788    28.294739    45.984643      700 
     255            0   -1.2659441   0.98215294   -1.8530469   0.56594936   -2.5107348 3.0590616e-12 3.2074959e-07 1.1030159e-11            0   -2296.7028   -2296.7028    25864.814     19.87892    28.294441     45.98492      700 
     256            0    2.2853394   0.98695111    1.4362934    4.5567356     0.862989 -7.154932e-12  3.19556e-07 1.2556055e-11            0   -2296.7028   -2296.7028    25864.553    19.878884    28.294318    45.984742      700 
     257            0    2.0954836    0.9917531    1.0318714   -2.3093022    7.5638816 -4.047282e-12 3.0590549e-07 1.6135614e-11            0   -2296.7028   -2296.7028     25864.47    19.878932    28.294908    45.983524      700 
     258            0   -8.0912674   0.99655199   -9.5025762   -12.014665   -2.7565612 9.0218862e-13 2.9297576e-07 9.6081584e-12            0   -2296.7028   -2296.7028    25865.191    19.879081    28.295111    45.984132      700 
     259            0      -2.1424    1.0013511   -1.9311822     2.736052   -7.2320698 -8.0076375e-13 2.462992e-07 1.0394455e-11            0   -2296.7029   -2296.7029    25864.796    19.878708    28.294228    45.985727      700 
     260            0    4.3986717     1.006151    5.5380736    6.4738516      1.18409 3.6905484e-12 2.3975122e-07 6.8441276e-12            0   -2296.7029   -2296.7029    25864.291    19.878548    28.294323    45.985044      700 
     261            0   0.19132747     1.010952    1.2819767   -1.7020676   0.99407331 -3.6483887e-12 2.3404645e-07 9.711127e-12            0   -2296.7029   -2296.7029    25864.547    19.878636    28.294771    45.984569      700 
     262            0   -2.0119795     1.015754   -2.7999687   -1.8946666   -1.3413033 -3.4171203e-13 2.3206699e-07 3.1828649e-12            0   -2296.7029   -2296.7029    25864.701    19.878802     28.29464    45.984671      700 
     263            0   0.51374504    1.0205519   -1.0386368     2.094144   0.48572793 -2.507625e-12 2.3058192e-07 6.8299899e-13            0   -2296.7029   -2296.7029    25864.521    19.878815    28.294449    45.984632      700 
     264            0    3.8912793    1.0253479    7.3953234    2.3194765    1.9590379 -2.631868e-12 2.192561e-07 6.1814296e-12            0   -2296.7029   -2296.7029    25864.302    19.878367    28.294672    45.984917      700 
     265            0   -2.3866972    1.0301471    2.5065928   -5.4714965    -4.195188 -1.367275e-12 2.1110703e-07 1.8008615e-12            0   -2296.7029   -2296.7029    25864.757    19.878348    28.294962    45.985296      700 
     266            0   -5.2649551    1.0349431    -9.835494   -1.3416894   -4.6176818 3.566675e-12 1.5499274e-07 1.3592092e-12            0   -2296.7029   -2296.7029    25864.882    19.879055    28.294396    45.984803      700 
     267            0    2.2646402     1.039753   -1.9393752    6.0203812    2.7129146 4.6026477e-12 1.4458713e-07 1.1754848e-12            0   -2296.7029   -2296.7029     25864.33    19.878907    28.294237    45.984422      700 
     268            0    1.1504259    1.0445521    1.8352257  -0.75472706    2.3707791 -1.1059559e-12 1.3195131e-07 6.9573567e-12            0   -2296.7029   -2296.7029     25864.41    19.878558    28.294784    45.984484      700 
     269            0   -1.5213297    1.0493491  -0.90857767    -2.894425  -0.76098636 -3.4906331e-12 1.3052082e-07 7.0272577e-12            0   -2296.7029   -2296.7029    25864.609    19.878597    28.294802    45.984718      700 
     270            0   -0.2516054    1.0541501  -0.14529182   0.81450326   -1.4240276 6.1517157e-12 1.2830823e-07 6.8111812e-12            0   -2296.7029   -2296.7029    25864.535    19.878599    28.294558     45.98498      700 
     271            0    2.9536379     1.058948     2.849767    3.3983191    2.6128276 6.4947802e-13 1.2637459e-07 2.7914445e-12            0   -2296.7029   -2296.7029    25864.293    19.878573    28.294535    45.984644      700 
     272            0   0.11221791     1.063751   -1.0427419   -2.1982927    3.5776883 2.5549123e-12 1.2074302e-07 8.4945247e-13            0   -2296.7029   -2296.7029    25864.459    19.878719     28.29484    45.984107      700 
     273            0   -7.9108864     1.068548   -9.3723702   -6.8732047   -7.4870844 5.2399363e-12 1.0322085e-07 8.5282747e-12            0   -2296.7029   -2296.7029    25865.086    19.878825    28.294746     45.98513      700 
     274            0  0.037074697     1.073344  -0.16341191    4.8234989   -4.5488629 -2.8454649e-13 8.3172101e-08 1.5197233e-11            0   -2296.7029   -2296.7029    25864.576    19.878567    28.294246    45.985633      700 
     275            0     3.302061    1.0781441     5.099036    2.2632292    2.5439177 6.120821e-13 7.1687001e-08 1.7387387e-11            0   -2296.7029   -2296.7029    25864.311    19.878397     28.29469    45.984833      700 
     276            0  -0.55175925    1.0829461   0.84948103   -2.5090159 0.0042571563 1.0732817e-12 6.9417222e-08 9.9014215e-12            0   -2296.7029   -2296.7029    25864.579    19.878492    28.294861    45.984812      700 
     277            0  -0.83556325    1.0877459   -1.8213491  -0.26962014  -0.41572054 6.8849879e-12 6.7672373e-08 1.7076429e-11            0   -2296.7029   -2296.7029    25864.597     19.87867    28.294637    45.984795      700 
     278            0   0.94580544    1.0925441  0.057001366    1.7396654    1.0407496 -8.6782731e-13 6.7447207e-08 1.5167098e-11            0   -2296.7029   -2296.7029    25864.472    19.878635    28.294576    45.984754      700 
     279            0   0.78197555    1.0973411     3.227112   -0.5401989  -0.34098645 8.3687816e-13 6.6531654e-08 1.3576382e-11            0   -2296.7029   -2296.7029    25864.514    19.878382    28.294781     45.98508      700 
     280            0    -3.580291    1.1021459   -1.5355956     -4.81766   -4.3876176 1.9406564e-12 6.6081329e-08 1.3805632e-11            0   -2296.7029   -2296.7029    25864.835    19.878479    28.294876    45.985274      700 
     281            0   -1.5484778    1.1069441   -6.4337897    3.2274689   -1.4391125 5.8052314e-12 6.2873043e-08 6.4127906e-12            0   -2296.7029   -2296.7029    25864.722    19.878977    28.294276    45.984896      700 
     282            0    5.2887847    1.1117451    2.5870357    7.4504218    5.8288965 1.1584024e-12 6.1825681e-08 1.3611228e-11            0   -2296.7029   -2296.7029    25864.252    19.878724    28.294354    45.984518      700 
     283            0   0.31846793     1.116539    1.0268761   -2.3375849    2.2661126 -1.9277763e-12 6.0793271e-08 1.3015176e-11            0   -2296.7029   -2296.7029    25864.639     19.87856     28.29491     45.98468      700 
     284            0   -2.2402569     1.121336   -1.8632977   -2.5850948   -2.2723783 -1.2456297e-12 6.0793461e-08 1.2648428e-11            0   -2296.7029   -2296.7029    25864.855    19.878608    28.294769    45.985185      700 
     285            0  0.084253016    1.1261361   0.35032398   0.92122083   -1.0187858 5.1806984e-12 6.0887579e-08 8.3738793e-12            0   -2296.7029   -2296.7029      25864.7    19.878574     28.29461    45.985245      700 
     286            0    1.7668368     1.130933    1.4629653    1.2160238    2.6215212 -2.3382684e-13 6.1802946e-08 1.5862508e-11            0   -2296.7029   -2296.7029    25864.563    19.878609    28.294688    45.984793      700 
     287            0  -0.64558688    1.1357369    -1.368252   -1.8296898    1.2611812 -2.3322356e-12 6.247632e-08 1.2472045e-11            0   -2296.7029   -2296.7029    25864.731    19.878685    28.294798    45.984739      700 
     288            0   -4.3946597     1.140533   -5.1033087  -0.94643659   -7.1342339 -4.4249921e-12 7.2553797e-08 1.6276621e-11            0   -2296.7029   -2296.7029    25865.117    19.878716    28.294481    45.985867      700 
     289            0    2.0990806      1.14533     2.411478    6.5665054   -2.6807417 -3.1054955e-12 7.8678221e-08 1.4428949e-11            0   -2296.7029   -2296.7029    25864.707     19.87854    28.294242    45.985935      700 
     290            0    1.9773345     1.150131    5.0713793   -1.4011365    2.2617608 2.9614955e-13 9.6142274e-08 1.9529322e-11            0   -2296.7029   -2296.7029    25864.778    19.878403    28.294936    45.985248      700 
     291            0   -2.5740351    1.1549251   -1.0251729   -5.2838951   -1.4130373 3.8253941e-14 9.9357775e-08  2.24628e-11            0   -2296.7029   -2296.7029    25865.116    19.878595    28.294978    45.985337      700 
     292            0   -0.3718473    1.1597259   -1.7135233   0.39075548   0.20722588 -8.0651771e-12 1.0351474e-07 2.2549851e-11            0   -2296.7029   -2296.7029    25864.979    19.878778    28.294608    45.985272      700 
     293            0    1.6120007    1.1645241    1.1845334    2.0650896    1.5863792 -2.9687945e-12 1.042793e-07 2.2004089e-11            0   -2296.7029   -2296.7029    25864.847    19.878678    28.294592    45.985296      700 
     294            0 -0.035266392     1.169322    1.2745088  -0.73388223  -0.64642573 3.1162074e-12 1.0574677e-07 1.8409908e-11            0   -2296.7029   -2296.7029    25864.987    19.878571    28.294739    45.985552      700 
     295            0   -3.8943373    1.1741259   -4.4546149    -3.376668    -3.851729 -2.6274705e-12 1.0961799e-07 2.1772159e-11            0   -2296.7029   -2296.7029    25865.278    19.878776    28.294713    45.985637      700 
     296            0   0.46514574    1.1789241   -3.7418639    4.0633132    1.0739879 -1.0743388e-11 1.1983434e-07 1.7766778e-11            0   -2296.7029   -2296.7029    25865.001    19.879001    28.294318    45.985267      700 
     297            0    5.9260275    1.1837299    6.1818501    3.2903161    8.3059165 2.845877e-12 1.4485828e-07 1.6663919e-11            0   -2296.7029   -2296.7029    25864.737    19.878643    28.294737    45.984945      700 
     298            0   -1.1652505    1.1885281   0.42737191   -5.7508548    1.8277314 -1.3797101e-13 1.5642815e-07 9.3645137e-12            0   -2296.7029   -2296.7029    25865.316    19.878669    28.295074    45.985365      700 
     299            0    -1.743794     1.193325   -1.2301763  -0.96921722   -3.0319885 4.4146161e-12 1.6882174e-07 1.2743868e-11            0   -2296.7029   -2296.7029    25865.471    19.878741    28.294608    45.986232      700 
     300            0   0.64782788    1.1981289     1.071787    1.6305606  -0.75886394 8.9100949e-13 1.6982402e-07 3.5353477e-12            0   -2296.7029   -2296.7029    25865.303    19.878714    28.294532    45.986122      700 
     301            0   0.47580368    1.2029271   0.19439012 -0.039185876    1.2722068 3.9272331e-12 1.7147576e-07 4.5980692e-12            0   -2296.7029   -2296.7029    25865.302    19.878789    28.294662    45.985735      700 
     302            0   -1.2502777     1.207741   -1.6601272   -1.6962724  -0.39443354 8.544709e-13 1.7187408e-07 2.2706017e-12            0   -2296.7029   -2296.7029     25865.43    19.878825    28.294696    45.985825      700 
     303            0  -0.86824286    1.2125371  -0.72692991    1.6085689   -3.4863676 1.8155325e-12 1.7558618e-07 -2.992577e-12            0   -2296.7029   -2296.7029    25865.476    19.878759    28.294429    45.986491      700 
     304            0    4.2906061    1.2173359    5.6730256    5.6006865    1.5981064 1.4304379e-12 1.7947325e-07 -3.0797613e-12            0   -2296.7029   -2296.7029    25865.144    19.878602    28.294407    45.986298      700 
     305            0   0.21570863    1.2221379    3.2374171   -4.1925927    1.6023015 7.5818988e-13 1.9088416e-07 -5.780768e-12            0   -2296.7029   -2296.7029    25865.519    19.878603    28.294991    45.986017      700 
     306            0   -3.6195559     1.226938   -4.5159161   -4.2412791   -2.1014724 1.0492451e-11 1.9837599e-07 -1.391393e-12            0   -2296.7029   -2296.7029    25865.866    19.878968     28.29472    45.986227      700 
     307            0   0.20390384     1.231739   -1.4421762    1.1692742   0.88461351 3.7780405e-13 2.0067747e-07 -1.016611e-12            0   -2296.7029   -2296.7029    25865.619    19.878967    28.294484    45.986174      700 
     308            0   0.99331246    1.2365389    1.4094941   0.88987513   0.68056817 -4.6531415e-12 2.0149391e-07 4.2037733e-12            0   -2296.7029   -2296.7029    25865.589    19.878799    28.294566    45.986378      700 
     309            0  -0.26822516    1.2413371    0.3128711  -0.56289052  -0.55465606 -4.1128532e-12 2.0157872e-07 7.6528769e-12            0   -2296.7029   -2296.7029    25865.683    19.878806    28.294613    45.986453      700 
     310            0   -0.9396392    1.2461381   -2.2036211  -0.14575818  -0.46953838 5.5561457e-12 2.0105673e-07 1.4944794e-11            0   -2296.7029   -2296.7029    25865.729     19.87896    28.294523    45.986324      700 
     311            0     1.159841     1.250932  -0.32079662    2.0974895    1.7028303 -7.8453554e-12 2.0063768e-07 3.0583261e-12            0   -2296.7029   -2296.7029    25865.581    19.878947    28.294458    45.986195      700 
     312            0    1.2578375    1.2557399    3.0715528   -1.9530729    2.6550325 9.0819054e-13 1.958118e-07 8.7910308e-12            0   -2296.7029   -2296.7029    25865.634    19.878724     28.29482    45.986219      700 
     313            0   -3.0859362    1.2605369   -1.5250446   -5.3884008   -2.3443632 -4.1265581e-12 1.9295118e-07 5.8565233e-12            0   -2296.7029   -2296.7029     25865.99    19.878808    28.294835    45.986633      700 
     314            0  -0.39015887    1.2653329   0.02643774   0.78118285   -1.9780972 -2.2483212e-12 1.8882663e-07 7.9933385e-13            0   -2296.7029   -2296.7029    25865.863    19.878845    28.294452    45.986941      700 
     315            0    1.3364641     1.270134     1.444275    1.7387412     0.826376 2.5878819e-12 1.8801209e-07 -6.6867585e-13            0   -2296.7029   -2296.7029    25865.732    19.878853    28.294475    45.986654      700 
     316            0  0.024077597    1.2749369  -0.14595676  -0.22305782   0.44124736 -3.124703e-13 1.8752489e-07 3.2693334e-12            0   -2296.7029   -2296.7029    25865.821    19.878901     28.29456    45.986562      700 
     317            0  -0.88979475     1.279737  -0.89976581  -0.68348135   -1.0861371 1.1677845e-11  1.86765e-07 -4.471063e-13            0   -2296.7029   -2296.7029    25865.897    19.878898    28.294543    45.986733      700 
     318            0   0.15734332    1.2845359   0.44188393    0.7805863  -0.75044028 4.2791652e-12 1.8589007e-07 -1.061625e-12            0   -2296.7029   -2296.7029    25865.831    19.878856    28.294482    45.986812      700 
     319            0    1.7386862    1.2893331    2.7040751   0.23424972     2.277734 5.6829418e-12 1.7916468e-07 5.0588584e-12            0   -2296.7029   -2296.7029    25865.719    19.878798    28.294628    45.986509      700 
     320            0  -0.92310636     1.294136  -0.25858307   -3.0517462   0.54101015 2.1331288e-12 1.7451685e-07 5.9968727e-12            0   -2296.7029   -2296.7029    25865.913    19.878868    28.294741    45.986508      700 
     321            0  -0.75611077     1.298938   -2.1266269   0.10022089  -0.24192631 5.4469315e-12 1.6246417e-07 5.8640582e-12            0   -2296.7029   -2296.7029    25865.932    19.879014    28.294458    45.986666      700 
     322            0   0.89764706    1.3037391  0.017050581    1.6875253   0.98836533 -3.4870311e-12 1.6079548e-07 6.4669963e-12            0   -2296.7029   -2296.7029    25865.821    19.878951    28.294426    45.986666      700 
     323            0   0.12932411     1.308537   0.50815354 -0.044677355 -0.075503841 -2.6385835e-12 1.5853355e-07 4.0756423e-12            0   -2296.7029   -2296.7029    25865.888    19.878868    28.294532    45.986805      700 
     324            0  -0.48612679    1.3133309  -0.31909342  -0.59554757  -0.54373938 -7.6814931e-12 1.5820748e-07 1.0788238e-11            0   -2296.7029   -2296.7029    25865.931    19.878893     28.29454    45.986809      700 
     325            0 -0.019784159    1.3181319  -0.52578387   0.27163342   0.19479798 9.5460055e-13 1.5725062e-07 8.6930542e-12            0   -2296.7029   -2296.7029    25865.893    19.878939     28.29449    45.986718      700 
     326            0    1.2236494    1.3229289    1.2272264    1.0576965    1.3860252 2.3334282e-12 1.5542856e-07 1.1914818e-11            0   -2296.7029   -2296.7029    25865.806    19.878883    28.294502    45.986672      700 
     327            0   -0.1097902     1.327733    1.0310622   -1.4984664   0.13803354 1.6031779e-12 1.5040495e-07 1.025099e-11            0   -2296.7029   -2296.7029    25865.908    19.878819    28.294644    45.986771      700 
     328            0   -1.7295419    1.3325291   -1.4445503   -1.2165078   -2.5275676 -2.4142102e-12 1.3962201e-07 1.279828e-11            0   -2296.7029   -2296.7029     25866.04    19.878898    28.294508    45.987044      700 
[...]
Histogram: 1 0 0 0 0 0 0 0 0 0

Total # of neighbors = 39800
Ave neighs/atom = 56.8571
Neighbor list builds = 0
Dangerous builds = 0

# Obtain new stress tensor

variable tmp equal pe
variable e1 equal ${tmp}
variable e1 equal -2296.70291884583
variable tmp equal press
variable p1 equal ${tmp}
variable p1 equal -2.63767761409316e-08
variable tmp equal pxx
variable pxx1 equal ${tmp}
variable pxx1 equal 8.05982325312486e-09
variable tmp equal pyy
variable pyy1 equal ${tmp}
variable pyy1 equal -5.21101383146161e-09
variable tmp equal pzz
variable pzz1 equal ${tmp}
variable pzz1 equal -8.1979137844458e-08
variable tmp equal pxy
variable pxy1 equal ${tmp}
variable pxy1 equal 7.46154648435712e-13
variable tmp equal pxz
variable pxz1 equal ${tmp}
variable pxz1 equal -0.0608677005758897
variable tmp equal pyz
variable pyz1 equal ${tmp}
variable pyz1 equal -3.10666387739683e-11

# Compute elastic constant from pressure tensor

variable C1pos equal ${d1}
variable C1pos equal 2.62230850460444e-07
variable C2pos equal ${d2}
variable C2pos equal 1.03667760072286e-06
variable C3pos equal ${d3}
variable C3pos equal 7.83939025822319e-06
variable C4pos equal ${d4}
variable C4pos equal -4.3988524344574e-09
variable C5pos equal ${d5}
variable C5pos equal 6.08677155331674
variable C6pos equal ${d6}
variable C6pos equal 3.10668536802611e-10

# Combine positive and negative

variable C1${dir} equal 0.5*(${C1neg}+${C1pos})
variable C15 equal 0.5*(${C1neg}+${C1pos})
variable C15 equal 0.5*(-2.63699777952664e-07+${C1pos})
variable C15 equal 0.5*(-2.63699777952664e-07+2.62230850460444e-07)
variable C2${dir} equal 0.5*(${C2neg}+${C2pos})
variable C25 equal 0.5*(${C2neg}+${C2pos})
variable C25 equal 0.5*(-1.03847304609098e-06+${C2pos})
variable C25 equal 0.5*(-1.03847304609098e-06+1.03667760072286e-06)
variable C3${dir} equal 0.5*(${C3neg}+${C3pos})
variable C35 equal 0.5*(${C3neg}+${C3pos})
variable C35 equal 0.5*(-7.84078628950091e-06+${C3pos})
variable C35 equal 0.5*(-7.84078628950091e-06+7.83939025822319e-06)
variable C4${dir} equal 0.5*(${C4neg}+${C4pos})
variable C45 equal 0.5*(${C4neg}+${C4pos})
variable C45 equal 0.5*(4.48569606735857e-09+${C4pos})
variable C45 equal 0.5*(4.48569606735857e-09+-4.3988524344574e-09)
variable C5${dir} equal 0.5*(${C5neg}+${C5pos})
variable C55 equal 0.5*(${C5neg}+${C5pos})
variable C55 equal 0.5*(6.08676866909849+${C5pos})
variable C55 equal 0.5*(6.08676866909849+6.08677155331674)
variable C6${dir} equal 0.5*(${C6neg}+${C6pos})
variable C65 equal 0.5*(${C6neg}+${C6pos})
variable C65 equal 0.5*(-5.5961598632678e-11+${C6pos})
variable C65 equal 0.5*(-5.5961598632678e-11+3.10668536802611e-10)

# Delete dir to make sure it is not reused

variable dir delete

# uxy Perturbation

variable dir equal 6
include /users/knc6/displace.mod
# NOTE: This script should not need to be
# modified. See in.elastic for more info.
#
# Find which reference length to use

if "${dir} == 1" then    "variable len0 equal ${lx0}"
if "${dir} == 2" then    "variable len0 equal ${ly0}"
if "${dir} == 3" then    "variable len0 equal ${lz0}"
if "${dir} == 4" then    "variable len0 equal ${lz0}"
if "${dir} == 5" then    "variable len0 equal ${lz0}"
if "${dir} == 6" then    "variable len0 equal ${ly0}"
variable len0 equal ${ly0}
variable len0 equal 28.2945533378165

# Reset box and simulation parameters

clear
box tilt large
read_restart restart.equil
  triclinic box = (0.185573 0.171636 -0.0828288) to (20.0644 28.4662 45.9033) with tilt (0 0 0)
  1 by 1 by 1 MPI processor grid
  700 atoms
include potential.mod
pair_style eam/alloy
pair_coeff * * /users/knc6/Software/jarvis/jarvis/lammps/examples/Al03.eam.alloy  Al
neighbor 1.0 nsq
neigh_modify once no every 1 delay 0 check yes
min_style  cg
min_modify           dmax ${dmax} line quadratic
min_modify           dmax 0.01 line quadratic
thermo          1
thermo_style custom step temp press cpu pxx pyy pzz pxy pxz pyz ke pe etotal vol lx ly lz atoms
thermo_modify norm no
# Negative deformation

variable delta equal -${up}*${len0}
variable delta equal -1e-06*${len0}
variable delta equal -1e-06*28.2945533378165
if "${dir} == 1" then    "change_box all x delta 0 ${delta} remap units box"
if "${dir} == 2" then    "change_box all y delta 0 ${delta} remap units box"
if "${dir} == 3" then    "change_box all z delta 0 ${delta} remap units box"
if "${dir} == 4" then    "change_box all yz delta ${delta} remap units box"
if "${dir} == 5" then    "change_box all xz delta ${delta} remap units box"
if "${dir} == 6" then    "change_box all xy delta ${delta} remap units box"
change_box all xy delta ${delta} remap units box
change_box all xy delta -2.82945533378165e-05 remap units box
  triclinic box = (0.185573 0.171636 -0.0828288) to (20.0644 28.4662 45.9033) with tilt (-2.82946e-05 0 0)

# Relax atoms positions

minimize ${etol} ${ftol} ${maxiter} ${maxeval}
minimize 0 ${ftol} ${maxiter} ${maxeval}
minimize 0 1e-10 ${maxiter} ${maxeval}
minimize 0 1e-10 1000 ${maxeval}
minimize 0 1e-10 1000 10000
Neighbor list info ...
  1 neighbor list requests
  update every 1 steps, delay 0 steps, check yes
  max neighbors/atom: 2000, page size: 100000
  master list distance cutoff = 7.72488
  ghost atom cutoff = 7.72488
Memory usage per processor = 3.34282 Mbytes
Step Temp Press CPU Pxx Pyy Pzz Pxy Pxz Pyz KinEng PotEng TotEng Volume Lx Ly Lz Atoms 
    1001            0 4.5084805e-07            0 4.1826976e-07 6.3929873e-07 2.9497567e-07   0.14765201 1.4741956e-08 -7.7637692e-11            0   -2296.7029   -2296.7029    25865.536    19.878853    28.294553    45.986177      700 
    1002            0 4.2488501e-07 0.0070381165 3.8846334e-07 6.2379798e-07 2.6239372e-07   0.14765201 1.4471618e-08 -7.4177808e-11            0   -2296.7029   -2296.7029    25865.536    19.878853    28.294553    45.986177      700 
Loop time of 0.007056 on 1 procs for 1 steps with 700 atoms

113.4% CPU use with 1 MPI tasks x no OpenMP threads

Minimization stats:
  Stopping criterion = force tolerance
  Energy initial, next-to-last, final = 
        -2296.70291884     -2296.70291884     -2296.70291884
  Force two-norm initial, final = 8.48865e-11 3.27479e-11
  Force max component initial, final = 5.34087e-12 1.73552e-12
  Final line search alpha, max atom move = 1 1.73552e-12
  Iterations, force evaluations = 1 2

MPI task timing breakdown:
Section |  min time  |  avg time  |  max time  |%varavg| %total
---------------------------------------------------------------
Pair    | 0.0069613  | 0.0069613  | 0.0069613  |   0.0 | 98.66
Neigh   | 0          | 0          | 0          |   0.0 |  0.00
Comm    | 2.4319e-05 | 2.4319e-05 | 2.4319e-05 |   0.0 |  0.34
Output  | 0          | 0          | 0          |   0.0 |  0.00
Modify  | 0          | 0          | 0          |   0.0 |  0.00
Other   |            | 7.033e-05  |            |       |  1.00

Nlocal:    700 ave 700 max 700 min
Histogram: 1 0 0 0 0 0 0 0 0 0
Nghost:    1085 ave 1085 max 1085 min
Histogram: 1 0 0 0 0 0 0 0 0 0
Neighs:    39800 ave 39800 max 39800 min
Histogram: 1 0 0 0 0 0 0 0 0 0

Total # of neighbors = 39800
Ave neighs/atom = 56.8571
Neighbor list builds = 0
Dangerous builds = 0

# Obtain new stress tensor

variable tmp equal pxx
variable pxx1 equal ${tmp}
variable pxx1 equal 3.88463344682725e-07
variable tmp equal pyy
variable pyy1 equal ${tmp}
variable pyy1 equal 6.23797978565358e-07
variable tmp equal pzz
variable pzz1 equal ${tmp}
variable pzz1 equal 2.62393720203097e-07
variable tmp equal pxy
variable pxy1 equal ${tmp}
variable pxy1 equal 0.147652008816062
variable tmp equal pxz
variable pxz1 equal ${tmp}
variable pxz1 equal 1.44716184736193e-08
variable tmp equal pyz
variable pyz1 equal ${tmp}
variable pyz1 equal -7.41778081783813e-11

# Compute elastic constant from pressure tensor

variable C1neg equal ${d1}
variable C1neg equal 3.77781212924996e-05
variable C2neg equal ${d2}
variable C2neg equal 6.18642216389591e-05
variable C3neg equal ${d3}
variable C3neg equal 2.65978955465323e-05
variable C4neg equal ${d4}
variable C4neg equal 8.77354940160998e-11
variable C5neg equal ${d5}
variable C5neg equal -4.85659209270498e-08
variable C6neg equal ${d6}
variable C6neg equal 14.7652008812209

# Reset box and simulation parameters

clear
box tilt large
read_restart restart.equil
  triclinic box = (0.185573 0.171636 -0.0828288) to (20.0644 28.4662 45.9033) with tilt (0 0 0)
  1 by 1 by 1 MPI processor grid
  700 atoms
include potential.mod
pair_style eam/alloy
pair_coeff * * /users/knc6/Software/jarvis/jarvis/lammps/examples/Al03.eam.alloy  Al
neighbor 1.0 nsq
neigh_modify once no every 1 delay 0 check yes
min_style  cg
min_modify           dmax ${dmax} line quadratic
min_modify           dmax 0.01 line quadratic
thermo          1
thermo_style custom step temp press cpu pxx pyy pzz pxy pxz pyz ke pe etotal vol lx ly lz atoms
thermo_modify norm no

# Positive deformation

variable delta equal ${up}*${len0}
variable delta equal 1e-06*${len0}
variable delta equal 1e-06*28.2945533378165
if "${dir} == 1" then    "change_box all x delta 0 ${delta} remap units box"
if "${dir} == 2" then    "change_box all y delta 0 ${delta} remap units box"
if "${dir} == 3" then    "change_box all z delta 0 ${delta} remap units box"
if "${dir} == 4" then    "change_box all yz delta ${delta} remap units box"
if "${dir} == 5" then    "change_box all xz delta ${delta} remap units box"
if "${dir} == 6" then    "change_box all xy delta ${delta} remap units box"
change_box all xy delta ${delta} remap units box
change_box all xy delta 2.82945533378165e-05 remap units box
  triclinic box = (0.185573 0.171636 -0.0828288) to (20.0644 28.4662 45.9033) with tilt (2.82946e-05 0 0)

# Relax atoms positions

minimize ${etol} ${ftol} ${maxiter} ${maxeval}
minimize 0 ${ftol} ${maxiter} ${maxeval}
minimize 0 1e-10 ${maxiter} ${maxeval}
minimize 0 1e-10 1000 ${maxeval}
minimize 0 1e-10 1000 10000
Neighbor list info ...
  1 neighbor list requests
  update every 1 steps, delay 0 steps, check yes
  max neighbors/atom: 2000, page size: 100000
  master list distance cutoff = 7.72488
  ghost atom cutoff = 7.72488
Memory usage per processor = 3.34282 Mbytes
Step Temp Press CPU Pxx Pyy Pzz Pxy Pxz Pyz KinEng PotEng TotEng Volume Lx Ly Lz Atoms 
    1001            0 4.5085181e-07            0 4.1826583e-07 6.3931354e-07 2.9497604e-07  -0.14765201 1.4726487e-08 -7.3964729e-11            0   -2296.7029   -2296.7029    25865.536    19.878853    28.294553    45.986177      700 
    1002            0 4.2489762e-07 0.0070359707 3.8847662e-07 6.238069e-07 2.6240934e-07  -0.14765201 1.4485392e-08 -7.3061692e-11            0   -2296.7029   -2296.7029    25865.536    19.878853    28.294553    45.986177      700 
Loop time of 0.00705314 on 1 procs for 1 steps with 700 atoms

113.4% CPU use with 1 MPI tasks x no OpenMP threads

Minimization stats:
  Stopping criterion = force tolerance
  Energy initial, next-to-last, final = 
        -2296.70291884     -2296.70291884     -2296.70291884
  Force two-norm initial, final = 8.48901e-11 3.2753e-11
  Force max component initial, final = 5.33868e-12 1.73755e-12
  Final line search alpha, max atom move = 1 1.73755e-12
  Iterations, force evaluations = 1 2

MPI task timing breakdown:
Section |  min time  |  avg time  |  max time  |%varavg| %total
---------------------------------------------------------------
Pair    | 0.006959   | 0.006959   | 0.006959   |   0.0 | 98.66
Neigh   | 0          | 0          | 0          |   0.0 |  0.00
Comm    | 2.408e-05  | 2.408e-05  | 2.408e-05  |   0.0 |  0.34
Output  | 0          | 0          | 0          |   0.0 |  0.00
Modify  | 0          | 0          | 0          |   0.0 |  0.00
Other   |            | 7.01e-05   |            |       |  0.99

Nlocal:    700 ave 700 max 700 min
Histogram: 1 0 0 0 0 0 0 0 0 0
Nghost:    1085 ave 1085 max 1085 min
Histogram: 1 0 0 0 0 0 0 0 0 0
Neighs:    39800 ave 39800 max 39800 min
Histogram: 1 0 0 0 0 0 0 0 0 0

Total # of neighbors = 39800
Ave neighs/atom = 56.8571
Neighbor list builds = 0
Dangerous builds = 0

# Obtain new stress tensor

variable tmp equal pe
variable e1 equal ${tmp}
variable e1 equal -2296.70291884488
variable tmp equal press
variable p1 equal ${tmp}
variable p1 equal 4.24897616696187e-07
variable tmp equal pxx
variable pxx1 equal ${tmp}
variable pxx1 equal 3.88476616005928e-07
variable tmp equal pyy
variable pyy1 equal ${tmp}
variable pyy1 equal 6.23806896209429e-07
variable tmp equal pzz
variable pzz1 equal ${tmp}
variable pzz1 equal 2.62409337873204e-07
variable tmp equal pxy
variable pxy1 equal ${tmp}
variable pxy1 equal -0.147652008812865
variable tmp equal pxz
variable pxz1 equal ${tmp}
variable pxz1 equal 1.44853922477343e-08
variable tmp equal pyz
variable pyz1 equal ${tmp}
variable pyz1 equal -7.30616923469727e-11

# Compute elastic constant from pressure tensor

variable C1pos equal ${d1}
variable C1pos equal -3.77794484248199e-05
variable C2pos equal ${d2}
variable C2pos equal -6.18651134033662e-05
variable C3pos equal ${d3}
variable C3pos equal -2.6599457313543e-05
variable C4pos equal ${d4}
variable C4pos equal -1.99347077156961e-10
variable C5pos equal ${d5}
variable C5pos equal 4.71885435155499e-08
variable C6pos equal ${d6}
variable C6pos equal 14.7652008816718

# Combine positive and negative

variable C1${dir} equal 0.5*(${C1neg}+${C1pos})
variable C16 equal 0.5*(${C1neg}+${C1pos})
variable C16 equal 0.5*(3.77781212924996e-05+${C1pos})
variable C16 equal 0.5*(3.77781212924996e-05+-3.77794484248199e-05)
variable C2${dir} equal 0.5*(${C2neg}+${C2pos})
variable C26 equal 0.5*(${C2neg}+${C2pos})
variable C26 equal 0.5*(6.18642216389591e-05+${C2pos})
variable C26 equal 0.5*(6.18642216389591e-05+-6.18651134033662e-05)
variable C3${dir} equal 0.5*(${C3neg}+${C3pos})
variable C36 equal 0.5*(${C3neg}+${C3pos})
variable C36 equal 0.5*(2.65978955465323e-05+${C3pos})
variable C36 equal 0.5*(2.65978955465323e-05+-2.6599457313543e-05)
variable C4${dir} equal 0.5*(${C4neg}+${C4pos})
variable C46 equal 0.5*(${C4neg}+${C4pos})
variable C46 equal 0.5*(8.77354940160998e-11+${C4pos})
variable C46 equal 0.5*(8.77354940160998e-11+-1.99347077156961e-10)
variable C5${dir} equal 0.5*(${C5neg}+${C5pos})
variable C56 equal 0.5*(${C5neg}+${C5pos})
variable C56 equal 0.5*(-4.85659209270498e-08+${C5pos})
variable C56 equal 0.5*(-4.85659209270498e-08+4.71885435155499e-08)
variable C6${dir} equal 0.5*(${C6neg}+${C6pos})
variable C66 equal 0.5*(${C6neg}+${C6pos})
variable C66 equal 0.5*(14.7652008812209+${C6pos})
variable C66 equal 0.5*(14.7652008812209+14.7652008816718)

# Delete dir to make sure it is not reused

variable dir delete

# Output final values

variable C11all equal ${C11}
variable C11all equal 38.1061030118237
variable C22all equal ${C22}
variable C22all equal 46.5912035154583
variable C33all equal ${C33}
variable C33all equal -1.86027905626855e-07

variable C12all equal 0.5*(${C12}+${C21})
variable C12all equal 0.5*(13.7028505018116+${C21})
variable C12all equal 0.5*(13.7028505018116+13.7028656782922)
variable C13all equal 0.5*(${C13}+${C31})
variable C13all equal 0.5*(-1.24476069560455e-07+${C31})
variable C13all equal 0.5*(-1.24476069560455e-07+8.0886204142295e-07)
variable C23all equal 0.5*(${C23}+${C32})
variable C23all equal 0.5*(-9.40007275839052e-08+${C32})
variable C23all equal 0.5*(-9.40007275839052e-08+-9.30955790399496e-10)

variable C44all equal ${C44}
variable C44all equal 10.7020615168171
variable C55all equal ${C55}
variable C55all equal 6.08677011120762
variable C66all equal ${C66}
variable C66all equal 14.7652008814464

variable C14all equal 0.5*(${C14}+${C41})
variable C14all equal 0.5*(6.91460996899112e-10+${C41})
variable C14all equal 0.5*(6.91460996899112e-10+-9.284794027595e-11)
variable C15all equal 0.5*(${C15}+${C51})
variable C15all equal 0.5*(-7.34463746110001e-10+${C51})
variable C15all equal 0.5*(-7.34463746110001e-10+-3.46625348685055e-08)
variable C16all equal 0.5*(${C16}+${C61})
variable C16all equal 0.5*(-6.63566160149392e-10+${C61})
variable C16all equal 0.5*(-6.63566160149392e-10+-6.93137195159829e-10)

variable C24all equal 0.5*(${C24}+${C42})
variable C24all equal 0.5*(1.57039012570103e-09+${C42})
variable C24all equal 0.5*(1.57039012570103e-09+-2.02520321206845e-10)
variable C25all equal 0.5*(${C25}+${C52})
variable C25all equal 0.5*(-8.97722684059953e-10+${C52})
variable C25all equal 0.5*(-8.97722684059953e-10+1.0536249436875e-09)
variable C26all equal 0.5*(${C26}+${C62})
variable C26all equal 0.5*(-4.45882203548183e-10+${C62})
variable C26all equal 0.5*(-4.45882203548183e-10+-3.04221517710358e-10)

variable C34all equal 0.5*(${C34}+${C43})
variable C34all equal 0.5*(7.45810798349515e-10+${C43})
variable C34all equal 0.5*(7.45810798349515e-10+-6.8934415984675e-11)
variable C35all equal 0.5*(${C35}+${C53})
variable C35all equal 0.5*(-6.98015638860147e-10+${C53})
variable C35all equal 0.5*(-6.98015638860147e-10+8.70222345420848e-09)
variable C36all equal 0.5*(${C36}+${C63})
variable C36all equal 0.5*(-7.8088350534945e-10+${C63})
variable C36all equal 0.5*(-7.8088350534945e-10+1.39946547125194e-10)

variable C45all equal 0.5*(${C45}+${C54})
variable C45all equal 0.5*(4.3421816450585e-11+${C54})
variable C45all equal 0.5*(4.3421816450585e-11+-5.40145476205e-10)
variable C46all equal 0.5*(${C46}+${C64})
variable C46all equal 0.5*(-5.58057915704306e-11+${C64})
variable C46all equal 0.5*(-5.58057915704306e-11+3.21628757732976e-10)
variable C56all equal 0.5*(${C56}+${C65})
variable C56all equal 0.5*(-6.8868870574995e-10+${C65})
variable C56all equal 0.5*(-6.8868870574995e-10+1.27353469084966e-10)

# For Stillinger-Weber silicon, the analytical results
# are known to be (E. R. Cowley, 1988):
#               C11 = 151.4 GPa
#               C12 = 76.4 GPa
#               C44 = 56.4 GPa

print "Elastic Constant C11all = ${C11all} ${cunits}"
Elastic Constant C11all = 38.1061030118237 GPa
print "Elastic Constant C22all = ${C22all} ${cunits}"
Elastic Constant C22all = 46.5912035154583 GPa
print "Elastic Constant C33all = ${C33all} ${cunits}"
Elastic Constant C33all = -1.86027905626855e-07 GPa

print "Elastic Constant C12all = ${C12all} ${cunits}"
Elastic Constant C12all = 13.7028580900519 GPa
print "Elastic Constant C13all = ${C13all} ${cunits}"
Elastic Constant C13all = 3.42192985931248e-07 GPa
print "Elastic Constant C23all = ${C23all} ${cunits}"
Elastic Constant C23all = -4.74658416871524e-08 GPa

print "Elastic Constant C44all = ${C44all} ${cunits}"
Elastic Constant C44all = 10.7020615168171 GPa
print "Elastic Constant C55all = ${C55all} ${cunits}"
Elastic Constant C55all = 6.08677011120762 GPa
print "Elastic Constant C66all = ${C66all} ${cunits}"
Elastic Constant C66all = 14.7652008814464 GPa

print "Elastic Constant C14all = ${C14all} ${cunits}"
Elastic Constant C14all = 2.99306528311581e-10 GPa
print "Elastic Constant C15all = ${C15all} ${cunits}"
Elastic Constant C15all = -1.76984993073077e-08 GPa
print "Elastic Constant C16all = ${C16all} ${cunits}"
Elastic Constant C16all = -6.78351677654611e-10 GPa

print "Elastic Constant C24all = ${C24all} ${cunits}"
Elastic Constant C24all = 6.83934902247093e-10 GPa
print "Elastic Constant C25all = ${C25all} ${cunits}"
Elastic Constant C25all = 7.79511298137735e-11 GPa
print "Elastic Constant C26all = ${C26all} ${cunits}"
Elastic Constant C26all = -3.7505186062927e-10 GPa

print "Elastic Constant C34all = ${C34all} ${cunits}"
Elastic Constant C34all = 3.3843819118242e-10 GPa
print "Elastic Constant C35all = ${C35all} ${cunits}"
Elastic Constant C35all = 4.00210390767417e-09 GPa
print "Elastic Constant C36all = ${C36all} ${cunits}"
Elastic Constant C36all = -3.20468479112128e-10 GPa

print "Elastic Constant C45all = ${C45all} ${cunits}"
Elastic Constant C45all = -2.48361829877207e-10 GPa
print "Elastic Constant C46all = ${C46all} ${cunits}"
Elastic Constant C46all = 1.32911483081273e-10 GPa
print "Elastic Constant C56all = ${C56all} ${cunits}"
Elastic Constant C56all = -2.80667618332492e-10 GPa

Total wall time: 0:00:05
