 running on   16 total cores
 distrk:  each k-point on   16 cores,    1 groups
 distr:  one band on    4 cores,    4 groups
 using from now: INCAR     
 vasp.5.3.3 18Dez12 (build Jan 30 2013 10:57:47) complex                        
  
 POSCAR found type information on POSCAR  Si
 POSCAR found :  1 types and       2 ions

 ----------------------------------------------------------------------------- 
|                                                                             |
|  ADVICE TO THIS USER RUNNING 'VASP/VAMP'   (HEAR YOUR MASTER'S VOICE ...):  |
|                                                                             |
|      You have switched on vdW-DFT.                                          |
|      This routine was written and supplied by Jiri Klimes.                  |
|      We recommed that you carefully read and cite the following             |
|      publication                                                            |
|      J. Klimes, D.R. Bowler, A. Michelides                                  |
|        J. Phys.: Cond Matt. 22 022201 (2010)                                |
|      J. Klimes, D.R. Bowler, A. Michelides                                  |
|        Phys. Rev. B. 83, 195131 (2011)                                      |
|      and references therein.                                                |
|                                                                             |
 ----------------------------------------------------------------------------- 


 ----------------------------------------------------------------------------- 
|                                                                             |
|  ADVICE TO THIS USER RUNNING 'VASP/VAMP'   (HEAR YOUR MASTER'S VOICE ...):  |
|                                                                             |
|      You enforced a specific xc-type in the INCAR file,                     |
|      a different type was found on the POTCAR file                          |
|          I HOPE YOU KNOW, WHAT YOU ARE  DOING                               |
|                                                                             |
 ----------------------------------------------------------------------------- 

 LDA part: xc-table for Pade appr. of Perdew
 POSCAR, INCAR and KPOINTS ok, starting setup
 FFT: planning ...
 WAVECAR not read
 entering main loop
       N       E                     dE             d eps       ncg     rms          rms(c)
Total vdW correction in eV:      1.0792472
DAV:   1     0.140911479042E+02    0.14091E+02   -0.37919E+03    64   0.105E+03
DAV:   2    -0.757843854121E+01   -0.21670E+02   -0.21669E+02    96   0.913E+01
DAV:   3    -0.787347438097E+01   -0.29504E+00   -0.29503E+00    72   0.140E+01
DAV:   4    -0.787535757641E+01   -0.18832E-02   -0.18832E-02   112   0.130E+00
DAV:   5    -0.787536077435E+01   -0.31979E-05   -0.31977E-05    64   0.199E-02    0.400E+00
Total vdW correction in eV:      1.1365140
DAV:   6    -0.778937558045E+01    0.85985E-01   -0.11291E-01    96   0.198E+00    0.246E+00
Total vdW correction in eV:      1.2496553
DAV:   7    -0.776748352692E+01    0.21892E-01   -0.26649E-01    80   0.303E+00    0.214E-01
Total vdW correction in eV:      1.2454567
DAV:   8    -0.774908042557E+01    0.18403E-01   -0.74169E-03    64   0.620E-01    0.103E-01
Total vdW correction in eV:      1.2527221
DAV:   9    -0.775062136860E+01   -0.15409E-02   -0.85259E-04    96   0.202E-01    0.803E-02
Total vdW correction in eV:      1.2527561
DAV:  10    -0.774991503266E+01    0.70634E-03   -0.51686E-05    80   0.608E-02    0.329E-02
Total vdW correction in eV:      1.2525619
DAV:  11    -0.774978702357E+01    0.12801E-03   -0.16669E-06    96   0.113E-02    0.124E-03
Total vdW correction in eV:      1.2525935
DAV:  12    -0.774979191993E+01   -0.48964E-05   -0.61795E-08    72   0.268E-03    0.611E-04
Total vdW correction in eV:      1.2525889
DAV:  13    -0.774978758255E+01    0.43374E-05   -0.41597E-09    64   0.572E-04    0.172E-05
Total vdW correction in eV:      1.2525892
DAV:  14    -0.774978768352E+01   -0.10097E-06   -0.16528E-10    64   0.126E-04    0.748E-06
Total vdW correction in eV:      1.2525889
DAV:  15    -0.774978752107E+01    0.16246E-06   -0.86692E-12    40   0.296E-05    0.196E-06
Total vdW correction in eV:      1.2525891
DAV:  16    -0.774978753322E+01   -0.12152E-07   -0.79450E-13    56   0.906E-06
Total vdW correction in eV:      1.2525890
Total vdW correction in eV:      1.2525890
   1 F= -.77497875E+01 E0= -.77493983E+01  d E =-.774979E+01
 curvature:   0.00 expect dE= 0.000E+00 dE for cont linesearch  0.000E+00
 trial: gam= 0.00000 g(F)=  0.685E-44 g(S)=  0.000E+00 ort = 0.000E+00 (trialstep = 0.100E+01)
 search vector abs. value=  0.100E-09
 reached required accuracy - stopping structural energy minimisation
