ITEM: TIMESTEP
0
ITEM: NUMBER OF ATOMS
288
ITEM: BOX BOUNDS xy xz yz pp pp pp
0 16.2 0
0 17.1827 0
0 17.1827 0
ITEM: ATOMS id fx fy fz 
1        -0.03330430444509318438        -0.03532503425394339924        -0.00000000245311805071 
2        -0.00027114894742284561         0.00002597144416891482        -0.00000000245336849100 
3         0.00004502537211476150        -0.00000514788503987867        -0.00000000245335502434 
4        -0.00023467542602064601         0.00002507049781856965        -0.00000000245334044518 
5        -0.00018872804316052635         0.01054432475768859664        -0.00000000245335940365 
6        -0.00106298398517657919        -0.00074305989683517287        -0.00000000245336456272 
7         0.00002524883225053093        -0.00000000278310537116        -0.00000000245335608686 
8        -0.00013694935680007292         0.00013340034823911689        -0.00000000245335239754 
9        -0.00006239656021626849         0.00016888129541313412        -0.00000000245335113856 
10         0.00002150125177600298         0.00003214623508878550        -0.00000000245335292706 
11         0.00000489511795684350         0.00000259931630613053        -0.00000000245335570782 
12        -0.00001013387127039855         0.00000223297151772522        -0.00000000245335443714 
13        -0.00000449634207723079         0.00002606336828930855        -0.00000000245335474505 
14         0.00000228342971632725         0.00001252308502497704        -0.00000000245335470342 
15         0.00000000034931383133         0.00000000133584642664        -0.00000000245335550660 
16         0.00000221822052370174         0.00001242024774887607        -0.00000000245335439551 
17        -0.00006180427109507558         0.00018384269189590172        -0.00000000245335775480 
18        -0.00001016116949006073         0.00000231977299126190        -0.00000000245335598711 
19         0.00000483118183583833         0.00000255955162888066        -0.00000000245335524986 
20         0.00002143844720613880         0.00003202481715185168        -0.00000000245335669575 
21        -0.00013773513015918198         0.01035892387214983057        -0.00000000245335041497 
22        -0.00013391551904261972         0.00013219432884299664        -0.00000000245335664284 
23         0.00002507636580618977        -0.00000000851571120564        -0.00000000245335497057 
24        -0.00107949268269644238        -0.00075602650030867462        -0.00000000245334393209 
25        -0.00016288408446206437        -0.00017198160090289025        -0.00002547795038867345 
26        -0.00059947416106793765         0.00002408840454220379        -0.00043918412883744984 
27         0.00002516261871928199        -0.00000176845794518099         0.00000000608111520167 
28        -0.00060733417735490871         0.00002188134965425137         0.00044324717508899270 
29         0.00002436813176582772        -0.00012824686785751702        -0.00015409295969502981 
30         0.00013006566012846790         0.00007039403922681070         0.00013662493599698577 
31         0.00001311691533573134         0.00000001466710985304         0.00000243283329527579 
32        -0.00003567483201153201        -0.00008802498520880248        -0.00002220082729656458 
33        -0.00001394207074435425         0.00021391117257179779         0.00011482376764392066 
34         0.00001546656451691455         0.00002405852911405463         0.00001600231834329724 
35         0.00000167367054675072         0.00000089042364416047         0.00000044855694204121 
36        -0.00000749922452078153         0.00000233190799786565         0.00000257463440514819 
37        -0.00000227251319607352         0.00001512429309617758         0.00000003701525854577 
38         0.00000115260670448258         0.00000581325856594634         0.00000083193680752713 
39         0.00000000034931348439         0.00000000133584587662         0.00000000243178586989 
40         0.00000112521465203685         0.00000576252478439246        -0.00000080996011369086 
41        -0.00001338993783621401         0.00020873945153859069        -0.00011192639996151707 
42        -0.00000751892776117841         0.00000238602380746994        -0.00000258327878080488 
43         0.00000164445048821474         0.00000087003118931506        -0.00000043747308560329 
44         0.00001541265696704611         0.00002393206849876303        -0.00001584569474246539 
45         0.00002373127557527260        -0.00011443473758870198         0.00013960620702770793 
46        -0.00003647681610507991        -0.00008762454195154062         0.00002169654265363891 
47         0.00001301557529458791        -0.00000000697991838633        -0.00000239537044442739 
48         0.00014439535188537356         0.00008077888332894828        -0.00014627605125730470 
49        -0.00006210895162602620        -0.00006891563778313784        -0.00000030157819361221 
50         0.00000563180470506373        -0.00000519911317267002         0.00001489032657933653 
51         0.00000486316007538776        -0.00000017054954942752         0.00000001334104846734 
52         0.00000569069386255686        -0.00000515868078785828        -0.00001491896318888200 
53        -0.00001379759496055247         0.00004200293621267268         0.00011388642356592940 
54         0.00001103731649208795         0.00000635908397853685         0.00002010122382584134 
55         0.00000166855047960962         0.00000001061360600102         0.00000045278899420999 
56        -0.00000309423137915404        -0.00000697467788112610        -0.00000157775843353386 
57        -0.00000244147723568039         0.00001065022754542441         0.00001324019022756751 
58         0.00000362356283942753         0.00000521634794908464         0.00000643469165205511 
59         0.00000014840957346211         0.00000007978651194612         0.00000008011676576997 
60        -0.00000132483770107911         0.00000052873785319485         0.00000173720381078241 
61        -0.00000002423470653670         0.00000025362837324100         0.00000000408574159921 
62         0.00000001538492617049         0.00000007019193280994         0.00000002249097727936 
63         0.00000000034931366133         0.00000000133584686618         0.00000000143529491525 
64         0.00000001415794181198         0.00000006860081597920        -0.00000001853625116593 
65        -0.00000240900076183340         0.00001065671520993419        -0.00001321049905015845 
66        -0.00000133010105069962         0.00000053950402013891        -0.00000174077868534870 
67         0.00000014510004530018         0.00000007660148805544        -0.00000007517342205795 
68         0.00000359965924097427         0.00000516535389386702        -0.00000635665511082920 
69        -0.00001352904281792106         0.00004176605085615820        -0.00011285879234874258 
70        -0.00000312971429166156        -0.00000698499478295894         0.00000155561339407889 
71         0.00000164957493413095         0.00000000323202157398        -0.00000043336557076917 
72         0.00001104786820813053         0.00000637168602882210        -0.00002003812140160405 
73        -0.00000449647732098796        -0.00000251334158148141         0.00000000000722074830 
74         0.00000224866575719573        -0.00000120949965718570         0.00000000000722474164 
75         0.00000000034931386776        -0.00000000243178840953         0.00000000000722167465 
76         0.00000225311972618797        -0.00000119952035165100         0.00000000000721852439 
77        -0.00000228005996648351         0.00000115172510447431         0.00000000000722364182 
78         0.00000201336846423691         0.00000140155652814111         0.00000000000722470608 
79         0.00000000034931354337         0.00000000245335282645         0.00000000000722123229 
80         0.00000027199966250863        -0.00000024481815033561         0.00000000000722101198 
81        -0.00000002484262818722         0.00000010383613466974         0.00000000000722180649 
82         0.00000003723775852797         0.00000004646162762465         0.00000000000722110392 
83         0.00000000034931343495         0.00000000110504130434         0.00000000000722138994 
84        -0.00000000708696888674         0.00000000487965245988         0.00000000000722127913 
85         0.00000000021490285940         0.00000000254706709890         0.00000000000722160526 
86         0.00000000255058192036         0.00000000166308493929         0.00000000000722172886 
87         0.00000000034931394756         0.00000000133584634500         0.00000000000722068087 
88         0.00000000254267669073         0.00000000164987754708         0.00000000000722109525 
89        -0.00000002362752453758         0.00000010102737613496         0.00000000000722168852 
90        -0.00000000688936115881         0.00000000369631618369         0.00000000000722057613 
91         0.00000000034931375197        -0.00000000000722896049         0.00000000000722114317 
92         0.00000003582504603042         0.00000004417036654145         0.00000000000722135546 
93        -0.00000226510240941384         0.00000115522582766828         0.00000000000721823296 
94         0.00000026433568354328        -0.00000024285797263490         0.00000000000722168852 
95         0.00000000034931360235        -0.00000000143529762381         0.00000000000722219506 
96         0.00000200607488809457         0.00000139465853208481         0.00000000000721896501 
97        -0.00006210895158995783        -0.00006891563775078069         0.00000030167763604219 
98         0.00000563180470411657        -0.00000519911316994304        -0.00001489022713171279 
99         0.00000486316007364089        -0.00000017054954882384        -0.00000001324160740779 
100         0.00000569069386119597        -0.00000515868078490578         0.00001491906262227061 
101        -0.00001379759492411980         0.00004200293603633803        -0.00011388632371648472 
102         0.00001103731649095344         0.00000635908397701029        -0.00002010112438010411 
103         0.00000166855047852715         0.00000001061360623694        -0.00000045268955237588 
104        -0.00000309423138252288        -0.00000697467787618908         0.00000157785786988884 
105        -0.00000244147723336627         0.00001065022754467501        -0.00001324009078600835 
106         0.00000362356283956284         0.00000521634794535650        -0.00000643459220893428 
107         0.00000014840957278514         0.00000007978651236928        -0.00000008001732560575 
108        -0.00000132483770051012         0.00000052873785401017        -0.00000173710437020858 
109        -0.00000002423470565199         0.00000025362837272058        -0.00000000398630128559 
110         0.00000001538492629995         0.00000007019193256816        -0.00000002239153718692 
111         0.00000000034931361276         0.00000000133584700127        -0.00000000133585479484 
112         0.00000001415793961235         0.00000006860081525409         0.00000001863569169813 
113        -0.00000240900076209014         0.00001065671520864009         0.00001321059849078432 
114        -0.00000133010104999901         0.00000053950402126302         0.00000174087812543290 
115         0.00000014510004521040         0.00000007660148820809         0.00000007527286249105 
116         0.00000359965924042957         0.00000516535389010267         0.00000635675454827012 
117        -0.00001352904278382593         0.00004176605067778005         0.00011285889137867613 
118        -0.00000312971429243525        -0.00000698499477946174        -0.00000155551395107645 
119         0.00000164957493282297         0.00000000323202161562         0.00000043346501085034 
120         0.00001104786820738807         0.00000637168602540122         0.00002003822083521817 
121        -0.00016288408094829177        -0.00017198159718980963         0.00002547927704206563 
122        -0.00059947416155428992         0.00002408840442819082         0.00043918545600001718 
123         0.00002516261870122698        -0.00000176845794321034        -0.00000000475437272884 
124        -0.00060733417781311250         0.00002188134953956533        -0.00044324584874799386 
125         0.00002436813172584928        -0.00012824686578596575         0.00015409428437122982 
126         0.00013006566093528085         0.00007039403980005354        -0.00013662360985772573 
127         0.00001311691532543055         0.00000001466711058856        -0.00000243150655164764 
128        -0.00003567483188449518        -0.00008802498526298136         0.00002220215412364790 
129        -0.00001394207072474146         0.00021391117216037689        -0.00011482244072390680 
130         0.00001546656451704639         0.00002405852911050495        -0.00001600099160253832 
131         0.00000167367054472456         0.00000089042364139489        -0.00000044723019986849 
132        -0.00000749922451861659         0.00000233190799934016        -0.00000257330766199187 
133        -0.00000227251319614985         0.00001512429309304467        -0.00000003568851625574 
134         0.00000115260670626241         0.00000581325856422680        -0.00000083061006494849 
135         0.00000000034931373766         0.00000000133584775793        -0.00000000110504378217 
136         0.00000112521465186338         0.00000576252478304631         0.00000081128685618798 
137        -0.00001338993781861697         0.00020873945112658693         0.00011192772652617814 
138        -0.00000751892775936736         0.00000238602380561725         0.00000258460552270785 
139         0.00000164445048617123         0.00000087003118823953         0.00000043879982698910 
140         0.00001541265696473199         0.00002393206849316334         0.00001584702148636069 
141         0.00002373127554291740        -0.00011443473553726170        -0.00013960487824364999 
142        -0.00003647681597200580        -0.00008762454201054898        -0.00002169521600195456 
143         0.00001301557528357589        -0.00000000697991846439         0.00000239669718594092 
144         0.00014439535265674611         0.00008077888388027116         0.00014627737858069739 
145         0.00110923201614155503        -0.00106388607154566175        -0.00089561780826204196 
146         0.00869386365617376422         0.00607907848174726352         0.00628389579228596108 
147         0.00029089536486515133         0.00005659992358380411         0.00007147536476694721 
148         0.00016515514829982744        -0.00005650787006776514        -0.00004221563663607888 
149         0.00021634659417107613        -0.00038857923115843615        -0.00013786252647740235 
150        -0.00048111967363621833        -0.00104539886371991320        -0.00035673136779324854 
151         0.00002894917159695920         0.00001705051069791127         0.00000779060916883054 
152         0.00000082898168888082        -0.00000942092150243642        -0.00000073832493836107 
153        -0.00000933595298635223         0.00001809733565089414         0.00000310176124750441 
154         0.00000397810900745754         0.00003074063583279507         0.00000799273578328691 
155         0.00000668533486298042         0.00000804010327474982         0.00000161695137513435 
156        -0.00000133314835851911         0.00000046145957478816         0.00000001468166588650 
157         0.00000401247767322591         0.00003058392882010139        -0.00000790597341064278 
158        -0.00000928398637460928         0.00001813869269891408        -0.00000309185762659668 
159        -0.00000133593585786851         0.00000046916023514840        -0.00000001688438498043 
160         0.00000660178708771983         0.00000793419740547502        -0.00000160071266562881 
161        -0.00049022146902705926        -0.00106108077750706117         0.00036074784103181518 
162         0.00021688108707534556        -0.00039384766564056547         0.00013916746375858854 
163         0.00000078973575785152        -0.00000939723398809406         0.00000072414560472979 
164         0.00002875563416991633         0.00001700961082492375        -0.00000772537700421787 
165         0.00850986364177418880         0.00597002450034313237        -0.00611173887554297343 
166         0.00107041812059884174        -0.00105144382751595680         0.00087416298723465443 
167         0.00016792846964233752        -0.00005768076962009427         0.00004296096789849560 
168         0.00028170280007525084         0.00005501517702619085        -0.00006915946275199911 
169        -0.00001845978582331459         0.00004996020567420850         0.00008367654460457452 
170        -0.00024922739238712570        -0.00016874536274963771        -0.00057710098798911379 
171         0.00001934891421620510         0.00000180709270790336         0.00001675616676086872 
172         0.00001034252485060741        -0.00000664643742682644        -0.00000971544611610975 
173        -0.00004764229281561949         0.00005635096178874602         0.00007096041074683423 
174         0.00007327442375699815         0.00017147337842483390         0.00018628716475985066 
175         0.00001065236320287738         0.00000653356604240042         0.00000894396547969790 
176         0.00000051363059406714        -0.00000300735159083909        -0.00000062634979229245 
177        -0.00000309988828567712         0.00000732834874869054         0.00000492744029534017 
178         0.00000225269130807275         0.00001242063756667910         0.00000886656394104128 
179         0.00000105273675295517         0.00000126673003231280         0.00000074394397820993 
180        -0.00000021119724969917         0.00000007207083316252         0.00000013835435436205 
181         0.00000226209565518457         0.00001233756710217887        -0.00000878409501342201 
182        -0.00000309134637050366         0.00000733607064765454        -0.00000491750404328574 
183        -0.00000020962169377386         0.00000007190353706389        -0.00000014175440598077 
184         0.00000103321493500133         0.00000124071944677950        -0.00000073524066569047 
185         0.00007146008523964409         0.00016696433114881531        -0.00018114153802907540 
186        -0.00004722958958471891         0.00005617853001185682        -0.00007055242578547327 
187         0.00000050350458391177        -0.00000300427425270824         0.00000061677529001399 
188         0.00001055559441507856         0.00000649095485103293        -0.00000884894771644926 
189        -0.00025353120981656471        -0.00017243515230158657         0.00058236228187966144 
190        -0.00001703008007179936         0.00004941685769359935        -0.00008121219790062210 
191         0.00001031519944117917        -0.00000667603799171801         0.00000969694023798817 
192         0.00001931733524977025         0.00000184902396220196        -0.00001670970349913412 
193        -0.00000522040919025829        -0.00000560212167141291        -0.00000076613740534678 
194        -0.00000010469519694765        -0.00000076467983714512         0.00001178203400886908 
195         0.00000350985693788400         0.00000057619179227864         0.00000458750361460175 
196         0.00000180958997486602        -0.00000101262296570842        -0.00000294828749470080 
197        -0.00000248606334400658         0.00000113404906403741         0.00000433473694192582 
198         0.00000164143361906094         0.00000505113617606798         0.00000940800639599552 
199         0.00000074083187103988         0.00000051694065420242         0.00000103830052305791 
200         0.00000009814038049588        -0.00000008672640749649        -0.00000015443611375496 
201        -0.00000002956312710259         0.00000005782419294775         0.00000006922099310414 
202         0.00000002217376320404         0.00000010900688950121         0.00000012044387932700 
203         0.00000000533150869980         0.00000000568700613945         0.00000000436026808453 
204        -0.00000000359961977586        -0.00000000070668445401        -0.00000000203342231941 
205         0.00000002368824706875         0.00000010456928712516        -0.00000012148323907946 
206        -0.00000003082224174673         0.00000005556891613480        -0.00000007252357873153 
207        -0.00000000144476406880        -0.00000000206832854077        -0.00000000281679851492 
208         0.00000000292128379473         0.00000000407412653960        -0.00000000895925223940 
209         0.00000165992679841687         0.00000504603004630386        -0.00000938667722517883 
210        -0.00000249176919918555         0.00000115718779644257        -0.00000436598323776821 
211         0.00000009850797114130        -0.00000008164561629553         0.00000014760784871302 
212         0.00000072767695545595         0.00000051378055409418        -0.00000102314797039565 
213        -0.00000006311664499728        -0.00000074137084581788        -0.00001180849341096690 
214        -0.00000524130034446763        -0.00000560923986520729         0.00000073221331519746 
215         0.00000180975553747478        -0.00000101612543530749         0.00000294888798075404 
216         0.00000348900398015883         0.00000058118145206121        -0.00000455913389008772 
217        -0.00000522040918660843        -0.00000560212166713162         0.00000076615897721607 
218        -0.00000010469519336719        -0.00000076467983743656        -0.00001178201242718504 
219         0.00000350985693514660         0.00000057619179251456        -0.00000458748203550907 
220         0.00000180958997490765        -0.00000101262296514637         0.00000294830906992158 
221        -0.00000248606334293452         0.00000113404906479028        -0.00000433471536678137 
222         0.00000164143361914768         0.00000505113617138390        -0.00000940798481457235 
223         0.00000074083187026966         0.00000051694065270795        -0.00000103827894493494 
224         0.00000009814038095038        -0.00000008672640866222         0.00000015445769134537 
225        -0.00000002956312794566         0.00000005782419242040        -0.00000006919941664130 
226         0.00000002217376322139         0.00000010900688890067        -0.00000012042230195560 
227         0.00000000533150876225         0.00000000568700602908        -0.00000000433869197253 
228        -0.00000000359961993893        -0.00000000070668466912         0.00000000205499953512 
229         0.00000002368824666282         0.00000010456928792660         0.00000012150481450493 
230        -0.00000003082224107713         0.00000005556891454254         0.00000007254515520781 
231        -0.00000000144476396471        -0.00000000206832773109         0.00000000283837581693 
232         0.00000000292128365595         0.00000000407412636613         0.00000000898082962511 
233         0.00000165992679885402         0.00000504603004153684         0.00000938669879638893 
234        -0.00000249176919927922         0.00000115718779631225         0.00000436600481520358 
235         0.00000009850797115171        -0.00000008164561578032        -0.00000014758627166732 
236         0.00000072767695387041         0.00000051378055381662         0.00000102316954652890 
237        -0.00000006311664513953        -0.00000074137084675810         0.00001180851498135127 
238        -0.00000524130034125492        -0.00000560923986092947        -0.00000073219173529608 
239         0.00000180975553635415        -0.00000101612543484952        -0.00000294886640328507 
240         0.00000348900397574570         0.00000058118145212366         0.00000455915546245661 
241        -0.00001845978601798526         0.00004996020552265265        -0.00008367687494967996 
242        -0.00024922739278883735        -0.00016874536309719097         0.00057710065841323776 
243         0.00001934891420532492         0.00000180709270712620        -0.00001675649699785231 
244         0.00001034252484112888        -0.00000664643742146961         0.00000971511585853846 
245        -0.00004764229269306822         0.00005635096161542286        -0.00007096074080628623 
246         0.00007327442353758165         0.00017147337792637835        -0.00018628749451838342 
247         0.00001065236319688218         0.00000653356603757789        -0.00000894429572258996 
248         0.00000051363059216936        -0.00000300735158927090         0.00000062601954292640 
249        -0.00000309988828526772         0.00000732834874754215        -0.00000492777054360988 
250         0.00000225269130757141         0.00001242063756375219        -0.00000886689418811229 
251         0.00000105273675257353         0.00000126673003106163        -0.00000074427422630009 
252        -0.00000021119724986918         0.00000007207083273578        -0.00000013868460219807 
253         0.00000226209565682908         0.00001233756710023598         0.00000878376476209572 
254        -0.00000309134636984967         0.00000733607064682784         0.00000491717379343321 
255        -0.00000020962169351366         0.00000007190353625724         0.00000014142415828179 
256         0.00000103321493304456         0.00000124071944561030         0.00000073491041801058 
257         0.00007146008501845297         0.00016696433065064090         0.00018114120729038896 
258        -0.00004722958946201845         0.00005617852983644017         0.00007055209534547889 
259         0.00000050350458327339        -0.00000300427425161190        -0.00000061710553759782 
260         0.00001055559440685250         0.00000649095484570733         0.00000884861746204904 
261        -0.00025353121019909899        -0.00017243515263656861        -0.00058236261276055704 
262        -0.00001703008026571889         0.00004941685754252835         0.00008121186774892196 
263         0.00001031519943378058        -0.00000667603798690242        -0.00000969727047910041 
264         0.00001931733523749882         0.00000184902396089398         0.00001670937324026525 
265         0.00110923201545598538        -0.00106388606797728352         0.00089561913580190602 
266         0.00869386364149575888         0.00607907847200633410        -0.00628389445640594249 
267         0.00029089536459143278         0.00005659992352557985        -0.00007147403612926123 
268         0.00016515514813561505        -0.00005650787001844695         0.00004221696525107815 
269         0.00021634659417453517        -0.00038857923133656450         0.00013786385523810885 
270        -0.00048111967384960146        -0.00104539886412055561         0.00035673269677388058 
271         0.00002894917159657583         0.00001705051069513484        -0.00000778928055124653 
272         0.00000082898168410686        -0.00000942092149723225         0.00000073965356210356 
273        -0.00000933595298523854         0.00001809733564971452        -0.00000310043262573604 
274         0.00000397810900647222         0.00003074063582922068        -0.00000799140716279583 
275         0.00000668533486164729         0.00000804010327205037        -0.00000161562275305047 
276        -0.00000133314835835605         0.00000046145957530164        -0.00000001335304354241 
277         0.00000401247767352342         0.00003058392881557723         0.00000790730203585090 
278        -0.00000928398637227781         0.00001813869269778347         0.00000309318625076049 
279        -0.00000133593585824928         0.00000046916023524663         0.00000001821300727942 
280         0.00000660178708446896         0.00000793419740330661         0.00000160204128875352 
281        -0.00049022146922261117        -0.00106108077787095412        -0.00036074651275439548 
282         0.00021688108707502984        -0.00039384766581306756        -0.00013916613527113568 
283         0.00000078973575641864        -0.00000939723398477033        -0.00000072281698365508 
284         0.00002875563416715118         0.00001700961082291494         0.00000772670563254328 
285         0.00850986362705380764         0.00597002449053162139         0.00611174019684019871 
286         0.00107041812009660287        -0.00105144382404677309        -0.00087416165762629547 
287         0.00016792846948161713        -0.00005768076956973525        -0.00004295963926733565 
288         0.00028170279980314038         0.00005501517696729005         0.00006916079135886599 
