datafile (written by JARVIS-FF) 

288 	 atoms 
1  atom types
0.0 16.199999870  xlo xhi
0.0 17.182694645  ylo yhi
0.0 17.182694645  zlo zhi
0E-9 0E-9 0E-9  xy xz yz


Atoms 

     1   1 0.000000 3.642109927 0.185634848 0.178358780
     2   1 0.000000 7.685249951 0.178358780 0.178358780
     3   1 0.000000 11.735249919 0.178358780 0.178358780
     4   1 0.000000 15.785249886 0.178358780 0.178358780
     5   1 0.000000 3.635249984 3.042141220 0.178358780
     6   1 0.000000 7.685249951 3.042141220 0.178358780
     7   1 0.000000 11.735249919 3.042141220 0.178358780
     8   1 0.000000 15.785249886 3.042141220 0.178358780
     9   1 0.000000 3.635249984 5.905923661 0.178358780
    10   1 0.000000 7.685249951 5.905923661 0.178358780
    11   1 0.000000 11.735249919 5.905923661 0.178358780
    12   1 0.000000 15.785249886 5.905923661 0.178358780
    13   1 0.000000 3.635249984 8.769706102 0.178358780
    14   1 0.000000 7.685249951 8.769706102 0.178358780
    15   1 0.000000 11.735249919 8.769706102 0.178358780
    16   1 0.000000 15.785249886 8.769706102 0.178358780
    17   1 0.000000 3.635249984 11.633488543 0.178358780
    18   1 0.000000 7.685249951 11.633488543 0.178358780
    19   1 0.000000 11.735249919 11.633488543 0.178358780
    20   1 0.000000 15.785249886 11.633488543 0.178358780
    21   1 0.000000 3.635249984 14.497270984 0.178358780
    22   1 0.000000 7.685249951 14.497270984 0.178358780
    23   1 0.000000 11.735249919 14.497270984 0.178358780
    24   1 0.000000 15.785249886 14.497270984 0.178358780
    25   1 0.000000 3.635249984 0.178358780 3.042141220
    26   1 0.000000 7.685249951 0.178358780 3.042141220
    27   1 0.000000 11.735249919 0.178358780 3.042141220
    28   1 0.000000 15.785249886 0.178358780 3.042141220
    29   1 0.000000 3.635249984 3.042141220 3.042141220
    30   1 0.000000 7.685249951 3.042141220 3.042141220
    31   1 0.000000 11.735249919 3.042141220 3.042141220
    32   1 0.000000 15.785249886 3.042141220 3.042141220
    33   1 0.000000 3.635249984 5.905923661 3.042141220
    34   1 0.000000 7.685249951 5.905923661 3.042141220
    35   1 0.000000 11.735249919 5.905923661 3.042141220
    36   1 0.000000 15.785249886 5.905923661 3.042141220
    37   1 0.000000 3.635249984 8.769706102 3.042141220
    38   1 0.000000 7.685249951 8.769706102 3.042141220
    39   1 0.000000 11.735249919 8.769706102 3.042141220
    40   1 0.000000 15.785249886 8.769706102 3.042141220
    41   1 0.000000 3.635249984 11.633488543 3.042141220
    42   1 0.000000 7.685249951 11.633488543 3.042141220
    43   1 0.000000 11.735249919 11.633488543 3.042141220
    44   1 0.000000 15.785249886 11.633488543 3.042141220
    45   1 0.000000 3.635249984 14.497270984 3.042141220
    46   1 0.000000 7.685249951 14.497270984 3.042141220
    47   1 0.000000 11.735249919 14.497270984 3.042141220
    48   1 0.000000 15.785249886 14.497270984 3.042141220
    49   1 0.000000 3.635249984 0.178358780 5.905923661
    50   1 0.000000 7.685249951 0.178358780 5.905923661
    51   1 0.000000 11.735249919 0.178358780 5.905923661
    52   1 0.000000 15.785249886 0.178358780 5.905923661
    53   1 0.000000 3.635249984 3.042141220 5.905923661
    54   1 0.000000 7.685249951 3.042141220 5.905923661
    55   1 0.000000 11.735249919 3.042141220 5.905923661
    56   1 0.000000 15.785249886 3.042141220 5.905923661
    57   1 0.000000 3.635249984 5.905923661 5.905923661
    58   1 0.000000 7.685249951 5.905923661 5.905923661
    59   1 0.000000 11.735249919 5.905923661 5.905923661
    60   1 0.000000 15.785249886 5.905923661 5.905923661
    61   1 0.000000 3.635249984 8.769706102 5.905923661
    62   1 0.000000 7.685249951 8.769706102 5.905923661
    63   1 0.000000 11.735249919 8.769706102 5.905923661
    64   1 0.000000 15.785249886 8.769706102 5.905923661
    65   1 0.000000 3.635249984 11.633488543 5.905923661
    66   1 0.000000 7.685249951 11.633488543 5.905923661
    67   1 0.000000 11.735249919 11.633488543 5.905923661
    68   1 0.000000 15.785249886 11.633488543 5.905923661
    69   1 0.000000 3.635249984 14.497270984 5.905923661
    70   1 0.000000 7.685249951 14.497270984 5.905923661
    71   1 0.000000 11.735249919 14.497270984 5.905923661
    72   1 0.000000 15.785249886 14.497270984 5.905923661
    73   1 0.000000 3.635249984 0.178358780 8.769706102
    74   1 0.000000 7.685249951 0.178358780 8.769706102
    75   1 0.000000 11.735249919 0.178358780 8.769706102
    76   1 0.000000 15.785249886 0.178358780 8.769706102
    77   1 0.000000 3.635249984 3.042141220 8.769706102
    78   1 0.000000 7.685249951 3.042141220 8.769706102
    79   1 0.000000 11.735249919 3.042141220 8.769706102
    80   1 0.000000 15.785249886 3.042141220 8.769706102
    81   1 0.000000 3.635249984 5.905923661 8.769706102
    82   1 0.000000 7.685249951 5.905923661 8.769706102
    83   1 0.000000 11.735249919 5.905923661 8.769706102
    84   1 0.000000 15.785249886 5.905923661 8.769706102
    85   1 0.000000 3.635249984 8.769706102 8.769706102
    86   1 0.000000 7.685249951 8.769706102 8.769706102
    87   1 0.000000 11.735249919 8.769706102 8.769706102
    88   1 0.000000 15.785249886 8.769706102 8.769706102
    89   1 0.000000 3.635249984 11.633488543 8.769706102
    90   1 0.000000 7.685249951 11.633488543 8.769706102
    91   1 0.000000 11.735249919 11.633488543 8.769706102
    92   1 0.000000 15.785249886 11.633488543 8.769706102
    93   1 0.000000 3.635249984 14.497270984 8.769706102
    94   1 0.000000 7.685249951 14.497270984 8.769706102
    95   1 0.000000 11.735249919 14.497270984 8.769706102
    96   1 0.000000 15.785249886 14.497270984 8.769706102
    97   1 0.000000 3.635249984 0.178358780 11.633488543
    98   1 0.000000 7.685249951 0.178358780 11.633488543
    99   1 0.000000 11.735249919 0.178358780 11.633488543
   100   1 0.000000 15.785249886 0.178358780 11.633488543
   101   1 0.000000 3.635249984 3.042141220 11.633488543
   102   1 0.000000 7.685249951 3.042141220 11.633488543
   103   1 0.000000 11.735249919 3.042141220 11.633488543
   104   1 0.000000 15.785249886 3.042141220 11.633488543
   105   1 0.000000 3.635249984 5.905923661 11.633488543
   106   1 0.000000 7.685249951 5.905923661 11.633488543
   107   1 0.000000 11.735249919 5.905923661 11.633488543
   108   1 0.000000 15.785249886 5.905923661 11.633488543
   109   1 0.000000 3.635249984 8.769706102 11.633488543
   110   1 0.000000 7.685249951 8.769706102 11.633488543
   111   1 0.000000 11.735249919 8.769706102 11.633488543
   112   1 0.000000 15.785249886 8.769706102 11.633488543
   113   1 0.000000 3.635249984 11.633488543 11.633488543
   114   1 0.000000 7.685249951 11.633488543 11.633488543
   115   1 0.000000 11.735249919 11.633488543 11.633488543
   116   1 0.000000 15.785249886 11.633488543 11.633488543
   117   1 0.000000 3.635249984 14.497270984 11.633488543
   118   1 0.000000 7.685249951 14.497270984 11.633488543
   119   1 0.000000 11.735249919 14.497270984 11.633488543
   120   1 0.000000 15.785249886 14.497270984 11.633488543
   121   1 0.000000 3.635249984 0.178358780 14.497270984
   122   1 0.000000 7.685249951 0.178358780 14.497270984
   123   1 0.000000 11.735249919 0.178358780 14.497270984
   124   1 0.000000 15.785249886 0.178358780 14.497270984
   125   1 0.000000 3.635249984 3.042141220 14.497270984
   126   1 0.000000 7.685249951 3.042141220 14.497270984
   127   1 0.000000 11.735249919 3.042141220 14.497270984
   128   1 0.000000 15.785249886 3.042141220 14.497270984
   129   1 0.000000 3.635249984 5.905923661 14.497270984
   130   1 0.000000 7.685249951 5.905923661 14.497270984
   131   1 0.000000 11.735249919 5.905923661 14.497270984
   132   1 0.000000 15.785249886 5.905923661 14.497270984
   133   1 0.000000 3.635249984 8.769706102 14.497270984
   134   1 0.000000 7.685249951 8.769706102 14.497270984
   135   1 0.000000 11.735249919 8.769706102 14.497270984
   136   1 0.000000 15.785249886 8.769706102 14.497270984
   137   1 0.000000 3.635249984 11.633488543 14.497270984
   138   1 0.000000 7.685249951 11.633488543 14.497270984
   139   1 0.000000 11.735249919 11.633488543 14.497270984
   140   1 0.000000 15.785249886 11.633488543 14.497270984
   141   1 0.000000 3.635249984 14.497270984 14.497270984
   142   1 0.000000 7.685249951 14.497270984 14.497270984
   143   1 0.000000 11.735249919 14.497270984 14.497270984
   144   1 0.000000 15.785249886 14.497270984 14.497270984
   145   1 0.000000 1.610250000 1.610250000 1.610250000
   146   1 0.000000 5.660249968 1.610250000 1.610250000
   147   1 0.000000 9.710249935 1.610250000 1.610250000
   148   1 0.000000 13.760249903 1.610250000 1.610250000
   149   1 0.000000 1.610250000 4.474032441 1.610250000
   150   1 0.000000 5.660249968 4.474032441 1.610250000
   151   1 0.000000 9.710249935 4.474032441 1.610250000
   152   1 0.000000 13.760249903 4.474032441 1.610250000
   153   1 0.000000 1.610250000 7.337814882 1.610250000
   154   1 0.000000 5.660249968 7.337814882 1.610250000
   155   1 0.000000 9.710249935 7.337814882 1.610250000
   156   1 0.000000 13.760249903 7.337814882 1.610250000
   157   1 0.000000 1.610250000 10.201597323 1.610250000
   158   1 0.000000 5.660249968 10.201597323 1.610250000
   159   1 0.000000 9.710249935 10.201597323 1.610250000
   160   1 0.000000 13.760249903 10.201597323 1.610250000
   161   1 0.000000 1.610250000 13.065379763 1.610250000
   162   1 0.000000 5.660249968 13.065379763 1.610250000
   163   1 0.000000 9.710249935 13.065379763 1.610250000
   164   1 0.000000 13.760249903 13.065379763 1.610250000
   165   1 0.000000 1.610250000 15.929162204 1.610250000
   166   1 0.000000 5.660249968 15.929162204 1.610250000
   167   1 0.000000 9.710249935 15.929162204 1.610250000
   168   1 0.000000 13.760249903 15.929162204 1.610250000
   169   1 0.000000 1.610250000 1.610250000 4.474032441
   170   1 0.000000 5.660249968 1.610250000 4.474032441
   171   1 0.000000 9.710249935 1.610250000 4.474032441
   172   1 0.000000 13.760249903 1.610250000 4.474032441
   173   1 0.000000 1.610250000 4.474032441 4.474032441
   174   1 0.000000 5.660249968 4.474032441 4.474032441
   175   1 0.000000 9.710249935 4.474032441 4.474032441
   176   1 0.000000 13.760249903 4.474032441 4.474032441
   177   1 0.000000 1.610250000 7.337814882 4.474032441
   178   1 0.000000 5.660249968 7.337814882 4.474032441
   179   1 0.000000 9.710249935 7.337814882 4.474032441
   180   1 0.000000 13.760249903 7.337814882 4.474032441
   181   1 0.000000 1.610250000 10.201597323 4.474032441
   182   1 0.000000 5.660249968 10.201597323 4.474032441
   183   1 0.000000 9.710249935 10.201597323 4.474032441
   184   1 0.000000 13.760249903 10.201597323 4.474032441
   185   1 0.000000 1.610250000 13.065379763 4.474032441
   186   1 0.000000 5.660249968 13.065379763 4.474032441
   187   1 0.000000 9.710249935 13.065379763 4.474032441
   188   1 0.000000 13.760249903 13.065379763 4.474032441
   189   1 0.000000 1.610250000 15.929162204 4.474032441
   190   1 0.000000 5.660249968 15.929162204 4.474032441
   191   1 0.000000 9.710249935 15.929162204 4.474032441
   192   1 0.000000 13.760249903 15.929162204 4.474032441
   193   1 0.000000 1.610250000 1.610250000 7.337814882
   194   1 0.000000 5.660249968 1.610250000 7.337814882
   195   1 0.000000 9.710249935 1.610250000 7.337814882
   196   1 0.000000 13.760249903 1.610250000 7.337814882
   197   1 0.000000 1.610250000 4.474032441 7.337814882
   198   1 0.000000 5.660249968 4.474032441 7.337814882
   199   1 0.000000 9.710249935 4.474032441 7.337814882
   200   1 0.000000 13.760249903 4.474032441 7.337814882
   201   1 0.000000 1.610250000 7.337814882 7.337814882
   202   1 0.000000 5.660249968 7.337814882 7.337814882
   203   1 0.000000 9.710249935 7.337814882 7.337814882
   204   1 0.000000 13.760249903 7.337814882 7.337814882
   205   1 0.000000 1.610250000 10.201597323 7.337814882
   206   1 0.000000 5.660249968 10.201597323 7.337814882
   207   1 0.000000 9.710249935 10.201597323 7.337814882
   208   1 0.000000 13.760249903 10.201597323 7.337814882
   209   1 0.000000 1.610250000 13.065379763 7.337814882
   210   1 0.000000 5.660249968 13.065379763 7.337814882
   211   1 0.000000 9.710249935 13.065379763 7.337814882
   212   1 0.000000 13.760249903 13.065379763 7.337814882
   213   1 0.000000 1.610250000 15.929162204 7.337814882
   214   1 0.000000 5.660249968 15.929162204 7.337814882
   215   1 0.000000 9.710249935 15.929162204 7.337814882
   216   1 0.000000 13.760249903 15.929162204 7.337814882
   217   1 0.000000 1.610250000 1.610250000 10.201597322
   218   1 0.000000 5.660249968 1.610250000 10.201597322
   219   1 0.000000 9.710249935 1.610250000 10.201597322
   220   1 0.000000 13.760249903 1.610250000 10.201597322
   221   1 0.000000 1.610250000 4.474032441 10.201597322
   222   1 0.000000 5.660249968 4.474032441 10.201597322
   223   1 0.000000 9.710249935 4.474032441 10.201597322
   224   1 0.000000 13.760249903 4.474032441 10.201597322
   225   1 0.000000 1.610250000 7.337814882 10.201597322
   226   1 0.000000 5.660249968 7.337814882 10.201597322
   227   1 0.000000 9.710249935 7.337814882 10.201597322
   228   1 0.000000 13.760249903 7.337814882 10.201597322
   229   1 0.000000 1.610250000 10.201597323 10.201597322
   230   1 0.000000 5.660249968 10.201597323 10.201597322
   231   1 0.000000 9.710249935 10.201597323 10.201597322
   232   1 0.000000 13.760249903 10.201597323 10.201597322
   233   1 0.000000 1.610250000 13.065379763 10.201597322
   234   1 0.000000 5.660249968 13.065379763 10.201597322
   235   1 0.000000 9.710249935 13.065379763 10.201597322
   236   1 0.000000 13.760249903 13.065379763 10.201597322
   237   1 0.000000 1.610250000 15.929162204 10.201597322
   238   1 0.000000 5.660249968 15.929162204 10.201597322
   239   1 0.000000 9.710249935 15.929162204 10.201597322
   240   1 0.000000 13.760249903 15.929162204 10.201597322
   241   1 0.000000 1.610250000 1.610250000 13.065379763
   242   1 0.000000 5.660249968 1.610250000 13.065379763
   243   1 0.000000 9.710249935 1.610250000 13.065379763
   244   1 0.000000 13.760249903 1.610250000 13.065379763
   245   1 0.000000 1.610250000 4.474032441 13.065379763
   246   1 0.000000 5.660249968 4.474032441 13.065379763
   247   1 0.000000 9.710249935 4.474032441 13.065379763
   248   1 0.000000 13.760249903 4.474032441 13.065379763
   249   1 0.000000 1.610250000 7.337814882 13.065379763
   250   1 0.000000 5.660249968 7.337814882 13.065379763
   251   1 0.000000 9.710249935 7.337814882 13.065379763
   252   1 0.000000 13.760249903 7.337814882 13.065379763
   253   1 0.000000 1.610250000 10.201597323 13.065379763
   254   1 0.000000 5.660249968 10.201597323 13.065379763
   255   1 0.000000 9.710249935 10.201597323 13.065379763
   256   1 0.000000 13.760249903 10.201597323 13.065379763
   257   1 0.000000 1.610250000 13.065379763 13.065379763
   258   1 0.000000 5.660249968 13.065379763 13.065379763
   259   1 0.000000 9.710249935 13.065379763 13.065379763
   260   1 0.000000 13.760249903 13.065379763 13.065379763
   261   1 0.000000 1.610250000 15.929162204 13.065379763
   262   1 0.000000 5.660249968 15.929162204 13.065379763
   263   1 0.000000 9.710249935 15.929162204 13.065379763
   264   1 0.000000 13.760249903 15.929162204 13.065379763
   265   1 0.000000 1.610250000 1.610250000 15.929162204
   266   1 0.000000 5.660249968 1.610250000 15.929162204
   267   1 0.000000 9.710249935 1.610250000 15.929162204
   268   1 0.000000 13.760249903 1.610250000 15.929162204
   269   1 0.000000 1.610250000 4.474032441 15.929162204
   270   1 0.000000 5.660249968 4.474032441 15.929162204
   271   1 0.000000 9.710249935 4.474032441 15.929162204
   272   1 0.000000 13.760249903 4.474032441 15.929162204
   273   1 0.000000 1.610250000 7.337814882 15.929162204
   274   1 0.000000 5.660249968 7.337814882 15.929162204
   275   1 0.000000 9.710249935 7.337814882 15.929162204
   276   1 0.000000 13.760249903 7.337814882 15.929162204
   277   1 0.000000 1.610250000 10.201597323 15.929162204
   278   1 0.000000 5.660249968 10.201597323 15.929162204
   279   1 0.000000 9.710249935 10.201597323 15.929162204
   280   1 0.000000 13.760249903 10.201597323 15.929162204
   281   1 0.000000 1.610250000 13.065379763 15.929162204
   282   1 0.000000 5.660249968 13.065379763 15.929162204
   283   1 0.000000 9.710249935 13.065379763 15.929162204
   284   1 0.000000 13.760249903 13.065379763 15.929162204
   285   1 0.000000 1.610250000 15.929162204 15.929162204
   286   1 0.000000 5.660249968 15.929162204 15.929162204
   287   1 0.000000 9.710249935 15.929162204 15.929162204
   288   1 0.000000 13.760249903 15.929162204 15.929162204
