LAMMPS (13 Jan 2016)
Reading data file ...
  triclinic box = (0 0 0) to (16.2 17.1827 17.1827) with tilt (0 0 0)
  1 by 1 by 1 MPI processor grid
  reading atoms ...
  288 atoms
System init for write_data ...
Neighbor list info ...
  1 neighbor list requests
  update every 1 steps, delay 0 steps, check yes
  max neighbors/atom: 2000, page size: 100000
  master list distance cutoff = 7.72488
  ghost atom cutoff = 7.72488
WARNING: No fixes defined, atoms won't move (../verlet.cpp:55)
Setting up Verlet run ...
  Unit style  : metal
  Current step: 0
  Time step   : 0.001
Memory usage per processor = 3.51154 Mbytes
Step Temp Press CPU Pxx Pyy Pzz Pxy Pxz Pyz KinEng PotEng TotEng Volume Lx Ly Lz Atoms 
       0            0   0.16444943            0   0.15373802   0.22702907    0.1125812    0.1078513 6.9304346e-09 5.1544996e-10            0   -967.67976   -967.67976    4782.9689         16.2    17.182695    17.182695      288 
Loop time of 9.53674e-07 on 1 procs for 0 steps with 288 atoms

0.0% CPU use with 1 MPI tasks x no OpenMP threads

MPI task timing breakdown:
Section |  min time  |  avg time  |  max time  |%varavg| %total
---------------------------------------------------------------
Pair    | 0          | 0          | 0          |   0.0 |  0.00
Neigh   | 0          | 0          | 0          |   0.0 |  0.00
Comm    | 0          | 0          | 0          |   0.0 |  0.00
Output  | 0          | 0          | 0          |   0.0 |  0.00
Modify  | 0          | 0          | 0          |   0.0 |  0.00
Other   |            | 9.537e-07  |            |       |100.00

Nlocal:    288 ave 288 max 288 min
Histogram: 1 0 0 0 0 0 0 0 0 0
Nghost:    1832 ave 1832 max 1832 min
Histogram: 1 0 0 0 0 0 0 0 0 0
Neighs:    19296 ave 19296 max 19296 min
Histogram: 1 0 0 0 0 0 0 0 0 0

Total # of neighbors = 19296
Ave neighs/atom = 67
Neighbor list builds = 0
Dangerous builds = 0
Total wall time: 0:00:00
