nqpoint: 8313   
npath: 163    
segment_nqpoint:
- 51
- 51
- 51
- 51
- 51
- 51
- 51
- 51
- 51
- 51
- 51
- 51
- 51
- 51
- 51
- 51
- 51
- 51
- 51
- 51
- 51
- 51
- 51
- 51
- 51
- 51
- 51
- 51
- 51
- 51
- 51
- 51
- 51
- 51
- 51
- 51
- 51
- 51
- 51
- 51
- 51
- 51
- 51
- 51
- 51
- 51
- 51
- 51
- 51
- 51
- 51
- 51
- 51
- 51
- 51
- 51
- 51
- 51
- 51
- 51
- 51
- 51
- 51
- 51
- 51
- 51
- 51
- 51
- 51
- 51
- 51
- 51
- 51
- 51
- 51
- 51
- 51
- 51
- 51
- 51
- 51
- 51
- 51
- 51
- 51
- 51
- 51
- 51
- 51
- 51
- 51
- 51
- 51
- 51
- 51
- 51
- 51
- 51
- 51
- 51
- 51
- 51
- 51
- 51
- 51
- 51
- 51
- 51
- 51
- 51
- 51
- 51
- 51
- 51
- 51
- 51
- 51
- 51
- 51
- 51
- 51
- 51
- 51
- 51
- 51
- 51
- 51
- 51
- 51
- 51
- 51
- 51
- 51
- 51
- 51
- 51
- 51
- 51
- 51
- 51
- 51
- 51
- 51
- 51
- 51
- 51
- 51
- 51
- 51
- 51
- 51
- 51
- 51
- 51
- 51
- 51
- 51
- 51
- 51
- 51
- 51
- 51
- 51
reciprocal_lattice:
- [  -0.18202861,   0.18202861,   0.18202861 ] # a*
- [   0.18202861,  -0.18202861,   0.18202861 ] # b*
- [   0.18202861,   0.18202861,  -0.18202861 ] # c*
natom: 2      
lattice:
- [     0.0000000000000000,     2.7468210000000002,     2.7468210000000002 ] # a
- [     2.7468210000000002,     0.0000000000000000,     2.7468210000000002 ] # b
- [     2.7468210000000002,     2.7468210000000002,     0.0000000000000000 ] # c
atoms:
- symbol: Si # 1
  position: [  0.0000000000000000,  0.0000000000000000,  0.0000000000000000 ]
  mass: 28.085500
- symbol: Si # 2
  position: [  0.2500000000000000,  0.2500000000000000,  0.2500000000000000 ]
  mass: 28.085500
supercell_matrix:
- [   -1,    1,    1 ]
- [    1,   -1,    1 ]
- [    1,    1,   -1 ]

phonon:
- q-position: [    0.0000000,    0.0000000,    0.0000000 ]
  distance:    0.0000000
  label: '\Gamma'
  band:
  - # 1
    frequency:   -0.0000022753
  - # 2
    frequency:    0.0000022752
  - # 3
    frequency:    0.0000042711
  - # 4
    frequency:  499.5160404877
  - # 5
    frequency:  499.5160404877
  - # 6
    frequency:  499.5160404877

- q-position: [    0.0004348,    0.0000000,    0.0004348 ]
  distance:    0.0001583
  band:
  - # 1
    frequency:    0.1727406578
  - # 2
    frequency:    0.1727406579
  - # 3
    frequency:    0.4263414253
  - # 4
    frequency:  499.5159506519
  - # 5
    frequency:  499.5159506519
  - # 6
    frequency:  499.5159894429

- q-position: [    0.0008696,    0.0000000,    0.0008696 ]
  distance:    0.0003166
  band:
  - # 1
    frequency:    0.3454812422
  - # 2
    frequency:    0.3454812422
  - # 3
    frequency:    0.8526824370
  - # 4
    frequency:  499.5156811447
  - # 5
    frequency:  499.5156811447
  - # 6
    frequency:  499.5158363081

- q-position: [    0.0013043,    0.0000000,    0.0013043 ]
  distance:    0.0004749
  band:
  - # 1
    frequency:    0.5182216797
  - # 2
    frequency:    0.5182216797
  - # 3
    frequency:    1.2790226219
  - # 4
    frequency:  499.5152319674
  - # 5
    frequency:  499.5152319674
  - # 6
    frequency:  499.5155810824

- q-position: [    0.0017391,    0.0000000,    0.0017391 ]
  distance:    0.0006331
  band:
  - # 1
    frequency:    0.6909618969
  - # 2
    frequency:    0.6909618969
  - # 3
    frequency:    1.7053615663
  - # 4
    frequency:  499.5146031220
  - # 5
    frequency:  499.5146031220
  - # 6
    frequency:  499.5152237644

- q-position: [    0.0021739,    0.0000000,    0.0021739 ]
  distance:    0.0007914
  band:
  - # 1
    frequency:    0.8637018204
  - # 2
    frequency:    0.8637018204
  - # 3
    frequency:    2.1316988570
  - # 4
    frequency:  499.5137946114
  - # 5
    frequency:  499.5137946114
  - # 6
    frequency:  499.5147643518

- q-position: [    0.0026087,    0.0000000,    0.0026087 ]
  distance:    0.0009497
  band:
  - # 1
    frequency:    1.0364413766
  - # 2
    frequency:    1.0364413767
  - # 3
    frequency:    2.5580340804
  - # 4
    frequency:  499.5128064390
  - # 5
    frequency:  499.5128064390
  - # 6
    frequency:  499.5142028420

- q-position: [    0.0030435,    0.0000000,    0.0030435 ]
  distance:    0.0011080
  band:
  - # 1
    frequency:    1.2091804922
  - # 2
    frequency:    1.2091804923
  - # 3
    frequency:    2.9843668231
  - # 4
    frequency:  499.5116386094
  - # 5
    frequency:  499.5116386094
  - # 6
    frequency:  499.5135392317

- q-position: [    0.0034783,    0.0000000,    0.0034783 ]
  distance:    0.0012663
  band:
  - # 1
    frequency:    1.3819190937
  - # 2
    frequency:    1.3819190937
  - # 3
    frequency:    3.4106966716
  - # 4
    frequency:  499.5102911278
  - # 5
    frequency:  499.5102911278
  - # 6
    frequency:  499.5127735169

- q-position: [    0.0039130,    0.0000000,    0.0039130 ]
  distance:    0.0014246
  band:
  - # 1
    frequency:    1.5546571076
  - # 2
    frequency:    1.5546571076
  - # 3
    frequency:    3.8370232125
  - # 4
    frequency:  499.5087640001
  - # 5
    frequency:  499.5087640001
  - # 6
    frequency:  499.5119056931

- q-position: [    0.0043478,    0.0000000,    0.0043478 ]
  distance:    0.0015829
  band:
  - # 1
    frequency:    1.7273944603
  - # 2
    frequency:    1.7273944603
  - # 3
    frequency:    4.2633460324
  - # 4
    frequency:  499.5070572332
  - # 5
    frequency:  499.5070572332
  - # 6
    frequency:  499.5109357551

- q-position: [    0.0047826,    0.0000000,    0.0047826 ]
  distance:    0.0017411
  band:
  - # 1
    frequency:    1.9001310783
  - # 2
    frequency:    1.9001310783
  - # 3
    frequency:    4.6896647179
  - # 4
    frequency:  499.5051708347
  - # 5
    frequency:  499.5051708347
  - # 6
    frequency:  499.5098636972

- q-position: [    0.0052174,    0.0000000,    0.0052174 ]
  distance:    0.0018994
  band:
  - # 1
    frequency:    2.0728668881
  - # 2
    frequency:    2.0728668881
  - # 3
    frequency:    5.1159788556
  - # 4
    frequency:  499.5031048131
  - # 5
    frequency:  499.5031048131
  - # 6
    frequency:  499.5086895131

- q-position: [    0.0056522,    0.0000000,    0.0056522 ]
  distance:    0.0020577
  band:
  - # 1
    frequency:    2.2456018161
  - # 2
    frequency:    2.2456018161
  - # 3
    frequency:    5.5422880320
  - # 4
    frequency:  499.5008591776
  - # 5
    frequency:  499.5008591776
  - # 6
    frequency:  499.5074131957

- q-position: [    0.0060870,    0.0000000,    0.0060870 ]
  distance:    0.0022160
  band:
  - # 1
    frequency:    2.4183357886
  - # 2
    frequency:    2.4183357886
  - # 3
    frequency:    5.9685918338
  - # 4
    frequency:  499.4984339382
  - # 5
    frequency:  499.4984339382
  - # 6
    frequency:  499.5060347376

- q-position: [    0.0065217,    0.0000000,    0.0065217 ]
  distance:    0.0023743
  band:
  - # 1
    frequency:    2.5910687321
  - # 2
    frequency:    2.5910687322
  - # 3
    frequency:    6.3948898476
  - # 4
    frequency:  499.4958291058
  - # 5
    frequency:  499.4958291058
  - # 6
    frequency:  499.5045541306

- q-position: [    0.0069565,    0.0000000,    0.0069565 ]
  distance:    0.0025326
  band:
  - # 1
    frequency:    2.7638005730
  - # 2
    frequency:    2.7638005730
  - # 3
    frequency:    6.8211816600
  - # 4
    frequency:  499.4930446919
  - # 5
    frequency:  499.4930446919
  - # 6
    frequency:  499.5029713659

- q-position: [    0.0073913,    0.0000000,    0.0073913 ]
  distance:    0.0026909
  band:
  - # 1
    frequency:    2.9365312374
  - # 2
    frequency:    2.9365312374
  - # 3
    frequency:    7.2474668578
  - # 4
    frequency:  499.4900807091
  - # 5
    frequency:  499.4900807091
  - # 6
    frequency:  499.5012864341

- q-position: [    0.0078261,    0.0000000,    0.0078261 ]
  distance:    0.0028491
  band:
  - # 1
    frequency:    3.1092606516
  - # 2
    frequency:    3.1092606516
  - # 3
    frequency:    7.6737450275
  - # 4
    frequency:  499.4869371706
  - # 5
    frequency:  499.4869371706
  - # 6
    frequency:  499.4994993253

- q-position: [    0.0082609,    0.0000000,    0.0082609 ]
  distance:    0.0030074
  band:
  - # 1
    frequency:    3.2819887419
  - # 2
    frequency:    3.2819887419
  - # 3
    frequency:    8.1000157558
  - # 4
    frequency:  499.4836140905
  - # 5
    frequency:  499.4836140905
  - # 6
    frequency:  499.4976100288

- q-position: [    0.0086957,    0.0000000,    0.0086957 ]
  distance:    0.0031657
  band:
  - # 1
    frequency:    3.4547154344
  - # 2
    frequency:    3.4547154345
  - # 3
    frequency:    8.5262786295
  - # 4
    frequency:  499.4801114835
  - # 5
    frequency:  499.4801114835
  - # 6
    frequency:  499.4956185336

- q-position: [    0.0091304,    0.0000000,    0.0091304 ]
  distance:    0.0033240
  band:
  - # 1
    frequency:    3.6274406554
  - # 2
    frequency:    3.6274406554
  - # 3
    frequency:    8.9525332352
  - # 4
    frequency:  499.4764293654
  - # 5
    frequency:  499.4764293654
  - # 6
    frequency:  499.4935248278

- q-position: [    0.0095652,    0.0000000,    0.0095652 ]
  distance:    0.0034823
  band:
  - # 1
    frequency:    3.8001643308
  - # 2
    frequency:    3.8001643309
  - # 3
    frequency:    9.3787791597
  - # 4
    frequency:  499.4725677526
  - # 5
    frequency:  499.4725677526
  - # 6
    frequency:  499.4913288990

- q-position: [    0.0100000,    0.0000000,    0.0100000 ]
  distance:    0.0036406
  band:
  - # 1
    frequency:    3.9728863868
  - # 2
    frequency:    3.9728863869
  - # 3
    frequency:    9.8050159898
  - # 4
    frequency:  499.4685266624
  - # 5
    frequency:  499.4685266624
  - # 6
    frequency:  499.4890307342

- q-position: [    0.0104348,    0.0000000,    0.0104348 ]
  distance:    0.0037989
  band:
  - # 1
    frequency:    4.1456067494
  - # 2
    frequency:    4.1456067494
  - # 3
    frequency:   10.2312433122
  - # 4
    frequency:  499.4643061128
  - # 5
    frequency:  499.4643061128
  - # 6
    frequency:  499.4866303198

- q-position: [    0.0108696,    0.0000000,    0.0108696 ]
  distance:    0.0039571
  band:
  - # 1
    frequency:    4.3183253444
  - # 2
    frequency:    4.3183253444
  - # 3
    frequency:   10.6574607137
  - # 4
    frequency:  499.4599061227
  - # 5
    frequency:  499.4599061227
  - # 6
    frequency:  499.4841276417

- q-position: [    0.0113043,    0.0000000,    0.0113043 ]
  distance:    0.0041154
  band:
  - # 1
    frequency:    4.4910420978
  - # 2
    frequency:    4.4910420978
  - # 3
    frequency:   11.0836677811
  - # 4
    frequency:  499.4553267118
  - # 5
    frequency:  499.4553267118
  - # 6
    frequency:  499.4815226850

- q-position: [    0.0117391,    0.0000000,    0.0117391 ]
  distance:    0.0042737
  band:
  - # 1
    frequency:    4.6637569354
  - # 2
    frequency:    4.6637569354
  - # 3
    frequency:   11.5098641013
  - # 4
    frequency:  499.4505679005
  - # 5
    frequency:  499.4505679005
  - # 6
    frequency:  499.4788154343

- q-position: [    0.0121739,    0.0000000,    0.0121739 ]
  distance:    0.0044320
  band:
  - # 1
    frequency:    4.8364697831
  - # 2
    frequency:    4.8364697831
  - # 3
    frequency:   11.9360492611
  - # 4
    frequency:  499.4456297102
  - # 5
    frequency:  499.4456297102
  - # 6
    frequency:  499.4760058736

- q-position: [    0.0126087,    0.0000000,    0.0126087 ]
  distance:    0.0045903
  band:
  - # 1
    frequency:    5.0091805664
  - # 2
    frequency:    5.0091805664
  - # 3
    frequency:   12.3622228474
  - # 4
    frequency:  499.4405121630
  - # 5
    frequency:  499.4405121630
  - # 6
    frequency:  499.4730939862

- q-position: [    0.0130435,    0.0000000,    0.0130435 ]
  distance:    0.0047486
  band:
  - # 1
    frequency:    5.1818892111
  - # 2
    frequency:    5.1818892111
  - # 3
    frequency:   12.7883844472
  - # 4
    frequency:  499.4352152816
  - # 5
    frequency:  499.4352152816
  - # 6
    frequency:  499.4700797551

- q-position: [    0.0134783,    0.0000000,    0.0134783 ]
  distance:    0.0049069
  band:
  - # 1
    frequency:    5.3545956428
  - # 2
    frequency:    5.3545956428
  - # 3
    frequency:   13.2145336473
  - # 4
    frequency:  499.4297390898
  - # 5
    frequency:  499.4297390898
  - # 6
    frequency:  499.4669631622

- q-position: [    0.0139130,    0.0000000,    0.0139130 ]
  distance:    0.0050651
  band:
  - # 1
    frequency:    5.5272997870
  - # 2
    frequency:    5.5272997870
  - # 3
    frequency:   13.6406700347
  - # 4
    frequency:  499.4240836122
  - # 5
    frequency:  499.4240836122
  - # 6
    frequency:  499.4637441893

- q-position: [    0.0143478,    0.0000000,    0.0143478 ]
  distance:    0.0052234
  band:
  - # 1
    frequency:    5.7000015690
  - # 2
    frequency:    5.7000015690
  - # 3
    frequency:   14.0667931965
  - # 4
    frequency:  499.4182488739
  - # 5
    frequency:  499.4182488739
  - # 6
    frequency:  499.4604228173

- q-position: [    0.0147826,    0.0000000,    0.0147826 ]
  distance:    0.0053817
  band:
  - # 1
    frequency:    5.8727009145
  - # 2
    frequency:    5.8727009145
  - # 3
    frequency:   14.4929027197
  - # 4
    frequency:  499.4122349011
  - # 5
    frequency:  499.4122349011
  - # 6
    frequency:  499.4569990266

- q-position: [    0.0152174,    0.0000000,    0.0152174 ]
  distance:    0.0055400
  band:
  - # 1
    frequency:    6.0453977485
  - # 2
    frequency:    6.0453977485
  - # 3
    frequency:   14.9189981912
  - # 4
    frequency:  499.4060417207
  - # 5
    frequency:  499.4060417207
  - # 6
    frequency:  499.4534727968

- q-position: [    0.0156522,    0.0000000,    0.0156522 ]
  distance:    0.0056983
  band:
  - # 1
    frequency:    6.2180919964
  - # 2
    frequency:    6.2180919964
  - # 3
    frequency:   15.3450791983
  - # 4
    frequency:  499.3996693604
  - # 5
    frequency:  499.3996693604
  - # 6
    frequency:  499.4498441073

- q-position: [    0.0160870,    0.0000000,    0.0160870 ]
  distance:    0.0058566
  band:
  - # 1
    frequency:    6.3907835832
  - # 2
    frequency:    6.3907835832
  - # 3
    frequency:   15.7711453279
  - # 4
    frequency:  499.3931178487
  - # 5
    frequency:  499.3931178487
  - # 6
    frequency:  499.4461129365

- q-position: [    0.0165217,    0.0000000,    0.0165217 ]
  distance:    0.0060149
  band:
  - # 1
    frequency:    6.5634724342
  - # 2
    frequency:    6.5634724342
  - # 3
    frequency:   16.1971961673
  - # 4
    frequency:  499.3863872150
  - # 5
    frequency:  499.3863872150
  - # 6
    frequency:  499.4422792625

- q-position: [    0.0169565,    0.0000000,    0.0169565 ]
  distance:    0.0061731
  band:
  - # 1
    frequency:    6.7361584742
  - # 2
    frequency:    6.7361584742
  - # 3
    frequency:   16.6232313037
  - # 4
    frequency:  499.3794774894
  - # 5
    frequency:  499.3794774894
  - # 6
    frequency:  499.4383430626

- q-position: [    0.0173913,    0.0000000,    0.0173913 ]
  distance:    0.0063314
  band:
  - # 1
    frequency:    6.9088416281
  - # 2
    frequency:    6.9088416281
  - # 3
    frequency:   17.0492503242
  - # 4
    frequency:  499.3723887027
  - # 5
    frequency:  499.3723887027
  - # 6
    frequency:  499.4343043135

- q-position: [    0.0178261,    0.0000000,    0.0178261 ]
  distance:    0.0064897
  band:
  - # 1
    frequency:    7.0815218209
  - # 2
    frequency:    7.0815218209
  - # 3
    frequency:   17.4752528161
  - # 4
    frequency:  499.3651208868
  - # 5
    frequency:  499.3651208868
  - # 6
    frequency:  499.4301629914

- q-position: [    0.0182609,    0.0000000,    0.0182609 ]
  distance:    0.0066480
  band:
  - # 1
    frequency:    7.2541989771
  - # 2
    frequency:    7.2541989771
  - # 3
    frequency:   17.9012383668
  - # 4
    frequency:  499.3576740741
  - # 5
    frequency:  499.3576740741
  - # 6
    frequency:  499.4259190718

- q-position: [    0.0186957,    0.0000000,    0.0186957 ]
  distance:    0.0068063
  band:
  - # 1
    frequency:    7.4268730214
  - # 2
    frequency:    7.4268730214
  - # 3
    frequency:   18.3272065635
  - # 4
    frequency:  499.3500482981
  - # 5
    frequency:  499.3500482981
  - # 6
    frequency:  499.4215725298

- q-position: [    0.0191304,    0.0000000,    0.0191304 ]
  distance:    0.0069646
  band:
  - # 1
    frequency:    7.5995438784
  - # 2
    frequency:    7.5995438784
  - # 3
    frequency:   18.7531569936
  - # 4
    frequency:  499.3422435927
  - # 5
    frequency:  499.3422435927
  - # 6
    frequency:  499.4171233397

- q-position: [    0.0195652,    0.0000000,    0.0195652 ]
  distance:    0.0071229
  band:
  - # 1
    frequency:    7.7722114724
  - # 2
    frequency:    7.7722114724
  - # 3
    frequency:   19.1790892445
  - # 4
    frequency:  499.3342599931
  - # 5
    frequency:  499.3342599931
  - # 6
    frequency:  499.4125714752

- q-position: [    0.0200000,    0.0000000,    0.0200000 ]
  distance:    0.0072811
  band:
  - # 1
    frequency:    7.9448757279
  - # 2
    frequency:    7.9448757279
  - # 3
    frequency:   19.6050029037
  - # 4
    frequency:  499.3260975349
  - # 5
    frequency:  499.3260975349
  - # 6
    frequency:  499.4079169094

- q-position: [    0.0204348,    0.0000000,    0.0204348 ]
  distance:    0.0074394
  band:
  - # 1
    frequency:    8.1175365691
  - # 2
    frequency:    8.1175365691
  - # 3
    frequency:   20.0308975586
  - # 4
    frequency:  499.3177562548
  - # 5
    frequency:  499.3177562548
  - # 6
    frequency:  499.4031596151

- q-position: [    0.0208696,    0.0000000,    0.0208696 ]
  distance:    0.0075977
  band:
  - # 1
    frequency:    8.2901939201
  - # 2
    frequency:    8.2901939201
  - # 3
    frequency:   20.4567727968
  - # 4
    frequency:  499.3092361900
  - # 5
    frequency:  499.3092361900
  - # 6
    frequency:  499.3982995640

- q-position: [    0.0213043,    0.0000000,    0.0213043 ]
  distance:    0.0077560
  band:
  - # 1
    frequency:    8.4628477049
  - # 2
    frequency:    8.4628477049
  - # 3
    frequency:   20.8826282058
  - # 4
    frequency:  499.3005373787
  - # 5
    frequency:  499.3005373787
  - # 6
    frequency:  499.3933367276

- q-position: [    0.0217391,    0.0000000,    0.0217391 ]
  distance:    0.0079143
  label: 'None'
  band:
  - # 1
    frequency:    8.6354978474
  - # 2
    frequency:    8.6354978474
  - # 3
    frequency:   21.3084633733
  - # 4
    frequency:  499.2916598600
  - # 5
    frequency:  499.2916598600
  - # 6
    frequency:  499.3882710765

- q-position: [    0.0217391,    0.0000000,    0.0217391 ]
  distance:    0.0079143
  label: 'None'
  band:
  - # 1
    frequency:    8.6354978474
  - # 2
    frequency:    8.6354978474
  - # 3
    frequency:   21.3084633733
  - # 4
    frequency:  499.2916598600
  - # 5
    frequency:  499.2916598600
  - # 6
    frequency:  499.3882710765

- q-position: [    0.0221739,    0.0000000,    0.0221739 ]
  distance:    0.0080726
  band:
  - # 1
    frequency:    8.8081442715
  - # 2
    frequency:    8.8081442715
  - # 3
    frequency:   21.7342778869
  - # 4
    frequency:  499.2826036736
  - # 5
    frequency:  499.2826036736
  - # 6
    frequency:  499.3831025811

- q-position: [    0.0226087,    0.0000000,    0.0226087 ]
  distance:    0.0082309
  band:
  - # 1
    frequency:    8.9807869009
  - # 2
    frequency:    8.9807869009
  - # 3
    frequency:   22.1600713344
  - # 4
    frequency:  499.2733688601
  - # 5
    frequency:  499.2733688601
  - # 6
    frequency:  499.3778312108

- q-position: [    0.0230435,    0.0000000,    0.0230435 ]
  distance:    0.0083891
  band:
  - # 1
    frequency:    9.1534256591
  - # 2
    frequency:    9.1534256591
  - # 3
    frequency:   22.5858433034
  - # 4
    frequency:  499.2639554608
  - # 5
    frequency:  499.2639554608
  - # 6
    frequency:  499.3724569345

- q-position: [    0.0234783,    0.0000000,    0.0234783 ]
  distance:    0.0085474
  band:
  - # 1
    frequency:    9.3260604696
  - # 2
    frequency:    9.3260604696
  - # 3
    frequency:   23.0115933818
  - # 4
    frequency:  499.2543635181
  - # 5
    frequency:  499.2543635181
  - # 6
    frequency:  499.3669797207

- q-position: [    0.0239130,    0.0000000,    0.0239130 ]
  distance:    0.0087057
  band:
  - # 1
    frequency:    9.4986912558
  - # 2
    frequency:    9.4986912558
  - # 3
    frequency:   23.4373211574
  - # 4
    frequency:  499.2445930748
  - # 5
    frequency:  499.2445930748
  - # 6
    frequency:  499.3613995371

- q-position: [    0.0243478,    0.0000000,    0.0243478 ]
  distance:    0.0088640
  band:
  - # 1
    frequency:    9.6713179408
  - # 2
    frequency:    9.6713179408
  - # 3
    frequency:   23.8630262182
  - # 4
    frequency:  499.2346441748
  - # 5
    frequency:  499.2346441748
  - # 6
    frequency:  499.3557163509

- q-position: [    0.0247826,    0.0000000,    0.0247826 ]
  distance:    0.0090223
  band:
  - # 1
    frequency:    9.8439404478
  - # 2
    frequency:    9.8439404478
  - # 3
    frequency:   24.2887081521
  - # 4
    frequency:  499.2245168627
  - # 5
    frequency:  499.2245168627
  - # 6
    frequency:  499.3499301286

- q-position: [    0.0252174,    0.0000000,    0.0252174 ]
  distance:    0.0091806
  band:
  - # 1
    frequency:   10.0165586997
  - # 2
    frequency:   10.0165586997
  - # 3
    frequency:   24.7143665470
  - # 4
    frequency:  499.2142111840
  - # 5
    frequency:  499.2142111840
  - # 6
    frequency:  499.3440408362

- q-position: [    0.0256522,    0.0000000,    0.0256522 ]
  distance:    0.0093389
  band:
  - # 1
    frequency:   10.1891726195
  - # 2
    frequency:   10.1891726195
  - # 3
    frequency:   25.1400009911
  - # 4
    frequency:  499.2037271848
  - # 5
    frequency:  499.2037271848
  - # 6
    frequency:  499.3380484390

- q-position: [    0.0260870,    0.0000000,    0.0260870 ]
  distance:    0.0094971
  band:
  - # 1
    frequency:   10.3617821297
  - # 2
    frequency:   10.3617821297
  - # 3
    frequency:   25.5656110724
  - # 4
    frequency:  499.1930649122
  - # 5
    frequency:  499.1930649122
  - # 6
    frequency:  499.3319529020

- q-position: [    0.0265217,    0.0000000,    0.0265217 ]
  distance:    0.0096554
  band:
  - # 1
    frequency:   10.5343871531
  - # 2
    frequency:   10.5343871531
  - # 3
    frequency:   25.9911963791
  - # 4
    frequency:  499.1822244141
  - # 5
    frequency:  499.1822244141
  - # 6
    frequency:  499.3257541891

- q-position: [    0.0269565,    0.0000000,    0.0269565 ]
  distance:    0.0098137
  band:
  - # 1
    frequency:   10.7069876120
  - # 2
    frequency:   10.7069876120
  - # 3
    frequency:   26.4167564993
  - # 4
    frequency:  499.1712057390
  - # 5
    frequency:  499.1712057390
  - # 6
    frequency:  499.3194522641

- q-position: [    0.0273913,    0.0000000,    0.0273913 ]
  distance:    0.0099720
  band:
  - # 1
    frequency:   10.8795834287
  - # 2
    frequency:   10.8795834287
  - # 3
    frequency:   26.8422910215
  - # 4
    frequency:  499.1600089365
  - # 5
    frequency:  499.1600089365
  - # 6
    frequency:  499.3130470899

- q-position: [    0.0278261,    0.0000000,    0.0278261 ]
  distance:    0.0101303
  band:
  - # 1
    frequency:   11.0521745254
  - # 2
    frequency:   11.0521745254
  - # 3
    frequency:   27.2677995339
  - # 4
    frequency:  499.1486340568
  - # 5
    frequency:  499.1486340568
  - # 6
    frequency:  499.3065386288

- q-position: [    0.0282609,    0.0000000,    0.0282609 ]
  distance:    0.0102886
  band:
  - # 1
    frequency:   11.2247608242
  - # 2
    frequency:   11.2247608242
  - # 3
    frequency:   27.6932816248
  - # 4
    frequency:  499.1370811509
  - # 5
    frequency:  499.1370811509
  - # 6
    frequency:  499.2999268427

- q-position: [    0.0286957,    0.0000000,    0.0286957 ]
  distance:    0.0104469
  band:
  - # 1
    frequency:   11.3973422469
  - # 2
    frequency:   11.3973422469
  - # 3
    frequency:   28.1187368828
  - # 4
    frequency:  499.1253502708
  - # 5
    frequency:  499.1253502708
  - # 6
    frequency:  499.2932116928

- q-position: [    0.0291304,    0.0000000,    0.0291304 ]
  distance:    0.0106051
  band:
  - # 1
    frequency:   11.5699187153
  - # 2
    frequency:   11.5699187153
  - # 3
    frequency:   28.5441648963
  - # 4
    frequency:  499.1134414692
  - # 5
    frequency:  499.1134414692
  - # 6
    frequency:  499.2863931397

- q-position: [    0.0295652,    0.0000000,    0.0295652 ]
  distance:    0.0107634
  band:
  - # 1
    frequency:   11.7424901510
  - # 2
    frequency:   11.7424901510
  - # 3
    frequency:   28.9695652538
  - # 4
    frequency:  499.1013547994
  - # 5
    frequency:  499.1013547994
  - # 6
    frequency:  499.2794711433

- q-position: [    0.0300000,    0.0000000,    0.0300000 ]
  distance:    0.0109217
  band:
  - # 1
    frequency:   11.9150564753
  - # 2
    frequency:   11.9150564753
  - # 3
    frequency:   29.3949375441
  - # 4
    frequency:  499.0890903159
  - # 5
    frequency:  499.0890903159
  - # 6
    frequency:  499.2724456632

- q-position: [    0.0304348,    0.0000000,    0.0304348 ]
  distance:    0.0110800
  band:
  - # 1
    frequency:   12.0876176096
  - # 2
    frequency:   12.0876176096
  - # 3
    frequency:   29.8202813558
  - # 4
    frequency:  499.0766480738
  - # 5
    frequency:  499.0766480738
  - # 6
    frequency:  499.2653166581

- q-position: [    0.0308696,    0.0000000,    0.0308696 ]
  distance:    0.0112383
  band:
  - # 1
    frequency:   12.2601734751
  - # 2
    frequency:   12.2601734751
  - # 3
    frequency:   30.2455962776
  - # 4
    frequency:  499.0640281288
  - # 5
    frequency:  499.0640281288
  - # 6
    frequency:  499.2580840862

- q-position: [    0.0313043,    0.0000000,    0.0313043 ]
  distance:    0.0113966
  band:
  - # 1
    frequency:   12.4327239926
  - # 2
    frequency:   12.4327239926
  - # 3
    frequency:   30.6708818983
  - # 4
    frequency:  499.0512305379
  - # 5
    frequency:  499.0512305379
  - # 6
    frequency:  499.2507479052

- q-position: [    0.0317391,    0.0000000,    0.0317391 ]
  distance:    0.0115549
  band:
  - # 1
    frequency:   12.6052690830
  - # 2
    frequency:   12.6052690830
  - # 3
    frequency:   31.0961378069
  - # 4
    frequency:  499.0382553584
  - # 5
    frequency:  499.0382553584
  - # 6
    frequency:  499.2433080721

- q-position: [    0.0321739,    0.0000000,    0.0321739 ]
  distance:    0.0117131
  band:
  - # 1
    frequency:   12.7778086669
  - # 2
    frequency:   12.7778086669
  - # 3
    frequency:   31.5213635922
  - # 4
    frequency:  499.0251026488
  - # 5
    frequency:  499.0251026488
  - # 6
    frequency:  499.2357645434

- q-position: [    0.0326087,    0.0000000,    0.0326087 ]
  distance:    0.0118714
  band:
  - # 1
    frequency:   12.9503426649
  - # 2
    frequency:   12.9503426649
  - # 3
    frequency:   31.9465588433
  - # 4
    frequency:  499.0117724682
  - # 5
    frequency:  499.0117724682
  - # 6
    frequency:  499.2281172749

- q-position: [    0.0330435,    0.0000000,    0.0330435 ]
  distance:    0.0120297
  band:
  - # 1
    frequency:   13.1228709973
  - # 2
    frequency:   13.1228709973
  - # 3
    frequency:   32.3717231493
  - # 4
    frequency:  498.9982648765
  - # 5
    frequency:  498.9982648765
  - # 6
    frequency:  499.2203662219

- q-position: [    0.0334783,    0.0000000,    0.0334783 ]
  distance:    0.0121880
  band:
  - # 1
    frequency:   13.2953935841
  - # 2
    frequency:   13.2953935841
  - # 3
    frequency:   32.7968560992
  - # 4
    frequency:  498.9845799345
  - # 5
    frequency:  498.9845799345
  - # 6
    frequency:  499.2125113390

- q-position: [    0.0339130,    0.0000000,    0.0339130 ]
  distance:    0.0123463
  band:
  - # 1
    frequency:   13.4679103454
  - # 2
    frequency:   13.4679103454
  - # 3
    frequency:   33.2219572823
  - # 4
    frequency:  498.9707177039
  - # 5
    frequency:  498.9707177039
  - # 6
    frequency:  499.2045525803

- q-position: [    0.0343478,    0.0000000,    0.0343478 ]
  distance:    0.0125046
  band:
  - # 1
    frequency:   13.6404212010
  - # 2
    frequency:   13.6404212010
  - # 3
    frequency:   33.6470262880
  - # 4
    frequency:  498.9566782469
  - # 5
    frequency:  498.9566782469
  - # 6
    frequency:  499.1964898994

- q-position: [    0.0347826,    0.0000000,    0.0347826 ]
  distance:    0.0126629
  band:
  - # 1
    frequency:   13.8129260705
  - # 2
    frequency:   13.8129260705
  - # 3
    frequency:   34.0720627054
  - # 4
    frequency:  498.9424616268
  - # 5
    frequency:  498.9424616268
  - # 6
    frequency:  499.1883232491

- q-position: [    0.0352174,    0.0000000,    0.0352174 ]
  distance:    0.0128211
  band:
  - # 1
    frequency:   13.9854248734
  - # 2
    frequency:   13.9854248734
  - # 3
    frequency:   34.4970661241
  - # 4
    frequency:  498.9280679076
  - # 5
    frequency:  498.9280679076
  - # 6
    frequency:  499.1800525817

- q-position: [    0.0356522,    0.0000000,    0.0356522 ]
  distance:    0.0129794
  band:
  - # 1
    frequency:   14.1579175290
  - # 2
    frequency:   14.1579175290
  - # 3
    frequency:   34.9220361336
  - # 4
    frequency:  498.9134971540
  - # 5
    frequency:  498.9134971540
  - # 6
    frequency:  499.1716778489

- q-position: [    0.0360870,    0.0000000,    0.0360870 ]
  distance:    0.0131377
  band:
  - # 1
    frequency:   14.3304039563
  - # 2
    frequency:   14.3304039563
  - # 3
    frequency:   35.3469723234
  - # 4
    frequency:  498.8987494318
  - # 5
    frequency:  498.8987494318
  - # 6
    frequency:  499.1631990019

- q-position: [    0.0365217,    0.0000000,    0.0365217 ]
  distance:    0.0132960
  band:
  - # 1
    frequency:   14.5028840742
  - # 2
    frequency:   14.5028840742
  - # 3
    frequency:   35.7718742832
  - # 4
    frequency:  498.8838248073
  - # 5
    frequency:  498.8838248073
  - # 6
    frequency:  499.1546159912

- q-position: [    0.0369565,    0.0000000,    0.0369565 ]
  distance:    0.0134543
  band:
  - # 1
    frequency:   14.6753578014
  - # 2
    frequency:   14.6753578014
  - # 3