   8
   1   1
    12.960974735000001    -0.000000000000000    -0.000000000000000
    -0.000000000000000    12.960974735000001    -0.000000000000000
    -0.000000000000000    -0.000000000000000    12.960974735000001
   1   2
    -3.221296700200000    -2.246197576750000    -2.246197576750000
    -2.246197576750000    -3.221296700200000    -2.246197576750000
    -2.246197576750000    -2.246197576750000    -3.221296700200000
   1   3
     1.734015644500000    -0.000000000000000     0.000000000000000
    -0.000000000000000    -0.904901789350000    -0.000000000000000
     0.000000000000000    -0.000000000000000    -0.904901789350000
   1   4
    -3.221296700200000     2.246197576750000     2.246197576750000
     2.246197576750000    -3.221296700200000    -2.246197576750000
     2.246197576750000    -2.246197576750000    -3.221296700200000
   1   5
    -0.904901789350000     0.000000000000000     0.000000000000000
     0.000000000000000     1.734015644500000    -0.000000000000000
     0.000000000000000    -0.000000000000000    -0.904901789350000
   1   6
    -3.221296700200000     2.246197576750000    -2.246197576750000
     2.246197576750000    -3.221296700200000     2.246197576750000
    -2.246197576750000     2.246197576750000    -3.221296700200000
   1   7
    -0.904901789350000    -0.000000000000000     0.000000000000000
    -0.000000000000000    -0.904901789350000    -0.000000000000000
     0.000000000000000    -0.000000000000000     1.734015644500000
   1   8
    -3.221296700200000    -2.246197576750000     2.246197576750000
    -2.246197576750000    -3.221296700200000     2.246197576750000
     2.246197576750000     2.246197576750000    -3.221296700200000
   2   1
    -3.221296700200000    -2.246197576750000    -2.246197576750000
    -2.246197576750000    -3.221296700200000    -2.246197576750000
    -2.246197576750000    -2.246197576750000    -3.221296700200000
   2   2
    12.960974735000001    -0.000000000000000    -0.000000000000000
    -0.000000000000000    12.960974735000001    -0.000000000000000
    -0.000000000000000    -0.000000000000000    12.960974735000001
   2   3
    -3.221296700200000     2.246197576750000     2.246197576750000
     2.246197576750000    -3.221296700200000    -2.246197576750000
     2.246197576750000    -2.246197576750000    -3.221296700200000
   2   4
     1.734015644500000    -0.000000000000000     0.000000000000000
    -0.000000000000000    -0.904901789350000    -0.000000000000000
     0.000000000000000    -0.000000000000000    -0.904901789350000
   2   5
    -3.221296700200000     2.246197576750000    -2.246197576750000
     2.246197576750000    -3.221296700200000     2.246197576750000
    -2.246197576750000     2.246197576750000    -3.221296700200000
   2   6
    -0.904901789350000     0.000000000000000     0.000000000000000
     0.000000000000000     1.734015644500000    -0.000000000000000
     0.000000000000000    -0.000000000000000    -0.904901789350000
   2   7
    -3.221296700200000    -2.246197576750000     2.246197576750000
    -2.246197576750000    -3.221296700200000     2.246197576750000
     2.246197576750000     2.246197576750000    -3.221296700200000
   2   8
    -0.904901789350000    -0.000000000000000     0.000000000000000
    -0.000000000000000    -0.904901789350000    -0.000000000000000
     0.000000000000000    -0.000000000000000     1.734015644500000
   3   1
     1.734015644500000    -0.000000000000000     0.000000000000000
    -0.000000000000000    -0.904901789350000    -0.000000000000000
     0.000000000000000    -0.000000000000000    -0.904901789350000
   3   2
    -3.221296700200000     2.246197576750000     2.246197576750000
     2.246197576750000    -3.221296700200000    -2.246197576750000
     2.246197576750000    -2.246197576750000    -3.221296700200000
   3   3
    12.960974735000001    -0.000000000000000    -0.000000000000000
    -0.000000000000000    12.960974735000001    -0.000000000000000
    -0.000000000000000    -0.000000000000000    12.960974735000001
   3   4
    -3.221296700200000    -2.246197576750000    -2.246197576750000
    -2.246197576750000    -3.221296700200000    -2.246197576750000
    -2.246197576750000    -2.246197576750000    -3.221296700200000
   3   5
    -0.904901789350000    -0.000000000000000     0.000000000000000
    -0.000000000000000    -0.904901789350000    -0.000000000000000
     0.000000000000000    -0.000000000000000     1.734015644500000
   3   6
    -3.221296700200000    -2.246197576750000     2.246197576750000
    -2.246197576750000    -3.221296700200000     2.246197576750000
     2.246197576750000     2.246197576750000    -3.221296700200000
   3   7
    -0.904901789350000     0.000000000000000     0.000000000000000
     0.000000000000000     1.734015644500000    -0.000000000000000
     0.000000000000000    -0.000000000000000    -0.904901789350000
   3   8
    -3.221296700200000     2.246197576750000    -2.246197576750000
     2.246197576750000    -3.221296700200000     2.246197576750000
    -2.246197576750000     2.246197576750000    -3.221296700200000
   4   1
    -3.221296700200000     2.246197576750000     2.246197576750000
     2.246197576750000    -3.221296700200000    -2.246197576750000
     2.246197576750000    -2.246197576750000    -3.221296700200000
   4   2
     1.734015644500000    -0.000000000000000     0.000000000000000
    -0.000000000000000    -0.904901789350000    -0.000000000000000
     0.000000000000000    -0.000000000000000    -0.904901789350000
   4   3
    -3.221296700200000    -2.246197576750000    -2.246197576750000
    -2.246197576750000    -3.221296700200000    -2.246197576750000
    -2.246197576750000    -2.246197576750000    -3.221296700200000
   4   4
    12.960974735000001    -0.000000000000000    -0.000000000000000
    -0.000000000000000    12.960974735000001    -0.000000000000000
    -0.000000000000000    -0.000000000000000    12.960974735000001
   4   5
    -3.221296700200000    -2.246197576750000     2.246197576750000
    -2.246197576750000    -3.221296700200000     2.246197576750000
     2.246197576750000     2.246197576750000    -3.221296700200000
   4   6
    -0.904901789350000    -0.000000000000000     0.000000000000000
    -0.000000000000000    -0.904901789350000    -0.000000000000000
     0.000000000000000    -0.000000000000000     1.734015644500000
   4   7
    -3.221296700200000     2.246197576750000    -2.246197576750000
     2.246197576750000    -3.221296700200000     2.246197576750000
    -2.246197576750000     2.246197576750000    -3.221296700200000
   4   8
    -0.904901789350000     0.000000000000000     0.000000000000000
     0.000000000000000     1.734015644500000    -0.000000000000000
     0.000000000000000    -0.000000000000000    -0.904901789350000
   5   1
    -0.904901789350000     0.000000000000000     0.000000000000000
     0.000000000000000     1.734015644500000    -0.000000000000000
     0.000000000000000    -0.000000000000000    -0.904901789350000
   5   2
    -3.221296700200000     2.246197576750000    -2.246197576750000
     2.246197576750000    -3.221296700200000     2.246197576750000
    -2.246197576750000     2.246197576750000    -3.221296700200000
   5   3
    -0.904901789350000    -0.000000000000000     0.000000000000000
    -0.000000000000000    -0.904901789350000    -0.000000000000000
     0.000000000000000    -0.000000000000000     1.734015644500000
   5   4
    -3.221296700200000    -2.246197576750000     2.246197576750000
    -2.246197576750000    -3.221296700200000     2.246197576750000
     2.246197576750000     2.246197576750000    -3.221296700200000
   5   5
    12.960974735000001    -0.000000000000000    -0.000000000000000
    -0.000000000000000    12.960974735000001    -0.000000000000000
    -0.000000000000000    -0.000000000000000    12.960974735000001
   5   6
    -3.221296700200000    -2.246197576750000    -2.246197576750000
    -2.246197576750000    -3.221296700200000    -2.246197576750000
    -2.246197576750000    -2.246197576750000    -3.221296700200000
   5   7
     1.734015644500000    -0.000000000000000     0.000000000000000
    -0.000000000000000    -0.904901789350000    -0.000000000000000
     0.000000000000000    -0.000000000000000    -0.904901789350000
   5   8
    -3.221296700200000     2.246197576750000     2.246197576750000
     2.246197576750000    -3.221296700200000    -2.246197576750000
     2.246197576750000    -2.246197576750000    -3.221296700200000
   6   1
    -3.221296700200000     2.246197576750000    -2.246197576750000
     2.246197576750000    -3.221296700200000     2.246197576750000
    -2.246197576750000     2.246197576750000    -3.221296700200000
   6   2
    -0.904901789350000     0.000000000000000     0.000000000000000
     0.000000000000000     1.734015644500000    -0.000000000000000
     0.000000000000000    -0.000000000000000    -0.904901789350000
   6   3
    -3.221296700200000    -2.246197576750000     2.246197576750000
    -2.246197576750000    -3.221296700200000     2.246197576750000
     2.246197576750000     2.246197576750000    -3.221296700200000
   6   4
    -0.904901789350000    -0.000000000000000     0.000000000000000
    -0.000000000000000    -0.904901789350000    -0.000000000000000
     0.000000000000000    -0.000000000000000     1.734015644500000
   6   5
    -3.221296700200000    -2.246197576750000    -2.246197576750000
    -2.246197576750000    -3.221296700200000    -2.246197576750000
    -2.246197576750000    -2.246197576750000    -3.221296700200000
   6   6
    12.960974735000001    -0.000000000000000    -0.000000000000000
    -0.000000000000000    12.960974735000001    -0.000000000000000
    -0.000000000000000    -0.000000000000000    12.960974735000001
   6   7
    -3.221296700200000     2.246197576750000     2.246197576750000
     2.246197576750000    -3.221296700200000    -2.246197576750000
     2.246197576750000    -2.246197576750000    -3.221296700200000
   6   8
     1.734015644500000    -0.000000000000000     0.000000000000000
    -0.000000000000000    -0.904901789350000    -0.000000000000000
     0.000000000000000    -0.000000000000000    -0.904901789350000
   7   1
    -0.904901789350000    -0.000000000000000     0.000000000000000
    -0.000000000000000    -0.904901789350000    -0.000000000000000
     0.000000000000000    -0.000000000000000     1.734015644500000
   7   2
    -3.221296700200000    -2.246197576750000     2.246197576750000
    -2.246197576750000    -3.221296700200000     2.246197576750000
     2.246197576750000     2.246197576750000    -3.221296700200000
   7   3
    -0.904901789350000     0.000000000000000     0.000000000000000
     0.000000000000000     1.734015644500000    -0.000000000000000
     0.000000000000000    -0.000000000000000    -0.904901789350000
   7   4
    -3.221296700200000     2.246197576750000    -2.246197576750000
     2.246197576750000    -3.221296700200000     2.246197576750000
    -2.246197576750000     2.246197576750000    -3.221296700200000
   7   5
     1.734015644500000    -0.000000000000000     0.000000000000000
    -0.000000000000000    -0.904901789350000    -0.000000000000000
     0.000000000000000    -0.000000000000000    -0.904901789350000
   7   6
    -3.221296700200000     2.246197576750000     2.246197576750000
     2.246197576750000    -3.221296700200000    -2.246197576750000
     2.246197576750000    -2.246197576750000    -3.221296700200000
   7   7
    12.960974735000001    -0.000000000000000    -0.000000000000000
    -0.000000000000000    12.960974735000001    -0.000000000000000
    -0.000000000000000    -0.000000000000000    12.960974735000001
   7   8
    -3.221296700200000    -2.246197576750000    -2.246197576750000
    -2.246197576750000    -3.221296700200000    -2.246197576750000
    -2.246197576750000    -2.246197576750000    -3.221296700200000
   8   1
    -3.221296700200000    -2.246197576750000     2.246197576750000
    -2.246197576750000    -3.221296700200000     2.246197576750000
     2.246197576750000     2.246197576750000    -3.221296700200000
   8   2
    -0.904901789350000    -0.000000000000000     0.000000000000000
    -0.000000000000000    -0.904901789350000    -0.000000000000000
     0.000000000000000    -0.000000000000000     1.734015644500000
   8   3
    -3.221296700200000     2.246197576750000    -2.246197576750000
     2.246197576750000    -3.221296700200000     2.246197576750000
    -2.246197576750000     2.246197576750000    -3.221296700200000
   8   4
    -0.904901789350000     0.000000000000000     0.000000000000000
     0.000000000000000     1.734015644500000    -0.000000000000000
     0.000000000000000    -0.000000000000000    -0.904901789350000
   8   5
    -3.221296700200000     2.246197576750000     2.246197576750000
     2.246197576750000    -3.221296700200000    -2.246197576750000
     2.246197576750000    -2.246197576750000    -3.221296700200000
   8   6
     1.734015644500000    -0.000000000000000     0.000000000000000
    -0.000000000000000    -0.904901789350000    -0.000000000000000
     0.000000000000000    -0.000000000000000    -0.904901789350000
   8   7
    -3.221296700200000    -2.246197576750000    -2.246197576750000
    -2.246197576750000    -3.221296700200000    -2.246197576750000
    -2.246197576750000    -2.246197576750000    -3.221296700200000
   8   8
    12.960974735000001    -0.000000000000000    -0.000000000000000
    -0.000000000000000    12.960974735000001    -0.000000000000000
    -0.000000000000000    -0.000000000000000    12.960974735000001
