LAMMPS data file via write_data, version 13 Jan 2016, timestep = 276

1152 atoms
1 atom types

2.2925804901663899e-01 3.4136131240983360e+01 xlo xhi
1.6986386259214487e-01 2.6694796723407862e+01 ylo yhi
-1.4900686720374231e-02 4.6641896978720396e+01 zlo zhi
1.1310269374251861e+01 0.0000000000000000e+00 0.0000000000000000e+00 xy xz yz

Masses

1 26.982

Atoms # charge

1 1 0.0000000000000000e+00 2.8495728067493580e+01 2.6189188508769390e+00 1.3857667381751565e+01 0 0 0
2 1 0.0000000000000000e+00 3.4150862754619610e+01 1.5881385281284800e+01 1.3857667381751563e+01 0 0 0
3 1 0.0000000000000000e+00 5.8911459395157681e+00 2.6189188508769421e+00 1.3857667381751570e+01 0 0 0
4 1 0.0000000000000000e+00 1.1546280626641796e+01 1.5881385281284802e+01 1.3857667381751563e+01 0 0 0
5 1 0.0000000000000000e+00 1.7193437003504670e+01 2.6189188508769421e+00 1.3857667381751570e+01 0 0 0
6 1 0.0000000000000000e+00 2.2848571690630703e+01 1.5881385281284805e+01 1.3857667381751570e+01 0 0 0
7 1 0.0000000000000000e+00 2.2821683436018095e+01 2.6276192011753015e+00 1.3866727356034657e+01 0 0 0
8 1 0.0000000000000000e+00 2.8476818123144110e+01 1.5890085631583165e+01 1.3866727356034660e+01 0 0 0
9 1 0.0000000000000000e+00 3.4123974500007009e+01 2.6276192011753037e+00 1.3866727356034660e+01 0 0 0
10 1 0.0000000000000000e+00 3.9779109187133010e+01 1.5890085631583162e+01 1.3866727356034655e+01 0 0 0
11 1 0.0000000000000000e+00 1.1519392372029188e+01 2.6276192011753068e+00 1.3866727356034660e+01 0 0 0
12 1 0.0000000000000000e+00 1.7174527059155213e+01 1.5890085631583165e+01 1.3866727356034657e+01 0 0 0
13 1 0.0000000000000000e+00 3.4123441601799058e+01 1.9439278708834721e+01 1.5589605435466771e+01 0 0 0
14 1 0.0000000000000000e+00 2.8468306914673033e+01 6.1768122784268549e+00 1.5589605435466765e+01 0 0 0
15 1 0.0000000000000000e+00 1.1518859473821237e+01 1.9439278708834724e+01 1.5589605435466769e+01 0 0 0
16 1 0.0000000000000000e+00 5.8637247866952160e+00 6.1768122784268655e+00 1.5589605435466765e+01 0 0 0
17 1 0.0000000000000000e+00 2.2821150537810155e+01 1.9439278708834724e+01 1.5589605435466776e+01 0 0 0
18 1 0.0000000000000000e+00 1.7166015850684122e+01 6.1768122784268611e+00 1.5589605435466769e+01 0 0 0
19 1 0.0000000000000000e+00 3.6963585569015244e+01 2.4276393641514463e+01 1.4666475043216264e+01 0 0 0
20 1 0.0000000000000000e+00 3.1308450881889300e+01 1.1013927211106600e+01 1.4666475043216263e+01 0 0 0
21 1 0.0000000000000000e+00 1.4359003441037428e+01 2.4276393641514467e+01 1.4666475043216268e+01 0 0 0
22 1 0.0000000000000000e+00 8.7038687539114932e+00 1.1013927211106607e+01 1.4666475043216263e+01 0 0 0
23 1 0.0000000000000000e+00 2.5661294505026337e+01 2.4276393641514471e+01 1.4666475043216268e+01 0 0 0
24 1 0.0000000000000000e+00 2.0006159817900400e+01 1.1013927211106607e+01 1.4666475043216263e+01 0 0 0
25 1 0.0000000000000000e+00 3.1323390261196113e+01 2.0685700128274572e+01 1.3180377867560336e+01 0 0 0
26 1 0.0000000000000000e+00 2.5668255574070056e+01 7.4232336978667126e+00 1.3180377867560344e+01 0 0 0
27 1 0.0000000000000000e+00 4.2625681325185013e+01 2.0685700128274576e+01 1.3180377867560336e+01 0 0 0
28 1 0.0000000000000000e+00 3.6970546638058977e+01 7.4232336978667126e+00 1.3180377867560344e+01 0 0 0
29 1 0.0000000000000000e+00 2.0021099197207210e+01 2.0685700128274576e+01 1.3180377867560344e+01 0 0 0
30 1 0.0000000000000000e+00 1.4365964510081156e+01 7.4232336978667171e+00 1.3180377867560344e+01 0 0 0
31 1 0.0000000000000000e+00 3.1326292296354225e+01 2.4240773642627730e+01 1.4621897933279138e+01 0 0 0
32 1 0.0000000000000000e+00 2.5671157609228295e+01 1.0978307212219875e+01 1.4621897933279131e+01 0 0 0
33 1 0.0000000000000000e+00 4.2628583360343136e+01 2.4240773642627730e+01 1.4621897933279133e+01 0 0 0
34 1 0.0000000000000000e+00 3.6973448673217199e+01 1.0978307212219875e+01 1.4621897933279131e+01 0 0 0
35 1 0.0000000000000000e+00 2.0024001232365325e+01 2.4240773642627730e+01 1.4621897933279140e+01 0 0 0
36 1 0.0000000000000000e+00 1.4368866545239388e+01 1.0978307212219878e+01 1.4621897933279131e+01 0 0 0
37 1 0.0000000000000000e+00 3.2724747103921260e+01 5.1063324807857748e+00 1.3533859198669244e+01 0 0 0
38 1 0.0000000000000000e+00 3.8379881791047282e+01 1.8368798911193636e+01 1.3533859198669244e+01 0 0 0
39 1 0.0000000000000000e+00 1.0120164975943442e+01 5.1063324807857766e+00 1.3533859198669241e+01 0 0 0
40 1 0.0000000000000000e+00 1.5775299663069479e+01 1.8368798911193640e+01 1.3533859198669241e+01 0 0 0
41 1 0.0000000000000000e+00 2.1422456039932339e+01 5.1063324807857757e+00 1.3533859198669244e+01 0 0 0
42 1 0.0000000000000000e+00 2.7077590727058386e+01 1.8368798911193640e+01 1.3533859198669246e+01 0 0 0
43 1 0.0000000000000000e+00 2.7073706463796082e+01 5.0047429162204908e+00 1.3482247064099150e+01 0 0 0
44 1 0.0000000000000000e+00 3.2728841150922129e+01 1.8267209346628352e+01 1.3482247064099150e+01 0 0 0
45 1 0.0000000000000000e+00 4.4691243358182735e+00 5.0047429162204882e+00 1.3482247064099148e+01 0 0 0
46 1 0.0000000000000000e+00 1.0124259022944319e+01 1.8267209346628352e+01 1.3482247064099148e+01 0 0 0
47 1 0.0000000000000000e+00 1.5771415399807179e+01 5.0047429162204953e+00 1.3482247064099154e+01 0 0 0
48 1 0.0000000000000000e+00 2.1426550086933219e+01 1.8267209346628356e+01 1.3482247064099154e+01 0 0 0
49 1 0.0000000000000000e+00 3.8381085705219760e+01 2.1787392920369790e+01 1.4978483475849798e+01 0 0 0
50 1 0.0000000000000000e+00 3.2725951018093774e+01 8.5249264899619277e+00 1.4978483475849798e+01 0 0 0
51 1 0.0000000000000000e+00 1.5776503577241947e+01 2.1787392920369790e+01 1.4978483475849805e+01 0 0 0
52 1 0.0000000000000000e+00 1.0121368890115955e+01 8.5249264899619295e+00 1.4978483475849794e+01 0 0 0
53 1 0.0000000000000000e+00 2.7078794641230857e+01 2.1787392920369793e+01 1.4978483475849805e+01 0 0 0
54 1 0.0000000000000000e+00 2.1423659954104860e+01 8.5249264899619313e+00 1.4978483475849798e+01 0 0 0
55 1 0.0000000000000000e+00 2.9905934521049776e+01 1.9315715539010575e-01 1.4263964222770944e+01 0 1 0
56 1 0.0000000000000000e+00 3.5561069208175752e+01 1.3455623585797960e+01 1.4263964222770939e+01 0 0 0
57 1 0.0000000000000000e+00 7.3013523930719630e+00 1.9315715539010736e-01 1.4263964222770944e+01 0 1 0
58 1 0.0000000000000000e+00 1.2956487080197942e+01 1.3455623585797966e+01 1.4263964222770939e+01 0 0 0
59 1 0.0000000000000000e+00 1.8603643457060866e+01 1.9315715539011047e-01 1.4263964222770944e+01 0 1 0
60 1 0.0000000000000000e+00 2.4258778144186852e+01 1.3455623585797966e+01 1.4263964222770939e+01 0 0 0
61 1 0.0000000000000000e+00 3.2729926647410082e+01 2.1875228575735726e+01 1.5179601728965892e+01 0 0 0
62 1 0.0000000000000000e+00 2.7074791960284088e+01 8.6127621453278707e+00 1.5179601728965892e+01 0 0 0
63 1 0.0000000000000000e+00 1.0125344519432275e+01 2.1875228575735715e+01 1.5179601728965892e+01 0 0 0
64 1 0.0000000000000000e+00 4.4702098323062796e+00 8.6127621453278618e+00 1.5179601728965892e+01 0 0 0
65 1 0.0000000000000000e+00 2.1427635583421189e+01 2.1875228575735733e+01 1.5179601728965897e+01 0 0 0
66 1 0.0000000000000000e+00 1.5772500896295185e+01 8.6127621453278671e+00 1.5179601728965887e+01 0 0 0
67 1 0.0000000000000000e+00 2.4238973842075520e+01 1.9320572395045890e-01 1.4263923518052742e+01 0 1 0
68 1 0.0000000000000000e+00 2.9894108529201496e+01 1.3455672154358314e+01 1.4263923518052737e+01 0 0 0
69 1 0.0000000000000000e+00 1.6343917140977080e+00 1.9320572395045540e-01 1.4263923518052739e+01 0 1 0
70 1 0.0000000000000000e+00 7.2895264012236849e+00 1.3455672154358314e+01 1.4263923518052737e+01 0 0 0
71 1 0.0000000000000000e+00 1.2936682778086615e+01 1.9320572395046015e-01 1.4263923518052742e+01 0 1 0
72 1 0.0000000000000000e+00 1.8591817465212600e+01 1.3455672154358318e+01 1.4263923518052737e+01 0 0 0
73 1 0.0000000000000000e+00 2.9887653967435398e+01 5.0349398274129991e+00 1.3508508127411892e+01 0 0 0
74 1 0.0000000000000000e+00 3.5542788654561434e+01 1.8297406257820857e+01 1.3508508127411888e+01 0 0 0
75 1 0.0000000000000000e+00 7.2830718394575786e+00 5.0349398274129991e+00 1.3508508127411892e+01 0 0 0
76 1 0.0000000000000000e+00 1.2938206526583624e+01 1.8297406257820860e+01 1.3508508127411888e+01 0 0 0
77 1 0.0000000000000000e+00 1.8585362903446491e+01 5.0349398274129991e+00 1.3508508127411892e+01 0 0 0
78 1 0.0000000000000000e+00 2.4240497590572534e+01 1.8297406257820860e+01 1.3508508127411893e+01 0 0 0
79 1 0.0000000000000000e+00 2.4259670753076922e+01 5.0353268403316536e+00 1.3508468929833363e+01 0 0 0
80 1 0.0000000000000000e+00 2.9914805440202965e+01 1.8297793270739518e+01 1.3508468929833363e+01 0 0 0
81 1 0.0000000000000000e+00 3.5561961817065814e+01 5.0353268403316509e+00 1.3508468929833365e+01 0 0 0
82 1 0.0000000000000000e+00 4.1217096504191872e+01 1.8297793270739518e+01 1.3508468929833359e+01 0 0 0
83 1 0.0000000000000000e+00 1.2957379689088011e+01 5.0353268403316536e+00 1.3508468929833365e+01 0 0 0
84 1 0.0000000000000000e+00 1.8612514376214062e+01 1.8297793270739522e+01 1.3508468929833365e+01 0 0 0
85 1 0.0000000000000000e+00 3.5577464460626793e+01 2.1851331381648226e+01 1.5114151621697021e+01 0 0 0
86 1 0.0000000000000000e+00 2.9922329773500795e+01 8.5888649512403603e+00 1.5114151621696998e+01 0 0 0
87 1 0.0000000000000000e+00 1.2972882332648979e+01 2.1851331381648226e+01 1.5114151621697021e+01 0 0 0
88 1 0.0000000000000000e+00 7.3177476455229780e+00 8.5888649512403550e+00 1.5114151621696998e+01 0 0 0
89 1 0.0000000000000000e+00 2.4275173396637879e+01 2.1851331381648226e+01 1.5114151621697021e+01 0 0 0
90 1 0.0000000000000000e+00 1.8620038709511892e+01 8.5888649512403621e+00 1.5114151621696994e+01 0 0 0
91 1 0.0000000000000000e+00 2.7072439349447531e+01 1.9641683528881707e-01 1.4262569896475178e+01 0 1 0
92 1 0.0000000000000000e+00 3.2727574036573515e+01 1.3458883265696675e+01 1.4262569896475172e+01 0 0 0
93 1 0.0000000000000000e+00 4.4678572214697168e+00 1.9641683528881618e-01 1.4262569896475178e+01 0 1 0
94 1 0.0000000000000000e+00 1.0122991908595701e+01 1.3458883265696672e+01 1.4262569896475169e+01 0 0 0
95 1 0.0000000000000000e+00 1.5770148285458628e+01 1.9641683528882042e-01 1.4262569896475179e+01 0 1 0
96 1 0.0000000000000000e+00 2.1425282972584608e+01 1.3458883265696675e+01 1.4262569896475172e+01 0 0 0
97 1 0.0000000000000000e+00 2.9882397067582520e+01 2.1851381233286187e+01 1.5114467128826924e+01 0 0 0
98 1 0.0000000000000000e+00 2.4227262380456530e+01 8.5889148028783318e+00 1.5114467128826936e+01 0 0 0
99 1 0.0000000000000000e+00 4.1184688131571434e+01 2.1851381233286183e+01 1.5114467128826918e+01 0 0 0
100 1 0.0000000000000000e+00 3.5529553444445433e+01 8.5889148028783247e+00 1.5114467128826941e+01 0 0 0
101 1 0.0000000000000000e+00 1.8580106003593624e+01 2.1851381233286187e+01 1.5114467128826924e+01 0 0 0
102 1 0.0000000000000000e+00 1.2924971316467616e+01 8.5889148028783300e+00 1.5114467128826936e+01 0 0 0
103 1 0.0000000000000000e+00 2.1421323040381068e+01 1.8849242551427028e-01 1.4265242586983563e+01 0 1 0
104 1 0.0000000000000000e+00 2.7076457727507051e+01 1.3450958855922128e+01 1.4265242586983559e+01 0 0 0
105 1 0.0000000000000000e+00 3.2723614104369972e+01 1.8849242551426401e-01 1.4265242586983568e+01 0 1 0
106 1 0.0000000000000000e+00 3.8378748791495973e+01 1.3450958855922124e+01 1.4265242586983559e+01 0 0 0
107 1 0.0000000000000000e+00 1.0119031976392160e+01 1.8849242551426915e-01 1.4265242586983568e+01 0 1 0
108 1 0.0000000000000000e+00 1.5774166663518146e+01 1.3450958855922128e+01 1.4265242586983558e+01 0 0 0
109 1 0.0000000000000000e+00 3.1324564749853355e+01 2.6274836108019088e+00 1.3866772376710850e+01 0 0 0
110 1 0.0000000000000000e+00 3.6979699436979374e+01 1.5889950041209765e+01 1.3866772376710845e+01 0 0 0
111 1 0.0000000000000000e+00 8.7199826218755394e+00 2.6274836108019120e+00 1.3866772376710847e+01 0 0 0
112 1 0.0000000000000000e+00 1.4375117309001567e+01 1.5889950041209774e+01 1.3866772376710845e+01 0 0 0
113 1 0.0000000000000000e+00 2.0022273685864448e+01 2.6274836108019133e+00 1.3866772376710845e+01 0 0 0
114 1 0.0000000000000000e+00 2.5677408372990467e+01 1.5889950041209771e+01 1.3866772376710845e+01 0 0 0
115 1 0.0000000000000000e+00 2.5650461249646852e+01 2.6190379450583428e+00 1.3857632850440758e+01 0 0 0
116 1 0.0000000000000000e+00 3.1305595936772875e+01 1.5881504375466202e+01 1.3857632850440753e+01 0 0 0
117 1 0.0000000000000000e+00 3.0458791216690355e+00 2.6190379450583428e+00 1.3857632850440758e+01 0 0 0
118 1 0.0000000000000000e+00 8.7010138087950608e+00 1.5881504375466205e+01 1.3857632850440753e+01 0 0 0
119 1 0.0000000000000000e+00 1.4348170185657944e+01 2.6190379450583463e+00 1.3857632850440758e+01 0 0 0
120 1 0.0000000000000000e+00 2.0003304872783975e+01 1.5881504375466205e+01 1.3857632850440753e+01 0 0 0
121 1 0.0000000000000000e+00 3.1285795525386913e+01 6.1968429969871766e+00 1.5557637040299946e+01 0 0 0
122 1 0.0000000000000000e+00 3.6940930212512939e+01 1.9459309427395045e+01 1.5557637040299941e+01 0 0 0
123 1 0.0000000000000000e+00 8.6812133974090990e+00 6.1968429969871845e+00 1.5557637040299952e+01 0 0 0
124 1 0.0000000000000000e+00 1.4336348084535128e+01 1.9459309427395045e+01 1.5557637040299946e+01 0 0 0
125 1 0.0000000000000000e+00 1.9983504461398020e+01 6.1968429969871837e+00 1.5557637040299946e+01 0 0 0
126 1 0.0000000000000000e+00 2.5638639148524028e+01 1.9459309427395045e+01 1.5557637040299946e+01 0 0 0
127 1 0.0000000000000000e+00 3.9800294941150185e+01 2.4276369608174267e+01 1.4666437661177438e+01 0 0 0
128 1 0.0000000000000000e+00 3.4145160254024248e+01 1.1013903177766403e+01 1.4666437661177437e+01 0 0 0
129 1 0.0000000000000000e+00 1.7195712813172371e+01 2.4276369608174267e+01 1.4666437661177438e+01 0 0 0
130 1 0.0000000000000000e+00 1.1540578126046432e+01 1.1013903177766410e+01 1.4666437661177431e+01 0 0 0
131 1 0.0000000000000000e+00 2.8498003877161278e+01 2.4276369608174267e+01 1.4666437661177438e+01 0 0 0
132 1 0.0000000000000000e+00 2.2842869190035341e+01 1.1013903177766410e+01 1.4666437661177431e+01 0 0 0
133 1 0.0000000000000000e+00 3.4135502530068266e+01 2.0685502354672206e+01 1.3180321284609228e+01 0 0 0
134 1 0.0000000000000000e+00 2.8480367842942211e+01 7.4230359242643393e+00 1.3180321284609223e+01 0 0 0
135 1 0.0000000000000000e+00 1.1530920402090446e+01 2.0685502354672209e+01 1.3180321284609231e+01 0 0 0
136 1 0.0000000000000000e+00 5.8757857149643939e+00 7.4230359242643393e+00 1.3180321284609226e+01 0 0 0
137 1 0.0000000000000000e+00 2.2833211466079355e+01 2.0685502354672209e+01 1.3180321284609237e+01 0 0 0
138 1 0.0000000000000000e+00 1.7178076778953304e+01 7.4230359242643438e+00 1.3180321284609226e+01 0 0 0
139 1 0.0000000000000000e+00 3.4135226426422307e+01 2.4240810843094554e+01 1.4621931290915306e+01 0 0 0
140 1 0.0000000000000000e+00 2.8480091739296363e+01 1.0978344412686692e+01 1.4621931290915303e+01 0 0 0
141 1 0.0000000000000000e+00 1.1530644298444484e+01 2.4240810843094554e+01 1.4621931290915306e+01 0 0 0
142 1 0.0000000000000000e+00 5.8755096113185425e+00 1.0978344412686697e+01 1.4621931290915303e+01 0 0 0
143 1 0.0000000000000000e+00 2.2832935362433389e+01 2.4240810843094554e+01 1.4621931290915308e+01 0 0 0
144 1 0.0000000000000000e+00 1.7177800675307456e+01 1.0978344412686699e+01 1.4621931290915301e+01 0 0 0
145 1 0.0000000000000000e+00 2.5659376018633647e+01 1.3841511796637229e+00 1.6351458312450816e+01 0 0 0
146 1 0.0000000000000000e+00 3.1314510705759634e+01 1.4646617610071585e+01 1.6351458312450813e+01 0 0 0
147 1 0.0000000000000000e+00 3.0547938906558452e+00 1.3841511796637267e+00 1.6351458312450823e+01 0 0 0
148 1 0.0000000000000000e+00 8.7099285777818238e+00 1.4646617610071585e+01 1.6351458312450813e+01 0 0 0
149 1 0.0000000000000000e+00 1.4357084954644746e+01 1.3841511796637267e+00 1.6351458312450823e+01 0 0 0
150 1 0.0000000000000000e+00 2.0012219641770734e+01 1.4646617610071585e+01 1.6351458312450813e+01 0 0 0
151 1 0.0000000000000000e+00 2.0009960326577843e+01 1.3854489313401506e+00 1.6354689649488876e+01 0 0 0
152 1 0.0000000000000000e+00 2.5665095013703834e+01 1.4647915361748010e+01 1.6354689649488876e+01 0 0 0
153 1 0.0000000000000000e+00 3.1312251390566761e+01 1.3854489313401506e+00 1.6354689649488868e+01 0 0 0
154 1 0.0000000000000000e+00 3.6967386077692737e+01 1.4647915361748012e+01 1.6354689649488876e+01 0 0 0
155 1 0.0000000000000000e+00 8.7076692625889365e+00 1.3854489313401561e+00 1.6354689649488876e+01 0 0 0
156 1 0.0000000000000000e+00 1.4362803949714920e+01 1.4647915361748012e+01 1.6354689649488868e+01 0 0 0
157 1 0.0000000000000000e+00 3.1314082235625460e+01 1.8266215715799124e+01 1.8098951836622412e+01 0 0 0
158 1 0.0000000000000000e+00 2.5658947548499441e+01 5.0037492853912644e+00 1.8098951836622408e+01 0 0 0
159 1 0.0000000000000000e+00 8.7095001076476439e+00 1.8266215715799131e+01 1.8098951836622405e+01 0 0 0
160 1 0.0000000000000000e+00 3.0543654205216280e+00 5.0037492853912688e+00 1.8098951836622408e+01 0 0 0
161 1 0.0000000000000000e+00 2.0011791171636556e+01 1.8266215715799131e+01 1.8098951836622412e+01 0 0 0
162 1 0.0000000000000000e+00 1.4356656484510538e+01 5.0037492853912706e+00 1.8098951836622412e+01 0 0 0
163 1 0.0000000000000000e+00 3.4159762922162045e+01 2.3113886711679406e+01 1.7198367209251344e+01 0 0 0
164 1 0.0000000000000000e+00 2.8504628235036062e+01 9.8514202812715439e+00 1.7198367209251330e+01 0 0 0
165 1 0.0000000000000000e+00 1.1555180794184228e+01 2.3113886711679417e+01 1.7198367209251344e+01 0 0 0
166 1 0.0000000000000000e+00 5.9000461070582508e+00 9.8514202812715528e+00 1.7198367209251330e+01 0 0 0
167 1 0.0000000000000000e+00 2.2857471858173138e+01 2.3113886711679406e+01 1.7198367209251344e+01 0 0 0
168 1 0.0000000000000000e+00 1.7202337171047155e+01 9.8514202812715528e+00 1.7198367209251330e+01 0 0 0
169 1 0.0000000000000000e+00 2.8517309840072752e+01 1.9459327711577963e+01 1.5557699028238277e+01 0 0 0
170 1 0.0000000000000000e+00 2.2862175152946733e+01 6.1968612811701007e+00 1.5557699028238272e+01 0 0 0
171 1 0.0000000000000000e+00 3.9819600904061673e+01 1.9459327711577963e+01 1.5557699028238275e+01 0 0 0
172 1 0.0000000000000000e+00 3.4164466216935644e+01 6.1968612811701016e+00 1.5557699028238275e+01 0 0 0
173 1 0.0000000000000000e+00 1.7215018776083852e+01 1.9459327711577963e+01 1.5557699028238277e+01 0 0 0
174 1 0.0000000000000000e+00 1.1559884088957826e+01 6.1968612811701016e+00 1.5557699028238275e+01 0 0 0
175 1 0.0000000000000000e+00 2.8470111572670742e+01 2.3101417168918779e+01 1.7184089659068835e+01 0 0 0
176 1 0.0000000000000000e+00 2.2814976885544763e+01 9.8389507385109223e+00 1.7184089659068832e+01 0 0 0
177 1 0.0000000000000000e+00 3.9772402636659656e+01 2.3101417168918783e+01 1.7184089659068832e+01 0 0 0
178 1 0.0000000000000000e+00 3.4117267949533669e+01 9.8389507385109223e+00 1.7184089659068832e+01 0 0 0
179 1 0.0000000000000000e+00 1.7167820508681842e+01 2.3101417168918783e+01 1.7184089659068835e+01 0 0 0
180 1 0.0000000000000000e+00 1.1512685821555854e+01 9.8389507385109223e+00 1.7184089659068835e+01 0 0 0
181 1 0.0000000000000000e+00 2.9897965160011250e+01 3.7792996901902249e+00 1.5960401849991223e+01 0 0 0
182 1 0.0000000000000000e+00 3.5553099847137268e+01 1.7041766120598080e+01 1.5960401849991221e+01 0 0 0
183 1 0.0000000000000000e+00 7.2933830320334314e+00 3.7792996901902236e+00 1.5960401849991227e+01 0 0 0
184 1 0.0000000000000000e+00 1.2948517719159454e+01 1.7041766120598080e+01 1.5960401849991221e+01 0 0 0
185 1 0.0000000000000000e+00 1.8595674096022339e+01 3.7792996901902289e+00 1.5960401849991229e+01 0 0 0
186 1 0.0000000000000000e+00 2.4250808783148354e+01 1.7041766120598087e+01 1.5960401849991223e+01 0 0 0
187 1 0.0000000000000000e+00 2.4248651746614875e+01 3.7793651658385761e+00 1.5960347976952082e+01 0 0 0
188 1 0.0000000000000000e+00 2.9903786433740894e+01 1.7041831596246432e+01 1.5960347976952082e+01 0 0 0
189 1 0.0000000000000000e+00 3.5550942810603793e+01 3.7793651658385747e+00 1.5960347976952082e+01 0 0 0
190 1 0.0000000000000000e+00 4.1206077497729801e+01 1.7041831596246432e+01 1.5960347976952072e+01 0 0 0
191 1 0.0000000000000000e+00 1.2946360682625974e+01 3.7793651658385778e+00 1.5960347976952082e+01 0 0 0
192 1 0.0000000000000000e+00 1.8601495369751987e+01 1.7041831596246436e+01 1.5960347976952077e+01 0 0 0
193 1 0.0000000000000000e+00 3.5552129229066082e+01 2.0704142721865477e+01 1.7654105782205722e+01 0 0 0
194 1 0.0000000000000000e+00 2.9896994541940082e+01 7.4416762914576076e+00 1.7654105782205715e+01 0 0 0
195 1 0.0000000000000000e+00 1.2947547101088285e+01 2.0704142721865473e+01 1.7654105782205722e+01 0 0 0
196 1 0.0000000000000000e+00 7.2924124139622730e+00 7.4416762914576120e+00 1.7654105782205711e+01 0 0 0
197 1 0.0000000000000000e+00 2.4249838165077186e+01 2.0704142721865477e+01 1.7654105782205729e+01 0 0 0
198 1 0.0000000000000000e+00 1.8594703477951182e+01 7.4416762914576147e+00 1.7654105782205718e+01 0 0 0
199 1 0.0000000000000000e+00 3.8382167937813740e+01 2.5506251263655919e+01 1.6759651555351269e+01 0 0 0
200 1 0.0000000000000000e+00 3.2727033250687825e+01 1.2243784833248055e+01 1.6759651555351269e+01 0 0 0
201 1 0.0000000000000000e+00 1.5777585809835930e+01 2.5506251263655919e+01 1.6759651555351272e+01 0 0 0
202 1 0.0000000000000000e+00 1.0122451122710007e+01 1.2243784833248055e+01 1.6759651555351262e+01 0 0 0
203 1 0.0000000000000000e+00 2.7079876873824833e+01 2.5506251263655919e+01 1.6759651555351272e+01 0 0 0
204 1 0.0000000000000000e+00 2.1424742186698914e+01 1.2243784833248062e+01 1.6759651555351265e+01 0 0 0
205 1 0.0000000000000000e+00 2.9906919810240375e+01 2.0704127005026578e+01 1.7654235191460437e+01 0 0 0
206 1 0.0000000000000000e+00 2.4251785123114370e+01 7.4416605746187150e+00 1.7654235191460440e+01 0 0 0
207 1 0.0000000000000000e+00 4.1209210874229285e+01 2.0704127005026578e+01 1.7654235191460430e+01 0 0 0
208 1 0.0000000000000000e+00 3.5554076187103277e+01 7.4416605746187079e+00 1.7654235191460437e+01 0 0 0
209 1 0.0000000000000000e+00 1.8604628746251468e+01 2.0704127005026578e+01 1.7654235191460437e+01 0 0 0
210 1 0.0000000000000000e+00 1.2949494059125456e+01 7.4416605746187150e+00 1.7654235191460437e+01 0 0 0
211 1 0.0000000000000000e+00 3.2731008563008857e+01 2.5497350013378650e+01 1.6746405180986422e+01 0 0 0
212 1 0.0000000000000000e+00 2.7075873875882927e+01 1.2234883582970788e+01 1.6746405180986415e+01 0 0 0
213 1 0.0000000000000000e+00 4.4033299626997774e+01 2.5497350013378650e+01 1.6746405180986418e+01 0 0 0
214 1 0.0000000000000000e+00 3.8378164939871844e+01 1.2234883582970786e+01 1.6746405180986415e+01 0 0 0
215 1 0.0000000000000000e+00 2.1428717499019950e+01 2.5497350013378650e+01 1.6746405180986422e+01 0 0 0
216 1 0.0000000000000000e+00 1.5773582811894023e+01 1.2234883582970788e+01 1.6746405180986411e+01 0 0 0
217 1 0.0000000000000000e+00 2.7073305207150142e+01 3.7839816887626001e+00 1.5946687575038485e+01 0 0 0
218 1 0.0000000000000000e+00 3.2728439894276164e+01 1.7046448119170456e+01 1.5946687575038485e+01 0 0 0
219 1 0.0000000000000000e+00 4.4687230791723245e+00 3.7839816887625908e+00 1.5946687575038487e+01 0 0 0
220 1 0.0000000000000000e+00 1.0123857766298340e+01 1.7046448119170456e+01 1.5946687575038480e+01 0 0 0
221 1 0.0000000000000000e+00 1.5771014143161237e+01 3.7839816887626001e+00 1.5946687575038485e+01 0 0 0
222 1 0.0000000000000000e+00 2.1426148830287257e+01 1.7046448119170456e+01 1.5946687575038482e+01 0 0 0
223 1 0.0000000000000000e+00 2.1422166057498238e+01 3.7835742895540765e+00 1.5966873687011091e+01 0 0 0
224 1 0.0000000000000000e+00 2.7077300744624264e+01 1.7046040719961937e+01 1.5966873687011089e+01 0 0 0
225 1 0.0000000000000000e+00 3.2724457121487141e+01 3.7835742895540689e+00 1.5966873687011097e+01 0 0 0
226 1 0.0000000000000000e+00 3.8379591808613156e+01 1.7046040719961930e+01 1.5966873687011091e+01 0 0 0
227 1 0.0000000000000000e+00 1.0119874993509328e+01 3.7835742895540729e+00 1.5966873687011097e+01 0 0 0
228 1 0.0000000000000000e+00 1.5775009680635350e+01 1.7046040719961930e+01 1.5966873687011091e+01 0 0 0
229 1 0.0000000000000000e+00 3.2729524983104753e+01 2.0702440595361054e+01 1.7659706600270596e+01 0 0 0
230 1 0.0000000000000000e+00 2.7074390295978738e+01 7.4399741649531972e+00 1.7659706600270596e+01 0 0 0
231 1 0.0000000000000000e+00 1.0124942855126935e+01 2.0702440595361050e+01 1.7659706600270592e+01 0 0 0
232 1 0.0000000000000000e+00 4.4698081680009221e+00 7.4399741649531927e+00 1.7659706600270596e+01 0 0 0
233 1 0.0000000000000000e+00 2.1427233919115849e+01 2.0702440595361054e+01 1.7659706600270603e+01 0 0 0
234 1 0.0000000000000000e+00 1.5772099231989836e+01 7.4399741649531972e+00 1.7659706600270592e+01 0 0 0
235 1 0.0000000000000000e+00 3.5552910990278207e+01 2.5502260080997306e+01 1.6752812055465114e+01 0 0 0
236 1 0.0000000000000000e+00 2.9897776303152295e+01 1.2239793650589453e+01 1.6752812055465107e+01 0 0 0
237 1 0.0000000000000000e+00 1.2948328862300398e+01 2.5502260080997306e+01 1.6752812055465117e+01 0 0 0
238 1 0.0000000000000000e+00 7.2931941751744809e+00 1.2239793650589450e+01 1.6752812055465107e+01 0 0 0
239 1 0.0000000000000000e+00 2.4250619926289321e+01 2.5502260080997317e+01 1.6752812055465121e+01 0 0 0
240 1 0.0000000000000000e+00 1.8595485239163391e+01 1.2239793650589453e+01 1.6752812055465107e+01 0 0 0
241 1 0.0000000000000000e+00 2.7078373086617372e+01 2.0706918890068891e+01 1.7631197018193987e+01 0 0 0
242 1 0.0000000000000000e+00 2.1423238399491371e+01 7.4444524596610284e+00 1.7631197018193987e+01 0 0 0
243 1 0.0000000000000000e+00 3.8380664150606279e+01 2.0706918890068881e+01 1.7631197018193987e+01 0 0 0
244 1 0.0000000000000000e+00 3.2725529463480271e+01 7.4444524596610240e+00 1.7631197018193987e+01 0 0 0
245 1 0.0000000000000000e+00 1.5776082022628465e+01 2.0706918890068888e+01 1.7631197018193987e+01 0 0 0
246 1 0.0000000000000000e+00 1.0120947335502454e+01 7.4444524596610249e+00 1.7631197018193987e+01 0 0 0
247 1 0.0000000000000000e+00 2.9909118289488266e+01 2.5502264773021238e+01 1.6752829187726956e+01 0 0 0
248 1 0.0000000000000000e+00 2.4253983602362336e+01 1.2239798342613378e+01 1.6752829187726949e+01 0 0 0
249 1 0.0000000000000000e+00 4.1211409353477151e+01 2.5502264773021224e+01 1.6752829187726952e+01 0 0 0
250 1 0.0000000000000000e+00 3.5556274666351229e+01 1.2239798342613371e+01 1.6752829187726945e+01 0 0 0
251 1 0.0000000000000000e+00 1.8606827225499348e+01 2.5502264773021235e+01 1.6752829187726956e+01 0 0 0
252 1 0.0000000000000000e+00 1.2951692538373427e+01 1.2239798342613376e+01 1.6752829187726949e+01 0 0 0
253 1 0.0000000000000000e+00 2.8485887456773057e+01 1.3841359439783003e+00 1.6351486719047312e+01 0 0 0
254 1 0.0000000000000000e+00 3.4141022143899029e+01 1.4646602374386163e+01 1.6351486719047308e+01 0 0 0
255 1 0.0000000000000000e+00 5.8813053287952348e+00 1.3841359439783076e+00 1.6351486719047315e+01 0 0 0
256 1 0.0000000000000000e+00 1.1536440015921229e+01 1.4646602374386168e+01 1.6351486719047305e+01 0 0 0
257 1 0.0000000000000000e+00 1.7183596392784157e+01 1.3841359439783065e+00 1.6351486719047308e+01 0 0 0
258 1 0.0000000000000000e+00 2.2838731079910136e+01 1.4646602374386168e+01 1.6351486719047305e+01 0 0 0
259 1 0.0000000000000000e+00 2.2833036090801450e+01 1.3854734952224319e+00 1.6354654517740745e+01 0 0 0
260 1 0.0000000000000000e+00 2.8488170777927440e+01 1.4647939925630295e+01 1.6354654517740741e+01 0 0 0
261 1 0.0000000000000000e+00 3.4135327154790353e+01 1.3854734952224330e+00 1.6354654517740748e+01 0 0 0
262 1 0.0000000000000000e+00 3.9790461841916333e+01 1.4647939925630295e+01 1.6354654517740741e+01 0 0 0
263 1 0.0000000000000000e+00 1.1530745026812538e+01 1.3854734952224395e+00 1.6354654517740752e+01 0 0 0
264 1 0.0000000000000000e+00 1.7185879713938526e+01 1.4647939925630299e+01 1.6354654517740741e+01 0 0 0
265 1 0.0000000000000000e+00 2.8488344833579021e+01 5.0037461483979930e+00 1.8098961805866164e+01 0 0 0
266 1 0.0000000000000000e+00 3.4143479520705029e+01 1.8266212578805849e+01 1.8098961805866161e+01 0 0 0
267 1 0.0000000000000000e+00 5.8837627056011996e+00 5.0037461483979939e+00 1.8098961805866164e+01 0 0 0
268 1 0.0000000000000000e+00 1.1538897392727211e+01 1.8266212578805849e+01 1.8098961805866164e+01 0 0 0
269 1 0.0000000000000000e+00 1.7186053769590114e+01 5.0037461483979984e+00 1.8098961805866161e+01 0 0 0
270 1 0.0000000000000000e+00 2.2841188456716129e+01 1.8266212578805860e+01 1.8098961805866164e+01 0 0 0
271 1 0.0000000000000000e+00 3.6990406284021525e+01 2.3101395348331657e+01 1.7184013954159841e+01 0 0 0
272 1 0.0000000000000000e+00 3.1335271596895545e+01 9.8389289179237949e+00 1.7184013954159834e+01 0 0 0
273 1 0.0000000000000000e+00 1.4385824156043697e+01 2.3101395348331657e+01 1.7184013954159845e+01 0 0 0
274 1 0.0000000000000000e+00 8.7306894689177277e+00 9.8389289179237984e+00 1.7184013954159834e+01 0 0 0
275 1 0.0000000000000000e+00 2.5688115220032611e+01 2.3101395348331657e+01 1.7184013954159848e+01 0 0 0
276 1 0.0000000000000000e+00 2.0032980532906638e+01 9.8389289179237949e+00 1.7184013954159830e+01 0 0 0
277 1 0.0000000000000000e+00 3.1334816936078237e+01 1.9439320507618270e+01 1.5589635252732926e+01 0 0 0
278 1 0.0000000000000000e+00 2.5679682248952211e+01 6.1768540772104057e+00 1.5589635252732927e+01 0 0 0
279 1 0.0000000000000000e+00 8.7302348081004215e+00 1.9439320507618273e+01 1.5589635252732926e+01 0 0 0
280 1 0.0000000000000000e+00 3.0751001209743896e+00 6.1768540772104101e+00 1.5589635252732931e+01 0 0 0
281 1 0.0000000000000000e+00 2.0032525872089327e+01 1.9439320507618277e+01 1.5589635252732922e+01 0 0 0
282 1 0.0000000000000000e+00 1.4377391184963303e+01 6.1768540772104110e+00 1.5589635252732931e+01 0 0 0
283 1 0.0000000000000000e+00 3.1300820498690900e+01 2.3113905839737928e+01 1.7198429379167536e+01 0 0 0
284 1 0.0000000000000000e+00 2.5645685811564935e+01 9.8514394093300677e+00 1.7198429379167536e+01 0 0 0
285 1 0.0000000000000000e+00 4.2603111562679807e+01 2.3113905839737917e+01 1.7198429379167536e+01 0 0 0