LAMMPS (13 Jan 2016)
include /users/knc6/inelast.mod
# Compute elastic constant tensor for a crystal
#
# Written by Aidan Thompson (Sandia, athomps@sandia.gov)
#
#  This script uses the following three include files.
#
#   init.mod      (must be modified for different crystal structures)
# 	       	  Define units, deformation parameters and initial
#		  configuration of the atoms and simulation cell.
#
#
#   potential.mod    (must be modified for different pair styles)
# 		     Define pair style and other attributes
#		     not stored in restart file
#
#
#   displace.mod    (displace.mod should not need to be modified)
# 		    Perform positive and negative box displacements
# 		    in direction ${dir} and size ${up}.
# 		    It uses the resultant changes
#		    in stress to compute one
# 		    row of the elastic stiffness tensor
#
#		    Inputs variables:
#		    	   dir = the Voigt deformation component
#		    		    (1,2,3,4,5,6)
#		    Global constants:
#       	    	   up = the deformation magnitude (strain units)
#       		   cfac = conversion from LAMMPS pressure units to
#               	   output units for elastic constants
#
#
#  To run this on a different system, it should only be necessary to
#  modify the files init.mod and potential.mod. In order to calculate
#  the elastic constants correctly, care must be taken to specify
#  the correct units in init.mod (units, cfac and cunits). It is also
#  important to verify that the minimization of energy w.r.t atom
#  positions in the deformed cell is fully converged.
#  One indication of this is that the elastic constants are insensitive
#  to the choice of the variable ${up} in init.mod. Another is to check
#  the final max and two-norm forces reported in the log file. If you know
#  that minimization is not required, you can set maxiter = 0.0 in
#  init.mod.
#
#  There are two alternate versions of displace.mod provided.
#  They are displace_restart.mod and displace_reverse.mod.
#  The former resets the box using a restart file while
#  the latter reverses the deformation. Copy whichever
#  one you like best to displace.mod.
#

include init.mod
variable dump_file string "None"
variable up  equal 1.0e-6
variable cfac  equal 1.0e-4
variable cunits  string GPa
variable etol  equal 0
variable ftol  equal 1.0e-10
variable maxiter equal 1000
variable maxeval equal 10000
variable dmax equal 1.0e-2
variable data_file string "data"
units metal
atom_style charge
boundary p p p
atom_modify sort 0 0.0

read_data data
  triclinic box = (0 0 0) to (34.3654 26.8647 46.627) with tilt (11.4551 0 0)
  1 by 1 by 1 MPI processor grid
  reading atoms ...
  1152 atoms

### interactions
mass 1 26.98154
include potential.mod
pair_style eam/alloy
pair_coeff * * /users/knc6/Software/jarvis/jarvis/lammps/examples/Al03.eam.alloy  Al
neighbor 1.0 nsq
neigh_modify once no every 1 delay 0 check yes
min_style  cg
min_modify           dmax ${dmax} line quadratic
min_modify           dmax 0.01 line quadratic
thermo          1
thermo_style custom step temp press cpu pxx pyy pzz pxy pxz pyz ke pe etotal vol lx ly lz atoms
thermo_modify norm no
#fix 3 all nph aniso 0.0 0.0 1.0
#fix langevin all langevin 0.0 0.0 1.0 12233

#fix 3 all box/relax tri 0.0 vmax 0.001
fix            3 all box/relax aniso 0.0 vmax 0.001
#fix 3 all box/relax  aniso 0.0
#dump            2a all cfg 100 *.cfg mass type xs ys zs  vx vy vz fx fy fz
#dump_modify     2a element  Mo S

#fix 1a all qeq/comb 1 0.0001 file fq.out
#fix             2 all qeq/reax 1 0.0 10.0 1e-6 /scratch/lfs/kamal/JARVIS/All2/ReaxFF/param.qeq
minimize ${etol} ${ftol} ${maxiter} ${maxeval}
minimize 0 ${ftol} ${maxiter} ${maxeval}
minimize 0 1e-10 ${maxiter} ${maxeval}
minimize 0 1e-10 1000 ${maxeval}
minimize 0 1e-10 1000 10000
Neighbor list info ...
  1 neighbor list requests
  update every 1 steps, delay 0 steps, check yes
  max neighbors/atom: 2000, page size: 100000
  master list distance cutoff = 7.72488
  ghost atom cutoff = 7.72488
Memory usage per processor = 3.40572 Mbytes
Step Temp Press CPU Pxx Pyy Pzz Pxy Pxz Pyz KinEng PotEng TotEng Volume Lx Ly Lz Atoms 
       0            0   -11276.651            0   -12024.859   -11863.843   -9941.2505 1.5381413e-06 9.7896827e-08   -182.63561            0   -3779.8751   -3779.8751     43046.72    34.365389    26.864661    46.626996     1152 
       1            0   -10379.613 0.0039758682   -11095.453   -10932.107   -9111.2801  -0.75447592 -0.011966659   -186.80855            0   -3780.6989   -3780.6989    42925.728    34.331024    26.838156    46.588449     1152 
       2            0   -9472.2559 0.0079619884   -10154.221   -9989.0303   -8273.5159   -1.6100251 -0.027343503   -191.03299            0   -3781.4512   -3781.4512    42805.265    34.296659    26.811687    46.550166     1152 
       3            0   -8554.7772  0.011952877   -9201.2262   -9034.7672   -7428.3383   -2.5834872 -0.046863161   -195.31866            0   -3782.1315   -3782.1315    42685.372    34.262293     26.78526    46.512189     1152 
       4            0   -7627.5071  0.015956879   -8236.6294   -8069.6008   -6576.2912    -3.695656 -0.071273545   -199.66797            0   -3782.7395   -3782.7395    42566.106    34.227928    26.758882    46.474566     1152 
       5            0   -6691.1917   0.01996088   -7260.9622   -7094.1967   -5718.4161   -4.9735258  -0.10207198   -204.11176            0   -3783.2748   -3783.2748    42447.542    34.193562    26.732564    46.437366     1152 
       6            0    -5746.729  0.023969889   -6274.8453   -6109.3803   -4855.9613   -6.4534334  -0.14070962   -208.64299            0   -3783.7373   -3783.7373     42329.78    34.159197    26.706319    46.400679     1152 
       7            0   -4795.2339   0.02797389   -5278.9831   -5116.1349   -3990.5838   -8.1878728   -0.1890013   -213.29764            0   -3784.1268   -3784.1268    42212.968    34.124832    26.680165    46.364637     1152 
       8            0   -3838.5744  0.031991959   -4274.6617   -4116.1431   -3124.9183   -10.253676  -0.24932685   -218.11919            0   -3784.4434   -3784.4434    42097.328    34.090466    26.654133    46.329438     1152 
       9            0   -2880.0692  0.049118996   -3264.2602   -3112.4608   -2263.4866   -12.771425  -0.32631596   -223.12899            0   -3784.6876   -3784.6876    41983.222    34.056101    26.628269    46.295408     1152 
      10            0   -1925.5899  0.053148985   -2251.9299   -2110.3968   -1414.4429   -15.971319  -0.42629994   -228.47024            0   -3784.8603   -3784.8603    41871.313    34.021735    26.602659    46.263137     1152 
      11            0   -987.65698  0.057191849   -1246.5804    -1121.327   -595.06355   -20.317124  -0.56345803    -234.3145            0   -3784.9635   -3784.9635    41763.047     33.98737    26.577489    46.233916     1152 
      12            0   -105.01111  0.061239004   -275.88605    -180.5182    141.37093   -27.260466  -0.78173133    -241.3249            0   -3785.0029   -3785.0029    41662.882    33.953005    26.553331    46.211716     1152 
      13            0    195.32542  0.069549799    167.30222    185.76388    232.91018   -42.760923   -1.2080343   -250.90121            0   -3785.0084   -3785.0084    41630.744    33.930124    26.541632    46.227574     1152 
      14            0   -65.129113  0.077650785     60.37502   -17.055948   -238.70641   -61.323722   -1.6388323   -260.64245            0   -3785.0139   -3785.0139    41662.844    33.922133    26.542911    46.271886     1152 
      15            0    59.215518  0.081746817    59.137732     376.4522   -257.94338    22.211678   0.59026524   -259.40395            0   -3785.5631   -3785.5631    41667.276    33.930844    26.516046    46.311802     1152 
      16            0   -145.97207  0.085827827    -161.2189   -97.032222    -179.6651    -33.41591  -0.91578929   -231.69964            0   -3785.5831   -3785.5831    41687.982      33.9365    26.542911    46.280204     1152 
      17            0     198.4068  0.093931913    200.48479    156.91327    237.82235   -57.497956   -1.6519961   -222.41666            0    -3785.588    -3785.588    41647.964    33.924314    26.543043    46.252157     1152 
      18            0    433.26877  0.098034859     466.4001    120.44577    712.96044   -124.05747   -3.8325759   -194.84914            0   -3785.5964   -3785.5964    41619.425    33.912649    26.560753     46.20553     1152 
      19            0   -103.54643   0.10213089   -68.874374   -594.14423    352.37932   -162.41048   -5.0439753   -176.87068            0   -3785.6204   -3785.6204     41679.83    33.926464    26.587618    46.207014     1152 
      20            0   -116.35951   0.10622692   -88.863963   -300.41188    40.197318   -93.710918   -2.7194994   -205.88462            0   -3785.6608   -3785.6608    41685.102    33.929431    26.561853    46.253641     1152 
      21            0     160.5509   0.11432886    180.33357     101.3522    199.96694   -65.183874   -1.8749456   -217.62965            0   -3785.6649   -3785.6649    41654.756    33.923134    26.545236    46.257487     1152 
      22            0   -47.417944   0.12241888   -77.320596    126.78418   -191.71741   -3.2201974 -0.078693327    -239.6869            0   -3785.6709   -3785.6709    41680.832    33.935607        26.53    46.296003     1152 
      23            0   -9.1925377   0.12652278   -392.34616    299.21065    65.557894    98.505697    2.8107578   -224.21575            0   -3786.0922   -3786.0922    41689.134    33.969973    26.515869    46.283032     1152 
      24            0    22.875401     0.130615   -52.351613    86.886951    34.090865   -19.477943  -0.54003501   -206.67299            0   -3786.1173   -3786.1173     41686.33    33.935607    26.536575    46.290638     1152 
      25            0   -209.48695   0.13877583    -68.07761   -338.65858   -221.72466   -106.24106   -3.0063486   -192.82865            0   -3786.1219   -3786.1219    41713.414    33.918678    26.558533    46.305516     1152 
      26            0   -11.916144   0.14696193    237.77372   -217.19717   -56.324984   -145.56487   -4.1851904    -187.2715            0   -3786.1277   -3786.1277    41691.359    33.901495    26.560907    46.300353     1152 
      27            0    152.15141   0.15105295    78.015051    212.30678    166.13239   -20.844004    -0.584282   -204.98916            0   -3786.1412   -3786.1412     41672.39     33.93168    26.534042    46.284933     1152 
      28            0   -164.57469   0.15916896   -319.96379   -56.277386   -117.48291    7.0959105   0.21979995   -207.96053            0   -3786.1451   -3786.1451    41708.565    33.949386    26.536617    46.296459     1152 
      29            0   -825.93801   0.16326499   -1029.2095   -611.68768   -836.91687    41.212662    1.1187051   -214.40447            0   -3786.1996   -3786.1996    41788.561    33.973734    26.541728    46.343086     1152 
      30            0    21.287393   0.16736579   -86.159965    283.51884    -133.4967    30.350694   0.86244613   -216.77235            0   -3786.3059   -3786.3059    41695.503    33.939369    26.519442    46.325603     1152 
      31            0   -18.379903   0.17146897    1.7764975   -61.521752    4.6055464   -63.290459   -1.8138272   -188.88166            0   -3786.3197   -3786.3197    41698.266    33.925388    26.546307    46.300861     1152 
      32            0    862.19453   0.17961597    869.87383    860.36814    856.34162   -53.334936   -1.6090112   -188.71075            0   -3786.3476   -3786.3476    41600.316    33.901807    26.523598    46.263804     1152 
      33            0    1750.4857   0.18371391    1634.4696    1833.7307    1783.2566   -11.106357  -0.33272226   -183.11804            0    -3786.467    -3786.467     41507.83    33.889069    26.496734     46.22512     1152 
      34            0     813.7578   0.18780899    612.76684    882.85014    945.65642    4.5715817   0.17481667   -175.23943            0   -3786.6676   -3786.6676    41617.013    33.923434    26.517392    46.263691     1152 
      35            0   -32.037596   0.19594884   -194.05926   -9.4571429    107.40362   -12.340968  -0.33537341   -172.76292            0    -3786.693    -3786.693    41713.366    33.943211    26.539667    46.304889     1152 
      36            0     1.902917   0.20413089    93.564609   -10.141844   -77.714014   -72.428162   -2.0599332   -175.44825            0   -3786.6972   -3786.6972    41711.937    33.915901    26.542565    46.335527     1152 
      37            0   -251.78925   0.20827079   -81.957858   -524.24919   -149.16069   -146.60713   -4.3735669   -132.03146            0   -3787.0867   -3787.0867    41756.139    33.911477     26.56943    46.343774     1152 
      38            0    297.28294   0.21240377    382.15277    197.30729    312.38878   -92.325908   -2.7715221   -145.36335            0   -3787.1058   -3787.1058     41694.81    33.905732    26.542565    46.330392     1152 
      39            0    425.74176   0.21651697    322.16106    605.90331    349.16092    8.1165479    0.2860437   -167.75833            0   -3787.1239   -3787.1239    41682.334    33.923072    26.515701    46.339757     1152 
      40            0   -246.19854   0.22470593   -443.17431    3.8778579   -299.29917    43.972112    1.2942052   -172.88764            0   -3787.1404   -3787.1404    41759.958     33.95221    26.523958    46.371771     1152 
      41            0   -789.82687   0.22882199   -879.79249   -715.86225   -773.82587   -16.347927  -0.41207387   -156.21524            0   -3787.1752   -3787.1752    41824.342    33.955303    26.550822    46.392046     1152 
      42            0   -193.34848   0.23295689   -126.51388   -263.41912   -190.11244   -81.616657    -2.361653   -142.23051            0     -3787.24     -3787.24    41757.437    33.920938    26.550351    46.365583     1152 
      43            0    45.001347   0.24115491    95.393913    6.3037513    33.306378   -71.755983   -2.0961197   -144.45374            0   -3787.2422   -3787.2422     41730.23    33.916087    26.542466    46.355766     1152 
      44            0   -12.916942   0.24933791   -236.05405    163.53223    33.770992    32.376514    1.0068607   -159.10678            0   -3787.2479   -3787.2479    41736.823    33.947246    26.524796    46.351392     1152 
      45            0    90.876903   0.25347281   -71.023698    429.19132    -85.53691    54.278935    1.6243934   -163.33953            0    -3787.524    -3787.524    41741.248    33.937584    26.508495    46.398019     1152 
      46            0   -160.78895   0.25760198   -211.07082   -74.021043   -197.27499   -24.049495  -0.64532687   -140.62092            0   -3787.5377   -3787.5377    41768.754    33.931589    26.535359    46.389783     1152 
      47            0     130.0718   0.26582789    168.20868    74.233918    147.77279   -74.278949   -2.2067632   -127.49912            0   -3787.5418   -3787.5418    41734.774    33.913341     26.54133    46.366552     1152 
      48            0    178.02678   0.27406788    325.92496   -102.33867    310.49404    -146.4107   -4.5670967   -106.83362            0   -3787.5438   -3787.5438    41728.346    33.899291    26.559534    46.346837     1152 
      49            0   -307.28827       0.2823   -160.26104   -658.78281   -102.82094   -160.93875   -4.9473261   -100.17549            0   -3787.5521   -3787.5521    41784.055     33.91251     26.57621    46.361512     1152 
      50            0   -372.04563   0.28643894   -398.73488   -397.78979   -319.61221   -53.653342   -1.5281511   -126.47219            0   -3787.6111   -3787.6111    41796.036    33.934049    26.549346    46.392266     1152 
      51            0    56.628682   0.29464698      47.3344    61.334604    61.217041    -51.30241   -1.4869839   -128.97092            0   -3787.6178   -3787.6178    41747.256    33.920287    26.537507    46.377603     1152 
      52            0     429.2319    0.2987988    656.15308    515.13851    116.40412   -82.980144   -2.3781679   -140.57058            0   -3787.6493   -3787.6493    41710.542    33.885922    26.523195    46.408838     1152 
      53            0   -458.50589   0.30295086   -221.95988   -399.89792   -753.65988   -89.571781   -2.4210008   -138.13938            0   -3787.6925   -3787.6925    41815.029    33.909359    26.544589    46.455465     1152 
      54            0   -781.53116   0.30709386   -800.81645   -810.40155   -733.37548   -56.046238   -1.5512868   -116.34019            0   -3787.8222   -3787.8222    41855.921    33.943724     26.55802    46.430325     1152 
      55            0    161.87633   0.31124687    117.00341     155.0585    213.56707   -47.731281   -1.3998247   -114.03037            0   -3787.8767   -3787.8767    41748.662    33.919552    26.535488    46.383698     1152 
      56            0    866.29837   0.31540298    952.90704     888.3854    757.60267   -70.856921   -2.1679039    -106.1588            0   -3788.0909   -3788.0909    41684.293    33.885186    26.517682    46.390281     1152 
      57            0    179.10923   0.31956291    283.09332    173.42255    80.811831   -80.066645   -2.3612263   -97.445208            0   -3788.2656   -3788.2656    41772.629    33.901502    26.534418    46.436908     1152 
      58            0   -41.236603   0.32781291    18.954425   -52.313807   -90.350428    -71.81574   -2.0923561   -96.344341            0   -3788.2675   -3788.2675    41797.451    33.912152    26.539512    46.440994     1152 
      59            0    11.048224   0.33602691   -77.321388    23.965721    86.500339   -35.937218   -1.0169355   -94.804663            0   -3788.2695   -3788.2695    41790.071    33.926137    26.535941    46.419901     1152 
      60            0     291.5788   0.34019184    286.59927    339.23874     248.8984   -47.063893   -1.3506212   -90.457696            0    -3788.506    -3788.506    41774.687    33.908612    26.526677    46.443008     1152 
      61            0   -274.18924   0.34844899   -291.33291    -271.1784   -260.05641   -53.426511   -1.5077818   -86.665043            0   -3788.5174   -3788.5174    41840.068    33.925463    26.542584    46.464727     1152 
      62            0   -610.68472   0.35671186   -623.50283   -653.79245   -554.75889    -63.93906    -1.803545   -82.379802            0   -3788.5215   -3788.5215    41879.685    33.934171    26.553786    46.477175     1152 
      63            0   -466.96506   0.36089492   -255.54682    -859.5255   -285.82287   -188.08233   -5.8863753   -44.255969            0   -3788.6978   -3788.6978    41874.787     33.90364     26.58065    46.466576     1152 
      64            0    110.91589   0.36919284    269.69155   -131.10538    194.16149   -145.40926   -4.5773882   -56.564769            0   -3788.7123   -3788.7123    41809.074    33.893833    26.555022     46.45187     1152 
      65            0    2.5954988   0.37744999   -12.936983    21.724497   -1.0010184   -51.707696   -1.4678661    -79.54149            0   -3788.7189   -3788.7189    41822.816    33.916424    26.534765    46.471637     1152 
      66            0   -478.08646    0.3857398    -352.8396   -563.64606   -517.77373    -102.9926   -2.9779797   -73.363527            0   -3788.7281   -3788.7281    41880.351    33.914652    26.554394    46.503598     1152 
      67            0   -311.18513     0.389925    91.762967   -534.28733   -491.03103   -190.75623   -5.6449661   -64.938642            0   -3788.7666   -3788.7666    41866.012    33.880286    26.563097    46.519582     1152 
      68            0    170.53386   0.39822292     408.8227    61.298398    41.480472   -132.93313   -4.0194315   -70.642094            0   -3788.7786   -3788.7786    41809.614    33.884502    26.542542    46.487108     1152 
      69            0    7.7189902    0.4064939   -17.775951    16.669141     24.26378   -52.191477   -1.4831309   -76.548704            0   -3788.7849   -3788.7849    41826.703    33.916905    26.535348    46.474275     1152 
      70            0   -211.84563    0.4147799   -164.76925   -226.41623    -244.3514   -71.970302   -2.0620902   -76.571709            0   -3788.7869   -3788.7869    41853.011    33.915423    26.542266    46.493419     1152 
      71            0   -20.054394   0.41896391    305.54483   -75.124576   -290.58344    -138.6871   -4.0380309   -78.912347            0   -3788.7978   -3788.7978    41835.117    33.881057    26.542251    46.520705     1152 
      72            0    277.77916   0.42313695    324.04158    280.49155    228.80434   -69.087561    -2.032234   -75.909508            0   -3788.8264   -3788.8264    41799.576     33.90167    26.530168    46.474078     1152 
      73            0   -196.86168   0.43139696   -302.41096   -194.73433   -93.439746   -36.998852  -0.99734713   -73.186202            0   -3788.8361   -3788.8361    41853.216    33.930643    26.540003    46.476753     1152 
      74            0   -507.11067   0.43962789   -803.35971    -485.3223   -232.64999    7.3191751   0.40983249    -70.91325            0   -3788.8421   -3788.8421    41888.647     33.95935    26.544461    46.468971     1152 
      75            0   -127.52085   0.44380879   -724.72475   -20.175094    362.33728    87.960265    3.1338471   -70.561337            0   -3788.8849   -3788.8849    41846.313    33.980146    26.528024    46.422344     1152 
      76            0     142.1301   0.44796777   -201.76889    218.57357    409.58563    27.880878    1.1090252   -72.348461            0   -3788.9072   -3788.9072    41818.048    33.945781    26.525582    46.442227     1152 
      77            0   -174.59829   0.45623493   -290.41712   -160.87385   -72.503888   -32.705438  -0.85191556   -72.286352            0   -3788.9146   -3788.9146    41856.622    33.930729    26.538334    46.483341     1152 
      78            0    4.7950248   0.46451998    18.400191     2.981293   -6.9964097   -63.223251   -1.8124226   -73.444381            0   -3788.9166   -3788.9166    41837.258    33.912187    26.536138    46.491087     1152 
      79            0    284.32834   0.46869898    144.34386    149.07649    559.56468   -62.055387   -1.8982494   -52.868377            0   -3789.0252   -3789.0252    41810.568    33.918693    26.540741     46.44446     1152 
      80            0   -301.25408   0.47287393   -390.18465   -393.66266   -119.91493   -62.066925   -1.7898533   -60.011203            0   -3789.0467   -3789.0467    41881.017    33.930119    26.549853    46.491087     1152 
      81            0   -402.26472   0.47705579   -359.13975   -372.51401    -475.1404   -62.280308   -1.6891238   -76.166826            0   -3789.0672   -3789.0672    41897.913    33.919908    26.541941    46.537714     1152 
      82            0    157.02282   0.48535085    246.25067    237.60798   -12.790199   -61.674604   -1.7074756   -80.793397            0   -3789.0788   -3789.0788     41834.92    33.899732    26.525718    46.523837     1152 
      83            0    595.88938   0.48953295    576.38093    612.53609    598.75111   -54.285576   -1.5734156   -69.412031            0   -3789.0923   -3789.0923     41784.16    33.898109    26.521382     46.47721     1152 
      84            0    104.60486   0.49370599   -126.43462   -39.786566    480.03576   -45.449057   -1.3237919   -48.435717            0   -3789.1349   -3789.1349    41839.553    33.932475    26.544881    46.450534     1152 
      85            0   -144.28392   0.49788094   -232.84361   -211.51904    11.510904   -57.348762   -1.6328424   -60.573743            0    -3789.145    -3789.145    41871.346    33.925233    26.544078    46.497161     1152 
      86            0    69.249579   0.50618196     55.30879    54.123096    98.316851   -61.666439   -1.7563947   -67.221355            0   -3789.1474   -3789.1474     41848.27    33.911828    26.535254    46.505366     1152 
      87            0    10.864398   0.51448798    49.582957    33.701618   -50.691382   -64.047007   -1.7926569   -72.769803            0   -3789.1481   -3789.1481    41856.265    33.908265    26.533431    46.522334     1152 
      88            0   -132.35586   0.52277684    -135.1672   -126.54661   -135.35376   -58.959319   -1.6327493   -70.349286            0    -3789.149    -3789.149    41872.227    33.916463     26.53784    46.521096     1152 
      89            0    9.5167114   0.53105593   -149.73975   -43.123392    221.41327   -39.846953   -1.0842193   -59.804398            0   -3789.1532   -3789.1532      41853.6    33.928249    26.539307    46.481678     1152 
      90            0    531.66112   0.53523779    563.35668    496.83448     534.7922     -76.4871   -2.2966726   -64.627663            0   -3789.1717   -3789.1717    41798.167    33.893884    26.527038    46.488672     1152 
      91            0    189.86217   0.53943992    387.67423    158.74182    23.170464   -109.36755   -3.2183949   -70.451741            0   -3789.2061   -3789.2061    41842.253    33.886214    26.534414    46.535299     1152 
      92            0   -72.491986    0.5477438    39.163697   -100.73559   -155.90406     -90.4624   -2.6045186   -69.345484            0   -3789.2093   -3789.2093    41871.572    33.902403    26.539588    46.536596     1152 
      93            0    2.8926802   0.55602288   -14.615404    6.7442437    16.549201    -56.87296   -1.5764186   -69.038396            0   -3789.2111   -3789.2111     41861.63    33.913818      26.5349    46.518103     1152 
      94            0    513.46806   0.56021786    684.73093    495.98398    359.68927    -101.9406   -3.0405398   -70.239113            0    -3789.301    -3789.301    41813.887    33.879453    26.525986    46.527812     1152 
      95            0   -462.25239   0.56441379   -365.50502   -520.08189   -501.17024   -93.710447   -2.6318002   -67.643955            0   -3789.3461   -3789.3461    41929.618    33.913818    26.550072    46.567027     1152 
      96            0   -1043.9384    0.5686028   -1123.2571   -1087.7177   -920.84051   -53.496569   -1.3348673    -66.84277            0   -3789.3934   -3789.3934     42003.84    33.948183     26.56077    46.583467     1152 
      97            0   -266.59586    0.5727818   -543.25481   -203.80265   -52.730127    8.7796723   0.64183949   -71.400956            0   -3789.5427   -3789.5427    41925.361    33.946452    26.533905    46.545881     1152 
      98            0    91.093531   0.58107877     -70.3055    144.07822    199.50788   -17.970601  -0.24073193   -72.114734            0    -3789.548    -3789.548    41885.094    33.924272    26.527399     46.54299     1152 
      99            0   -1.2973655   0.58940983    5.2214835   -2.8007394   -6.3128407   -64.565699   -1.7416205    -71.05631            0   -3789.5499   -3789.5499    41897.252    33.909155    26.534448    46.564884     1152 
     100            0    161.20196   0.59361386    305.72478   -198.03094    375.91205   -172.32126   -5.5727154   -42.110689            0   -3789.6379   -3789.6379    41886.078     33.88754    26.561313    46.535044     1152 
     101            0   -314.85082   0.59781981   -295.27028   -433.05427   -216.22791   -92.453374   -2.6063288   -67.362523            0   -3789.6637   -3789.6637    41945.298    33.915111    26.550639    46.581671     1152 
     102            0   -128.05775   0.60200381   -195.34887     18.72761   -207.55199   -16.350477 -0.094113972   -93.451723            0   -3789.6809   -3789.6809     41927.82    33.920415    26.523775    46.602133     1152 
     103            0     56.72948   0.61032987    23.875238    150.11358   -3.8003774   -35.652535  -0.72709963   -88.035883            0   -3789.6823   -3789.6823    41906.017    33.911323    26.524456     46.58919     1152 
     104            0   -2.0414266   0.61866283    1.6609912   -10.186879    2.4016082   -65.537788   -1.7181556   -78.441018            0   -3789.6829   -3789.6829     41911.92    33.908558    26.534422     46.58205     1152 
     105            0    445.98832     0.627002    416.43645    313.87437    607.65412   -86.983204   -2.5767452    -64.48401            0   -3789.6925   -3789.6925    41860.097    33.898542    26.535136    46.536948     1152 
     106            0    133.41166   0.63120484    0.7168793   -241.80744    641.32554   -118.70506   -3.8297492   -41.897007            0   -3789.7291   -3789.7291    41897.399    33.916051       26.562    46.507287     1152 
     107            0   -124.79755   0.63541198    -202.7437   -347.50814    175.85921   -95.677092   -2.8175999   -60.698491            0   -3789.7482   -3789.7482     41930.93    33.918569    26.554662    46.553914     1152 
     108            0    147.77086   0.64374495    126.32219    56.836654    260.15375   -78.787276   -2.1889752   -75.038542            0   -3789.7531   -3789.7531    41901.772    33.905899    26.537709    46.568655     1152 
     109            0   -2.0555271   0.65207887    2.5721262   -2.8676946   -5.8710128   -63.933375   -1.6197486   -85.869493            0   -3789.7552   -3789.7552    41920.793    33.907962     26.53333    46.594648     1152 
     110            0    64.909764   0.66039395   -49.328176    188.50319    55.554283   -11.947335  0.085287251    -95.99747            0   -3789.7569   -3789.7569    41913.527    33.919139    26.521009    46.592857     1152 
     111            0   -232.70017   0.66871381   -428.60488   -60.501029   -208.99461     16.36168    1.0043192   -100.82542            0   -3789.7605   -3789.7605    41948.701    33.936276     26.52294    46.605016     1152 
     112            0   -186.94617   0.67290378   -374.48517   -36.011328   -150.34202    10.292079   0.87856134   -108.56711            0   -3789.8398   -3789.8398    41953.955    33.933281    26.523091    46.614704     1152 
     113            0    65.034425   0.68123293   -42.080546    169.32176    67.862063   -17.202941 -0.018279671   -104.85394            0   -3789.8425   -3789.8425     41924.98    33.917526    26.521906    46.606228     1152 
     114            0   -1.1138321   0.68959498    2.8017924   -1.9910674   -4.1522212   -63.291683    -1.532436   -96.869961            0   -3789.8433   -3789.8433     41932.67    33.907232    26.532537    46.610248     1152 
     115            0    72.205277   0.69794798    42.365929   -13.913482    188.16338   -75.295069   -1.9925899   -86.995078            0   -3789.8444   -3789.8444    41922.801    33.908114    26.538097    46.588302     1152 
     116            0   -185.65187   0.70629597    -250.7903   -333.23114    27.065827   -80.975725   -2.1835312   -81.435524            0   -3789.8472   -3789.8472    41952.265    33.918574    26.548721    46.588017     1152 
     117            0   -151.70077   0.71050787   -218.46774   -268.22709    31.592521   -72.951529   -1.8318607   -96.456538            0   -3789.9121   -3789.9121    41958.371    33.917305    26.544474    46.603997     1152 
     118            0    61.119119   0.71886086     28.28552   -4.7359571    159.80779   -69.210834   -1.7005344   -101.94299            0   -3789.9141   -3789.9141    41934.727    33.908132    26.535681    46.605774     1152 
     119            0   -1.3767509   0.72720194    1.6035778   -2.0647816   -3.6690488   -62.061243   -1.4124082   -110.12515            0    -3789.915    -3789.915    41943.422    33.906585     26.53157    46.624788     1152 
     120            0    61.619617   0.73553586    22.045825    118.80034    44.012684   -40.584746  -0.70187865   -115.09031            0   -3789.9156   -3789.9156    41936.432    33.909576    26.525187    46.624121     1152 
     121            0   -65.091635   0.74386382    -170.3816    53.997584   -78.890886   -12.982451    0.2130474   -120.83064            0   -3789.9166   -3789.9166    41951.455    33.920313    26.522421    46.630922     1152 
     122            0   -18.052236    0.7480588   -162.30532    121.17083   -13.022223   0.89674825   0.74639364   -135.15023            0   -3789.9665   -3789.9665    41953.362    33.922546    26.518572    46.636742     1152 
     123            0    49.229032   0.75642395    59.986807    47.081525    40.618763   -62.578403   -1.3527891   -124.08722            0   -3789.9682   -3789.9682    41945.636    33.903707    26.529542     46.63477     1152 
     124            0   -2.8376119   0.76478887    16.430669   -19.504562    -5.438943   -67.433077   -1.5097856   -122.97816            0   -3789.9683   -3789.9683     41951.62    33.904192    26.531909    46.636596     1152 
     125            0   -16.537719   0.77312899   -28.344574   -10.269851   -10.998733   -55.917019   -1.1273343   -124.65826            0   -3789.9684   -3789.9684    41953.134    33.907933    26.530169    46.636192     1152 
     126            0    10.084061   0.78146982    -6.443004    23.342249    13.352939   -53.450637   -1.0475557   -125.18705            0   -3789.9685   -3789.9685     41950.07    33.907719    26.528993    46.635146     1152 
     127            0    34.398836   0.78985095     89.62764    10.723716    2.8451526   -76.452113   -1.8028608   -123.26788            0   -3789.9686   -3789.9686    41947.749    33.899383    26.531786    46.639122     1152 
     128            0   -58.018949   0.79821396    11.652309   -100.63356   -85.075599   -83.392669     -2.01906    -122.1675            0   -3789.9688   -3789.9688    41958.521    33.900346    26.535395    46.643431     1152 
     129            0   -151.44149   0.80241585   -384.88271   -124.51384    55.072092   -4.6450512    0.5870224   -125.59563            0   -3789.9772   -3789.9772    41967.854    33.934711     26.53034     46.61544     1152 
     130            0    256.62941   0.81074977   -1.5718898    334.15596    437.30415    11.316854     1.152746   -132.00879            0   -3789.9837   -3789.9837    41921.943    33.925943    26.517032    46.599853     1152 
     131            0    291.63286   0.81496382    309.20847    366.91469    198.77541   -44.836835  -0.65204149   -149.46696            0   -3790.0126   -3790.0126    41925.732    33.896022    26.516307     46.64648     1152 
     132            0   -46.435486   0.82332778   -35.099586   -8.6943079   -95.512564   -51.085845  -0.83498494   -147.01575            0   -3790.0167   -3790.0167    41964.667    33.905852    26.526612     46.65813     1152 
     133            0   -61.741507   0.83169889   -66.840933   -108.80652   -9.5770632   -66.350568   -1.3733546   -137.88131            0   -3790.0173   -3790.0173    41965.146    33.907438    26.534073    46.643363     1152 
     134            0    27.551577   0.84006977    23.557973   -20.863531     79.96029   -67.050851   -1.4086082   -137.53446            0   -3790.0176   -3790.0176    41954.766    33.904812    26.532273    46.638601     1152 
     135            0      38.9836   0.84841585     40.07559    71.860583    5.0146269   -50.111664  -0.81170401   -146.62607            0   -3790.0184   -3790.0184     41954.78    33.904464    26.525113    46.651683     1152 
     136            0   -20.308503   0.85677481   -21.002802     13.65514   -53.577846   -49.370748  -0.78089082   -146.97602            0   -3790.0185   -3790.0185    41961.709    33.906312    26.526274    46.654805     1152 
     137            0   -29.035537   0.86514878   -28.489667   -56.210989   -2.4059551   -63.105622   -1.2558532    -140.5908            0   -3790.0187   -3790.0187    41961.898    33.906042    26.531648    46.645937     1152 
     138            0    17.608132   0.87351799    20.108958   -10.818717    43.534155    -63.87901   -1.2874736   -140.36392            0   -3790.0188   -3790.0188    41956.476    33.904526     26.53076    46.643554     1152 
     139            0     24.32205   0.88186383    22.728768    51.132941  -0.89555844   -50.813733  -0.83397376    -146.2899            0   -3790.0191   -3790.0191    41956.478    33.905101    26.525902    46.651307     1152 
     140            0   -20.047887   0.89022684   -23.839578    7.7805601   -44.084643   -50.036044  -0.80363923   -146.54519            0   -3790.0192   -3790.0192    41961.651    33.906575    26.526751    46.653538     1152 
     141            0   -28.504597   0.89860487   -25.456643    -63.24682    3.1896733   -65.237469   -1.3272259   -140.18247            0   -3790.0194   -3790.0194    41961.861    33.905708    26.532254    46.645289     1152 
     142            0    26.908475   0.90696979    33.044837    -9.525005    57.205593   -66.356051   -1.3715309   -139.92827            0   -3790.0195   -3790.0195    41955.429    33.903827    26.531217    46.642549     1152 
     143            0    36.217579   0.91532183    30.893555    85.435576   -7.6763944   -45.013192  -0.63419196   -149.10405            0   -3790.0202   -3790.0202    41955.514    33.905275    26.523683    46.653899     1152 
     144            0   -41.020381   0.92367482   -50.809548    9.6971015   -81.948697   -43.577183  -0.57965697   -149.55746            0   -3790.0205   -3790.0205    41964.519    33.907904    26.525175    46.657671     1152 
     145            0   -55.609538    0.9320488   -46.539706    -131.3963     11.10739   -75.282932   -1.6691111   -137.18603            0   -3790.0213   -3790.0213    41964.803    33.905548    26.536227    46.641794     1152 
     146            0    60.788622   0.94042492    76.865853   -17.256073    122.75609   -77.427229   -1.7566613   -136.95234            0   -3790.0218   -3790.0218    41951.353    33.901546    26.533921    46.636403     1152 
     147            0    73.319688   0.94877481    59.906792    178.21667   -18.164402   -30.637909  -0.13762621   -157.21796            0   -3790.0248   -3790.0248    41952.507    33.905337    26.517902    46.660639     1152 
     148            0   -85.248587   0.95712686   -107.74111    18.371725   -166.37637   -28.624575  -0.06065262   -157.94361            0   -3790.0257   -3790.0257    41970.999     33.91069    26.521299    46.667859     1152 
     149            0   -91.656116   0.96550488   -74.759585   -220.55217    20.343411   -87.698706    -2.078551   -136.38062            0   -3790.0293   -3790.0293    41969.466    33.905259    26.541081    46.638843     1152 
     150            0    96.834318   0.97388983    123.84458   -25.524914    192.18329   -88.613169   -2.1316058   -137.34223            0   -3790.0306   -3790.0306    41947.885    33.898964    26.536438    46.631675     1152 
     151            0    82.396306   0.98224092    66.618496    201.40245   -20.832028   -25.882706  0.058301636   -164.76732            0   -3790.0358   -3790.0358    41953.124    33.905208    26.515884    46.665055     1152 
     152            0   -87.580174   0.99059296    -111.3862    18.503092   -169.85742   -26.625037  0.043899566   -164.38474            0   -3790.0369   -3790.0369     41972.81    33.910696    26.520501    46.671269     1152 
     153            0   -64.729356   0.99897981   -52.625422   -156.99316    15.430513   -77.612599   -1.6906743   -145.63308            0   -3790.0395   -3790.0395    41968.141    33.905043    26.536796    46.645199     1152 
     154            0    64.060465    1.0073578    81.861915   -15.788009    126.10749   -76.255177   -1.6547772   -146.96271            0   -3790.0401   -3790.0401    41953.452    33.900921    26.532965    46.641276     1152 
     155            0    41.217624    1.0157118    33.411717    101.84667   -11.605515      -39.688  -0.38014659   -162.34138            0    -3790.042    -3790.042    41958.024    33.905053    26.521365    46.661073     1152 
     156            0   -43.296666    1.0240788   -54.674866    7.8032801   -83.018412   -40.855232  -0.41389508   -161.68384            0   -3790.0422   -3790.0422    41967.734    33.907723    26.523944    46.663659     1152 
     157            0   -27.661639    1.0324638   -22.666705   -68.256631    7.9384202   -64.472796    -1.222924    -152.5525            0   -3790.0427   -3790.0427     41964.87    33.905007    26.531409    46.651082     1152 
     158            0    28.789663     1.040839     36.21505   -5.3656372    55.519577   -63.657129   -1.1991806   -153.16088            0   -3790.0428   -3790.0428    41958.424    33.903216    26.529657    46.649462     1152 
     159            0    17.115605     1.049197    13.937877    44.303656   -6.8947169   -47.842866  -0.65088915   -159.69507            0   -3790.0432   -3790.0432    41960.574    33.905016    26.524648    46.658184     1152 
     160            0   -21.450966    1.0575709   -26.314187     1.104576   -39.143286   -48.432527  -0.66824057   -159.32773            0   -3790.0433   -3790.0433     41964.99    33.906239    26.525854     46.65929     1152 
     161            0   -13.203624    1.0659518   -10.818891   -35.589198    6.7972166   -59.864006   -1.0619734   -154.73934            0   -3790.0433   -3790.0433     41963.48    33.904975    26.529506    46.652927     1152 
     162            0    19.077839    1.0743198    22.959203   0.46324742    33.811067   -59.401878   -1.0484433   -155.08502            0   -3790.0434   -3790.0434    41959.791    33.903941    26.528499    46.652021     1152 
     163            0    10.874798    1.0826879    8.8360024    32.744529   -8.9561366   -49.189579  -0.69473947   -159.39795            0   -3790.0436   -3790.0436    41961.268    33.905032    26.525209    46.657946     1152 
     164            0   -22.110605    1.0910618   -25.770939   -4.2446608   -36.316215   -49.665243  -0.70866135   -159.07155            0   -3790.0436   -3790.0436    41965.038    33.906097    26.526244    46.658853     1152 
     165            0   -13.132289     1.099442   -11.212991   -41.470008    13.286132   -61.024402   -1.1016419   -154.31161            0   -3790.0437   -3790.0437    41963.389    33.904978    26.529981    46.651989     1152 
     166            0    30.247429    1.1078129      34.5224    6.9921495    49.227737   -60.466543   -1.0853926   -154.79918            0   -3790.0438   -3790.0438    41958.433    33.903552    26.528624    46.650826     1152 
     167            0    16.337416     1.116174    15.194454    55.496366    -21.67857   -45.457047  -0.56365585   -161.63894            0   -3790.0442   -3790.0442    41960.895    33.904884    26.523577    46.660607     1152 
     168            0   -46.054188    1.1245489   -51.020629   -14.578167   -72.563769   -46.211394  -0.58519303   -161.03096            0   -3790.0444   -3790.0444     41968.01    33.906975    26.525534    46.662198     1152 
     169            0   -25.200376    1.1329279   -27.291189   -83.595976    35.286037   -66.588669   -1.2948664   -151.78491            0   -3790.0449   -3790.0449    41964.274    33.905522    26.532675    46.647485     1152 
     170            0    68.596954    1.1413069    73.271115    21.865648     110.6541   -65.544925   -1.2638729   -153.06659            0   -3790.0452   -3790.0452    41953.583    33.902268    26.529671    46.645359     1152 
     171            0    31.989921     1.149668     42.08361     107.5404   -53.654245   -39.269441  -0.33698441   -167.47284            0    -3790.047    -3790.047    41959.683    33.903467    26.519953    46.667585     1152 
     172            0   -94.281141    1.1580338   -95.713837      -36.358   -150.77159   -40.414647  -0.36834774    -166.1024            0   -3790.0476   -3790.0476    41973.988    33.908072    26.524048    46.669951     1152 
     173            0    -38.75512    1.1664209   -63.655934   -121.76168    69.152253    -66.40654   -1.2848013   -151.50397            0   -3790.0497   -3790.0497     41965.02    33.908032    26.534578    46.641516     1152 
     174            0    105.31617     1.174804    98.402222    44.289677    173.25662   -65.410178    -1.251406   -154.30715            0   -3790.0505   -3790.0505    41948.752    33.902267    26.529607    46.640102     1152 
     175            0    32.342035    1.1831739    70.013268    95.757224   -68.744386    -46.49763  -0.54353488   -170.71993            0    -3790.053    -3790.053     41959.63    33.900431    26.520502    46.670739     1152 
     176            0   -93.589227    1.1915469   -79.111236   -49.247637   -152.40881   -45.542278  -0.50851615   -168.88505            0   -3790.0537   -3790.0537    41973.707     33.90622    26.524678    46.671077     1152 
     177            0   -24.542141    1.1999278    -68.69021   -59.325919    54.389707   -50.780854  -0.72246048   -159.40026            0   -3790.0552   -3790.0552    41963.599    33.909844    26.529641    46.646125     1152 
     178            0    68.811227    1.2083049    49.084795    44.308738    113.04015    -53.67427  -0.81785944   -161.04507            0   -3790.0555   -3790.0555    41953.179    33.904762    26.526809    46.646512     1152 
     179            0    13.961915    1.2166908    53.293463     23.54246   -34.950179   -58.080444  -0.92569211   -167.00914            0   -3790.0562   -3790.0562     41960.87    33.900387    26.525172    46.663964     1152 
     180            0   -47.555492      1.22507   -30.043369   -39.154714   -73.468393   -53.675925  -0.77916743   -166.60878            0   -3790.0564   -3790.0564    41967.723    33.904352    26.526509    46.663775     1152 
     181            0   -8.7260029    1.2334368   -41.409825   -3.7703379    19.002154   -44.089056  -0.47762193   -164.87531            0   -3790.0568   -3790.0568    41962.424    33.908437    26.525815    46.653481     1152 
     182            0    33.156203    1.2418189    18.618491    33.715419    47.134698   -48.880755  -0.63800665   -164.79089            0   -3790.0568   -3790.0568    41957.717    33.905358    26.525337    46.653324     1152 
     183            0    4.6462425     1.250212    28.301432   -6.3016484   -8.0610567   -59.227583   -0.9721686   -164.79429            0   -3790.0569   -3790.0569    41961.395     33.90213    26.527009    46.658915     1152 
     184            0   -25.493819    1.2585859   -16.048864   -29.068935   -31.363658   -54.591209  -0.81597725   -165.33522            0    -3790.057    -3790.057     41964.82    33.904488    26.526983    46.659525     1152 
     185            0    -3.181263    1.2669609   -21.759296    10.837518     1.377989   -44.941089  -0.49908101   -166.40941            0   -3790.0571   -3790.0571    41962.076    33.906873    26.524933    46.656798     1152 
     186            0    -3.181263    1.4166038   -21.759296    10.837518     1.377989   -44.941089  -0.49908101   -166.40941            0   -3790.0571   -3790.0571    41962.076    33.906873    26.524933    46.656798     1152 
Loop time of 1.41662 on 1 procs for 186 steps with 1152 atoms

100.2% CPU use with 1 MPI tasks x no OpenMP threads

Minimization stats:
  Stopping criterion = linesearch alpha is zero
  Energy initial, next-to-last, final = 
        -3779.87514958     -3790.05711456     -3790.05711456
  Force two-norm initial, final = 526.662 0.660395
  Force max component initial, final = 323.08 0.577597
  Final line search alpha, max atom move = 2.05464e-08 1.18675e-08
  Iterations, force evaluations = 186 337

MPI task timing breakdown:
Section |  min time  |  avg time  |  max time  |%varavg| %total
---------------------------------------------------------------
Pair    | 1.3623     | 1.3623     | 1.3623     |   0.0 | 96.17
Neigh   | 0.013019   | 0.013019   | 0.013019   |   0.0 |  0.92
Comm    | 0.0043657  | 0.0043657  | 0.0043657  |   0.0 |  0.31
Output  | 0.0062537  | 0.0062537  | 0.0062537  |   0.0 |  0.44
Modify  | 0          | 0          | 0          |   0.0 |  0.00
Other   |            | 0.03069    |            |       |  2.17

Nlocal:    1152 ave 1152 max 1152 min
Histogram: 1 0 0 0 0 0 0 0 0 0
Nghost:    1580 ave 1580 max 1580 min
Histogram: 1 0 0 0 0 0 0 0 0 0
Neighs:    65868 ave 65868 max 65868 min
Histogram: 1 0 0 0 0 0 0 0 0 0

Total # of neighbors = 65868
Ave neighs/atom = 57.1771
Neighbor list builds = 1
Dangerous builds = 0
#minimize ${etol} ${ftol} ${maxiter} ${maxeval}
#minimize ${etol} ${ftol} ${maxiter} ${maxeval}

variable tmp equal pxx
variable pxx0 equal ${tmp}
variable pxx0 equal -21.7592963485262
variable tmp equal pyy
variable pyy0 equal ${tmp}
variable pyy0 equal 10.8375182591123
variable tmp equal pzz
variable pzz0 equal ${tmp}
variable pzz0 equal 1.37798903273638
variable tmp equal pyz
variable pyz0 equal ${tmp}
variable pyz0 equal -166.409407246561
variable tmp equal pxz
variable pxz0 equal ${tmp}
variable pxz0 equal -0.499081007860933
variable tmp equal pxy
variable pxy0 equal ${tmp}
variable pxy0 equal -44.9410887584979

variable tmp equal lx
variable lx0 equal ${tmp}
variable lx0 equal 33.9068731919667
variable tmp equal ly
variable ly0 equal ${tmp}
variable ly0 equal 26.5249328608157
variable tmp equal lz
variable lz0 equal ${tmp}
variable lz0 equal 46.6567976654408

# These formulas define the derivatives w.r.t. strain components
# Constants uses $, variables use v_
variable d1 equal -(v_pxx1-${pxx0})/(v_delta/v_len0)*${cfac}
variable d1 equal -(v_pxx1--21.7592963485262)/(v_delta/v_len0)*${cfac}
variable d1 equal -(v_pxx1--21.7592963485262)/(v_delta/v_len0)*0.0001
variable d2 equal -(v_pyy1-${pyy0})/(v_delta/v_len0)*${cfac}
variable d2 equal -(v_pyy1-10.8375182591123)/(v_delta/v_len0)*${cfac}
variable d2 equal -(v_pyy1-10.8375182591123)/(v_delta/v_len0)*0.0001
variable d3 equal -(v_pzz1-${pzz0})/(v_delta/v_len0)*${cfac}
variable d3 equal -(v_pzz1-1.37798903273638)/(v_delta/v_len0)*${cfac}
variable d3 equal -(v_pzz1-1.37798903273638)/(v_delta/v_len0)*0.0001
variable d4 equal -(v_pyz1-${pyz0})/(v_delta/v_len0)*${cfac}
variable d4 equal -(v_pyz1--166.409407246561)/(v_delta/v_len0)*${cfac}
variable d4 equal -(v_pyz1--166.409407246561)/(v_delta/v_len0)*0.0001
variable d5 equal -(v_pxz1-${pxz0})/(v_delta/v_len0)*${cfac}
variable d5 equal -(v_pxz1--0.499081007860933)/(v_delta/v_len0)*${cfac}
variable d5 equal -(v_pxz1--0.499081007860933)/(v_delta/v_len0)*0.0001
variable d6 equal -(v_pxy1-${pxy0})/(v_delta/v_len0)*${cfac}
variable d6 equal -(v_pxy1--44.9410887584979)/(v_delta/v_len0)*${cfac}
variable d6 equal -(v_pxy1--44.9410887584979)/(v_delta/v_len0)*0.0001

# Write restart
unfix 3
minimize ${etol} ${ftol} ${maxiter} ${maxeval}
minimize 0 ${ftol} ${maxiter} ${maxeval}
minimize 0 1e-10 ${maxiter} ${maxeval}
minimize 0 1e-10 1000 ${maxeval}
minimize 0 1e-10 1000 10000
Memory usage per processor = 3.40572 Mbytes
Step Temp Press CPU Pxx Pyy Pzz Pxy Pxz Pyz KinEng PotEng TotEng Volume Lx Ly Lz Atoms 
     186            0    -3.181263            0   -21.759296    10.837518     1.377989   -44.941089  -0.49908101   -166.40941            0   -3790.0571   -3790.0571    41962.076    33.906873    26.524933    46.656798     1152 
     187            0   -97.207225 0.0041649342    -84.77849     -74.8006   -132.04259    -45.35712  -0.61209873   -159.09554            0   -3790.0667   -3790.0667    41962.076    33.906873    26.524933    46.656798     1152 
     188            0   -27.183869  0.012439013   -44.591219   -37.470669   0.51027928   -44.955124  -0.63404455   -143.79762            0   -3790.0706   -3790.0706    41962.076    33.906873    26.524933    46.656798     1152 
     189            0   -28.450613  0.020721912   -40.429271   -44.081006  -0.84156215    -45.16665  -0.58167554   -140.06448            0   -3790.0718   -3790.0718    41962.076    33.906873    26.524933    46.656798     1152 
     190            0   -37.698767  0.028997898    -44.53179    -54.71147   -13.853042   -45.320434  -0.55314528   -136.19917            0   -3790.0721   -3790.0721    41962.076    33.906873    26.524933    46.656798     1152 
     191            0     -44.7167   0.03727603   -49.809982   -64.338952   -20.001166   -45.230277  -0.51803971     -126.042            0   -3790.0724   -3790.0724    41962.076    33.906873    26.524933    46.656798     1152 
     192            0   -42.781676  0.045547962   -48.389693   -65.041541   -14.913794   -45.227061  -0.46089172   -118.32284            0   -3790.0726   -3790.0726    41962.076    33.906873    26.524933    46.656798     1152 
     193            0    -31.89173  0.053822994    -40.48997   -62.009823    6.8246042    -45.11083  -0.33452206   -91.809005            0   -3790.0729   -3790.0729    41962.076    33.906873    26.524933    46.656798     1152 
     194            0    -25.54999   0.06209898   -35.668516   -60.459731    19.478278   -44.988359  -0.29836019   -68.210598            0   -3790.0733   -3790.0733    41962.076    33.906873    26.524933    46.656798     1152 
     195            0   -23.754383  0.070372105   -32.681241   -62.291857     23.70995   -45.226652  -0.22699465   -48.310376            0   -3790.0735   -3790.0735    41962.076    33.906873    26.524933    46.656798     1152 
     196            0    -23.51579  0.078653097   -30.551337   -66.161952    26.165918   -45.410499  -0.18467554    -25.60378            0   -3790.0738   -3790.0738    41962.076    33.906873    26.524933    46.656798     1152 
     197            0   -25.085718   0.08693099   -31.503202   -67.993099    24.239147   -45.176097  -0.18681671   -12.982346            0    -3790.074    -3790.074    41962.076    33.906873    26.524933    46.656798     1152 
     198            0     -26.5939  0.095202923    -33.20979     -67.7976    21.225689   -45.092968  -0.10539321   -6.3086274            0   -3790.0741   -3790.0741    41962.076    33.906873    26.524933    46.656798     1152 
     199            0   -24.986913   0.10348105   -32.293472   -65.527485    22.860219    -45.19739 -0.073431886   -2.2549378            0   -3790.0742   -3790.0742    41962.076    33.906873    26.524933    46.656798     1152 
     200            0    -24.64929   0.11175895   -32.516629   -64.244656    22.813416   -45.204583 -0.081105147   -1.3214914            0   -3790.0742   -3790.0742    41962.076    33.906873    26.524933    46.656798     1152 
     201            0   -26.011023   0.12003303   -33.845008   -64.878118    20.690059   -45.215387  -0.07747831  -0.91141724            0   -3790.0743   -3790.0743    41962.076    33.906873    26.524933    46.656798     1152 
     202            0   -28.107033   0.12831306   -35.486974   -66.337683    17.503557   -45.200887 -0.069457215  -0.94287635            0   -3790.0743   -3790.0743    41962.076    33.906873    26.524933    46.656798     1152 
     203            0   -30.872023    0.1365881   -37.456304   -68.241204    13.081437   -45.177284 -0.072187142   -1.0505411            0   -3790.0743   -3790.0743    41962.076    33.906873    26.524933    46.656798     1152 
     204            0   -32.947062   0.14486694   -38.931626   -69.677322    9.7677612   -45.179281 -0.067202223  -0.97479585            0   -3790.0743   -3790.0743    41962.076    33.906873    26.524933    46.656798     1152 
     205            0   -34.558301   0.15314007   -40.098437   -70.749574    7.1731081   -45.192481 -0.057816874  -0.89100453            0   -3790.0743   -3790.0743    41962.076    33.906873    26.524933    46.656798     1152 
     206            0   -35.865557   0.16141796   -40.992084   -71.740739     5.136154   -45.187557 -0.058554983  -0.72378198            0   -3790.0743   -3790.0743    41962.076    33.906873    26.524933    46.656798     1152 
     207            0   -36.729994   0.16969609   -41.608844   -72.497068    3.9159301   -45.185743 -0.059158452  -0.54760109            0   -3790.0743   -3790.0743    41962.076    33.906873    26.524933    46.656798     1152 
     208            0   -37.645767   0.17796707    -42.31552   -73.249006    2.6272258   -45.187542  -0.05672604  -0.42561283            0   -3790.0743   -3790.0743    41962.076    33.906873    26.524933    46.656798     1152 
     209            0   -38.557065   0.18624306   -42.995214   -73.945573    1.2695931    -45.18395 -0.052782049  -0.30301574            0   -3790.0743   -3790.0743    41962.076    33.906873    26.524933    46.656798     1152 
     210            0   -39.034791      0.19452   -43.324132   -74.304658   0.52441556   -45.186022 -0.048755489  -0.23516715            0   -3790.0743   -3790.0743    41962.076    33.906873    26.524933    46.656798     1152 
     211            0   -39.216467   0.20280099   -43.443707   -74.477415   0.27172103   -45.189016 -0.045514687  -0.19951574            0   -3790.0743   -3790.0743    41962.076    33.906873    26.524933    46.656798     1152 
     212            0   -39.312213   0.21108198   -43.512423   -74.594923   0.17070602   -45.187051 -0.045054615  -0.16730527            0   -3790.0743   -3790.0743    41962.076    33.906873    26.524933    46.656798     1152 
     213            0   -39.367683   0.21935606   -43.554063   -74.653806   0.10481858   -45.185906 -0.043201654   -0.1592157            0   -3790.0743   -3790.0743    41962.076    33.906873    26.524933    46.656798     1152 
     214            0   -39.415252   0.22762609   -43.589811   -74.705693  0.049749824   -45.186428 -0.040364533  -0.15485373            0   -3790.0743   -3790.0743    41962.076    33.906873    26.524933    46.656798     1152 
     215            0   -39.437503   0.23590112    -43.60747   -74.731298  0.026258299   -45.186366 -0.038841704  -0.15000526            0   -3790.0743   -3790.0743    41962.076    33.906873    26.524933    46.656798     1152 
     216            0   -39.451196   0.24417901   -43.618078   -74.744467 0.0089579678    -45.18633  -0.03754785  -0.14519276            0   -3790.0743   -3790.0743    41962.076    33.906873    26.524933    46.656798     1152 
     217            0   -39.461717   0.25246096   -43.626555   -74.753985 -0.0046101114   -45.186341  -0.03619171  -0.14063795            0   -3790.0743   -3790.0743    41962.076    33.906873    26.524933    46.656798     1152 
     218            0   -39.465638    0.2607429   -43.629066   -74.758752 -0.0090964795   -45.186202 -0.035033014  -0.13648802            0   -3790.0743   -3790.0743    41962.076    33.906873    26.524933    46.656798     1152 
     219            0   -39.464559   0.26901889   -43.628087   -74.759958 -0.0056325959   -45.186181 -0.033483383  -0.13214449            0   -3790.0743   -3790.0743    41962.076    33.906873    26.524933    46.656798     1152 
     220            0   -39.463369   0.27729607   -43.627744   -74.761433 -0.00093063356   -45.186303  -0.03089911  -0.12481263            0   -3790.0743   -3790.0743    41962.076    33.906873    26.524933    46.656798     1152 
     221            0   -39.465818   0.28556609    -43.62927    -74.76695 -0.0012346236   -45.186148 -0.025985644  -0.10629263            0   -3790.0743   -3790.0743    41962.076    33.906873    26.524933    46.656798     1152 
     222            0   -39.469867   0.29384208   -43.631378   -74.774304 -0.0039196915    -45.18594  -0.01966272 -0.081943822            0   -3790.0743   -3790.0743    41962.076    33.906873    26.524933    46.656798     1152 
     223            0   -39.470748   0.30212402   -43.630541   -74.780816 -0.00088583635    -45.18586 -0.012546124 -0.052547457            0   -3790.0743   -3790.0743    41962.076    33.906873    26.524933    46.656798     1152 
     224            0   -39.472269     0.310395   -43.631132   -74.784976 -0.00069960678   -45.185631 -0.0067878283 -0.026364997            0   -3790.0743   -3790.0743    41962.076    33.906873    26.524933    46.656798     1152 
     225            0    -39.47291   0.31867099   -43.631952    -74.78553 -0.0012472245   -45.185501 -0.0037987118 -0.012638785            0   -3790.0743   -3790.0743    41962.076    33.906873    26.524933    46.656798     1152 
     226            0   -39.471676   0.32694697   -43.630889   -74.784152 1.2338796e-05   -45.185449 -0.0021962126 -0.0054525875            0   -3790.0743   -3790.0743    41962.076    33.906873    26.524933    46.656798     1152 
     227            0   -39.470297   0.33521795   -43.629854   -74.782634 0.0015982729   -45.185437 -0.0013671412 -0.0015270061            0   -3790.0743   -3790.0743    41962.076    33.906873    26.524933    46.656798     1152 
     228            0   -39.469758   0.34349298    -43.62949   -74.781664 0.0018812949   -45.185437 -0.0009610825 6.6361722e-05            0   -3790.0743   -3790.0743    41962.076    33.906873    26.524933    46.656798     1152 
     229            0   -39.469966   0.35177112   -43.629556   -74.781173 0.00083176611   -45.185426 -0.00075174925 0.00041436753            0   -3790.0743   -3790.0743    41962.076    33.906873    26.524933    46.656798     1152 
     230            0   -39.469865   0.36006308   -43.629391   -74.780756 0.00055126106   -45.185419 -0.00069292013 0.00042131371            0   -3790.0743   -3790.0743    41962.076    33.906873    26.524933    46.656798     1152 
     231            0   -39.469687   0.36833811   -43.629243   -74.780332 0.00051410527   -45.185414 -0.00064669414 0.00023739221            0   -3790.0743   -3790.0743    41962.076    33.906873    26.524933    46.656798     1152 
     232            0   -39.469599    0.3766129   -43.629203   -74.780022 0.00042850884    -45.18541 -0.00059752536 0.00010978579            0   -3790.0743   -3790.0743    41962.076    33.906873    26.524933    46.656798     1152 
     233            0   -39.469522   0.38489294   -43.629188    -74.77976 0.00038085203   -45.185406 -0.00056903281 3.0703331e-05            0   -3790.0743   -3790.0743    41962.076    33.906873    26.524933    46.656798     1152 
     234            0   -39.469464   0.39316392   -43.629195   -74.779586 0.00038795944   -45.185408 -0.00055454879 -4.0653817e-05            0   -3790.0743   -3790.0743    41962.076    33.906873    26.524933    46.656798     1152 
     235            0   -39.469448   0.40144205   -43.629193   -74.779547 0.00039514016   -45.185406 -0.00053543501 -6.928868e-05            0   -3790.0743   -3790.0743    41962.076    33.906873    26.524933    46.656798     1152 
     236            0   -39.469483   0.40971899   -43.629207   -74.779577 0.00033571461   -45.185402 -0.00052312776 -9.7767153e-05            0   -3790.0743   -3790.0743    41962.076    33.906873    26.524933    46.656798     1152 
     237            0   -39.469517   0.41798902   -43.629228   -74.779605 0.00028155501   -45.185401 -0.00051099599 -0.00011185825            0   -3790.0743   -3790.0743    41962.076    33.906873    26.524933    46.656798     1152 
     238            0   -39.469546   0.42626595   -43.629251   -74.779628 0.00024134146   -45.185401 -0.00049539028 -0.00011747101            0   -3790.0743   -3790.0743    41962.076    33.906873    26.524933    46.656798     1152 
     239            0    -39.46958   0.43454289   -43.629277   -74.779656 0.00019250373     -45.1854 -0.00047489228 -0.00011719045            0   -3790.0743   -3790.0743    41962.076    33.906873    26.524933    46.656798     1152 
     240            0   -39.469611   0.44281912     -43.6293   -74.779679 0.00014702989   -45.185399 -0.0004524253 -0.0001149861            0   -3790.0743   -3790.0743    41962.076    33.906873    26.524933    46.656798     1152 
     241            0   -39.469652   0.45109606   -43.629333   -74.779707 8.2784499e-05   -45.185397 -0.00041207242 -0.00011325557            0   -3790.0743   -3790.0743    41962.076    33.906873    26.524933    46.656798     1152 
     242            0   -39.469708   0.45936894   -43.629376   -74.779747 -2.5298443e-06   -45.185395 -0.00035384769 -0.00010628298            0   -3790.0743   -3790.0743    41962.076    33.906873    26.524933    46.656798     1152 
     243            0   -39.469778   0.46764112   -43.629427   -74.779803 -0.0001042692   -45.185393 -0.00028288225 -8.9900643e-05            0   -3790.0743   -3790.0743    41962.076    33.906873    26.524933    46.656798     1152 
     244            0    -39.46984    0.4759171   -43.629472   -74.779852 -0.00019772958   -45.185391 -0.00020980949 -7.0082419e-05            0   -3790.0743   -3790.0743    41962.076    33.906873    26.524933    46.656798     1152 
     245            0   -39.469866   0.48419189   -43.629489   -74.779869 -0.00024019858    -45.18539 -0.00016399539 -5.473826e-05            0   -3790.0743   -3790.0743    41962.076    33.906873    26.524933    46.656798     1152 
     246            0   -39.469866   0.49246311   -43.629487   -74.779871 -0.00023879632   -45.185389 -0.00012851348 -3.9091213e-05            0   -3790.0743   -3790.0743    41962.076    33.906873    26.524933    46.656798     1152 
     247            0    -39.46985   0.50075006   -43.629474   -74.779865 -0.00021229462   -45.185388 -9.5043192e-05 -2.5507235e-05            0   -3790.0743   -3790.0743    41962.076    33.906873    26.524933    46.656798     1152 
     248            0   -39.469826    0.5090301   -43.629454   -74.779851 -0.00017325904   -45.185388 -6.0747237e-05 -1.3609333e-05            0   -3790.0743   -3790.0743    41962.076    33.906873    26.524933    46.656798     1152 
     249            0   -39.469806   0.51730704    -43.62944   -74.779838 -0.00014119932   -45.185387 -4.0102982e-05 -7.0404736e-06            0   -3790.0743   -3790.0743    41962.076    33.906873    26.524933    46.656798     1152 
     250            0   -39.469788   0.52557898   -43.629428   -74.779826 -0.00011102318   -45.185387 -2.3866251e-05 -2.7033591e-06            0   -3790.0743   -3790.0743    41962.076    33.906873    26.524933    46.656798     1152 
     251            0   -39.469772   0.53385711   -43.629416   -74.779814 -8.4310574e-05   -45.185387 -1.3482341e-05 6.8674035e-08            0   -3790.0743   -3790.0743    41962.076    33.906873    26.524933    46.656798     1152 
     252            0   -39.469759   0.54213095   -43.629407   -74.779805 -6.4509704e-05   -45.185387 -8.6324577e-06 9.3692903e-07            0   -3790.0743   -3790.0743    41962.076    33.906873    26.524933    46.656798     1152 
     253            0   -39.469746   0.55040193   -43.629398   -74.779794 -4.5448305e-05   -45.185387 -5.135606e-06 1.1372316e-06            0   -3790.0743   -3790.0743    41962.076    33.906873    26.524933    46.656798     1152 
     254            0   -39.469734   0.55868697   -43.629389   -74.779785 -2.8537745e-05   -45.185387 -3.0851179e-06 1.7774997e-06            0   -3790.0743   -3790.0743    41962.076    33.906873    26.524933    46.656798     1152 
     255            0   -39.469727   0.56696391   -43.629384   -74.779779 -1.7701346e-05   -45.185387 -2.1459978e-06 1.5427497e-06            0   -3790.0743   -3790.0743    41962.076    33.906873    26.524933    46.656798     1152 
     256            0   -39.469721     0.575243   -43.629379   -74.779774 -9.0399491e-06   -45.185387 -1.4700485e-06 1.3778856e-06            0   -3790.0743   -3790.0743    41962.076    33.906873    26.524933    46.656798     1152 
     257            0   -39.469718   0.58352089   -43.629377   -74.779771 -5.1213684e-06   -45.185387 -1.1530888e-06 1.3068826e-06            0   -3790.0743   -3790.0743    41962.076    33.906873    26.524933    46.656798     1152 
     258            0   -39.469717   0.59179497   -43.629376    -74.77977 -3.231584e-06   -45.185387 -1.0814563e-06 1.3968691e-06            0   -3790.0743   -3790.0743    41962.076    33.906873    26.524933    46.656798     1152 
     259            0   -39.469716    0.6000669   -43.629376    -74.77977 -2.1626652e-06   -45.185387 -1.0518124e-06 1.5021771e-06            0   -3790.0743   -3790.0743    41962.076    33.906873    26.524933    46.656798     1152 
     260            0   -39.469715   0.60834312   -43.629375    -74.77977 -1.2994666e-06   -45.185387 -1.0374173e-06 1.6134807e-06            0   -3790.0743   -3790.0743    41962.076    33.906873    26.524933    46.656798     1152 
     261            0   -39.469715   0.61661696   -43.629375   -74.779769 -6.6071376e-07   -45.185387 -1.0305767e-06 1.6426395e-06            0   -3790.0743   -3790.0743    41962.076    33.906873    26.524933    46.656798     1152 
     262            0   -39.469715   0.62489796   -43.629375   -74.779769 -3.2637628e-07   -45.185387 -1.0168032e-06 1.6215396e-06            0   -3790.0743   -3790.0743    41962.076    33.906873    26.524933    46.656798     1152 
     263            0   -39.469715   0.63316798   -43.629375   -74.779769 -7.6936915e-08   -45.185387 -9.9629194e-07 1.6303423e-06            0   -3790.0743   -3790.0743    41962.076    33.906873    26.524933    46.656798     1152 
     264            0   -39.469714   0.64144611   -43.629375   -74.779769 -2.7960118e-08   -45.185387 -9.705244e-07 1.5935375e-06            0   -3790.0743   -3790.0743    41962.076    33.906873    26.524933    46.656798     1152 
     265            0   -39.469714    0.6497221   -43.629375   -74.779769 3.1989803e-08   -45.185387 -9.3490718e-07 1.5299416e-06            0   -3790.0743   -3790.0743    41962.076    33.906873    26.524933    46.656798     1152 
     266            0   -39.469714   0.65799093   -43.629374   -74.779769 6.6887261e-08   -45.185387 -9.007082e-07 1.4683514e-06            0   -3790.0743   -3790.0743    41962.076    33.906873    26.524933    46.656798     1152 
     267            0   -39.469714   0.66626811   -43.629374   -74.779769 1.0227559e-07   -45.185387 -8.4671853e-07 1.3627556e-06            0   -3790.0743   -3790.0743    41962.076    33.906873    26.524933    46.656798     1152 
     268            0   -39.469714    0.6745441   -43.629374   -74.779769 1.651855e-07   -45.185387 -7.6065239e-07 1.1975349e-06            0   -3790.0743   -3790.0743    41962.076    33.906873    26.524933    46.656798     1152 
     269            0   -39.469714   0.68281698   -43.629374   -74.779769 2.0486325e-07   -45.185387 -6.2894527e-07 9.5338164e-07            0   -3790.0743   -3790.0743    41962.076    33.906873    26.524933    46.656798     1152 
     270            0   -39.469714   0.69109607   -43.629374   -74.779769 1.6208966e-07   -45.185387 -4.5765953e-07 6.4827076e-07            0   -3790.0743   -3790.0743    41962.076    33.906873    26.524933    46.656798     1152 
     271            0   -39.469714   0.69937205   -43.629375   -74.779769 4.8988428e-08   -45.185387 -2.9588559e-07 3.7830895e-07            0   -3790.0743   -3790.0743    41962.076    33.906873    26.524933    46.656798     1152 
     272            0   -39.469714   0.70764208   -43.629375   -74.779769 2.8847673e-08   -45.185387 -1.8805214e-07 2.1443001e-07            0   -3790.0743   -3790.0743    41962.076    33.906873    26.524933    46.656798     1152 
     273            0   -39.469714   0.71591711   -43.629375   -74.779769 3.5289626e-08   -45.185387 -1.0742694e-07 1.0979344e-07            0   -3790.0743   -3790.0743    41962.076    33.906873    26.524933    46.656798     1152 
     274            0   -39.469714     0.724195   -43.629375   -74.779769 2.1632646e-08   -45.185387 -5.4731073e-08 5.2469823e-08            0   -3790.0743   -3790.0743    41962.076    33.906873    26.524933    46.656798     1152 
     275            0   -39.469714   0.73250699   -43.629375   -74.779769 1.5098342e-08   -45.185387 -2.4724934e-08 2.7523295e-08            0   -3790.0743   -3790.0743    41962.076    33.906873    26.524933    46.656798     1152 
     276            0   -39.469714    0.7448771   -43.629375   -74.779769 6.845993e-09   -45.185387 -1.0718275e-08 1.5810668e-08            0   -3790.0743   -3790.0743    41962.076    33.906873    26.524933    46.656798     1152 
Loop time of 0.744895 on 1 procs for 90 steps with 1152 atoms

100.4% CPU use with 1 MPI tasks x no OpenMP threads

Minimization stats:
  Stopping criterion = force tolerance
  Energy initial, next-to-last, final = 
        -3790.05711456     -3790.07427671     -3790.07427671
  Force two-norm initial, final = 0.136232 9.58242e-11
  Force max component initial, final = 0.00801352 5.13325e-12
  Final line search alpha, max atom move = 1 5.13325e-12
  Iterations, force evaluations = 90 179

MPI task timing breakdown:
Section |  min time  |  avg time  |  max time  |%varavg| %total
---------------------------------------------------------------
Pair    | 0.73452    | 0.73452    | 0.73452    |   0.0 | 98.61
Neigh   | 0          | 0          | 0          |   0.0 |  0.00
Comm    | 0.0023081  | 0.0023081  | 0.0023081  |   0.0 |  0.31
Output  | 0.0030169  | 0.0030169  | 0.0030169  |   0.0 |  0.41
Modify  | 0          | 0          | 0          |   0.0 |  0.00
Other   |            | 0.005047   |            |       |  0.68

Nlocal:    1152 ave 1152 max 1152 min
Histogram: 1 0 0 0 0 0 0 0 0 0
Nghost:    1580 ave 1580 max 1580 min
Histogram: 1 0 0 0 0 0 0 0 0 0
Neighs:    65868 ave 65868 max 65868 min
Histogram: 1 0 0 0 0 0 0 0 0 0

Total # of neighbors = 65868
Ave neighs/atom = 57.1771
Neighbor list builds = 0
Dangerous builds = 0
#fix 1a all qeq/comb 1 0.0001 file fq.out
write_restart restart.equil
write_data data0

# uxx Perturbation

variable dir equal 1
include /users/knc6/displace.mod
# NOTE: This script should not need to be
# modified. See in.elastic for more info.
#
# Find which reference length to use

if "${dir} == 1" then    "variable len0 equal ${lx0}"
variable len0 equal ${lx0}
variable len0 equal 33.9068731919667
if "${dir} == 2" then    "variable len0 equal ${ly0}"
if "${dir} == 3" then    "variable len0 equal ${lz0}"
if "${dir} == 4" then    "variable len0 equal ${lz0}"
if "${dir} == 5" then    "variable len0 equal ${lz0}"
if "${dir} == 6" then    "variable len0 equal ${ly0}"

# Reset box and simulation parameters

clear
box tilt large
read_restart restart.equil
  triclinic box = (0.229258 0.169864 -0.0149007) to (34.1361 26.6948 46.6419) with tilt (11.3103 0 0)
  1 by 1 by 1 MPI processor grid
  1152 atoms
include potential.mod
pair_style eam/alloy
pair_coeff * * /users/knc6/Software/jarvis/jarvis/lammps/examples/Al03.eam.alloy  Al
neighbor 1.0 nsq
neigh_modify once no every 1 delay 0 check yes
min_style  cg
min_modify           dmax ${dmax} line quadratic
min_modify           dmax 0.01 line quadratic
thermo          1
thermo_style custom step temp press cpu pxx pyy pzz pxy pxz pyz ke pe etotal vol lx ly lz atoms
thermo_modify norm no
# Negative deformation

variable delta equal -${up}*${len0}
variable delta equal -1e-06*${len0}
variable delta equal -1e-06*33.9068731919667
if "${dir} == 1" then    "change_box all x delta 0 ${delta} remap units box"
change_box all x delta 0 ${delta} remap units box
change_box all x delta 0 -3.39068731919667e-05 remap units box
  triclinic box = (0.229258 0.169864 -0.0149007) to (34.1361 26.6948 46.6419) with tilt (11.3103 0 0)
if "${dir} == 2" then    "change_box all y delta 0 ${delta} remap units box"
if "${dir} == 3" then    "change_box all z delta 0 ${delta} remap units box"
if "${dir} == 4" then    "change_box all yz delta ${delta} remap units box"
if "${dir} == 5" then    "change_box all xz delta ${delta} remap units box"
if "${dir} == 6" then    "change_box all xy delta ${delta} remap units box"

# Relax atoms positions

minimize ${etol} ${ftol} ${maxiter} ${maxeval}
minimize 0 ${ftol} ${maxiter} ${maxeval}
minimize 0 1e-10 ${maxiter} ${maxeval}
minimize 0 1e-10 1000 ${maxeval}
minimize 0 1e-10 1000 10000
Neighbor list info ...
  1 neighbor list requests
  update every 1 steps, delay 0 steps, check yes
  max neighbors/atom: 2000, page size: 100000
  master list distance cutoff = 7.72488
  ghost atom cutoff = 7.72488
Memory usage per processor = 3.39674 Mbytes
Step Temp Press CPU Pxx Pyy Pzz Pxy Pxz Pyz KinEng PotEng TotEng Volume Lx Ly Lz Atoms 
     276            0   -39.094915            0   -43.033547    -74.49232   0.24112186   -45.251072 -0.0022712637 0.0052302612            0   -3790.0743   -3790.0743    41962.034    33.906839    26.524933    46.656798     1152 
     277            0   -39.131627 0.0083239079   -43.062945   -74.518869   0.18693239   -45.250279 -0.0019027789 0.0015621681            0   -3790.0743   -3790.0743    41962.034    33.906839    26.524933    46.656798     1152 
     278            0   -39.161174  0.016658068   -43.086613   -74.542514   0.14560385   -45.249713 -0.0013590108 0.00055272895            0   -3790.0743   -3790.0743    41962.034    33.906839    26.524933    46.656798     1152 
     279            0   -39.191938  0.024991989   -43.108836   -74.566623  0.099644168   -45.249319 -0.00081184118 -0.0018758715            0   -3790.0743   -3790.0743    41962.034    33.906839    26.524933    46.656798     1152 
     280            0   -39.233954  0.033324003   -43.139928    -74.59987  0.037935634    -45.24893 -0.00025139832 -0.0037765144            0   -3790.0743   -3790.0743    41962.034    33.906839    26.524933    46.656798     1152 
     281            0   -39.248626  0.041656017   -43.150639   -74.610936   0.01569735    -45.24892 -0.00014439363 -0.0041031825            0   -3790.0743   -3790.0743    41962.034    33.906839    26.524933    46.656798     1152 
     282            0   -39.253449  0.049989939   -43.153635   -74.614432 0.0077199612   -45.248998 -0.0002406664 -0.0039399459            0   -3790.0743   -3790.0743    41962.034    33.906839    26.524933    46.656798     1152 
     283            0   -39.255057  0.058315992   -43.154803   -74.615544 0.0051745934   -45.249129 -0.00037796952 -0.0035272187            0   -3790.0743   -3790.0743    41962.034    33.906839    26.524933    46.656798     1152 
     284            0   -39.256256  0.066647053   -43.155331   -74.616124  0.002687354   -45.249305 -0.00049476889 -0.0032264925            0   -3790.0743   -3790.0743    41962.034    33.906839    26.524933    46.656798     1152 
     285            0   -39.257131  0.074982882   -43.155559   -74.616459 0.00062514898   -45.249437 -0.00057668238 -0.0031111911            0   -3790.0743   -3790.0743    41962.034    33.906839    26.524933    46.656798     1152 
     286            0   -39.257269  0.083620071   -43.155671   -74.616286 0.00014951888   -45.249521 -0.00063728442 -0.0030563477            0   -3790.0743   -3790.0743    41962.034    33.906839    26.524933    46.656798     1152 
     287            0   -39.257244  0.091965914    -43.15575   -74.616015 3.4708236e-05    -45.24959 -0.00067545195 -0.0029411747            0   -3790.0743   -3790.0743    41962.034    33.906839    26.524933    46.656798     1152 
     288            0   -39.257204   0.10031104   -43.155784    -74.61587 4.2574865e-05    -45.24962 -0.00067945499 -0.0028876215            0   -3790.0743   -3790.0743    41962.034    33.906839    26.524933    46.656798     1152 
     289            0   -39.257178   0.10865402   -43.155803   -74.615792 6.1101755e-05   -45.249633 -0.00066753043 -0.0028229106            0   -3790.0743   -3790.0743    41962.034    33.906839    26.524933    46.656798     1152 
     290            0   -39.257179    0.1169951   -43.155815   -74.615757 3.4553512e-05   -45.249633 -0.00063519305 -0.0027008966            0   -3790.0743   -3790.0743    41962.034    33.906839    26.524933    46.656798     1152 
     291            0   -39.257207   0.12533998   -43.155825   -74.615767 -3.0557145e-05   -45.249629 -0.00058410005 -0.0025187234            0   -3790.0743   -3790.0743    41962.034    33.906839    26.524933    46.656798     1152 
     292            0   -39.257301   0.13368392   -43.155834   -74.615884 -0.00018656241   -45.249621 -0.00051508986 -0.0022335845            0   -3790.0743   -3790.0743    41962.034    33.906839    26.524933    46.656798     1152 
     293            0   -39.257345    0.1420331   -43.155839   -74.615949 -0.00024736151   -45.249611 -0.00044072308 -0.001926425            0   -3790.0743   -3790.0743    41962.034    33.906839    26.524933    46.656798     1152 
     294            0   -39.257313   0.15037704   -43.155843   -74.615954 -0.00014113681   -45.249595 -0.00034089145 -0.0015265987            0   -3790.0743   -3790.0743    41962.034    33.906839    26.524933    46.656798     1152 
[...]
change_box all xy delta ${delta} remap units box
change_box all xy delta 2.65249328608157e-05 remap units box
  triclinic box = (0.229258 0.169864 -0.0149007) to (34.1361 26.6948 46.6419) with tilt (11.3103 0 0)

# Relax atoms positions

minimize ${etol} ${ftol} ${maxiter} ${maxeval}
minimize 0 ${ftol} ${maxiter} ${maxeval}
minimize 0 1e-10 ${maxiter} ${maxeval}
minimize 0 1e-10 1000 ${maxeval}
minimize 0 1e-10 1000 10000
Neighbor list info ...
  1 neighbor list requests
  update every 1 steps, delay 0 steps, check yes
  max neighbors/atom: 2000, page size: 100000
  master list distance cutoff = 7.72488
  ghost atom cutoff = 7.72488
Memory usage per processor = 3.39674 Mbytes
Step Temp Press CPU Pxx Pyy Pzz Pxy Pxz Pyz KinEng PotEng TotEng Volume Lx Ly Lz Atoms 
     276            0    -39.46955            0   -43.629284   -74.779446 8.0020029e-05   -45.339008 -0.0052919274 -8.508523e-06            0   -3790.0743   -3790.0743    41962.076    33.906873    26.524933    46.656798     1152 
     277            0   -39.469556  0.008234024   -43.629288   -74.779451 7.0086052e-05     -45.3373 -0.004514924 -9.1646227e-06            0   -3790.0743   -3790.0743    41962.076    33.906873    26.524933    46.656798     1152 
     278            0   -39.469562  0.016468048   -43.629292   -74.779454 6.0482269e-05   -45.336382 -0.0035880699 -9.0849303e-06            0   -3790.0743   -3790.0743    41962.076    33.906873    26.524933    46.656798     1152 
     279            0   -39.469567  0.024708033   -43.629296   -74.779457 5.1911345e-05   -45.335946 -0.0029504357 -8.8966559e-06            0   -3790.0743   -3790.0743    41962.076    33.906873    26.524933    46.656798     1152 
     280            0   -39.469571  0.032950878   -43.629299   -74.779459 4.6098909e-05   -45.335775 -0.002665716 -8.540181e-06            0   -3790.0743   -3790.0743    41962.076    33.906873    26.524933    46.656798     1152 
     281            0   -39.469574  0.041188955   -43.629301   -74.779461 4.0926077e-05   -45.335709 -0.0025052065 -8.451272e-06            0   -3790.0743   -3790.0743    41962.076    33.906873    26.524933    46.656798     1152 
     282            0   -39.469577  0.049422979   -43.629303   -74.779463 3.6462709e-05   -45.335683 -0.002414576 -8.2108402e-06            0   -3790.0743   -3790.0743    41962.076    33.906873    26.524933    46.656798     1152 
     283            0    -39.46958   0.05766201   -43.629305   -74.779465 3.1452938e-05   -45.335669 -0.0023205491 -8.081295e-06            0   -3790.0743   -3790.0743    41962.076    33.906873    26.524933    46.656798     1152 
     284            0   -39.469583  0.065901995   -43.629307   -74.779468 2.6405934e-05   -45.335662 -0.0022189747 -7.9867671e-06            0   -3790.0743   -3790.0743    41962.076    33.906873    26.524933    46.656798     1152 
     285            0   -39.469586  0.074136972    -43.62931    -74.77947 2.0799734e-05   -45.335656 -0.0021091256 -7.7927785e-06            0   -3790.0743   -3790.0743    41962.076    33.906873    26.524933    46.656798     1152 
     286            0   -39.469591  0.082378864   -43.629313   -74.779474 1.3333002e-05   -45.335652 -0.0019502757 -7.5608152e-06            0   -3790.0743   -3790.0743    41962.076    33.906873    26.524933    46.656798     1152 
     287            0   -39.469598  0.090620041   -43.629318   -74.779478 3.369762e-06   -45.335645 -0.0017016315 -7.1135778e-06            0   -3790.0743   -3790.0743    41962.076    33.906873    26.524933    46.656798     1152 
     288            0   -39.469607  0.098854065   -43.629325   -74.779485 -1.0233915e-05   -45.335638 -0.0013397579 -6.4316342e-06            0   -3790.0743   -3790.0743    41962.076    33.906873    26.524933    46.656798     1152 
     289            0   -39.469616    0.1070931   -43.629332   -74.779492 -2.5194916e-05   -45.335628 -0.00089523477 -5.4252212e-06            0   -3790.0743   -3790.0743    41962.076    33.906873    26.524933    46.656798     1152 
     290            0   -39.469621   0.11533308   -43.629335   -74.779495 -3.2751476e-05   -45.335622 -0.00059796499 -4.6113784e-06            0   -3790.0743   -3790.0743    41962.076    33.906873    26.524933    46.656798     1152 
     291            0   -39.469623   0.12356997   -43.629337   -74.779497 -3.5278876e-05   -45.335619 -0.00041861337 -4.1092826e-06            0   -3790.0743   -3790.0743    41962.076    33.906873    26.524933    46.656798     1152 
     292            0   -39.469622     0.131809   -43.629336   -74.779497 -3.3777461e-05   -45.335616 -0.00027892303 -3.362022e-06            0   -3790.0743   -3790.0743    41962.076    33.906873    26.524933    46.656798     1152 
     293            0    -39.46962   0.14004803   -43.629334   -74.779495 -3.027687e-05   -45.335614 -0.00018222421 -2.9500633e-06            0   -3790.0743   -3790.0743    41962.076    33.906873    26.524933    46.656798     1152 
     294            0   -39.469617     0.148283   -43.629332   -74.779493 -2.5687104e-05   -45.335613 -0.00011268775 -2.4788208e-06            0   -3790.0743   -3790.0743    41962.076    33.906873    26.524933    46.656798     1152 
     295            0   -39.469614   0.15651894    -43.62933   -74.779491 -2.1473879e-05   -45.335613 -7.1451745e-05 -2.1621893e-06            0   -3790.0743   -3790.0743    41962.076    33.906873    26.524933    46.656798     1152 
     296            0   -39.469612   0.16475701   -43.629328   -74.779489 -1.7603108e-05   -45.335612 -4.5438587e-05 -1.8519992e-06            0   -3790.0743   -3790.0743    41962.076    33.906873    26.524933    46.656798     1152 
     297            0   -39.469609   0.17299604   -43.629327   -74.779488 -1.4109898e-05   -45.335612 -2.7535289e-05 -1.635962e-06            0   -3790.0743   -3790.0743    41962.076    33.906873    26.524933    46.656798     1152 
     298            0   -39.469608   0.18123007   -43.629325   -74.779486 -1.1150528e-05   -45.335612 -1.2871173e-05 -1.4021582e-06            0   -3790.0743   -3790.0743    41962.076    33.906873    26.524933    46.656798     1152 
     299            0   -39.469606   0.18948007   -43.629324   -74.779486 -9.4422151e-06   -45.335612 -6.4573825e-06 -1.265823e-06            0   -3790.0743   -3790.0743    41962.076    33.906873    26.524933    46.656798     1152 
     300            0   -39.469606   0.19772005   -43.629324   -74.779485 -8.3685672e-06   -45.335612 -3.9843414e-06 -1.1860308e-06            0   -3790.0743   -3790.0743    41962.076    33.906873    26.524933    46.656798     1152 
     301            0   -39.469605   0.20595598   -43.629323   -74.779485 -7.3789741e-06   -45.335612 -3.0144435e-06 -1.099768e-06            0   -3790.0743   -3790.0743    41962.076    33.906873    26.524933    46.656798     1152 
     302            0   -39.469604   0.21419501   -43.629323   -74.779484 -6.4537915e-06   -45.335612 -1.8762709e-06 -1.0360159e-06            0   -3790.0743   -3790.0743    41962.076    33.906873    26.524933    46.656798     1152 
     303            0   -39.469604   0.22243094   -43.629322   -74.779484 -5.6227768e-06   -45.335612 -1.1952885e-06 -9.6499438e-07            0   -3790.0743   -3790.0743    41962.076    33.906873    26.524933    46.656798     1152 
     304            0   -39.469603   0.23066688   -43.629322   -74.779483 -4.9477177e-06   -45.335612 -8.8557659e-07 -9.1653173e-07            0   -3790.0743   -3790.0743    41962.076    33.906873    26.524933    46.656798     1152 
     305            0   -39.469603   0.23890805   -43.629322   -74.779483 -4.3130462e-06   -45.335612 -5.7752261e-07 -8.6821805e-07            0   -3790.0743   -3790.0743    41962.076    33.906873    26.524933    46.656798     1152 
     306            0   -39.469603   0.24714899   -43.629322   -74.779483 -3.6899584e-06   -45.335612 -3.500527e-07 -8.1864278e-07            0   -3790.0743   -3790.0743    41962.076    33.906873    26.524933    46.656798     1152 
     307            0   -39.469602   0.25538397   -43.629321   -74.779482 -3.0211924e-06   -45.335612 -1.7207708e-07 -7.6380027e-07            0   -3790.0743   -3790.0743    41962.076    33.906873    26.524933    46.656798     1152 
     308            0   -39.469602   0.26362395   -43.629321   -74.779482 -2.4015038e-06   -45.335612 -2.4650635e-08 -7.0973323e-07            0   -3790.0743   -3790.0743    41962.076    33.906873    26.524933    46.656798     1152 
     309            0   -39.469601   0.27186298   -43.629321   -74.779482 -1.9053517e-06   -45.335612 4.8464684e-08 -6.6224664e-07            0   -3790.0743   -3790.0743    41962.076    33.906873    26.524933    46.656798     1152 
     310            0   -39.469601   0.28010106    -43.62932   -74.779482 -1.479682e-06   -45.335612 6.2781928e-08 -6.1832059e-07            0   -3790.0743   -3790.0743    41962.076    33.906873    26.524933    46.656798     1152 
     311            0   -39.469601     0.288342    -43.62932   -74.779481 -1.0982423e-06   -45.335612 7.0907838e-08 -5.7487207e-07            0   -3790.0743   -3790.0743    41962.076    33.906873    26.524933    46.656798     1152 
     312            0   -39.469601   0.29658389    -43.62932   -74.779481 -8.2319585e-07   -45.335612 7.4999158e-08 -5.4006372e-07            0   -3790.0743   -3790.0743    41962.076    33.906873    26.524933    46.656798     1152 
     313            0   -39.469601   0.30482602    -43.62932   -74.779481 -4.8721942e-07   -45.335612 6.1740444e-08 -4.9155465e-07            0   -3790.0743   -3790.0743    41962.076    33.906873    26.524933    46.656798     1152 
     314            0     -39.4696    0.3130579    -43.62932   -74.779481 -2.3280645e-07   -45.335612 3.9776561e-08 -4.4986714e-07            0   -3790.0743   -3790.0743    41962.076    33.906873    26.524933    46.656798     1152 
     315            0     -39.4696   0.32129693    -43.62932   -74.779481 -2.7928019e-08   -45.335612 1.7152217e-08 -4.1036414e-07            0   -3790.0743   -3790.0743    41962.076    33.906873    26.524933    46.656798     1152 
     316            0     -39.4696   0.32954001    -43.62932   -74.779481 9.3780995e-08   -45.335612 2.3827777e-09 -3.7927679e-07            0   -3790.0743   -3790.0743    41962.076    33.906873    26.524933    46.656798     1152 
     317            0     -39.4696   0.33777595    -43.62932   -74.779481 1.440916e-07   -45.335612 -3.1316367e-09 -3.5926012e-07            0   -3790.0743   -3790.0743    41962.076    33.906873    26.524933    46.656798     1152 
     318            0     -39.4696   0.35008287    -43.62932   -74.779481 1.612031e-07   -45.335612 -6.0066081e-09 -3.4152616e-07            0   -3790.0743   -3790.0743    41962.076    33.906873    26.524933    46.656798     1152 
Loop time of 0.350101 on 1 procs for 42 steps with 1152 atoms

100.5% CPU use with 1 MPI tasks x no OpenMP threads

Minimization stats:
  Stopping criterion = force tolerance
  Energy initial, next-to-last, final = 
        -3790.07427552     -3790.07427552     -3790.07427552
  Force two-norm initial, final = 1.29965e-05 9.70397e-11
  Force max component initial, final = 1.58457e-06 7.60623e-12
  Final line search alpha, max atom move = 1 7.60623e-12
  Iterations, force evaluations = 42 84

MPI task timing breakdown:
Section |  min time  |  avg time  |  max time  |%varavg| %total
---------------------------------------------------------------
Pair    | 0.34521    | 0.34521    | 0.34521    |   0.0 | 98.60
Neigh   | 0          | 0          | 0          |   0.0 |  0.00
Comm    | 0.001087   | 0.001087   | 0.001087   |   0.0 |  0.31
Output  | 0.0013967  | 0.0013967  | 0.0013967  |   0.0 |  0.40
Modify  | 0          | 0          | 0          |   0.0 |  0.00
Other   |            | 0.002404   |            |       |  0.69

Nlocal:    1152 ave 1152 max 1152 min
Histogram: 1 0 0 0 0 0 0 0 0 0
Nghost:    1580 ave 1580 max 1580 min
Histogram: 1 0 0 0 0 0 0 0 0 0
Neighs:    65868 ave 65868 max 65868 min
Histogram: 1 0 0 0 0 0 0 0 0 0

Total # of neighbors = 65868
Ave neighs/atom = 57.1771
Neighbor list builds = 0
Dangerous builds = 0

# Obtain new stress tensor

variable tmp equal pe
variable e1 equal ${tmp}
variable e1 equal -3790.07427552166
variable tmp equal press
variable p1 equal ${tmp}
variable p1 equal -39.4696001485031
variable tmp equal pxx
variable pxx1 equal ${tmp}
variable pxx1 equal -43.6293197113019
variable tmp equal pyy
variable pyy1 equal ${tmp}
variable pyy1 equal -74.7794808954104
variable tmp equal pzz
variable pzz1 equal ${tmp}
variable pzz1 equal 1.61203100403865e-07
variable tmp equal pxy
variable pxy1 equal ${tmp}
variable pxy1 equal -45.3356120911487
variable tmp equal pxz
variable pxz1 equal ${tmp}
variable pxz1 equal -6.00660813744269e-09
variable tmp equal pyz
variable pyz1 equal ${tmp}
variable pyz1 equal -3.41526155533756e-07

# Compute elastic constant from pressure tensor

variable C1pos equal ${d1}
variable C1pos equal 2187.00233627757
variable C2pos equal ${d2}
variable C2pos equal 8561.69991545227
variable C3pos equal ${d3}
variable C3pos equal 137.798887153328
variable C4pos equal ${d4}
variable C4pos equal -16640.9406905035
variable C5pos equal ${d5}
variable C5pos equal -49.9081001854325
variable C6pos equal ${d6}
variable C6pos equal 39.4523332650799

# Combine positive and negative

variable C1${dir} equal 0.5*(${C1neg}+${C1pos})
variable C16 equal 0.5*(${C1neg}+${C1pos})
variable C16 equal 0.5*(-2187.01327584766+${C1pos})
variable C16 equal 0.5*(-2187.01327584766+2187.00233627757)
variable C2${dir} equal 0.5*(${C2neg}+${C2pos})
variable C26 equal 0.5*(${C2neg}+${C2pos})
variable C26 equal 0.5*(-8561.75736092214+${C2pos})
variable C26 equal 0.5*(-8561.75736092214+8561.69991545227)
variable C3${dir} equal 0.5*(${C3neg}+${C3pos})
variable C36 equal 0.5*(${C3neg}+${C3pos})
variable C36 equal 0.5*(-137.798919210372+${C3pos})
variable C36 equal 0.5*(-137.798919210372+137.798887153328)
variable C4${dir} equal 0.5*(${C4neg}+${C4pos})
variable C46 equal 0.5*(${C4neg}+${C4pos})
variable C46 equal 0.5*(16640.9407585889+${C4pos})
variable C46 equal 0.5*(16640.9407585889+-16640.9406905035)
variable C5${dir} equal 0.5*(${C5neg}+${C5pos})
variable C56 equal 0.5*(${C5neg}+${C5pos})
variable C56 equal 0.5*(49.9081013753364+${C5pos})
variable C56 equal 0.5*(49.9081013753364+-49.9081001854325)
variable C6${dir} equal 0.5*(${C6neg}+${C6pos})
variable C66 equal 0.5*(${C6neg}+${C6pos})
variable C66 equal 0.5*(-9.40727772508012+${C6pos})
variable C66 equal 0.5*(-9.40727772508012+39.4523332650799)

# Delete dir to make sure it is not reused

variable dir delete

# Output final values

variable C11all equal ${C11}
variable C11all equal 47.3499042525848
variable C22all equal ${C22}
variable C22all equal 44.0311326947849
variable C33all equal ${C33}
variable C33all equal 8.93699336756981e-09

variable C12all equal 0.5*(${C12}+${C21})
variable C12all equal 0.5*(16.3380517113899+${C21})
variable C12all equal 0.5*(16.3380517113899+16.3471777752648)
variable C13all equal 0.5*(${C13}+${C31})
variable C13all equal 0.5*(-0.00436277523999706+${C31})
variable C13all equal 0.5*(-0.00436277523999706+-1.45445000043765e-07)
variable C23all equal 0.5*(${C23}+${C32})
variable C23all equal 0.5*(-0.00747805355968012+${C32})
variable C23all equal 0.5*(-0.00747805355968012+5.56900658921222e-09)

variable C44all equal ${C44}
variable C44all equal -1.70075509231538e-09
variable C55all equal ${C55}
variable C55all equal -7.4584960430002e-10
variable C66all equal ${C66}
variable C66all equal 15.0225277699999

variable C14all equal 0.5*(${C14}+${C41})
variable C14all equal 0.5*(-4.36089976574294e-07+${C41})
variable C14all equal 0.5*(-4.36089976574294e-07+4.13550878874958e-07)
variable C15all equal 0.5*(${C15}+${C51})
variable C15all equal 0.5*(-9.80085133051034e-07+${C51})
variable C15all equal 0.5*(-9.80085133051034e-07+-6.78351597116489e-07)
variable C16all equal 0.5*(${C16}+${C61})
variable C16all equal 0.5*(-0.00546978504507933+${C61})
variable C16all equal 0.5*(-0.00546978504507933+-6.42012565476975)

variable C24all equal 0.5*(${C24}+${C42})
variable C24all equal 0.5*(-3.71959686162882e-07+${C42})
variable C24all equal 0.5*(-3.71959686162882e-07+-6.61002559354529e-08)
variable C25all equal 0.5*(${C25}+${C52})
variable C25all equal 0.5*(-1.0337798812543e-06+${C52})
variable C25all equal 0.5*(-1.0337798812543e-06+1.85772250915761e-07)
variable C26all equal 0.5*(${C26}+${C62})
variable C26all equal 0.5*(-0.0287227349353998+${C62})
variable C26all equal 0.5*(-0.0287227349353998+-0.0287092653898995)

variable C34all equal 0.5*(${C34}+${C43})
variable C34all equal 0.5*(-5.15221003638544e-07+${C43})
variable C34all equal 0.5*(-5.15221003638544e-07+5.85951056564227e-07)
variable C35all equal 0.5*(${C35}+${C53})
variable C35all equal 0.5*(-2.00284100060344e-06+${C53})
variable C35all equal 0.5*(-2.00284100060344e-06+-1.99446580140261e-06)
variable C36all equal 0.5*(${C36}+${C63})
variable C36all equal 0.5*(-1.60285219976686e-05+${C63})
variable C36all equal 0.5*(-1.60285219976686e-05+-0.00451858281989992)

variable C45all equal 0.5*(${C45}+${C54})
variable C45all equal 0.5*(-1.81498762685806e-08+${C54})
variable C45all equal 0.5*(-1.81498762685806e-08+-3.62951301013936e-07)
variable C46all equal 0.5*(${C46}+${C64})
variable C46all equal 0.5*(3.40426995535381e-05+${C64})
variable C46all equal 0.5*(3.40426995535381e-05+2.81801000312498e-08)
variable C56all equal 0.5*(${C56}+${C65})
variable C56all equal 0.5*(5.94951949040023e-07+${C65})
variable C56all equal 0.5*(5.94951949040023e-07+-2.42160050234475e-07)

# For Stillinger-Weber silicon, the analytical results
# are known to be (E. R. Cowley, 1988):
#               C11 = 151.4 GPa
#               C12 = 76.4 GPa
#               C44 = 56.4 GPa

print "Elastic Constant C11all = ${C11all} ${cunits}"
Elastic Constant C11all = 47.3499042525848 GPa
print "Elastic Constant C22all = ${C22all} ${cunits}"
Elastic Constant C22all = 44.0311326947849 GPa
print "Elastic Constant C33all = ${C33all} ${cunits}"
Elastic Constant C33all = 8.93699336756981e-09 GPa

print "Elastic Constant C12all = ${C12all} ${cunits}"
Elastic Constant C12all = 16.3426147433274 GPa
print "Elastic Constant C13all = ${C13all} ${cunits}"
Elastic Constant C13all = -0.00218146034249855 GPa
print "Elastic Constant C23all = ${C23all} ${cunits}"
Elastic Constant C23all = -0.00373902399533677 GPa

print "Elastic Constant C44all = ${C44all} ${cunits}"
Elastic Constant C44all = -1.70075509231538e-09 GPa
print "Elastic Constant C55all = ${C55all} ${cunits}"
Elastic Constant C55all = -7.4584960430002e-10 GPa
print "Elastic Constant C66all = ${C66all} ${cunits}"
Elastic Constant C66all = 15.0225277699999 GPa

print "Elastic Constant C14all = ${C14all} ${cunits}"
Elastic Constant C14all = -1.1269548849668e-08 GPa
print "Elastic Constant C15all = ${C15all} ${cunits}"
Elastic Constant C15all = -8.29218365083761e-07 GPa
print "Elastic Constant C16all = ${C16all} ${cunits}"
Elastic Constant C16all = -3.21279771990741 GPa

print "Elastic Constant C24all = ${C24all} ${cunits}"
Elastic Constant C24all = -2.19029971049167e-07 GPa
print "Elastic Constant C25all = ${C25all} ${cunits}"
Elastic Constant C25all = -4.24003815169269e-07 GPa
print "Elastic Constant C26all = ${C26all} ${cunits}"
Elastic Constant C26all = -0.0287160001626496 GPa

print "Elastic Constant C34all = ${C34all} ${cunits}"
Elastic Constant C34all = 3.53650264628415e-08 GPa
print "Elastic Constant C35all = ${C35all} ${cunits}"
Elastic Constant C35all = -1.99865340100303e-06 GPa
print "Elastic Constant C36all = ${C36all} ${cunits}"
Elastic Constant C36all = -0.00226730567094879 GPa

print "Elastic Constant C45all = ${C45all} ${cunits}"
Elastic Constant C45all = -1.90550588641258e-07 GPa
print "Elastic Constant C46all = ${C46all} ${cunits}"
Elastic Constant C46all = 1.70354398267847e-05 GPa
print "Elastic Constant C56all = ${C56all} ${cunits}"
Elastic Constant C56all = 1.76395949402774e-07 GPa

Total wall time: 0:00:07
