LAMMPS data file via write_data, version 13 Jan 2016, timestep = 277

960 atoms
1 atom types

1.7719017518979471e-01 2.8460634232810193e+01 xlo xhi
1.7042787817630689e-01 2.5603614088823701e+01 ylo yhi
-3.9485148037458014e-02 4.8639484757037437e+01 zlo zhi
8.4777287365535390e+00 0.0000000000000000e+00 0.0000000000000000e+00 xy xz yz

Masses

1 26.982

Atoms # charge

1 1 0.0000000000000000e+00 2.2444452264544747e+01 2.0856132215776675e+01 1.3997054744919833e+01 0 0 0
2 1 0.0000000000000000e+00 1.6792633106839389e+01 3.9006747420118488e+00 1.3997054744919586e+01 0 0 0
3 1 0.0000000000000000e+00 1.9618542685692105e+01 1.2378403478894738e+01 1.3997054744919932e+01 0 0 0
4 1 0.0000000000000000e+00 2.8101141076068870e+01 2.0856132215776974e+01 1.3997054744919611e+01 0 0 0
5 1 0.0000000000000000e+00 2.2449321918363506e+01 3.9006747420120989e+00 1.3997054744919325e+01 0 0 0
6 1 0.0000000000000000e+00 2.5275231497216257e+01 1.2378403478894953e+01 1.3997054744919641e+01 0 0 0
7 1 0.0000000000000000e+00 3.3757829887592877e+01 2.0856132215776249e+01 1.3997054744919392e+01 0 0 0
8 1 0.0000000000000000e+00 2.8106010729887533e+01 3.9006747420114163e+00 1.3997054744919103e+01 0 0 0
9 1 0.0000000000000000e+00 3.0931920308740267e+01 1.2378403478894221e+01 1.3997054744919414e+01 0 0 0
10 1 0.0000000000000000e+00 1.1131074641496488e+01 2.0856132215775503e+01 1.3997054744919476e+01 0 0 0
11 1 0.0000000000000000e+00 5.4792554837911513e+00 3.9006747420107484e+00 1.3997054744919227e+01 0 0 0
12 1 0.0000000000000000e+00 8.3051650626438711e+00 1.2378403478893535e+01 1.3997054744919570e+01 0 0 0
13 1 0.0000000000000000e+00 1.6787763453020570e+01 2.0856132215775766e+01 1.3997054744919749e+01 0 0 0
14 1 0.0000000000000000e+00 1.1135944295315237e+01 3.9006747420110179e+00 1.3997054744919522e+01 0 0 0
15 1 0.0000000000000000e+00 1.3961853874167948e+01 1.2378403478893858e+01 1.3997054744919886e+01 0 0 0
16 1 0.0000000000000000e+00 2.2443307746974600e+01 2.4495265985409141e+01 1.5110107644425716e+01 0 0 0
17 1 0.0000000000000000e+00 1.6791488589270976e+01 7.5398085116444635e+00 1.5110107644425684e+01 0 0 0
18 1 0.0000000000000000e+00 1.9617398168124684e+01 1.6017537248526622e+01 1.5110107644425959e+01 0 0 0
19 1 0.0000000000000000e+00 2.8099996558498738e+01 2.4495265985409709e+01 1.5110107644425586e+01 0 0 0
20 1 0.0000000000000000e+00 2.2448177400795110e+01 7.5398085116450284e+00 1.5110107644425508e+01 0 0 0
21 1 0.0000000000000000e+00 2.5274086979648825e+01 1.6017537248527240e+01 1.5110107644425803e+01 0 0 0
22 1 0.0000000000000000e+00 3.3756685370022680e+01 2.4495265985409418e+01 1.5110107644425357e+01 0 0 0
23 1 0.0000000000000000e+00 2.8104866212319063e+01 7.5398085116446962e+00 1.5110107644425259e+01 0 0 0
24 1 0.0000000000000000e+00 3.0930775791172760e+01 1.6017537248526949e+01 1.5110107644425586e+01 0 0 0
25 1 0.0000000000000000e+00 1.1129930123926226e+01 2.4495265985408672e+01 1.5110107644425346e+01 0 0 0
26 1 0.0000000000000000e+00 5.4781109662226211e+00 7.5398085116439226e+00 1.5110107644425284e+01 0 0 0
27 1 0.0000000000000000e+00 8.3040205450762894e+00 1.6017537248526153e+01 1.5110107644425605e+01 0 0 0
28 1 0.0000000000000000e+00 1.6786618935450353e+01 2.4495265985408501e+01 1.5110107644425559e+01 0 0 0
29 1 0.0000000000000000e+00 1.1134799777746737e+01 7.5398085116437787e+00 1.5110107644425545e+01 0 0 0
30 1 0.0000000000000000e+00 1.3960709356600413e+01 1.6017537248525947e+01 1.5110107644425829e+01 0 0 0
31 1 0.0000000000000000e+00 2.3858209328600424e+01 2.2201085188408889e+01 1.5895671369440462e+01 0 0 0
32 1 0.0000000000000000e+00 1.8206390170895673e+01 5.2456277146440859e+00 1.5895671369440214e+01 0 0 0
33 1 0.0000000000000000e+00 2.1032299749748841e+01 1.3723356451526518e+01 1.5895671369440768e+01 0 0 0
34 1 0.0000000000000000e+00 2.9514898140124572e+01 2.2201085188409102e+01 1.5895671369440166e+01 0 0 0
35 1 0.0000000000000000e+00 2.3863078982419808e+01 5.2456277146442920e+00 1.5895671369439855e+01 0 0 0
36 1 0.0000000000000000e+00 2.6688988561272978e+01 1.3723356451526728e+01 1.5895671369440368e+01 0 0 0
37 1 0.0000000000000000e+00 3.5171586951648457e+01 2.2201085188408513e+01 1.5895671369439897e+01 0 0 0
38 1 0.0000000000000000e+00 2.9519767793943693e+01 5.2456277146436898e+00 1.5895671369439633e+01 0 0 0
39 1 0.0000000000000000e+00 3.2345677372796843e+01 1.3723356451526124e+01 1.5895671369440141e+01 0 0 0
40 1 0.0000000000000000e+00 1.2544831705551958e+01 2.2201085188407923e+01 1.5895671369440041e+01 0 0 0
41 1 0.0000000000000000e+00 6.8930125478472020e+00 5.2456277146431196e+00 1.5895671369439849e+01 0 0 0
42 1 0.0000000000000000e+00 9.7189221267003187e+00 1.3723356451525541e+01 1.5895671369440395e+01 0 0 0
43 1 0.0000000000000000e+00 1.8201520517076105e+01 2.2201085188408165e+01 1.5895671369440400e+01 0 0 0
44 1 0.0000000000000000e+00 1.2549701359371369e+01 5.2456277146433630e+00 1.5895671369440208e+01 0 0 0
45 1 0.0000000000000000e+00 1.5375610938224495e+01 1.3723356451525788e+01 1.5895671369440784e+01 0 0 0
46 1 0.0000000000000000e+00 1.8207312253181449e+01 1.5058687711318128e+00 1.4548044171819635e+01 0 0 0
47 1 0.0000000000000000e+00 2.1033221832033110e+01 9.9835975080145971e+00 1.4548044171819749e+01 0 0 0
48 1 0.0000000000000000e+00 2.3859131410886491e+01 1.8461326244896696e+01 1.4548044171819930e+01 0 0 0
49 1 0.0000000000000000e+00 2.3864001064705437e+01 1.5058687711317800e+00 1.4548044171819360e+01 0 0 0
50 1 0.0000000000000000e+00 2.6689910643557088e+01 9.9835975080145314e+00 1.4548044171819443e+01 0 0 0
51 1 0.0000000000000000e+00 2.9515820222410472e+01 1.8461326244896689e+01 1.4548044171819672e+01 0 0 0
52 1 0.0000000000000000e+00 1.2372458186089874e+00 1.5058687711310228e+00 1.4548044171819246e+01 0 0 0
53 1 0.0000000000000000e+00 4.0631553974606458e+00 9.9835975080137320e+00 1.4548044171819360e+01 0 0 0
54 1 0.0000000000000000e+00 6.8890649763140068e+00 1.8461326244895879e+01 1.4548044171819582e+01 0 0 0
55 1 0.0000000000000000e+00 6.8939346301330833e+00 1.5058687711305778e+00 1.4548044171819457e+01 0 0 0
56 1 0.0000000000000000e+00 9.7198442089847319e+00 9.9835975080132986e+00 1.4548044171819610e+01 0 0 0
57 1 0.0000000000000000e+00 1.2545753787838098e+01 1.8461326244895382e+01 1.4548044171819779e+01 0 0 0
58 1 0.0000000000000000e+00 1.2550623441657306e+01 1.5058687711310645e+00 1.4548044171819692e+01 0 0 0
59 1 0.0000000000000000e+00 1.5376533020508953e+01 9.9835975080138297e+00 1.4548044171819853e+01 0 0 0
60 1 0.0000000000000000e+00 1.8202442599362335e+01 1.8461326244895886e+01 1.4548044171819997e+01 0 0 0
61 1 0.0000000000000000e+00 2.1029864922838275e+01 2.2201085188408534e+01 1.5895671369440487e+01 0 0 0
62 1 0.0000000000000000e+00 1.5378045765133523e+01 5.2456277146437307e+00 1.5895671369440270e+01 0 0 0
63 1 0.0000000000000000e+00 1.8203955343986667e+01 1.3723356451526158e+01 1.5895671369440846e+01 0 0 0
64 1 0.0000000000000000e+00 2.6686553734362537e+01 2.2201085188409110e+01 1.5895671369440343e+01 0 0 0
65 1 0.0000000000000000e+00 2.1034734576657769e+01 5.2456277146443044e+00 1.5895671369440048e+01 0 0 0
66 1 0.0000000000000000e+00 2.3860644155510943e+01 1.3723356451526742e+01 1.5895671369440592e+01 0 0 0
67 1 0.0000000000000000e+00 3.2343242545886547e+01 2.2201085188408875e+01 1.5895671369439992e+01 0 0 0
68 1 0.0000000000000000e+00 2.6691423388181772e+01 5.2456277146440549e+00 1.5895671369439690e+01 0 0 0
69 1 0.0000000000000000e+00 2.9517332967034925e+01 1.3723356451526493e+01 1.5895671369440198e+01 0 0 0
70 1 0.0000000000000000e+00 9.7164872997899856e+00 2.2201085188408143e+01 1.5895671369439919e+01 0 0 0
71 1 0.0000000000000000e+00 4.0646681420852229e+00 5.2456277146433328e+00 1.5895671369439695e+01 0 0 0
72 1 0.0000000000000000e+00 6.8905777209383521e+00 1.3723356451525765e+01 1.5895671369440214e+01 0 0 0
73 1 0.0000000000000000e+00 1.5373176111313997e+01 2.2201085188407930e+01 1.5895671369440228e+01 0 0 0
74 1 0.0000000000000000e+00 9.7213569536092521e+00 5.2456277146431356e+00 1.5895671369440048e+01 0 0 0
75 1 0.0000000000000000e+00 1.2547266532462364e+01 1.3723356451525559e+01 1.5895671369440606e+01 0 0 0
76 1 0.0000000000000000e+00 1.5378967847419403e+01 1.5058687711314802e+00 1.4548044171819708e+01 0 0 0
77 1 0.0000000000000000e+00 1.8204877426271047e+01 9.9835975080142632e+00 1.4548044171819852e+01 0 0 0
78 1 0.0000000000000000e+00 2.1030787005124441e+01 1.8461326244896327e+01 1.4548044171820008e+01 0 0 0
79 1 0.0000000000000000e+00 2.1035656658943452e+01 1.5058687711319283e+00 1.4548044171819500e+01 0 0 0
80 1 0.0000000000000000e+00 2.3861566237795113e+01 9.9835975080146966e+00 1.4548044171819592e+01 0 0 0
81 1 0.0000000000000000e+00 2.6687475816648519e+01 1.8461326244896838e+01 1.4548044171819805e+01 0 0 0
82 1 0.0000000000000000e+00 2.6692345470467394e+01 1.5058687711314378e+00 1.4548044171819260e+01 0 0 0
83 1 0.0000000000000000e+00 2.9518255049319063e+01 9.9835975080141601e+00 1.4548044171819351e+01 0 0 0
84 1 0.0000000000000000e+00 3.2344164628172422e+01 1.8461326244896320e+01 1.4548044171819587e+01 0 0 0
85 1 0.0000000000000000e+00 4.0655902243710127e+00 1.5058687711306891e+00 1.4548044171819322e+01 0 0 0
86 1 0.0000000000000000e+00 6.8914998032226720e+00 9.9835975080133998e+00 1.4548044171819459e+01 0 0 0
87 1 0.0000000000000000e+00 9.7174093820760223e+00 1.8461326244895517e+01 1.4548044171819660e+01 0 0 0
88 1 0.0000000000000000e+00 9.7222790358951876e+00 1.5058687711307199e+00 1.4548044171819598e+01 0 0 0
89 1 0.0000000000000000e+00 1.2548188614746842e+01 9.9835975080134638e+00 1.4548044171819765e+01 0 0 0
90 1 0.0000000000000000e+00 1.5374098193600211e+01 1.8461326244895524e+01 1.4548044171819908e+01 0 0 0
91 1 0.0000000000000000e+00 2.5272796670306818e+01 2.0856132215776967e+01 1.3997054744919746e+01 0 0 0
92 1 0.0000000000000000e+00 1.9620977512601456e+01 3.9006747420121011e+00 1.3997054744919481e+01 0 0 0
93 1 0.0000000000000000e+00 2.2446887091454176e+01 1.2378403478894981e+01 1.3997054744919808e+01 0 0 0
94 1 0.0000000000000000e+00 3.0929485481830884e+01 2.0856132215776704e+01 1.3997054744919476e+01 0 0 0
95 1 0.0000000000000000e+00 2.5277666324125530e+01 3.9006747420118391e+00 1.3997054744919179e+01 0 0 0
96 1 0.0000000000000000e+00 2.8103575902978267e+01 1.2378403478894661e+01 1.3997054744919486e+01 0 0 0
97 1 0.0000000000000000e+00 8.3027302357344848e+00 2.0856132215775794e+01 1.3997054744919392e+01 0 0 0
98 1 0.0000000000000000e+00 2.6509110780291358e+00 3.9006747420109975e+00 1.3997054744919117e+01 0 0 0
99 1 0.0000000000000000e+00 5.4768206568818671e+00 1.2378403478893787e+01 1.3997054744919446e+01 0 0 0
100 1 0.0000000000000000e+00 1.3959419047258509e+01 2.0856132215775496e+01 1.3997054744919616e+01 0 0 0
101 1 0.0000000000000000e+00 8.3075998895531793e+00 3.9006747420107519e+00 1.3997054744919382e+01 0 0 0
102 1 0.0000000000000000e+00 1.1133509468405890e+01 1.2378403478893564e+01 1.3997054744919740e+01 0 0 0
103 1 0.0000000000000000e+00 1.9616107858782655e+01 2.0856132215776213e+01 1.3997054744919833e+01 0 0 0
104 1 0.0000000000000000e+00 1.3964288701077313e+01 3.9006747420114380e+00 1.3997054744919605e+01 0 0 0
105 1 0.0000000000000000e+00 1.6790198279930028e+01 1.2378403478894306e+01 1.3997054744919964e+01 0 0 0
106 1 0.0000000000000000e+00 2.5271652152736703e+01 2.4495265985409503e+01 1.5110107644425680e+01 0 0 0
107 1 0.0000000000000000e+00 1.9619832995033068e+01 7.5398085116448321e+00 1.5110107644425632e+01 0 0 0
108 1 0.0000000000000000e+00 2.2445742573886786e+01 1.6017537248527013e+01 1.5110107644425907e+01 0 0 0
109 1 0.0000000000000000e+00 3.0928340964260723e+01 2.4495265985409674e+01 1.5110107644425465e+01 0 0 0
110 1 0.0000000000000000e+00 2.5276521806557106e+01 7.5398085116449760e+00 1.5110107644425367e+01 0 0 0
111 1 0.0000000000000000e+00 2.8102431385410817e+01 1.6017537248527216e+01 1.5110107644425678e+01 0 0 0
112 1 0.0000000000000000e+00 8.3015857181642438e+00 2.4495265985409034e+01 1.5110107644425316e+01 0 0 0
113 1 0.0000000000000000e+00 2.6497665604606309e+00 7.5398085116442939e+00 1.5110107644425227e+01 0 0 0
114 1 0.0000000000000000e+00 5.4756761393143165e+00 1.6017537248526541e+01 1.5110107644425556e+01 0 0 0
115 1 0.0000000000000000e+00 1.3958274529688264e+01 2.4495265985408466e+01 1.5110107644425435e+01 0 0 0
116 1 0.0000000000000000e+00 8.3064553719846543e+00 7.5398085116437308e+00 1.5110107644425405e+01 0 0 0
117 1 0.0000000000000000e+00 1.1132364950838328e+01 1.6017537248525926e+01 1.5110107644425710e+01 0 0 0
118 1 0.0000000000000000e+00 1.9614963341212476e+01 2.4495265985408757e+01 1.5110107644425669e+01 0 0 0
119 1 0.0000000000000000e+00 1.3963144183508861e+01 7.5398085116440612e+00 1.5110107644425653e+01 0 0 0
120 1 0.0000000000000000e+00 1.6789053762362535e+01 1.6017537248526217e+01 1.5110107644425922e+01 0 0 0
121 1 0.0000000000000000e+00 1.9616384253315957e+01 1.9831538340501126e+01 1.6526361297321426e+01 0 0 0
122 1 0.0000000000000000e+00 1.3964565095611066e+01 2.8760808667362587e+00 1.6526361297321149e+01 0 0 0
123 1 0.0000000000000000e+00 1.6790474674463038e+01 1.1353809603618767e+01 1.6526361297321454e+01 0 0 0
124 1 0.0000000000000000e+00 2.5273073064840265e+01 1.9831538340501758e+01 1.6526361297321323e+01 0 0 0
125 1 0.0000000000000000e+00 1.9621253907135333e+01 2.8760808667368849e+00 1.6526361297321017e+01 0 0 0
126 1 0.0000000000000000e+00 2.2447163485987335e+01 1.1353809603619382e+01 1.6526361297321287e+01 0 0 0
127 1 0.0000000000000000e+00 3.0929761876364278e+01 1.9831538340501623e+01 1.6526361297321056e+01 0 0 0
128 1 0.0000000000000000e+00 2.5277942718659368e+01 2.8760808667367428e+00 1.6526361297320726e+01 0 0 0
129 1 0.0000000000000000e+00 2.8103852297511370e+01 1.1353809603619235e+01 1.6526361297320971e+01 0 0 0
130 1 0.0000000000000000e+00 8.3030066302677294e+00 1.9831538340500913e+01 1.6526361297320985e+01 0 0 0
131 1 0.0000000000000000e+00 2.6511874725628313e+00 2.8760808667360376e+00 1.6526361297320669e+01 0 0 0
132 1 0.0000000000000000e+00 5.4770970514148019e+00 1.1353809603618519e+01 1.6526361297320939e+01 0 0 0
133 1 0.0000000000000000e+00 1.3959695441791704e+01 1.9831538340500600e+01 1.6526361297321216e+01 0 0 0
134 1 0.0000000000000000e+00 8.3078762840868148e+00 2.8760808667357360e+00 1.6526361297320925e+01 0 0 0
135 1 0.0000000000000000e+00 1.1133785862938776e+01 1.1353809603618229e+01 1.6526361297321234e+01 0 0 0
136 1 0.0000000000000000e+00 1.9615277118380764e+01 2.3646439849295881e+01 1.7822331888530542e+01 0 0 0
137 1 0.0000000000000000e+00 1.3963457960676630e+01 6.6909823755309450e+00 1.7822331888530453e+01 0 0 0
138 1 0.0000000000000000e+00 1.6789367539530044e+01 1.5168711112413437e+01 1.7822331888530883e+01 0 0 0
139 1 0.0000000000000000e+00 2.5271965929905132e+01 2.3646439849296534e+01 1.7822331888530542e+01 0 0 0
140 1 0.0000000000000000e+00 1.9620146772200986e+01 6.6909823755316014e+00 1.7822331888530385e+01 0 0 0
141 1 0.0000000000000000e+00 2.2446056351054438e+01 1.5168711112414083e+01 1.7822331888530819e+01 0 0 0
142 1 0.0000000000000000e+00 3.0928654741429234e+01 2.3646439849296598e+01 1.7822331888530272e+01 0 0 0
143 1 0.0000000000000000e+00 2.5276835583725084e+01 6.6909823755316546e+00 1.7822331888530080e+01 0 0 0
144 1 0.0000000000000000e+00 2.8102745162578533e+01 1.5168711112414146e+01 1.7822331888530513e+01 0 0 0
145 1 0.0000000000000000e+00 8.3018994953326413e+00 2.3646439849295987e+01 1.7822331888530115e+01 0 0 0
146 1 0.0000000000000000e+00 2.6500803376285007e+00 6.6909823755310338e+00 1.7822331888529956e+01 0 0 0
147 1 0.0000000000000000e+00 5.4759899164819235e+00 1.5168711112413527e+01 1.7822331888530396e+01 0 0 0
148 1 0.0000000000000000e+00 1.3958588306856525e+01 2.3646439849295533e+01 1.7822331888530275e+01 0 0 0
149 1 0.0000000000000000e+00 8.3067691491523927e+00 6.6909823755305906e+00 1.7822331888530183e+01 0 0 0
150 1 0.0000000000000000e+00 1.1132678728005795e+01 1.5168711112413092e+01 1.7822331888530634e+01 0 0 0
151 1 0.0000000000000000e+00 2.1030173885298318e+01 2.1272696726968860e+01 1.8494363068924731e+01 0 0 0
152 1 0.0000000000000000e+00 1.5378354727593569e+01 4.3172392532039039e+00 1.8494363068924489e+01 0 0 0
153 1 0.0000000000000000e+00 1.8204264306446124e+01 1.2794967990086356e+01 1.8494363068924901e+01 0 0 0
154 1 0.0000000000000000e+00 2.6686862696822637e+01 2.1272696726969372e+01 1.8494363068924603e+01 0 0 0
155 1 0.0000000000000000e+00 2.1035043539117858e+01 4.3172392532044146e+00 1.8494363068924308e+01 0 0 0
156 1 0.0000000000000000e+00 2.3860953117970450e+01 1.2794967990086851e+01 1.8494363068924688e+01 0 0 0
157 1 0.0000000000000000e+00 3.2343551508346600e+01 2.1272696726969144e+01 1.8494363068924343e+01 0 0 0
158 1 0.0000000000000000e+00 2.6691732350641839e+01 4.3172392532041721e+00 1.8494363068924027e+01 0 0 0
159 1 0.0000000000000000e+00 2.9517641929494417e+01 1.2794967990086617e+01 1.8494363068924390e+01 0 0 0
160 1 0.0000000000000000e+00 9.7167962622499928e+00 2.1272696726968483e+01 1.8494363068924301e+01 0 0 0
161 1 0.0000000000000000e+00 4.0649771045452416e+00 4.3172392532035131e+00 1.8494363068924031e+01 0 0 0
162 1 0.0000000000000000e+00 6.8908866833977829e+00 1.2794967990085956e+01 1.8494363068924429e+01 0 0 0
163 1 0.0000000000000000e+00 1.5373485073773997e+01 2.1272696726968320e+01 1.8494363068924539e+01 0 0 0
164 1 0.0000000000000000e+00 9.7216659160692416e+00 4.3172392532033550e+00 1.8494363068924319e+01 0 0 0
165 1 0.0000000000000000e+00 1.2547575494921787e+01 1.2794967990085803e+01 1.8494363068924741e+01 0 0 0
166 1 0.0000000000000000e+00 1.5379425075595870e+01 5.2525363335355468e-01 1.7114383702261922e+01 0 0 0
167 1 0.0000000000000000e+00 1.8205334654446393e+01 9.0029823702360510e+00 1.7114383702261989e+01 0 0 0
168 1 0.0000000000000000e+00 2.1031244233299930e+01 1.7480711107118445e+01 1.7114383702262213e+01 0 0 0
169 1 0.0000000000000000e+00 2.1036113887120081e+01 5.2525363335394604e-01 1.7114383702261733e+01 0 0 0
170 1 0.0000000000000000e+00 2.3862023465970605e+01 9.0029823702364435e+00 1.7114383702261751e+01 0 0 0
171 1 0.0000000000000000e+00 2.6687933044824156e+01 1.7480711107118857e+01 1.7114383702262014e+01 0 0 0
172 1 0.0000000000000000e+00 2.6692802698644005e+01 5.2525363335352560e-01 1.7114383702261513e+01 0 0 0
173 1 0.0000000000000000e+00 2.9518712277494533e+01 9.0029823702360012e+00 1.7114383702261527e+01 0 0 0
174 1 0.0000000000000000e+00 3.2344621856348084e+01 1.7480711107118431e+01 1.7114383702261819e+01 0 0 0
175 1 0.0000000000000000e+00 4.0660474525474575e+00 5.2525363335286201e-01 1.7114383702261563e+01 0 0 0
176 1 0.0000000000000000e+00 6.8919570313979843e+00 9.0029823702353422e+00 1.7114383702261627e+01 0 0 0
177 1 0.0000000000000000e+00 9.7178666102515177e+00 1.7480711107117756e+01 1.7114383702261886e+01 0 0 0
178 1 0.0000000000000000e+00 9.7227362640715533e+00 5.2525363335287611e-01 1.7114383702261819e+01 0 0 0
179 1 0.0000000000000000e+00 1.2548645842922067e+01 9.0029823702353742e+00 1.7114383702261915e+01 0 0 0
180 1 0.0000000000000000e+00 1.5374555421775609e+01 1.7480711107117770e+01 1.7114383702262128e+01 0 0 0
181 1 0.0000000000000000e+00 1.8201829479536141e+01 2.1272696726968526e+01 1.8494363068924670e+01 0 0 0
182 1 0.0000000000000000e+00 1.2550010321831378e+01 4.3172392532035735e+00 1.8494363068924443e+01 0 0 0
183 1 0.0000000000000000e+00 1.5375919900683927e+01 1.2794967990086018e+01 1.8494363068924862e+01 0 0 0
184 1 0.0000000000000000e+00 2.3858518291060513e+01 2.1272696726969187e+01 1.8494363068924716e+01 0 0 0
185 1 0.0000000000000000e+00 1.8206699133355734e+01 4.3172392532042290e+00 1.8494363068924436e+01 0 0 0
186 1 0.0000000000000000e+00 2.1032608712208326e+01 1.2794967990086672e+01 1.8494363068924841e+01 0 0 0
187 1 0.0000000000000000e+00 2.9515207102584672e+01 2.1272696726969357e+01 1.8494363068924457e+01 0 0 0
188 1 0.0000000000000000e+00 2.3863387944879900e+01 4.3172392532043942e+00 1.8494363068924155e+01 0 0 0
189 1 0.0000000000000000e+00 2.6689297523732474e+01 1.2794967990086830e+01 1.8494363068924525e+01 0 0 0
190 1 0.0000000000000000e+00 3.5171895914108497e+01 2.1272696726968810e+01 1.8494363068924276e+01 0 0 0
191 1 0.0000000000000000e+00 2.9520076756403736e+01 4.3172392532038382e+00 1.8494363068923981e+01 0 0 0
192 1 0.0000000000000000e+00 3.2345986335256299e+01 1.2794967990086279e+01 1.8494363068924358e+01 0 0 0
193 1 0.0000000000000000e+00 1.2545140668011944e+01 2.1272696726968299e+01 1.8494363068924404e+01 0 0 0
194 1 0.0000000000000000e+00 6.8933215103071959e+00 4.3172392532033310e+00 1.8494363068924162e+01 0 0 0
195 1 0.0000000000000000e+00 9.7192310891597327e+00 1.2794967990085784e+01 1.8494363068924571e+01 0 0 0
196 1 0.0000000000000000e+00 1.2551080669833697e+01 5.2525363335318076e-01 1.7114383702261907e+01 0 0 0
197 1 0.0000000000000000e+00 1.5376990248684214e+01 9.0029823702356850e+00 1.7114383702262000e+01 0 0 0
198 1 0.0000000000000000e+00 1.8202899827537763e+01 1.7480711107118069e+01 1.7114383702262202e+01 0 0 0
199 1 0.0000000000000000e+00 1.8207769481358003e+01 5.2525363335383768e-01 1.7114383702261854e+01 0 0 0
200 1 0.0000000000000000e+00 2.1033679060208527e+01 9.0029823702363458e+00 1.7114383702261897e+01 0 0 0
201 1 0.0000000000000000e+00 2.3859588639062082e+01 1.7480711107118744e+01 1.7114383702262138e+01 0 0 0
202 1 0.0000000000000000e+00 2.3864458292882070e+01 5.2525363335382558e-01 1.7114383702261598e+01 0 0 0
203 1 0.0000000000000000e+00 2.6690367871732601e+01 9.0029823702363121e+00 1.7114383702261609e+01 0 0 0
204 1 0.0000000000000000e+00 2.9516277450586148e+01 1.7480711107118736e+01 1.7114383702261897e+01 0 0 0
205 1 0.0000000000000000e+00 1.2377030467855195e+00 5.2525363335315611e-01 1.7114383702261495e+01 0 0 0
206 1 0.0000000000000000e+00 4.0636126256360434e+00 9.0029823702356317e+00 1.7114383702261538e+01 0 0 0
207 1 0.0000000000000000e+00 6.8895222044895821e+00 1.7480711107118054e+01 1.7114383702261811e+01 0 0 0
208 1 0.0000000000000000e+00 6.8943918583094659e+00 5.2525363335275688e-01 1.7114383702261684e+01 0 0 0
209 1 0.0000000000000000e+00 9.7203014371599838e+00 9.0029823702352427e+00 1.7114383702261772e+01 0 0 0
210 1 0.0000000000000000e+00 1.2546211016013519e+01 1.7480711107117642e+01 1.7114383702262003e+01 0 0 0
211 1 0.0000000000000000e+00 2.2444728659078127e+01 1.9831538340501503e+01 1.6526361297321412e+01 0 0 0
212 1 0.0000000000000000e+00 1.6792909501373220e+01 2.8760808667366287e+00 1.6526361297321124e+01 0 0 0
213 1 0.0000000000000000e+00 1.9618819080225208e+01 1.1353809603619126e+01 1.6526361297321412e+01 0 0 0
214 1 0.0000000000000000e+00 2.8101417470602303e+01 1.9831538340501808e+01 1.6526361297321195e+01 0 0 0
215 1 0.0000000000000000e+00 2.2449598312897386e+01 2.8760808667369213e+00 1.6526361297320868e+01 0 0 0
216 1 0.0000000000000000e+00 2.5275507891749392e+01 1.1353809603619421e+01 1.6526361297321113e+01 0 0 0
217 1 0.0000000000000000e+00 3.3758106282126207e+01 1.9831538340501282e+01 1.6526361297320985e+01 0 0 0
218 1 0.0000000000000000e+00 2.8106287124421300e+01 2.8760808667364017e+00 1.6526361297320655e+01 0 0 0
219 1 0.0000000000000000e+00 3.0932196703273288e+01 1.1353809603618886e+01 1.6526361297320904e+01 0 0 0
220 1 0.0000000000000000e+00 1.1131351036029679e+01 1.9831538340500650e+01 1.6526361297321085e+01 0 0 0
221 1 0.0000000000000000e+00 5.4795318783247904e+00 2.8760808667357778e+00 1.6526361297320776e+01 0 0 0
222 1 0.0000000000000000e+00 8.3054414571767534e+00 1.1353809603618265e+01 1.6526361297321071e+01 0 0 0
223 1 0.0000000000000000e+00 1.6788039847553808e+01 1.9831538340500785e+01 1.6526361297321351e+01 0 0 0
224 1 0.0000000000000000e+00 1.1136220689848917e+01 2.8760808667359221e+00 1.6526361297321071e+01 0 0 0
225 1 0.0000000000000000e+00 1.3962130268700884e+01 1.1353809603618418e+01 1.6526361297321387e+01 0 0 0
226 1 0.0000000000000000e+00 2.2443621524142955e+01 2.3646439849296222e+01 1.7822331888530588e+01 0 0 0
227 1 0.0000000000000000e+00 1.6791802366438819e+01 6.6909823755313020e+00 1.7822331888530467e+01 0 0 0
228 1 0.0000000000000000e+00 1.9617711945292253e+01 1.5168711112413781e+01 1.7822331888530893e+01 0 0 0
229 1 0.0000000000000000e+00 2.8100310335667221e+01 2.3646439849296677e+01 1.7822331888530421e+01 0 0 0
230 1 0.0000000000000000e+00 2.2448491177963078e+01 6.6909823755317381e+00 1.7822331888530240e+01 0 0 0
231 1 0.0000000000000000e+00 2.5274400756816533e+01 1.5168711112414222e+01 1.7822331888530673e+01 0 0 0
232 1 0.0000000000000000e+00 3.3756999147191138e+01 2.3646439849296343e+01 1.7822331888530158e+01 0 0 0
233 1 0.0000000000000000e+00 2.8105179989487006e+01 6.6909823755313864e+00 1.7822331888529973e+01 0 0 0
234 1 0.0000000000000000e+00 3.0931089568340436e+01 1.5168711112413877e+01 1.7822331888530410e+01 0 0 0
235 1 0.0000000000000000e+00 1.1130243901094550e+01 2.3646439849295682e+01 1.7822331888530158e+01 0 0 0
236 1 0.0000000000000000e+00 5.4784247433904092e+00 6.6909823755307327e+00 1.7822331888530037e+01 0 0 0
237 1 0.0000000000000000e+00 8.3043343222438182e+00 1.5168711112413225e+01 1.7822331888530478e+01 0 0 0
238 1 0.0000000000000000e+00 1.6786932712618601e+01 2.3646439849295611e+01 1.7822331888530424e+01 0 0 0
239 1 0.0000000000000000e+00 1.1135113554914472e+01 6.6909823755306794e+00 1.7822331888530339e+01 0 0 0
240 1 0.0000000000000000e+00 1.3961023133767879e+01 1.5168711112413174e+01 1.7822331888530790e+01 0 0 0
241 1 0.0000000000000000e+00 1.6788340748852967e+01 1.8896052033406704e+01 1.9167868944245988e+01 0 0 0
242 1 0.0000000000000000e+00 1.1136521591148526e+01 1.9405945596417378e+00 1.9167868944245715e+01 0 0 0
243 1 0.0000000000000000e+00 1.3962431169999771e+01 1.0418323296524148e+01 1.9167868944245917e+01 0 0 0
244 1 0.0000000000000000e+00 2.2445029560377360e+01 1.8896052033407329e+01 1.9167868944246042e+01 0 0 0
245 1 0.0000000000000000e+00 1.6793210402672898e+01 1.9405945596423790e+00 1.9167868944245765e+01 0 0 0
246 1 0.0000000000000000e+00 1.9619119981524175e+01 1.0418323296524781e+01 1.9167868944245928e+01 0 0 0
247 1 0.0000000000000000e+00 2.8101718371901576e+01 1.8896052033407585e+01 1.9167868944245861e+01 0 0 0
248 1 0.0000000000000000e+00 2.2449899214197103e+01 1.9405945596426293e+00 1.9167868944245559e+01 0 0 0
249 1 0.0000000000000000e+00 2.5275808793048387e+01 1.0418323296525024e+01 1.9167868944245686e+01 0 0 0
250 1 0.0000000000000000e+00 3.3758407183425383e+01 1.8896052033407116e+01 1.9167868944245704e+01 0 0 0
251 1 0.0000000000000000e+00 2.8106588025720946e+01 1.9405945596421412e+00 1.9167868944245388e+01 0 0 0
252 1 0.0000000000000000e+00 3.0932497604572220e+01 1.0418323296524536e+01 1.9167868944245523e+01 0 0 0
253 1 0.0000000000000000e+00 1.1131651937328810e+01 1.8896052033406569e+01 1.9167868944245782e+01 0 0 0
254 1 0.0000000000000000e+00 5.4798327796243687e+00 1.9405945596415930e+00 1.9167868944245480e+01 0 0 0
255 1 0.0000000000000000e+00 8.3057423584756283e+00 1.0418323296523997e+01 1.9167868944245658e+01 0 0 0
256 1 0.0000000000000000e+00 1.6787245139895063e+01 2.2670979290340611e+01 2.0535724081331644e+01 0 0 0
257 1 0.0000000000000000e+00 1.1135425982190627e+01 5.7155218165755564e+00 2.0535724081331491e+01 0 0 0
258 1 0.0000000000000000e+00 1.3961335561043667e+01 1.4193250553458116e+01 2.0535724081331821e+01 0 0 0
259 1 0.0000000000000000e+00 2.2443933951419478e+01 2.2670979290341187e+01 2.0535724081331757e+01 0 0 0
260 1 0.0000000000000000e+00 1.6792114793715026e+01 5.7155218165761319e+00 2.0535724081331573e+01 0 0 0
261 1 0.0000000000000000e+00 1.9618024372568097e+01 1.4193250553458675e+01 2.0535724081331889e+01 0 0 0
262 1 0.0000000000000000e+00 2.8100622762943768e+01 2.2670979290341563e+01 2.0535724081331651e+01 0 0 0
263 1 0.0000000000000000e+00 2.2448803605239309e+01 5.7155218165765014e+00 2.0535724081331413e+01 0 0 0
264 1 0.0000000000000000e+00 2.5274713184092409e+01 1.4193250553459036e+01 2.0535724081331729e+01 0 0 0
265 1 0.0000000000000000e+00 3.3757311574467643e+01 2.2670979290341229e+01 2.0535724081331473e+01 0 0 0
266 1 0.0000000000000000e+00 2.8105492416763205e+01 5.7155218165761488e+00 2.0535724081331232e+01 0 0 0
267 1 0.0000000000000000e+00 3.0931401995616255e+01 1.4193250553458689e+01 2.0535724081331569e+01 0 0 0
268 1 0.0000000000000000e+00 1.1130556328370986e+01 2.2670979290340632e+01 2.0535724081331470e+01 0 0 0
269 1 0.0000000000000000e+00 5.4787371706665544e+00 5.7155218165755626e+00 2.0535724081331281e+01 0 0 0
270 1 0.0000000000000000e+00 8.3046467495195966e+00 1.4193250553458119e+01 2.0535724081331626e+01 0 0 0
271 1 0.0000000000000000e+00 1.8202102230894962e+01 2.0309383243930768e+01 2.1219535964723210e+01 0 0 0
272 1 0.0000000000000000e+00 1.2550283073190331e+01 3.3539257701657106e+00 2.1219535964722997e+01 0 0 0
273 1 0.0000000000000000e+00 1.5376192652042329e+01 1.1831654507048171e+01 2.1219535964723192e+01 0 0 0
274 1 0.0000000000000000e+00 2.3858791042419394e+01 2.0309383243931357e+01 2.1219535964723242e+01 0 0 0
275 1 0.0000000000000000e+00 1.8206971884714751e+01 3.3539257701663141e+00 2.1219535964723008e+01 0 0 0
276 1 0.0000000000000000e+00 2.1032881463566778e+01 1.1831654507048750e+01 2.1219535964723175e+01 0 0 0
277 1 0.0000000000000000e+00 2.9515479853943532e+01 2.0309383243931464e+01 2.1219535964723118e+01 0 0 0
278 1 0.0000000000000000e+00 2.3863660696238888e+01 3.3539257701664122e+00 2.1219535964722848e+01 0 0 0
279 1 0.0000000000000000e+00 2.6689570275090912e+01 1.1831654507048846e+01 2.1219535964722994e+01 0 0 0
280 1 0.0000000000000000e+00 3.5172168665467282e+01 2.0309383243930945e+01 2.1219535964723018e+01 -1 0 0
281 1 0.0000000000000000e+00 2.9520349507762663e+01 3.3539257701658713e+00 2.1219535964722734e+01 -1 0 0
282 1 0.0000000000000000e+00 3.2346259086614666e+01 1.1831654507048309e+01 2.1219535964722905e+01 -1 0 0
283 1 0.0000000000000000e+00 1.2545413419370709e+01 2.0309383243930512e+01 2.1219535964723068e+01 0 0 0
284 1 0.0000000000000000e+00 6.8935942616660961e+00 3.3539257701654366e+00 2.1219535964722837e+01 0 0 0
285 1 0.0000000000000000e+00 9.7195038405180814e+00 1.1831654507047897e+01 2.1219535964723033e+01 0 0 0