LAMMPS (13 Jan 2016)
Reading data file ...
  triclinic box = (0 0 0) to (28.6378 25.774 48.6) with tilt (8.59135 0 0)
  1 by 1 by 1 MPI processor grid
  reading atoms ...
  960 atoms
Neighbor list info ...
  1 neighbor list requests
  update every 1 steps, delay 0 steps, check yes
  max neighbors/atom: 2000, page size: 100000
  master list distance cutoff = 7.72488
  ghost atom cutoff = 7.72488
Setting up cg style minimization ...
  Unit style: metal
Memory usage per processor = 3.38271 Mbytes
Step Temp Press CPU Pxx Pyy Pzz Pxy Pxz Pyz KinEng PotEng TotEng Volume Lx Ly Lz Atoms 
       0            0   -10790.851            0   -11383.784   -11450.464    -9538.304 2.1779327e-06 -1.1251989e-07   -299.95547            0   -3151.6212   -3151.6212    35872.267    28.637824    25.774042         48.6      960 
       1            0   -9885.7933 0.0033271313   -10447.372   -10512.016   -8697.9915    0.2540745 0.0020626311   -305.36836            0   -3152.2797   -3152.2797    35770.944    28.609353    25.748268    48.559516      960 
       2            0   -8969.9026 0.0066590309   -9498.9056   -9561.3794    -7849.423   0.53126369 0.0048319236   -310.87549            0   -3152.8782   -3152.8782    35670.028    28.580892    25.722494    48.519309      960 
       3            0    -8043.346 0.0099949837   -8538.4435   -8598.6224   -6992.9722   0.83522955 0.0084643527   -316.49778            0   -3153.4162   -3153.4162    35569.552    28.552441     25.69672    48.479424      960 
       4            0   -7106.3907  0.013332129    -7566.119   -7623.8866   -6129.1663    1.1703766  0.012906937   -322.25048            0   -3153.8933   -3153.8933    35469.559    28.524005    25.670946     48.43992      960 
       5            0   -6159.7224  0.016671181   -6582.4442   -6637.6809   -5259.0421    1.5432911   0.01876307   -328.17622            0   -3154.3094   -3154.3094     35370.11    28.495584    25.645172    48.400876      960 
       6            0   -5204.2756   0.02000308    -5588.131   -5640.7133   -4383.9825    1.9630441  0.026006756   -334.29529            0    -3154.664    -3154.664     35271.29    28.467186    25.619398    48.362405      960 
       7            0   -4241.2066  0.023346186   -4583.9878   -4633.7914   -3505.8405    2.4438189  0.035081005   -340.67853            0   -3154.9572   -3154.9572    35173.229    28.438816    25.593624    48.324675      960 
       8            0   -3272.5498  0.026687145     -3571.53   -3618.3936   -2627.7259    3.0082075  0.046112799   -347.44196            0   -3155.1889   -3155.1889    35076.133    28.410488     25.56785    48.287955      960 
       9            0   -2302.1846  0.041107178   -2553.7599   -2597.4581   -1755.3357     3.697851  0.060249048   -354.67887            0   -3155.3595   -3155.3595    34980.367    28.382222    25.542076    48.252717      960 
      10            0    -1338.031  0.044449091   -1536.7865   -1576.9181   -900.38848    4.6028671  0.079493287   -362.78263            0     -3155.47     -3155.47    34886.687    28.354069    25.516302    48.219935      960 
      11            0   -401.19836  0.047796011   -537.02799   -572.59644   -93.970663    5.9697974   0.10832148   -372.53308            0   -3155.5229   -3155.5229    34797.154    28.326162    25.490528    48.192246      960 
      12            0    112.93967  0.054450035    40.838123    11.466954    286.51394    8.0999058   0.14839554   -382.89207            0   -3155.5314   -3155.5314     34749.09    28.308693    25.473762    48.187072      960 
      13            0    10.451722  0.057809114    61.385323    54.440702   -84.470858    15.167718   0.25370656   -405.27885            0   -3155.5386   -3155.5386    34761.337     28.30138    25.463643    48.235672      960 
      14            0   -463.27409  0.061173201   -619.99397   -496.68305   -273.14527    33.621238   0.57889177   -385.04471            0   -3155.5673   -3155.5673     34805.36    28.330018    25.480028    48.216909      960 
      15            0     188.3994  0.064535141   -44.676723    125.50872    484.36621    39.349319   0.74347088   -375.21283            0   -3155.6092   -3155.6092    34743.232    28.320519    25.468749    48.168309      960 
      16            0    27.066123  0.067896128    19.214657   -17.422969    79.406683    7.8730714   0.13894125   -383.48911            0   -3155.6625   -3155.6625    34761.889    28.305082    25.470624    48.216909      960 
      17            0   -325.39755  0.071273088   -307.41018   -215.90842   -452.87406    31.582073   0.50355451   -402.52054            0   -3155.6732   -3155.6732     34797.72    28.312038    25.464947    48.265509      960 
      18            0    231.13649  0.074668169    295.00564    508.79169   -110.38786    53.922941   0.84039476   -422.79789            0   -3155.6957   -3155.6957    34747.202    28.295592    25.439172    48.272309      960 
      19            0   -150.62139  0.078050137   -199.98461   -86.706114   -165.17346    32.999021   0.55976432   -383.12982            0   -3155.8302   -3155.8302    34784.369    28.312801    25.464947     48.24569      960 
      20            0    604.72786   0.08505106    631.76249    558.01825    624.40284   0.65101113  0.012481184   -370.18735            0   -3155.8482   -3155.8482    34712.825    28.287622    25.458533    48.201455      960 
      21            0    974.39642  0.091756105    1054.6938    835.08451    1033.4109   -24.568273  -0.48371232   -359.13971            0   -3155.8528   -3155.8528    34678.175    28.273833    25.458621    48.176657      960 
      22            0    823.02626  0.095144033    1003.6361    414.78748    1050.6552   -88.072048   -1.8332279    -326.1029            0   -3155.9231   -3155.9231     34693.09    28.267286    25.484395    48.159785      960 
      23            0    -44.24401  0.098524094    59.793147    -356.7713    164.24612   -58.258375   -1.1093425   -335.47463            0   -3155.9491   -3155.9491    34775.752     28.29475    25.494593    48.208385      960 
      24            0    33.293358   0.10189819    42.458587     4.560161    52.861326    6.7244234   0.11910487   -365.15678            0   -3155.9581   -3155.9581    34770.174    28.302436    25.468819     48.23633      960 
      25            0   -463.13094   0.10860205   -506.83739    -389.0399   -493.51553    33.586449   0.55322513   -374.83647            0   -3155.9661   -3155.9661    34818.769     28.31932    25.470451    48.271851      960 
      26            0   -336.43694   0.11200309   -451.88769     9.335314   -566.75843    92.837968    1.4220708   -401.50882            0   -3156.0073   -3156.0073    34809.968    28.323646    25.444677    48.301156      960 
      27            0    181.72997   0.11873102    127.70343    400.81073    16.675761    60.307702    1.0101145   -387.92912            0   -3156.0168   -3156.0168    34759.673    28.305315    25.444685     48.26259      960 
      28            0    50.345811   0.12210107    68.206495   -2.9362179    85.767157   0.70537952  0.012735833   -357.77559            0   -3156.0246   -3156.0246     34770.41    28.300907    25.470459    48.236156      960 
      29            0   -308.30858   0.12880421   -333.33977   -277.69801   -313.88797    22.572198   0.38443438   -366.01102            0   -3156.0289   -3156.0289    34805.413    28.313551    25.470831    48.262448      960 
      30            0   -186.10841   0.13220119   -288.40466     117.8222   -387.74275     83.05777    1.3168074   -393.95375            0   -3156.0513   -3156.0513    34796.444    28.318537    25.445057    48.290381      960 
      31            0    287.72428    0.1389091    259.61234    427.12214    176.43835    41.793979   0.72742201   -376.10592            0   -3156.0602   -3156.0602    34750.346    28.300009    25.449161    48.250197      960 
      32            0    167.87058    0.1422832    218.47779    32.114422    253.01953    -19.35028   -0.3596435   -345.72861            0   -3156.0695   -3156.0695    34760.141    28.294718    25.474935    48.223981      960 
      33            0   -127.03978   0.14897704   -109.17758     -205.715   -66.226767   -3.8490792 -0.068619952   -351.47414            0   -3156.0724   -3156.0724    34788.638    28.304823    25.476272    48.243755      960 
      34            0   -12.912185   0.15236402    -77.55912    183.99049   -145.16792    57.884806   0.96662667    -380.5605            0     -3156.08     -3156.08    34779.872    28.310523    25.450498    48.270723      960 
      35            0    382.00979   0.15573907    438.69668    282.60891    424.72378   -14.227038  -0.26686593   -346.74255            0   -3156.1126   -3156.1126    34741.543    28.289131    25.467316    48.222123      960 
      36            0   -244.71186   0.15911818   -171.69459   -492.64901   -69.791972   -42.607176  -0.79497764   -328.71588            0   -3156.1365   -3156.1365    34800.995    28.301784     25.49309    48.234232      960 
      37            0   -939.93516   0.16249919   -980.26868   -1082.7325   -756.80425   -6.7961295  -0.11887176   -320.65025            0   -3156.3431   -3156.3431    34875.507    28.327825    25.498495    48.282832      960 
      38            0   -146.73286   0.16587615   -184.87347   -185.08872   -70.236379    10.336137   0.18822792   -326.50225            0   -3156.4453   -3156.4453    34802.501    28.308802    25.472721    48.262922      960 
      39            0    98.188327    0.1725812    85.020591    83.061434    126.48296    10.393951   0.19070107   -329.91004            0   -3156.4472   -3156.4472    34779.517    28.300939    25.465634    48.257875      960 
      40            0     24.06853    0.1759572    152.72521    138.56343   -219.08305    11.707122   0.19727871   -350.78993            0   -3156.4615   -3156.4615    34789.687    28.291197    25.456216    48.306475      960 
      41            0   -345.87208   0.17933822   -459.95251   -400.68738   -176.97634    19.116566   0.35086917   -318.49487            0   -3156.4838   -3156.4838    34822.274    28.319835    25.478206     48.26114      960 
      42            0    46.852482   0.18271518   -167.80095   -89.452429    397.81083    19.589455   0.39126044   -302.76284            0   -3156.5013   -3156.5013    34783.692    28.318515    25.476819     48.21254      960 
      43            0    228.12082   0.18609715     263.5796     199.1084    221.67446 -0.031911341 -0.0008046561   -323.89148            0   -3156.5294   -3156.5294    34770.238    28.293307    25.463986     48.26114      960 
      44            0   -235.45319   0.19279599   -179.09918   -236.99084   -290.26954    2.0907106  0.036331915   -328.36179            0   -3156.5361   -3156.5361    34815.331    28.302655    25.471332    48.293836      960 
      45            0   -704.20047   0.19617319   -626.56204   -592.93071   -893.10866    19.258084   0.30517165   -342.11887            0   -3156.5446   -3156.5446      34862.7    28.312485    25.471499    48.342436      960 
      46            0   -462.79372   0.19957614   -345.27953    -108.6201   -934.48152    55.977416   0.81833622   -369.66212            0   -3156.5977   -3156.5977    34844.214    28.304268    25.445725    48.379782      960 
      47            0    67.873677   0.20297003    157.33492    328.29386   -282.00775    43.152976    0.7028037   -355.55754            0   -3156.6125   -3156.6125    34791.973    28.293611    25.442704    48.331182      960 
      48            0   -140.82753   0.20635104    -156.9903   -133.97812   -131.51417    14.315569   0.25768372   -319.80684            0   -3156.6218   -3156.6218    34808.635    28.306306    25.468478    48.283729      960 
      49            0    103.76187   0.21305704    81.107832    58.734587    171.44319    5.8026037   0.10907011   -312.69673            0   -3156.6239   -3156.6239    34784.727    28.300756    25.467767    48.261374      960 
      50            0    70.144627    0.2164402     83.67798   -270.30132    397.05723   -52.591724   -1.0812082   -276.01311            0   -3156.6541   -3156.6541    34786.912    28.296786    25.493541    48.222376      960 
      51            0   -158.10298   0.21982217   -143.21601   -283.45459   -47.638343     -14.2457  -0.26782962   -300.95649            0   -3156.6769   -3156.6769    34811.313    28.303158    25.480001    48.270976      960 
      52            0    192.01036   0.22653508    208.63166    186.42142      180.978    6.4928188   0.12069759   -314.65807            0   -3156.6814   -3156.6814    34779.063    28.295281      25.4625    48.272837      960 
      53            0    283.50621   0.22993302    262.97143    560.22072    27.326495    62.603578    1.0713342    -346.6574            0   -3156.6877   -3156.6877    34773.202    28.297662    25.436726    48.309542      960 
      54            0   -277.93866   0.23669314   -336.01362    43.599527   -541.40188     76.80857    1.2317858   -350.59439            0   -3156.6971   -3156.6971    34827.571    28.314429    25.444462    48.341719      960 
      55            0   -413.53073   0.24008417   -459.49474   -362.91962   -418.17782    26.524536   0.46469079    -315.4018            0   -3156.7362   -3156.7362    34839.304    28.315122    25.470236    48.307889      960 
      56            0    130.09367   0.24679804     117.4633    153.51129    119.30642    16.002906   0.29608878   -312.30542            0   -3156.7452   -3156.7452    34787.282    28.299139    25.461212    48.280104      960 
      57            0     570.8105   0.25019813     733.8295     259.8101    718.79189   -71.310975   -1.4761843   -275.75135            0   -3156.7644   -3156.7644    34744.956    28.271962    25.480328    48.231504      960 
      58            0    82.901436   0.25360417    302.37781   -410.24393    356.57043   -111.85645   -2.3336498   -254.88814            0   -3156.7963   -3156.7963     34791.47    28.277595    25.506102    48.237657      960 
      59            0    -137.1473    0.2569952   -91.522864   -274.19285   -45.726173   -21.591402  -0.40846575   -290.62769            0   -3156.8121   -3156.8121    34814.379    28.299421    25.480328    48.280982      960 
      60            0    119.83822   0.26370215    144.01908    69.273502    146.22209   -3.1359033 -0.059871615   -299.64342            0   -3156.8144   -3156.8144    34790.428    28.295583    25.467587    48.278452      960 
      61            0   -22.304876   0.27046013   -120.47672    215.31482   -161.75273    67.376248    1.1656357   -329.29876            0   -3156.8195   -3156.8195    34806.065    28.310864    25.446062    48.314916      960 
      62            0   -578.63163   0.27384901   -572.18506   -510.36966   -653.34017     21.05839   0.35907998   -305.74012            0   -3156.9223   -3156.9223    34863.075    28.313861    25.471836    48.339966      960 
      63            0    382.99348   0.27723408    450.38129    394.51192    304.08722   0.47965642 0.0084736336   -296.79102            0   -3156.9651   -3156.9651    34772.126    28.285362    25.456578    48.291366      960 
      64            0    880.87775   0.28063416    955.19869    718.89584     968.5387   -32.460917  -0.68073268   -268.96291            0   -3157.0214   -3157.0214     34726.24     28.27185    25.460759    48.242766      960 
      65            0    200.90897    0.2840271    222.26924   -99.215402    479.67306   -48.524733   -1.0194725   -245.85787            0   -3157.1104   -3157.1104    34792.064    28.291339    25.486533    48.252068      960 
      66            0   -190.51277   0.29075122    -188.4755   -338.96884    -44.09396    -18.02635  -0.35065195   -263.96541            0   -3157.1169   -3157.1169    34830.883    28.303067    25.481825    48.294808      960 
      67            0    16.573405   0.29748321    18.658777    83.366441   -52.305001    20.208206   0.36935485   -289.61979            0   -3157.1214   -3157.1214    34813.176    28.299231    25.459179    48.319744      960 
      68            0   -5.7695142   0.30089808    -329.9127    210.73669    101.86747    97.036682    1.8373928    -282.3564            0   -3157.2694   -3157.2694    34820.266    28.327869    25.446478    48.304825      960 
      69            0     23.54429     0.304286    12.209463    36.380711    22.042697    12.084473   0.22845436   -269.63618            0   -3157.2883   -3157.2883    34818.744    28.299231    25.463242     48.31976      960 
      70            0   -368.29263   0.31101704   -337.69401   -427.16915   -340.01474   -6.8091453  -0.12667879   -262.80486            0   -3157.2931   -3157.2931    34856.505    28.304553    25.477518    48.335968      960 
      71            0   -266.95549   0.31443715    51.247094   -602.14965   -249.96391   -100.34721   -1.9434358   -236.45972            0   -3157.3492   -3157.3492    34849.393    28.275915    25.498919     48.33445      960 
      72            0    254.36541   0.31784916    429.25258    92.440856    241.40278   -48.236112  -0.95423934   -249.85363            0   -3157.3604   -3157.3604    34799.878    28.276709    25.473145    48.313254      960 
      73            0    131.53404   0.32125306    19.934662    233.53579    141.13168     43.18294   0.82365626   -269.83307            0    -3157.369    -3157.369    34811.876    28.305346    25.453209    48.318831      960 
      74            0   -105.13701   0.32797503   -174.07126   -52.906724   -88.433052    27.899799   0.52386417   -265.94874            0   -3157.3709   -3157.3709     34834.53     28.30707    25.462352     48.32997      960 
      75            0   -7.1617696   0.33473706    198.51469   -168.28556   -51.714433   -52.546248   -1.0079538   -250.86573            0   -3157.3754   -3157.3754    34825.825    28.280185    25.478517    48.333142      960 
      76            0     744.0414   0.33813715    789.46921    658.99955    783.65545   -15.338722  -0.31975646   -247.63518            0   -3157.4136   -3157.4136    34755.641    28.276292    25.456268    48.284542      960 
      77            0    258.20783    0.3415401    103.80427    244.32942    426.48979    28.592694   0.58096803   -245.40711            0   -3157.4747   -3157.4747     34802.98    28.304929    25.460131    48.294061      960 
      78            0   -78.815945   0.34826517   -181.71659   -99.534612    44.803363    19.756334   0.38604865   -247.34913            0   -3157.4783   -3157.4783    34835.714    28.308516    25.467732    48.318933      960 
      79            0    8.5962593   0.35500622    101.83648    14.879522   -90.927227   -5.7082944  -0.10785267    -258.6352            0   -3157.4815   -3157.4815    34829.515     28.28979    25.463658    48.350049      960 
      80            0    28.667482   0.35842514   -77.731101    329.70408   -165.97054     77.61749    1.3843634   -278.18239            0   -3157.5858   -3157.5858    34833.733    28.307412    25.437884    48.374765      960 
      81            0   -97.968443   0.36182308   -117.97344   -69.750481   -106.18141    15.456202   0.29301789   -247.58159            0   -3157.6017   -3157.6017    34844.395    28.301585    25.463658    48.350545      960 
      82            0     156.5791   0.36856604     170.1515    138.79319    160.79262    1.7822888  0.034270509   -242.57568            0   -3157.6039   -3157.6039    34819.912    28.292435    25.462287    48.334799      960 
      83            0    450.53419   0.37533402    567.58911    229.97903    554.03443   -50.769829   -1.0675323   -220.38787            0   -3157.6088   -3157.6088     34791.38    28.275615    25.473383    48.302872      960 
      84            0    151.16205    0.3787601    347.79847   -298.50492    404.19259   -103.52507   -2.2445102    -195.0744            0   -3157.6259   -3157.6259    34819.537    28.274623    25.499157    48.294795      960 
      85            0   -260.66447   0.38216209   -224.14763   -399.12986   -158.71592   -22.962894  -0.45100911   -226.99581            0   -3157.6381   -3157.6381    34860.749    28.299584    25.481179    48.343395      960 
      86            0    20.399041   0.38891721   -10.894097    81.508125   -9.4169046     22.87516   0.43584073   -247.80573            0   -3157.6425   -3157.6425    34835.144     28.29973    25.458288    48.351074      960 
      87            0    216.78368   0.39232302    458.96905     190.1885    1.1934976    -35.19559  -0.66640598   -243.93648            0   -3157.6975   -3157.6975    34820.837    28.271093    25.461545    48.373984      960 
      88            0    -398.3597    0.3957212   -323.53985   -438.34103    -433.1982   -11.265462  -0.21091692    -235.3957            0    -3157.712    -3157.712    34879.015     28.29973    25.475422    48.379407      960 
      89            0   -655.94673    0.3991251   -842.15661   -678.26423   -447.41935    32.288874   0.62013742   -225.30295            0   -3157.7246   -3157.7246    34902.792    28.328368    25.479168    48.356333      960 
      90            0   -29.339075   0.40254307   -375.32162   -1.8795842    289.18398    65.274439    1.3506889   -221.80011            0    -3157.754    -3157.754    34842.451    28.327235    25.461727    48.307733      960 
      91            0    118.78322   0.40594912    63.824235    123.59878    168.92666    16.083533   0.31819266   -230.50428            0   -3157.7636   -3157.7636    34830.724    28.298597    25.460673    48.342344      960 
      92            0   -79.350766   0.41269016   -94.818123   -85.467588   -57.766586    8.2418982   0.15865889   -231.25638            0   -3157.7649   -3157.7649    34850.064    28.299858    25.465722    48.357442      960 
      93            0   -31.207587   0.41944909    219.35296   -41.444048   -271.53168   -33.434881  -0.61541095   -241.67549            0   -3157.7696   -3157.7696     34848.39    28.275945    25.465085    48.397226      960 
      94            0       782.53   0.42284608    940.40929    876.15636    531.02435   -1.5737033 -0.032247643   -243.84865            0   -3157.8136   -3157.8136    34773.667    28.265051    25.439311    48.361011      960 
      95            0    276.93366   0.42625618    235.49729     389.0601     206.2436    32.872084   0.64034204   -234.65413            0   -3157.8864   -3157.8864     34823.01    28.293689    25.447907    48.364272      960 
      96            0   -36.865313   0.43301201   -74.358346    31.187866   -67.425458      24.6653   0.47268069   -230.11812            0   -3157.8894   -3157.8894    34852.746    28.300556    25.458124    48.374405      960 
      97            0    11.346166    0.4397831    104.12964   -156.80437    86.713233   -37.721292   -0.7665274   -206.12923            0   -3157.8925   -3157.8925    34847.161    28.287053    25.477267    48.353383      960 
      98            0    120.63497   0.44318509   -162.02993   -11.172867    535.10771    26.125772   0.57667653   -177.70168            0   -3158.1172   -3158.1172    34845.975    28.315691    25.470994     48.31473      960 
      99            0   -105.14622   0.44658804   -232.46711   -171.73421    88.762661    14.095112   0.28933156   -191.53948            0   -3158.1366   -3158.1366    34870.402    28.308031    25.470126     48.36333      960 
     100            0    124.10399   0.45333719    84.081959     100.2529    187.97711    8.0618729   0.16275447   -199.78327            0    -3158.139    -3158.139    34849.645    28.295326    25.461741     48.37217      960 
     101            0   -10.598344   0.46008015    54.459177    11.262288   -97.516498   0.22064392 0.0028158386    -210.2512            0   -3158.1409   -3158.1409    34864.188    28.289747    25.460645    48.403983      960 
     102            0   -411.25617   0.46349621   -567.75181   -352.51857   -313.49813    41.383252   0.80386455   -204.88404            0   -3158.1564   -3158.1564    34902.311    28.318384    25.465668    48.398359      960 
     103            0    251.91151   0.46692109   -47.850732     352.0441    451.54117     70.34566     1.475815     -200.252            0   -3158.1862   -3158.1862    34839.209    28.314937    25.448276    48.349759      960 
     104            0    33.565754    0.4703331    85.002353   -120.39045    136.08536   -29.291957  -0.61256683   -176.21554            0   -3158.3073   -3158.3073    34867.525    28.288186     25.47405    48.385811      960 
     105            0   -198.62053   0.47710609   -242.98558   -66.431809   -286.44421    37.008867   0.70077406   -207.82594            0   -3158.3139   -3158.3139    34892.466    28.303303    25.454377    48.431962      960 
     106            0   -59.385612   0.48390913   -154.17835    266.04598   -290.02446     79.38704    1.4452856   -229.09233            0   -3158.3163   -3158.3163    34881.056    28.305276    25.435031    48.449573      960 
     107            0    494.87057   0.49067616    483.77015     627.7233    373.11826    31.313359   0.62756947   -205.97301            0   -3158.3284   -3158.3284     34827.31    28.283993    25.440006    48.401855      960 
     108            0    304.36655   0.49408722    354.86934     179.3628    378.86752   -24.282131  -0.51630816   -176.16506            0   -3158.3458   -3158.3458    34844.226    28.281845     25.46578    48.380026      960 
     109            0    -35.29175     0.500844   -11.112171   -133.10785    38.344771   -14.965307  -0.30934866   -179.40881            0   -3158.3493   -3158.3493     34876.93    28.292229    25.470501    48.398689      960 
     110            0    1.7054213   0.50760508   -21.750624    82.024262   -55.157374    24.278953   0.47499893   -199.30531            0   -3158.3512   -3158.3512    34874.886    28.296332    25.454519    48.419217      960 
     111            0    325.48596    0.5110302    532.07088    289.47791    154.90908   -32.174724   -0.6516038   -183.17782            0   -3158.5177   -3158.5177    34855.341    28.267694    25.456958    48.436466      960 
     112            0   -394.47912   0.51444006   -326.90175   -440.15286   -416.38274   -11.713549  -0.23217222   -177.14197            0   -3158.5346   -3158.5346    34924.384    28.296332    25.472586    48.453547      960 
     113            0   -821.24984   0.51785517     -967.577   -840.94294   -655.22958    26.345554   0.51316634   -170.81002            0   -3158.5429   -3158.5429    34965.673     28.32497    25.479082    48.449427      960 
     114            0    -524.9962   0.52129006   -1006.3454   -450.46589   -118.17733    94.870578    1.9941445   -164.49181            0   -3158.5914   -3158.5914    34937.935    28.347179    25.464468    48.400827      960 
     115            0    61.480841   0.52471614   -252.66909    130.37516    306.73645    67.342526    1.4344613   -169.05213            0   -3158.6072   -3158.6072    34882.707    28.318541    25.452909    48.395155      960 
     116            0   -96.644395   0.53147006   -104.27732   -104.09937   -81.556495    6.4409808   0.12703557   -172.96882            0   -3158.6137   -3158.6137    34900.164    28.295556    25.462747    48.439982      960 
     117            0    32.254525   0.53823614    62.247723     24.80353    9.7123235   0.50597144 0.0071012497   -174.17669            0   -3158.6143   -3158.6143    34888.122     28.28929    25.460088    48.439054      960 
     118            0   -29.377735   0.54166412   -69.919028    249.59636   -267.81053    63.120245    1.1771812   -203.97493            0   -3158.6824   -3158.6824    34901.375    28.297881    25.436505    48.487654      960 
     119            0    58.949238   0.54507613    60.990699    29.437191    86.419825     1.062715  0.018561068   -165.86786            0   -3158.7017   -3158.7017    34890.776    28.290521    25.460916    48.439054      960 
     120            0   -229.33818   0.55183816   -229.76153   -298.98839   -159.26462    -5.412798  -0.11415901   -161.48939            0   -3158.7042   -3158.7042    34918.458    28.297313    25.470286    48.448019      960 
     121            0   -424.22784   0.55861616   -422.58638   -525.21394   -324.88319   -11.100143   -0.2288568   -158.06357            0   -3158.7054   -3158.7054    34937.393    28.301564    25.476992    48.454252      960 
     122            0   -282.52741   0.56206012   -52.587238   -727.48635   -67.508639   -107.30834   -2.3611188   -117.90818            0   -3158.8393   -3158.8393    34932.365    28.276155    25.502766    48.441808      960 
     123            0    168.32669   0.56549215    317.40477   -86.753034    274.32832   -61.630528   -1.3506866   -136.22833            0   -3158.8517   -3158.8517    34890.223    28.273453    25.476992    48.436945      960 
     124            0   -70.623116   0.57227516   -105.62887   -36.667046   -69.573438     18.81579   0.37735249   -165.20156            0   -3158.8586   -3158.8586    34914.728    28.296266    25.457176    48.469587      960 
     125            0    43.443835   0.57907009   -17.759878    151.80361   -3.7122245    36.114516   0.72313186   -173.01073            0   -3158.8592   -3158.8592    34904.352    28.296192    25.448471    48.471883      960 
     126            0    57.173493   0.58249903    320.69819    94.004356   -243.18207    -26.54388  -0.51725566   -177.32733            0   -3158.8892   -3158.8892    34908.176    28.267555    25.454058    48.515654      960 
     127            0   -273.16514   0.58591914   -259.10783   -313.14642   -247.24116    -1.541124 -0.037285421   -156.87109            0   -3158.9083   -3158.9083      34937.8    28.296192    25.467328    48.482406      960 
     128            0     108.5317   0.58933401   -47.466303    57.299931    315.76146    22.237031   0.47844031   -146.46443            0   -3158.9192   -3158.9192    34899.901    28.301653    25.460317    48.433806      960 
     129            0    610.70947   0.59277105    197.38954    628.43326    1006.3056    74.223131    1.7305062   -140.81005            0   -3158.9591   -3158.9591    34854.578    28.311829    25.443644    48.385206      960 
     130            0   -23.277513    0.5962081   -595.73961    35.609793    490.29728    107.54484    2.4508676   -138.02762            0   -3159.0551   -3159.0551    34922.043    28.340467    25.452335    48.413337      960 
     131            0   -16.985331   0.59963799   -262.81144    7.9044708    203.95098    50.793298    1.0917823   -146.69637            0   -3159.0835   -3159.0835    34925.128    28.311829    25.455118    48.461289      960 
     132            0    69.435838   0.60641408    74.442348    66.354532    67.510634     6.961537   0.13827434   -153.69143            0   -3159.0877   -3159.0877    34919.044    28.288083    25.455761    48.492295      960 
     133            0   -28.506904   0.61319017    -10.17796    -36.08672   -39.256033    4.2217897  0.080334838   -154.06916            0   -3159.0881   -3159.0881     34928.62    28.289221    25.458155    48.499082      960 
     134            0   -31.625518   0.61663318   -114.94643    260.38172   -240.31184     74.06106    1.4113867   -187.80166            0   -3159.1103   -3159.1103    34933.439    28.299401    25.432381    48.537462      960 
     135            0    131.37798   0.62004113    148.83979    80.544878    164.74928    -3.202491 -0.075431431   -147.91068            0   -3159.1349   -3159.1349    34916.281    28.285085    25.458155    48.489036      960 
     136            0    -229.3758   0.62682819     -212.736   -345.81125   -129.58017   -14.353816   -0.3095758   -140.93076            0    -3159.139    -3159.139    34950.907    28.293284    25.471162     48.49828      960 
     137            0   -448.13415   0.63362813   -429.92881    -607.2713   -307.20233   -21.912421  -0.46621054     -136.444            0   -3159.1405   -3159.1405    34972.226    28.298065    25.479311    48.504146      960 
     138            0   -244.49163     0.637079    -58.06837   -769.60046    94.193936   -111.92822   -2.5930638   -97.625765            0   -3159.2897   -3159.2897    34963.712    28.276076    25.505085    48.481005      960 
     139            0     134.7385   0.64051509    261.57739   -183.66391    326.30203   -66.371288   -1.5134743   -119.36874            0   -3159.3047   -3159.3047    34928.942    28.273331    25.479311    48.486492      960 
     140            0   -153.40033   0.64729714    -145.0561   -219.33723   -95.807661   -2.4607392 -0.062546583   -147.19566            0   -3159.3114   -3159.3114    34958.518    28.291515    25.463576    48.526327      960 
     141            0    -6.116939   0.65409899   -25.466558    28.647631    -21.53189    19.728797   0.39725269   -158.22701            0   -3159.3126   -3159.3126    34945.135    28.290934    25.451919    48.530962      960 
     142            0    89.317346   0.66089916    126.35203    45.824991    95.775016   -3.1307395 -0.077161498   -150.42204            0   -3159.3133   -3159.3133    34935.666    28.283456    25.456654    48.521613      960 
     143            0   -49.797654   0.66770315    29.541279   -184.46148    5.5272415   -25.804848  -0.56035162   -141.31172            0   -3159.3142   -3159.3142    34948.681    28.282626    25.467307     48.52081      960 
     144            0   -238.45115   0.67113304   -435.24276   -241.24183   -38.868863    41.273356   0.86872333   -148.29814            0   -3159.3586   -3159.3586    34969.596    28.311263    25.459315    48.515962      960 
     145            0     327.1712   0.67793322    231.20393    371.24314    379.06654    33.616412    0.7141341   -156.91969            0    -3159.369    -3159.369    34917.293    28.289393    25.443635    48.510726      960 
     146            0    668.23846   0.68471599    792.79479    745.68306    466.23753    5.4866992   0.10214553   -170.44195            0   -3159.3762   -3159.3762    34888.795    28.262683    25.433662    48.535968      960 
     147            0    358.29236    0.6881392    666.35226    427.47533   -18.950503   -23.516334  -0.47828317   -180.12999            0    -3159.399    -3159.399    34922.352    28.254105     25.44038    48.584568      960 
     148            0   -127.48198   0.69492221    45.770553   -94.979384   -333.23712   -8.7953795  -0.18721299   -171.04069            0   -3159.4072   -3159.4072    34967.445    28.276712    25.453427    48.583491      960 
     149            0    1.6357498   0.70171499   -12.179312    12.128608    4.9579541     15.84016   0.31690714    -159.0453            0   -3159.4107   -3159.4107    34952.611    28.289624    25.452685    48.542131      960 
     150            0   -5.4385625   0.70852709    102.82264   -192.78929    73.650966   -38.394955  -0.84422459   -139.52031            0   -3159.4128   -3159.4128     34952.67    28.278303     25.46974    48.529129      960 
     151            0    973.25363   0.71196103    1142.8513    825.21389    951.69571     -39.5842  -0.92852337   -152.33017            0   -3159.5318   -3159.5318    34873.442    28.249665    25.444284    48.516702      960 
     152            0     151.5112   0.71539617    240.57864    30.355988    183.59897   -19.976408  -0.45583855   -160.29179            0   -3159.6195   -3159.6195     34958.57    28.275313    25.457757    48.565302      960 
     153            0   -40.001526    0.7221961     9.780555   -126.07748   -3.7076523    -7.366295   -0.1799329   -163.84416            0   -3159.6208   -3159.6208    34977.139    28.283339    25.458668    48.575572      960 
     154            0   0.84990485   0.72901917   -11.226948    13.286629   0.49003397    19.821526   0.39158226   -173.57088            0   -3159.6213   -3159.6213    34973.688    28.288187    25.449385    48.580169      960 
     155            0    114.14684   0.73581719    331.19466    136.69894   -125.45308   -13.488271  -0.29496742   -186.15237            0   -3159.6254   -3159.6254    34966.147    28.265911    25.446031    48.614378      960 
     156            0   -408.41756   0.74264002   -99.499814   -413.74954   -712.00332   -31.335194  -0.61538475   -191.76646            0   -3159.6346   -3159.6346    35019.528    28.269943      25.4587    48.657425      960 
     157            0   -321.36455    0.7460711   -88.690553    -333.6037   -541.79939   -17.193571  -0.37098656   -204.37164            0   -3159.7548   -3159.7548    35023.065    28.273624     25.45487    48.663327      960 
     158            0    76.848766   0.75287008    237.30417    87.572487   -94.330361   -2.5505888 -0.089778822   -202.00492            0   -3159.7601   -3159.7601    34983.702    28.270653    25.444814    48.632954      960 
     159            0  -0.84082528   0.75968003   -8.3894968    7.4056253   -1.5386044     22.92397   0.44241068   -194.08445            0   -3159.7621   -3159.7621    34989.322    28.286869    25.446627    48.609418      960 
     160            0    12.578716   0.76649904    51.308616   -71.556757    57.984289  -0.80449044 -0.055240093   -184.34559            0   -3159.7626   -3159.7626    34987.499    28.282108     25.45425    48.600509      960 
     161            0   -515.76036   0.77330399   -474.98211   -653.91691   -418.38206    -9.233973  -0.23278962   -183.27617            0   -3159.7715   -3159.7715      35040.3    28.293964    25.469186    48.624926      960 
     162            0   -368.01086   0.77673411   -276.44081   -475.65289   -351.93889   -6.5785835  -0.19655499   -210.58213            0   -3159.8619   -3159.8619    35038.248     28.28554    25.460234     48.65366      960 
     163            0    11.976205   0.78353906    89.608991   -51.024665   -2.6557117     3.048727 0.0023955163    -214.0339            0   -3159.8663   -3159.8663    35001.567    28.278059     25.44865    48.637712      960 
     164            0  -0.75980463   0.79037714    -5.818265   0.40054738    3.1383037    27.337085   0.51085657   -218.60229            0   -3159.8667   -3159.8667    35002.671    28.285782    25.443413    48.635975      960 
     165            0    69.184883   0.79721022    88.593397    129.34631   -10.385062     34.21905   0.64180981   -227.52457            0   -3159.8672   -3159.8672    34997.002    28.282328    25.436881    48.646526      960 
     166            0   -90.566934   0.80403399   -55.794312    12.969631   -228.87612    40.084379    0.7355308   -235.37989            0   -3159.8682   -3159.8682    35013.527    28.284952    25.436271    48.666149      960 
     167            0   -56.243951     0.807477    27.216514  -0.15738279   -195.79098    31.710725   0.53594667   -255.67366            0   -3159.9312   -3159.9312     35019.17    28.279165     25.43524    48.685926      960 
     168            0    68.376987   0.81431103    95.593171    95.380672    14.157118     34.95174   0.62489199   -248.45245            0   -3159.9321   -3159.9321    35005.996    28.280939    25.435231    48.664575      960 
     169            0   -1.2778482   0.82114601   -6.2123926    2.7978852  -0.41903709    35.852887   0.64940937   -244.18461            0   -3159.9324   -3159.9324    35012.116    28.285221    25.438608    48.659253      960 
     170            0    6.1392065   0.82797813    22.127683   -17.854175    14.144111     27.57846   0.47919501   -241.47597            0   -3159.9325   -3159.9325    35011.283    28.283106    25.440854    48.657438      960 
     171            0   -93.082283   0.83479404   -69.613935   -131.82561   -77.807304    24.036782   0.40121169   -240.56473            0   -3159.9328   -3159.9328    35020.904    28.284712    25.444058    48.661917      960 
     172            0   -58.005522   0.83822417    180.37025   -81.350257   -273.03656    1.7066774  -0.11522099   -266.27677            0    -3159.958    -3159.958    35023.231    28.265326    25.437795    48.710517      960 
     173            0    204.20831   0.84167814    151.12098    242.75251    218.75142    59.595757    1.1073896    -262.6019            0   -3159.9659   -3159.9659    34995.913    28.284489    25.426101    48.661917      960 
     174            0    22.627292   0.84854698   -151.17512    60.937983    158.11901    79.445819    1.5414468   -259.34556            0   -3159.9677   -3159.9677    35012.594    28.299142    25.429246    48.653886      960 
     175            0    -154.5201   0.85537601   -182.48655    -171.5697   -109.50406    47.758089   0.82602308   -260.79397            0   -3159.9702   -3159.9702    35031.052    28.290442    25.437242    48.679199      960 
     176            0   -7.7532743   0.86219716    59.922474   -37.585817    -45.59648     30.86335   0.47038881   -263.58967            0   -3159.9714   -3159.9714    35017.796    28.278697    25.435194     48.68491      960 
     177            0    53.531396     0.869066    64.058999    57.550687    38.984501    45.767785   0.78694925   -265.13864            0   -3159.9716   -3159.9716    35011.621    28.282343    25.431026    48.678025      960 
     178            0    1.1702883    0.8759172   -21.468365     15.90261    9.0766197    52.909963   0.93524952   -265.24942            0   -3159.9717   -3159.9717    35016.487    28.286477     25.43115    48.677439      960 
     179            0   -21.082935   0.88275909   -22.502014   -23.565961    -17.18083    46.575018   0.80146873   -264.11432            0   -3159.9718   -3159.9718    35018.684    28.285086    25.433064    48.679223      960 
     180            0    0.5722233   0.88958311    11.953805   -8.5124228   -1.7247121    43.394998   0.73616923   -263.76848            0   -3159.9718   -3159.9718    35016.638    28.283444    25.433186     48.67897      960 
     181            0    0.5722233    1.0050161    11.953805   -8.5124228   -1.7247121    43.394998   0.73616923   -263.76848            0   -3159.9718   -3159.9718    35016.638    28.283444    25.433186     48.67897      960 
Loop time of 1.00504 on 1 procs for 181 steps with 960 atoms

100.3% CPU use with 1 MPI tasks x no OpenMP threads

Minimization stats:
  Stopping criterion = linesearch alpha is zero
  Energy initial, next-to-last, final = 
        -3151.62121857     -3159.97182785     -3159.97182785
  Force two-norm initial, final = 419.924 0.361045
  Force max component initial, final = 256.373 0.264532
  Final line search alpha, max atom move = 8.72085e-08 2.30694e-08
  Iterations, force evaluations = 181 292

MPI task timing breakdown:
Section |  min time  |  avg time  |  max time  |%varavg| %total
---------------------------------------------------------------
Pair    | 0.9614     | 0.9614     | 0.9614     |   0.0 | 95.66
Neigh   | 0.010992   | 0.010992   | 0.010992   |   0.0 |  1.09
Comm    | 0.00336    | 0.00336    | 0.00336    |   0.0 |  0.33
Output  | 0.0056922  | 0.0056922  | 0.0056922  |   0.0 |  0.57
Modify  | 0          | 0          | 0          |   0.0 |  0.00
Other   |            | 0.02359    |            |       |  2.35

Nlocal:    960 ave 960 max 960 min
Histogram: 1 0 0 0 0 0 0 0 0 0
Nghost:    1471 ave 1471 max 1471 min
Histogram: 1 0 0 0 0 0 0 0 0 0
Neighs:    55260 ave 55260 max 55260 min
Histogram: 1 0 0 0 0 0 0 0 0 0

Total # of neighbors = 55260
Ave neighs/atom = 57.5625
Neighbor list builds = 1
Dangerous builds = 0
Setting up cg style minimization ...
  Unit style: metal
Memory usage per processor = 3.38271 Mbytes
Step Temp Press CPU Pxx Pyy Pzz Pxy Pxz Pyz KinEng PotEng TotEng Volume Lx Ly Lz Atoms 
     181            0    0.5722233            0    11.953805   -8.5124228   -1.7247121    43.394998   0.73616923   -263.76848            0   -3159.9718   -3159.9718    35016.638    28.283444    25.433186     48.67897      960 
     182            0   -52.954058 0.0034101009    -23.28476   -131.64001   -3.9374041    43.254029   0.60751007   -258.75619            0   -3159.9837   -3159.9837    35016.638    28.283444    25.433186     48.67897      960 
     183            0    -60.98631  0.010169983   -30.691928   -162.80793    10.540925    43.234893   0.58210674   -245.76969            0   -3159.9863   -3159.9863    35016.638    28.283444    25.433186     48.67897      960 
     184            0   -59.822801  0.016941071   -31.020141   -167.02611    18.577846     43.26747   0.55812469   -234.09388            0   -3159.9865   -3159.9865    35016.638    28.283444    25.433186     48.67897      960 
     185            0   -66.973241  0.023706913   -34.349998   -185.85036     19.28064    43.413764   0.43790939   -180.78272            0   -3159.9876   -3159.9876    35016.638    28.283444    25.433186     48.67897      960 
     186            0   -75.226381   0.03047204   -39.207508   -198.58664    12.115005    43.411941   0.40272721   -161.46843            0   -3159.9879   -3159.9879    35016.638    28.283444    25.433186     48.67897      960 
     187            0   -92.523983  0.037239075   -49.994895   -222.62555   -4.9515073    43.268605   0.31925536   -118.56422            0   -3159.9887   -3159.9887    35016.638    28.283444    25.433186     48.67897      960 
     188            0   -96.043736  0.044008017   -51.840823   -226.75631   -9.5340741     43.18241   0.24154756   -88.152241            0   -3159.9892   -3159.9892    35016.638    28.283444    25.433186     48.67897      960 
     189            0   -90.351567  0.050771952   -48.106703   -214.75082   -8.1971809       43.168   0.10582386   -54.815266            0   -3159.9899   -3159.9899    35016.638    28.283444    25.433186     48.67897      960 
     190            0   -85.581661  0.057548046   -44.833804   -208.47363   -3.4375537    43.196679    0.0269542   -27.318315            0   -3159.9904   -3159.9904    35016.638    28.283444    25.433186     48.67897      960 
     191            0   -80.516542  0.064314127   -41.728481   -205.38426     5.563119    43.245958  0.016494656   -2.9983335            0    -3159.991    -3159.991    35016.638    28.283444    25.433186     48.67897      960 
     192            0   -81.879426   0.07108593   -43.436768   -207.34024    5.1387321    43.259768  0.046028889    1.7285153            0   -3159.9912   -3159.9912    35016.638    28.283444    25.433186     48.67897      960 
     193            0   -84.667967  0.077860117   -45.593779    -211.9963    3.5861779    43.258381  0.074899073     4.699017            0   -3159.9913   -3159.9913    35016.638    28.283444    25.433186     48.67897      960 
     194            0   -86.332903   0.08463192   -46.776929   -214.33837    2.1165907    43.255329  0.084910437     5.471473            0   -3159.9913   -3159.9913    35016.638    28.283444    25.433186     48.67897      960 
     195            0   -88.370903  0.091407061   -48.153681    -216.5878  -0.37122673    43.252568  0.090679551     5.370166            0   -3159.9913   -3159.9913    35016.638    28.283444    25.433186     48.67897      960 
     196            0    -89.23768  0.098170996   -48.708497   -217.76974   -1.2348012    43.252764  0.094683055    5.3289263            0   -3159.9913   -3159.9913    35016.638    28.283444    25.433186     48.67897      960 
     197            0   -89.247328   0.10494399   -48.772075   -218.16266  -0.80724703    43.254472  0.099076916    5.0899306            0   -3159.9913   -3159.9913    35016.638    28.283444    25.433186     48.67897      960 
     198            0   -89.161541   0.11171699    -48.73571   -218.40669  -0.34222706    43.256355    0.1025008     4.884725            0   -3159.9913   -3159.9913    35016.638    28.283444    25.433186     48.67897      960 
     199            0   -89.178192   0.11848211   -48.738217   -218.67797   -0.1183843    43.258093   0.10503701    4.6212356            0   -3159.9914   -3159.9914    35016.638    28.283444    25.433186     48.67897      960 
     200            0   -89.139439   0.12525296   -48.723654   -218.76068  0.066015786    43.258784   0.10609953    4.4973448            0   -3159.9914   -3159.9914    35016.638    28.283444    25.433186     48.67897      960 
     201            0   -89.113643   0.13202214   -48.699362   -218.82722   0.18565744    43.259527   0.10709757    4.2763242            0   -3159.9914   -3159.9914    35016.638    28.283444    25.433186     48.67897      960 
     202            0    -89.29239   0.13879013   -48.817356   -219.02851 -0.031303571    43.260152   0.10666063     3.826185            0   -3159.9914   -3159.9914    35016.638    28.283444    25.433186     48.67897      960 
     203            0   -89.414731   0.14555597   -48.920611   -219.17206  -0.15152478    43.260652   0.10297047    3.3741433            0   -3159.9914   -3159.9914    35016.638    28.283444    25.433186     48.67897      960 
     204            0   -89.491827   0.15232897   -48.937703   -219.17124  -0.36654014    43.261129  0.093026718     2.774261            0   -3159.9914   -3159.9914    35016.638    28.283444    25.433186     48.67897      960 
     205            0    -89.60769   0.15910411    -48.96141     -219.137  -0.72465358    43.261288  0.075872212    2.0433421            0   -3159.9914   -3159.9914    35016.638    28.283444    25.433186     48.67897      960 
     206            0   -89.227183   0.16587996   -48.757825   -218.62407   -0.2996529    43.260981  0.054567051    1.3378975            0   -3159.9914   -3159.9914    35016.638    28.283444    25.433186     48.67897      960 
     207            0   -89.076606   0.17265511   -48.655969   -218.35434  -0.21950629    43.260492  0.042794959   0.94287054            0   -3159.9914   -3159.9914    35016.638    28.283444    25.433186     48.67897      960 
     208            0   -89.016101   0.17942715   -48.605289   -218.17499  -0.26802799    43.259703  0.028183637   0.52226789            0   -3159.9914   -3159.9914    35016.638    28.283444    25.433186     48.67897      960 
     209            0   -88.880403   0.18619609   -48.552772   -217.97041  -0.11802347    43.259067  0.015118272   0.18344193            0   -3159.9914   -3159.9914    35016.638    28.283444    25.433186     48.67897      960 
     210            0   -88.840524   0.19296694   -48.530036   -217.87604  -0.11549638    43.258648 0.0056820328 -0.038549649            0   -3159.9914   -3159.9914    35016.638    28.283444    25.433186     48.67897      960 
     211            0   -88.856624   0.19973993   -48.531138   -217.89394  -0.14478999    43.258335 0.0012891113 -0.091640813            0   -3159.9914   -3159.9914    35016.638    28.283444    25.433186     48.67897      960 
     212            0   -88.854444   0.20650506    -48.52827   -217.89758   -0.1374826    43.258138 2.0041953e-05  -0.10683458            0   -3159.9914   -3159.9914    35016.638    28.283444    25.433186     48.67897      960 
     213            0   -88.846005   0.21327996   -48.521811   -217.89992  -0.11628052    43.257894 -0.00072409664  -0.11145672            0   -3159.9914   -3159.9914    35016.638    28.283444    25.433186     48.67897      960 
     214            0    -88.84088   0.22005391   -48.517802   -217.90482  -0.10001797    43.257691 -0.0012571435  -0.11162217            0   -3159.9914   -3159.9914    35016.638    28.283444    25.433186     48.67897      960 
     215            0   -88.831862   0.22681999   -48.511657   -217.90598 -0.077948484     43.25744 -0.0020229212  -0.11379304            0   -3159.9914   -3159.9914    35016.638    28.283444    25.433186     48.67897      960 
     216            0   -88.825365   0.23359299   -48.507114   -217.90364  -0.06534104    43.257396 -0.0023428823  -0.11101843            0   -3159.9914   -3159.9914    35016.638    28.283444    25.433186     48.67897      960 
     217            0    -88.81517   0.24036002   -48.499625   -217.89966 -0.046224361    43.257416 -0.0028178055  -0.10416254            0   -3159.9914   -3159.9914    35016.638    28.283444    25.433186     48.67897      960 
     218            0   -88.808656   0.24713612   -48.494668   -217.89679 -0.034508195    43.257456 -0.0030441489 -0.098126831            0   -3159.9914   -3159.9914    35016.638    28.283444    25.433186     48.67897      960 
     219            0   -88.780786   0.25390005   -48.473986   -217.87966  0.011291334    43.257574 -0.0034287636 -0.073797361            0   -3159.9914   -3159.9914    35016.638    28.283444    25.433186     48.67897      960 
     220            0   -88.756462   0.26067305   -48.455672   -217.86353  0.049818086    43.257607 -0.0036018469 -0.052033993            0   -3159.9914   -3159.9914    35016.638    28.283444    25.433186     48.67897      960 
     221            0   -88.751937   0.26744914   -48.451793   -217.85947  0.055446945     43.25752 -0.0034241343  -0.04525919            0   -3159.9914   -3159.9914    35016.638    28.283444    25.433186     48.67897      960 
     222            0   -88.747581   0.27421212   -48.448244   -217.85405  0.059546915    43.257324 -0.0028346698 -0.036607522            0   -3159.9914   -3159.9914    35016.638    28.283444    25.433186     48.67897      960 
     223            0   -88.744112   0.28098512   -48.445802    -217.8497  0.063164906    43.257172 -0.0020687427 -0.027513385            0   -3159.9914   -3159.9914    35016.638    28.283444    25.433186     48.67897      960 
     224            0   -88.747546   0.28775501   -48.448709   -217.85136  0.057431801    43.257291 -0.0012217446 -0.023024907            0   -3159.9914   -3159.9914    35016.638    28.283444    25.433186     48.67897      960 
     225            0   -88.760625   0.29452515   -48.458714   -217.86029  0.037128018    43.257714 0.00066296285  -0.01373464            0   -3159.9914   -3159.9914    35016.638    28.283444    25.433186     48.67897      960 
     226            0   -88.767139   0.30129409   -48.463315   -217.86604  0.027934198    43.257802 0.0010433517 -0.010671964            0   -3159.9914   -3159.9914    35016.638    28.283444    25.433186     48.67897      960 
     227            0   -88.772815   0.30806804   -48.467408   -217.87148  0.020444134     43.25778 0.0011147072 -0.0090574271            0   -3159.9914   -3159.9914    35016.638    28.283444    25.433186     48.67897      960 
     228            0   -88.778807   0.31483412   -48.471933   -217.87833  0.013839823    43.257654 0.0010367435 -0.0059155398            0   -3159.9914   -3159.9914    35016.638    28.283444    25.433186     48.67897      960 
     229            0   -88.783235   0.32160711   -48.475208   -217.88396 0.0094627089    43.257537 0.00086617981 -0.0023726522            0   -3159.9914   -3159.9914    35016.638    28.283444    25.433186     48.67897      960 
     230            0   -88.786373   0.32838011   -48.477353   -217.88704  0.005272945    43.257535 0.00066583953 -0.0010068518            0   -3159.9914   -3159.9914    35016.638    28.283444    25.433186     48.67897      960 
     231            0   -88.788812   0.33514905   -48.479019   -217.88922 0.0017985175    43.257555 0.00043751553 0.00011351933            0   -3159.9914   -3159.9914    35016.638    28.283444    25.433186     48.67897      960 
     232            0   -88.789586   0.34191895   -48.479564   -217.88978 0.00058408812    43.257573 0.00025476789 0.00082442624            0   -3159.9914   -3159.9914    35016.638    28.283444    25.433186     48.67897      960 
     233            0   -88.789799   0.34868908   -48.479714   -217.88998 0.0002974193    43.257571 0.00014823313 0.0014295654            0   -3159.9914   -3159.9914    35016.638    28.283444    25.433186     48.67897      960 
     234            0   -88.789997   0.35546398   -48.479836   -217.89014 -1.925833e-05    43.257549 0.00010673156 0.0016460685            0   -3159.9914   -3159.9914    35016.638    28.283444    25.433186     48.67897      960 
     235            0   -88.790026   0.36223197   -48.479847    -217.8901 -0.00012752422    43.257538 8.4971692e-05 0.0016722116            0   -3159.9914   -3159.9914    35016.638    28.283444    25.433186     48.67897      960 
     236            0   -88.789973   0.36900496   -48.479816   -217.89002 -8.595307e-05    43.257533 6.2246946e-05 0.0016822985            0   -3159.9914   -3159.9914    35016.638    28.283444    25.433186     48.67897      960 
     237            0   -88.789957   0.37577701    -48.47981   -217.88995 -0.00011003869    43.257532 3.5649731e-05 0.0016372256            0   -3159.9914   -3159.9914    35016.638    28.283444    25.433186     48.67897      960 
     238            0   -88.789972   0.38254213   -48.479811   -217.88989 -0.00021932151    43.257531 6.7485698e-06 0.0015332812            0   -3159.9914   -3159.9914    35016.638    28.283444    25.433186     48.67897      960 
     239            0   -88.789942   0.38931513     -48.4798   -217.88982 -0.00020890483    43.257529 -1.4239227e-05 0.0014473753            0   -3159.9914   -3159.9914    35016.638    28.283444    25.433186     48.67897      960 
     240            0   -88.789857   0.39608407   -48.479758   -217.88966 -0.00015353714    43.257523 -4.7814733e-05 0.0011344283            0   -3159.9914   -3159.9914    35016.638    28.283444    25.433186     48.67897      960 
     241            0   -88.789777   0.40285492   -48.479687   -217.88949 -0.00015192917    43.257517 -8.9564466e-05 0.00068308109            0   -3159.9914   -3159.9914    35016.638    28.283444    25.433186     48.67897      960 
     242            0   -88.789709   0.40963197   -48.479645   -217.88944 -3.9903173e-05    43.257519 -0.00011437469 0.00036887345            0   -3159.9914   -3159.9914    35016.638    28.283444    25.433186     48.67897      960 
     243            0   -88.789707   0.41640806   -48.479646   -217.88945 -2.0630254e-05    43.257521 -0.00011481983 0.00022325992            0   -3159.9914   -3159.9914    35016.638    28.283444    25.433186     48.67897      960 
     244            0   -88.789747   0.42318296   -48.479664   -217.88952 -6.1839426e-05    43.257523 -7.3739883e-05 3.8132637e-05            0   -3159.9914   -3159.9914    35016.638    28.283444    25.433186     48.67897      960 
     245            0   -88.789731   0.42995501   -48.479659   -217.88952 -1.8002727e-05    43.257524 -4.8000015e-05 -3.7149385e-05            0   -3159.9914   -3159.9914    35016.638    28.283444    25.433186     48.67897      960 
     246            0   -88.789719   0.43672895   -48.479654   -217.88951 1.1023137e-05    43.257525 -3.3393839e-05 -5.1321782e-05            0   -3159.9914   -3159.9914    35016.638    28.283444    25.433186     48.67897      960 
     247            0   -88.789725   0.44354105   -48.479653   -217.88952 1.0315096e-06    43.257527 -1.6533187e-05 -5.608686e-05            0   -3159.9914   -3159.9914    35016.638    28.283444    25.433186     48.67897      960 
     248            0   -88.789719   0.45031095    -48.47965   -217.88952 1.2521339e-05    43.257529 -9.5355522e-06 -4.9180285e-05            0   -3159.9914   -3159.9914    35016.638    28.283444    25.433186     48.67897      960 
     249            0   -88.789718   0.45708299   -48.479648   -217.88952 1.236996e-05     43.25753 -5.4289517e-06 -4.0625551e-05            0   -3159.9914   -3159.9914    35016.638    28.283444    25.433186     48.67897      960 
     250            0   -88.789721   0.46385908   -48.479649   -217.88952 5.6395936e-06     43.25753 -2.796888e-06 -3.7333288e-05            0   -3159.9914   -3159.9914    35016.638    28.283444    25.433186     48.67897      960 
     251            0   -88.789721   0.47062612    -48.47965   -217.88952 4.245315e-06     43.25753 -1.4347138e-06 -3.5362255e-05            0   -3159.9914   -3159.9914    35016.638    28.283444    25.433186     48.67897      960 
     252            0   -88.789722   0.47740006    -48.47965   -217.88952 1.8743565e-06     43.25753 -2.8613886e-07 -3.3318104e-05            0   -3159.9914   -3159.9914    35016.638    28.283444    25.433186     48.67897      960 
     253            0   -88.789722   0.48417497   -48.479649   -217.88952 -1.1761544e-07     43.25753 9.0250411e-08 -3.2935677e-05            0   -3159.9914   -3159.9914    35016.638    28.283444    25.433186     48.67897      960 
     254            0   -88.789721   0.49094105   -48.479649   -217.88951 4.0416437e-07     43.25753 3.5034218e-07 -3.1630448e-05            0   -3159.9914   -3159.9914    35016.638    28.283444    25.433186     48.67897      960 
     255            0   -88.789719   0.49771595   -48.479648   -217.88951 2.1400764e-06     43.25753 5.1591845e-07 -3.0009254e-05            0   -3159.9914   -3159.9914    35016.638    28.283444    25.433186     48.67897      960 
     256            0   -88.789719   0.50448513   -48.479648   -217.88951 1.4922897e-06     43.25753 5.8940369e-07 -2.8205884e-05            0   -3159.9914   -3159.9914    35016.638    28.283444    25.433186     48.67897      960 
     257            0   -88.789719   0.51126003   -48.479647   -217.88951 2.5683741e-06     43.25753 7.6500834e-07 -2.1964686e-05            0   -3159.9914   -3159.9914    35016.638    28.283444    25.433186     48.67897      960 
     258            0   -88.789719   0.51802611   -48.479648   -217.88951 2.0901018e-06    43.257531 9.718075e-07 -1.6302097e-05            0   -3159.9914   -3159.9914    35016.638    28.283444    25.433186     48.67897      960 
     259            0    -88.78972   0.52479792   -48.479649   -217.88951 8.659043e-07     43.25753 1.0955286e-06 -1.139744e-05            0   -3159.9914   -3159.9914    35016.638    28.283444    25.433186     48.67897      960 
     260            0   -88.789721   0.53157306    -48.47965   -217.88951 6.3710197e-07     43.25753 9.9557174e-07 -8.3508934e-06            0   -3159.9914   -3159.9914    35016.638    28.283444    25.433186     48.67897      960 
     261            0   -88.789723   0.53833914   -48.479651   -217.88952 -5.4817642e-07     43.25753 7.2537958e-07 -4.9856907e-06            0   -3159.9914   -3159.9914    35016.638    28.283444    25.433186     48.67897      960 
     262            0   -88.789723   0.54511404   -48.479651   -217.88952 -3.1947681e-07     43.25753 5.1303248e-07 -2.8552013e-06            0   -3159.9914   -3159.9914    35016.638    28.283444    25.433186     48.67897      960 
     263            0   -88.789723   0.55188513   -48.479651   -217.88952 4.0222095e-07     43.25753 2.0375005e-07 -5.6842703e-07            0   -3159.9914   -3159.9914    35016.638    28.283444    25.433186     48.67897      960 
     264            0   -88.789724   0.55865598   -48.479651   -217.88952 3.8573083e-07     43.25753 1.2494807e-07 3.3681466e-09            0   -3159.9914   -3159.9914    35016.638    28.283444    25.433186     48.67897      960 
     265            0   -88.789724   0.56542492   -48.479651   -217.88952 1.1272315e-07     43.25753 6.4488514e-08 4.2253444e-07            0   -3159.9914   -3159.9914    35016.638    28.283444    25.433186     48.67897      960 
     266            0   -88.789724   0.57220006   -48.479651   -217.88952 -7.9524061e-08     43.25753 3.4148053e-08 5.7962153e-07            0   -3159.9914   -3159.9914    35016.638    28.283444    25.433186     48.67897      960 
     267            0   -88.789724   0.57896709   -48.479651   -217.88952 -1.4660428e-08     43.25753 1.6812676e-08 7.3015538e-07            0   -3159.9914   -3159.9914    35016.638    28.283444    25.433186     48.67897      960 
     268            0   -88.789724   0.58574104   -48.479651   -217.88952 -2.3080129e-08     43.25753 1.4544948e-08 7.627789e-07            0   -3159.9914   -3159.9914    35016.638    28.283444    25.433186     48.67897      960 
     269            0   -88.789724   0.59252596   -48.479651   -217.88952 -1.0299128e-07     43.25753 1.6049266e-08 7.6105099e-07            0   -3159.9914   -3159.9914    35016.638    28.283444    25.433186     48.67897      960 
     270            0   -88.789724   0.59930015   -48.479651   -217.88952 -8.7186388e-08     43.25753 1.5960036e-08 7.5419196e-07            0   -3159.9914   -3159.9914    35016.638    28.283444    25.433186     48.67897      960 
     271            0   -88.789724     0.606071   -48.479651   -217.88952 -1.8195167e-08     43.25753 1.363751e-08 7.2623903e-07            0   -3159.9914   -3159.9914    35016.638    28.283444    25.433186     48.67897      960 
     272            0   -88.789724   0.61283994   -48.479651   -217.88952 -2.4929951e-08     43.25753 9.3900968e-09 6.6565032e-07            0   -3159.9914   -3159.9914    35016.638    28.283444    25.433186     48.67897      960 
     273            0   -88.789724   0.61961412   -48.479651   -217.88952 -5.2899241e-08     43.25753 -1.2887966e-09 4.7272518e-07            0   -3159.9914   -3159.9914    35016.638    28.283444    25.433186     48.67897      960 
     274            0   -88.789724   0.62637997   -48.479651   -217.88952 -3.9372917e-08     43.25753 -5.0198616e-09 3.0398105e-07            0   -3159.9914   -3159.9914    35016.638    28.283444    25.433186     48.67897      960 
     275            0   -88.789724   0.63315201   -48.479651   -217.88952 -2.1606433e-08     43.25753 -3.3634162e-09 1.103186e-07            0   -3159.9914   -3159.9914    35016.638    28.283444    25.433186     48.67897      960 
     276            0   -88.789724     0.639925   -48.479651   -217.88952 6.687328e-09     43.25753 -7.3276618e-10 3.4313917e-08            0   -3159.9914   -3159.9914    35016.638    28.283444    25.433186     48.67897      960 
     277            0   -88.789724    0.6500361   -48.479651   -217.88952 3.3082437e-08     43.25753 1.4076381e-10 4.6611003e-09            0   -3159.9914   -3159.9914    35016.638    28.283444    25.433186     48.67897      960 
Loop time of 0.650062 on 1 procs for 96 steps with 960 atoms

99.7% CPU use with 1 MPI tasks x no OpenMP threads

Minimization stats:
  Stopping criterion = force tolerance
  Energy initial, next-to-last, final = 
        -3159.97182785     -3159.99135241     -3159.99135241
  Force two-norm initial, final = 0.153014 9.58839e-11
  Force max component initial, final = 0.00952553 5.60586e-12
  Final line search alpha, max atom move = 1 5.60586e-12
  Iterations, force evaluations = 96 191

MPI task timing breakdown:
Section |  min time  |  avg time  |  max time  |%varavg| %total
---------------------------------------------------------------
Pair    | 0.64031    | 0.64031    | 0.64031    |   0.0 | 98.50
Neigh   | 0          | 0          | 0          |   0.0 |  0.00
Comm    | 0.0021939  | 0.0021939  | 0.0021939  |   0.0 |  0.34
Output  | 0.0030046  | 0.0030046  | 0.0030046  |   0.0 |  0.46
Modify  | 0          | 0          | 0          |   0.0 |  0.00
Other   |            | 0.004554   |            |       |  0.70

Nlocal:    960 ave 960 max 960 min
Histogram: 1 0 0 0 0 0 0 0 0 0
Nghost:    1471 ave 1471 max 1471 min
Histogram: 1 0 0 0 0 0 0 0 0 0
Neighs:    55260 ave 55260 max 55260 min
Histogram: 1 0 0 0 0 0 0 0 0 0

Total # of neighbors = 55260
Ave neighs/atom = 57.5625
Neighbor list builds = 0
Dangerous builds = 0
System init for write_restart ...
System init for write_data ...
Reading restart file ...
  restart file = 13 Jan 2016, LAMMPS = 13 Jan 2016
  triclinic box = (0.17719 0.170428 -0.0394851) to (28.4606 25.6036 48.6395) with tilt (8.47773 0 0)
  1 by 1 by 1 MPI processor grid
  960 atoms
Changing box ...
  triclinic box = (0.17719 0.170428 -0.0394851) to (28.4606 25.6036 48.6395) with tilt (8.47773 0 0)
Neighbor list info ...
  1 neighbor list requests
  update every 1 steps, delay 0 steps, check yes
  max neighbors/atom: 2000, page size: 100000
  master list distance cutoff = 7.72488
  ghost atom cutoff = 7.72488
Setting up cg style minimization ...
  Unit style: metal
Memory usage per processor = 3.38391 Mbytes
Step Temp Press CPU Pxx Pyy Pzz Pxy Pxz Pyz KinEng PotEng TotEng Volume Lx Ly Lz Atoms 
     277            0   -88.415733            0   -47.883893   -217.60452   0.24120877    43.207015 -0.0011955025 0.0037202938            0   -3159.9914   -3159.9914    35016.603    28.283416    25.433186     48.67897      960 
     278            0    -88.45542 0.0068280697   -47.910024   -217.63769   0.18145639    43.207283 -0.0011299736 -0.0010294103            0   -3159.9914   -3159.9914    35016.603    28.283416    25.433186     48.67897      960 
     279            0   -88.486095  0.013667107   -47.932904   -217.66267   0.13728466    43.207603 -0.00096116593 -0.0028814744            0   -3159.9914   -3159.9914    35016.603    28.283416    25.433186     48.67897      960 
     280            0   -88.518542   0.02049613   -47.957436   -217.69019  0.091997327    43.207832 -0.00065966206 -0.004002621            0   -3159.9914   -3159.9914    35016.603    28.283416    25.433186     48.67897      960 
     281            0    -88.55405  0.027332067    -47.98355   -217.71998  0.041377579      43.2078 -0.00031811623 -0.0037202873            0   -3159.9914   -3159.9914    35016.603    28.283416    25.433186     48.67897      960 
     282            0   -88.576147  0.034169912   -48.000052   -217.73701 0.0086188374    43.207673 -0.00016977383 -0.0049394965            0   -3159.9914   -3159.9914    35016.603    28.283416    25.433186     48.67897      960 
     283            0   -88.577558  0.040998936   -48.001202   -217.73778 0.0063128466    43.207609 -0.00024494702 -0.0046786325            0   -3159.9914   -3159.9914    35016.603    28.283416    25.433186     48.67897      960 
     284            0   -88.578716  0.047830105   -48.002071   -217.73741 0.0033280309    43.207514 -0.00035787547 -0.0050251578            0   -3159.9914   -3159.9914    35016.603    28.283416    25.433186     48.67897      960 
     285            0   -88.579295  0.054661036   -48.002395   -217.73701 0.0015140583    43.207458 -0.00040334182 -0.0048544958            0   -3159.9914   -3159.9914    35016.603    28.283416    25.433186     48.67897      960 
     286            0   -88.579632  0.061499119   -48.002593   -217.73668 0.00037580302    43.207422 -0.00042729345 -0.0046228674            0   -3159.9914   -3159.9914    35016.603    28.283416    25.433186     48.67897      960 
     287            0   -88.579682   0.06832695   -48.002675   -217.73637 -4.2532018e-06    43.207419 -0.00043566128 -0.0047010719            0   -3159.9914   -3159.9914    35016.603    28.283416    25.433186     48.67897      960 
     288            0   -88.579687  0.075161934   -48.002718   -217.73619 -0.00015223194    43.207429 -0.00043885439 -0.0047901719            0   -3159.9914   -3159.9914    35016.603    28.283416    25.433186     48.67897      960 
     289            0   -88.579694   0.08267808   -48.002745   -217.73617 -0.00016250824    43.207444 -0.00043599566 -0.0047341586            0   -3159.9914   -3159.9914    35016.603    28.283416    25.433186     48.67897      960 
     290            0   -88.579674  0.089519024   -48.002763   -217.73609 -0.00017118055    43.207458 -0.00042068276 -0.0046406721            0   -3159.9914   -3159.9914    35016.603    28.283416    25.433186     48.67897      960 
     291            0     -88.5797  0.096355915   -48.002792   -217.73608 -0.00022818149    43.207471 -0.00038785277 -0.0042576813            0   -3159.9914   -3159.9914    35016.603    28.283416    25.433186     48.67897      960 
     292            0   -88.579753   0.10319209   -48.002827   -217.73622 -0.00021716106    43.207472 -0.00034600068 -0.0036194276            0   -3159.9914   -3159.9914    35016.603    28.283416    25.433186     48.67897      960 
     293            0   -88.579774   0.11003208   -48.002865    -217.7364 -6.0183927e-05    43.207461 -0.00029592585 -0.0029761173            0   -3159.9914   -3159.9914    35016.603    28.283416    25.433186     48.67897      960 
     294            0   -88.579966   0.11686301   -48.002915   -217.73691 -6.9090107e-05    43.207438 -0.00021583371 -0.0019006774            0   -3159.9914   -3159.9914    35016.603    28.283416    25.433186     48.67897      960 
     295            0   -88.579929   0.12369704   -48.002936   -217.73704 0.00019266672    43.207435 -0.00016262138 -0.0012003389            0   -3159.9914   -3159.9914    35016.603    28.283416    25.433186     48.67897      960 
     296            0   -88.580008   0.13053799   -48.002956   -217.73711 4.4292618e-05    43.207439 -9.2344864e-05 -0.00044202903            0   -3159.9914   -3159.9914    35016.603    28.283416    25.433186     48.67897      960 
     297            0   -88.580031   0.13737202    -48.00296   -217.73712 -1.0356838e-05    43.207445 -6.1497138e-05 -0.00014906365            0   -3159.9914   -3159.9914    35016.603    28.283416    25.433186     48.67897      960 
     298            0   -88.580018     0.144207    -48.00296   -217.73709 1.4923975e-06     43.20745 -3.9786244e-05 -4.4333701e-05            0   -3159.9914   -3159.9914    35016.603    28.283416    25.433186     48.67897      960 
     299            0    -88.58002   0.15104103    -48.00296    -217.7371 6.6840663e-07    43.207452 -3.4488727e-05 -2.1638669e-05            0   -3159.9914   -3159.9914    35016.603    28.283416    25.433186     48.67897      960 
     300            0   -88.580026   0.15788102    -48.00296   -217.73712 -1.116202e-06    43.207454 -2.8146162e-05 -1.3278619e-06            0   -3159.9914   -3159.9914    35016.603    28.283416    25.433186     48.67897      960 
     301            0   -88.580026   0.16472411   -48.002959   -217.73712 5.5170442e-07    43.207455 -2.6302257e-05 1.9402672e-06            0   -3159.9914   -3159.9914    35016.603    28.283416    25.433186     48.67897      960 
     302            0   -88.580026   0.17156601   -48.002959   -217.73712 -2.0852333e-07    43.207455 -2.3656505e-05 3.7569933e-06            0   -3159.9914   -3159.9914    35016.603    28.283416    25.433186     48.67897      960 
     303            0   -88.580026   0.17840791   -48.002959   -217.73712 -6.6527364e-07    43.207456 -2.1469633e-05 3.292526e-06            0   -3159.9914   -3159.9914    35016.603    28.283416    25.433186     48.67897      960 
     304            0   -88.580025   0.18524694   -48.002959   -217.73712 -3.5693274e-07    43.207456 -1.8291361e-05 2.4612241e-06            0   -3159.9914   -3159.9914    35016.603    28.283416    25.433186     48.67897      960 
     305            0   -88.580025   0.19208312   -48.002959   -217.73712 3.4593273e-07    43.207456 -1.5210753e-05 1.3641512e-06            0   -3159.9914   -3159.9914    35016.603    28.283416    25.433186     48.67897      960 
     306            0   -88.580025   0.19891691   -48.002959   -217.73712 2.2288247e-07    43.207456 -1.352081e-05 9.9626106e-07            0   -3159.9914   -3159.9914    35016.603    28.283416    25.433186     48.67897      960 
     307            0   -88.580025   0.20576096   -48.002959   -217.73712 7.4582672e-08    43.207456 -1.2743468e-05 1.1276736e-06            0   -3159.9914   -3159.9914    35016.603    28.283416    25.433186     48.67897      960 
     308            0   -88.580025   0.21259308   -48.002959   -217.73712 -5.7017672e-08    43.207456 -1.2124758e-05 1.1800054e-06            0   -3159.9914   -3159.9914    35016.603    28.283416    25.433186     48.67897      960 
     309            0   -88.580025   0.21604395   -48.002959   -217.73712 -4.2012369e-07    43.207456 -9.8278249e-06 1.0697165e-06            0   -3159.9914   -3159.9914    35016.603    28.283416    25.433186     48.67897      960 
     310            0   -88.580025   0.22288013   -48.002959   -217.73712 4.2947865e-08    43.207456 -8.5784514e-06 9.8558583e-07            0   -3159.9914   -3159.9914    35016.603    28.283416    25.433186     48.67897      960 
     311            0   -88.580025   0.22972012   -48.002959   -217.73712 6.3973681e-07    43.207456 -6.1979264e-06 6.675968e-07            0   -3159.9914   -3159.9914    35016.603    28.283416    25.433186     48.67897      960 
     312            0   -88.580025   0.23655105   -48.002959   -217.73712 1.4243958e-07    43.207456 -5.0358129e-06 3.9893137e-07            0   -3159.9914   -3159.9914    35016.603    28.283416    25.433186     48.67897      960 
     313            0   -88.580025   0.24339104   -48.002959   -217.73712 -4.8284404e-07    43.207456 -4.1924305e-06 2.7148109e-07            0   -3159.9914   -3159.9914    35016.603    28.283416    25.433186     48.67897      960 
     314            0   -88.580025   0.25023103   -48.002959   -217.73712 -1.6102637e-07    43.207456 -3.7778353e-06 3.6297563e-07            0   -3159.9914   -3159.9914    35016.603    28.283416    25.433186     48.67897      960 
     315            0   -88.580025   0.25706601   -48.002959   -217.73712 1.5722961e-08    43.207456 -3.58494e-06 4.0001028e-07            0   -3159.9914   -3159.9914    35016.603    28.283416    25.433186     48.67897      960 
     316            0   -88.580025   0.26390409   -48.002959   -217.73712 -1.4682562e-07    43.207456 -3.4114687e-06  3.38981e-07            0   -3159.9914   -3159.9914    35016.603    28.283416    25.433186     48.67897      960 
     317            0   -88.580025   0.27074003   -48.002959   -217.73712 -1.3913371e-07    43.207456 -3.1379363e-06 2.6371505e-07            0   -3159.9914   -3159.9914    35016.603    28.283416    25.433186     48.67897      960 
     318            0   -88.580025   0.27758098   -48.002959   -217.73712 1.9279191e-08    43.207456 -2.82341e-06 2.3295664e-07            0   -3159.9914   -3159.9914    35016.603    28.283416    25.433186     48.67897      960 
     319            0   -88.580025    0.2844131   -48.002959   -217.73712 -5.9085861e-08    43.207456 -2.1304816e-06 1.4899185e-07            0   -3159.9914   -3159.9914    35016.603    28.283416    25.433186     48.67897      960 
     320            0   -88.580025   0.29125309   -48.002959   -217.73712 -6.5767679e-08    43.207456 -1.5823528e-06 1.1246275e-07            0   -3159.9914   -3159.9914    35016.603    28.283416    25.433186     48.67897      960 
     321            0   -88.580025   0.29809213   -48.002959   -217.73712 1.0727337e-07    43.207456 -1.0513009e-06 1.3133191e-07            0   -3159.9914   -3159.9914    35016.603    28.283416    25.433186     48.67897      960 
     322            0   -88.580025   0.30492806   -48.002959   -217.73712 3.4823482e-08    43.207456 -8.2777105e-07 7.7001179e-08            0   -3159.9914   -3159.9914    35016.603    28.283416    25.433186     48.67897      960 
     323            0   -88.580025   0.31176209   -48.002959   -217.73712 1.3160034e-08    43.207456 -6.7579002e-07 2.4030182e-08            0   -3159.9914   -3159.9914    35016.603    28.283416    25.433186     48.67897      960 
     324            0   -88.580025   0.31859303   -48.002959   -217.73712 1.0458994e-07    43.207456 -6.0649689e-07 3.4099018e-08            0   -3159.9914   -3159.9914    35016.603    28.283416    25.433186     48.67897      960 
     325            0   -88.580025   0.32543707   -48.002959   -217.73712 8.8609403e-08    43.207456 -5.5775171e-07 3.9457344e-08            0   -3159.9914   -3159.9914    35016.603    28.283416    25.433186     48.67897      960 
     326            0   -88.580025   0.33226609   -48.002959   -217.73712 2.7733954e-08    43.207456 -5.274839e-07 3.0514669e-08            0   -3159.9914   -3159.9914    35016.603    28.283416    25.433186     48.67897      960 
     327            0   -88.580025   0.33910894   -48.002959   -217.73712 3.0617167e-08    43.207456 -4.9373523e-07 3.9994176e-08            0   -3159.9914   -3159.9914    35016.603    28.283416    25.433186     48.67897      960 
     328            0   -88.580025   0.34594798   -48.002959   -217.73712 2.9539212e-08    43.207456 -4.6786579e-07 4.5465618e-08            0   -3159.9914   -3159.9914    35016.603    28.283416    25.433186     48.67897      960 
[...]
  Iterations, force evaluations = 49 97

MPI task timing breakdown:
Section |  min time  |  avg time  |  max time  |%varavg| %total
---------------------------------------------------------------
Pair    | 0.33022    | 0.33022    | 0.33022    |   0.0 | 98.51
Neigh   | 0          | 0          | 0          |   0.0 |  0.00
Comm    | 0.0011187  | 0.0011187  | 0.0011187  |   0.0 |  0.33
Output  | 0.001524   | 0.001524   | 0.001524   |   0.0 |  0.45
Modify  | 0          | 0          | 0          |   0.0 |  0.00
Other   |            | 0.002351   |            |       |  0.70

Nlocal:    960 ave 960 max 960 min
Histogram: 1 0 0 0 0 0 0 0 0 0
Nghost:    1471 ave 1471 max 1471 min
Histogram: 1 0 0 0 0 0 0 0 0 0
Neighs:    55260 ave 55260 max 55260 min
Histogram: 1 0 0 0 0 0 0 0 0 0

Total # of neighbors = 55260
Ave neighs/atom = 57.5625
Neighbor list builds = 0
Dangerous builds = 0
Reading restart file ...
  restart file = 13 Jan 2016, LAMMPS = 13 Jan 2016
  triclinic box = (0.17719 0.170428 -0.0394851) to (28.4606 25.6036 48.6395) with tilt (8.47773 0 0)
  1 by 1 by 1 MPI processor grid
  960 atoms
Changing box ...
  triclinic box = (0.17719 0.170428 -0.0394851) to (28.4606 25.6036 48.6395) with tilt (8.4777 0 0)
Neighbor list info ...
  1 neighbor list requests
  update every 1 steps, delay 0 steps, check yes
  max neighbors/atom: 2000, page size: 100000
  master list distance cutoff = 7.72488
  ghost atom cutoff = 7.72488
Setting up cg style minimization ...
  Unit style: metal
Memory usage per processor = 3.38391 Mbytes
Step Temp Press CPU Pxx Pyy Pzz Pxy Pxz Pyz KinEng PotEng TotEng Volume Lx Ly Lz Atoms 
     277            0   -88.789555            0   -48.479556   -217.88921 9.6273148e-05    43.409618 0.0036228504 -1.049789e-05            0   -3159.9914   -3159.9914    35016.638    28.283444    25.433186     48.67897      960 
     278            0   -88.789573 0.0068261623   -48.479569   -217.88922 6.9622897e-05    43.408363 0.0032797399 -1.316258e-05            0   -3159.9914   -3159.9914    35016.638    28.283444    25.433186     48.67897      960 
     279            0   -88.789568  0.013670206   -48.479566   -217.88921 7.4430325e-05    43.408245 0.0027586634 -1.0833074e-05            0   -3159.9914   -3159.9914    35016.638    28.283444    25.433186     48.67897      960 
     280            0   -88.789595   0.02050519   -48.479585   -217.88924 4.1656879e-05     43.40821 0.0024207438 -1.5275974e-05            0   -3159.9914   -3159.9914    35016.638    28.283444    25.433186     48.67897      960 
     281            0   -88.789562  0.027350187   -48.479559    -217.8892 7.3958052e-05    43.408198 0.0021946045 6.8675924e-07            0   -3159.9914   -3159.9914    35016.638    28.283444    25.433186     48.67897      960 
     282            0   -88.789587  0.034185171   -48.479581   -217.88923 4.7205363e-05    43.408187 0.0019219165 -1.4948213e-05            0   -3159.9914   -3159.9914    35016.638    28.283444    25.433186     48.67897      960 
     283            0   -88.789624  0.041026115   -48.479604   -217.88927 3.8889224e-06    43.408181 0.0017159188 -1.8652368e-06            0   -3159.9914   -3159.9914    35016.638    28.283444    25.433186     48.67897      960 
     284            0   -88.789614   0.04786706   -48.479597   -217.88925 6.1874046e-06    43.408178 0.0015861048 -1.3039162e-05            0   -3159.9914   -3159.9914    35016.638    28.283444    25.433186     48.67897      960 
     285            0    -88.78958  0.054699183   -48.479581   -217.88922 6.026342e-05    43.408175 0.0014367839 -5.1284241e-06            0   -3159.9914   -3159.9914    35016.638    28.283444    25.433186     48.67897      960 
     286            0   -88.789623  0.061540127   -48.479603   -217.88926 -5.4733874e-06    43.408172  0.001270996 -7.9580172e-06            0   -3159.9914   -3159.9914    35016.638    28.283444    25.433186     48.67897      960 
     287            0   -88.789685  0.068377018   -48.479642   -217.88931 -0.00010273778    43.408165 0.00086342998 -2.1576173e-05            0   -3159.9914   -3159.9914    35016.638    28.283444    25.433186     48.67897      960 
     288            0   -88.789634  0.075218201   -48.479623   -217.88927 -6.4436608e-06    43.408157 0.00037804788 2.4577899e-08            0   -3159.9914   -3159.9914    35016.638    28.283444    25.433186     48.67897      960 
     289            0   -88.789662  0.082049131   -48.479629   -217.88929 -7.0656772e-05    43.408152 6.6440073e-05 -5.057099e-06            0   -3159.9914   -3159.9914    35016.638    28.283444    25.433186     48.67897      960 
     290            0   -88.789652  0.088891029   -48.479629   -217.88928 -4.6605766e-05    43.408151 9.9933291e-06 -3.6619169e-06            0   -3159.9914   -3159.9914    35016.638    28.283444    25.433186     48.67897      960 
     291            0   -88.789657  0.095741987   -48.479631   -217.88929 -5.2048964e-05    43.408151 2.6608535e-06 -2.3501094e-06            0   -3159.9914   -3159.9914    35016.638    28.283444    25.433186     48.67897      960 
     292            0   -88.789657   0.10257506    -48.47963   -217.88929 -5.5239352e-05    43.408151 1.6119848e-07 -4.0265628e-06            0   -3159.9914   -3159.9914    35016.638    28.283444    25.433186     48.67897      960 
     293            0   -88.789648   0.10941505   -48.479624   -217.88928 -4.0774006e-05    43.408151 2.9299135e-07 -2.1702126e-06            0   -3159.9914   -3159.9914    35016.638    28.283444    25.433186     48.67897      960 
     294            0   -88.789644   0.11625504   -48.479622   -217.88928 -3.5303933e-05    43.408151 5.1149628e-07 -1.9519971e-06            0   -3159.9914   -3159.9914    35016.638    28.283444    25.433186     48.67897      960 
     295            0   -88.789643   0.12309313   -48.479621   -217.88927 -3.3962684e-05    43.408151 5.4471301e-07 -2.3880305e-06            0   -3159.9914   -3159.9914    35016.638    28.283444    25.433186     48.67897      960 
     296            0   -88.789643   0.12992907    -48.47962   -217.88927 -3.3335006e-05    43.408151 4.752848e-07 -2.0425226e-06            0   -3159.9914   -3159.9914    35016.638    28.283444    25.433186     48.67897      960 
     297            0   -88.789634   0.13677001   -48.479614   -217.88927 -2.0903176e-05    43.408151 1.5164306e-07 -1.4711913e-06            0   -3159.9914   -3159.9914    35016.638    28.283444    25.433186     48.67897      960 
     298            0   -88.789629   0.14360905    -48.47961   -217.88926 -1.3537399e-05    43.408151 1.1091807e-08 -1.4324246e-06            0   -3159.9914   -3159.9914    35016.638    28.283444    25.433186     48.67897      960 
     299            0   -88.789623   0.15044212   -48.479606   -217.88926 -4.1728324e-06    43.408151 -3.1593121e-08 -4.8767441e-07            0   -3159.9914   -3159.9914    35016.638    28.283444    25.433186     48.67897      960 
     300            0    -88.78962   0.15728211   -48.479604   -217.88926 -3.6633566e-07    43.408151 -1.1262452e-08 -4.282331e-07            0   -3159.9914   -3159.9914    35016.638    28.283444    25.433186     48.67897      960 
     301            0    -88.78962   0.16411805   -48.479604   -217.88926 -2.412798e-07    43.408151 -5.0464256e-09 -4.6177263e-07            0   -3159.9914   -3159.9914    35016.638    28.283444    25.433186     48.67897      960 
     302            0    -88.78962   0.17095613   -48.479604   -217.88926 -6.3989031e-08    43.408151 4.9450737e-09 -4.2297272e-07            0   -3159.9914   -3159.9914    35016.638    28.283444    25.433186     48.67897      960 
     303            0    -88.78962   0.17779303   -48.479604   -217.88926 1.330632e-08    43.408151 5.0082586e-09 -3.8525943e-07            0   -3159.9914   -3159.9914    35016.638    28.283444    25.433186     48.67897      960 
     304            0    -88.78962   0.18463421   -48.479604   -217.88926 1.032764e-08    43.408151 5.0564849e-10 -3.6892582e-07            0   -3159.9914   -3159.9914    35016.638    28.283444    25.433186     48.67897      960 
     305            0    -88.78962   0.19147301   -48.479604   -217.88926 2.0432384e-08    43.408151 -4.255637e-09 -3.4434294e-07            0   -3159.9914   -3159.9914    35016.638    28.283444    25.433186     48.67897      960 
     306            0    -88.78962   0.20168209   -48.479604   -217.88926 2.6762956e-08    43.408151 -6.8292736e-09 -3.1805426e-07            0   -3159.9914   -3159.9914    35016.638    28.283444    25.433186     48.67897      960 
Loop time of 0.2017 on 1 procs for 29 steps with 960 atoms

101.1% CPU use with 1 MPI tasks x no OpenMP threads

Minimization stats:
  Stopping criterion = force tolerance
  Energy initial, next-to-last, final = 
        -3159.99135146     -3159.99135146     -3159.99135146
  Force two-norm initial, final = 7.19376e-06 8.55883e-11
  Force max component initial, final = 7.36094e-07 6.03225e-12
  Final line search alpha, max atom move = 1 6.03225e-12
  Iterations, force evaluations = 29 58

MPI task timing breakdown:
Section |  min time  |  avg time  |  max time  |%varavg| %total
---------------------------------------------------------------
Pair    | 0.19872    | 0.19872    | 0.19872    |   0.0 | 98.52
Neigh   | 0          | 0          | 0          |   0.0 |  0.00
Comm    | 0.00067115 | 0.00067115 | 0.00067115 |   0.0 |  0.33
Output  | 0.00089812 | 0.00089812 | 0.00089812 |   0.0 |  0.45
Modify  | 0          | 0          | 0          |   0.0 |  0.00
Other   |            | 0.001415   |            |       |  0.70

Nlocal:    960 ave 960 max 960 min
Histogram: 1 0 0 0 0 0 0 0 0 0
Nghost:    1471 ave 1471 max 1471 min
Histogram: 1 0 0 0 0 0 0 0 0 0
Neighs:    55260 ave 55260 max 55260 min
Histogram: 1 0 0 0 0 0 0 0 0 0

Total # of neighbors = 55260
Ave neighs/atom = 57.5625
Neighbor list builds = 0
Dangerous builds = 0
Reading restart file ...
  restart file = 13 Jan 2016, LAMMPS = 13 Jan 2016
  triclinic box = (0.17719 0.170428 -0.0394851) to (28.4606 25.6036 48.6395) with tilt (8.47773 0 0)
  1 by 1 by 1 MPI processor grid
  960 atoms
Changing box ...
  triclinic box = (0.17719 0.170428 -0.0394851) to (28.4606 25.6036 48.6395) with tilt (8.47775 0 0)
Neighbor list info ...
  1 neighbor list requests
  update every 1 steps, delay 0 steps, check yes
  max neighbors/atom: 2000, page size: 100000
  master list distance cutoff = 7.72488
  ghost atom cutoff = 7.72488
Setting up cg style minimization ...
  Unit style: metal
Memory usage per processor = 3.38391 Mbytes
Step Temp Press CPU Pxx Pyy Pzz Pxy Pxz Pyz KinEng PotEng TotEng Volume Lx Ly Lz Atoms 
     277            0   -88.789891            0   -48.479746   -217.88983 -9.5854957e-05    43.105442 -0.0036228606 1.0508189e-05            0   -3159.9914   -3159.9914    35016.638    28.283444    25.433186     48.67897      960 
     278            0   -88.789873 0.0068399906   -48.479732   -217.88982 -6.9342989e-05    43.106697 -0.0032797508 1.3121485e-05            0   -3159.9914   -3159.9914    35016.638    28.283444    25.433186     48.67897      960 
     279            0   -88.789878  0.013689041   -48.479735   -217.88983 -7.4044418e-05    43.106815 -0.002758666 1.0899223e-05            0   -3159.9914   -3159.9914    35016.638    28.283444    25.433186     48.67897      960 
     280            0   -88.789852  0.020534039   -48.479716    -217.8898 -4.1653801e-05    43.106851 -0.0024206612 1.5036259e-05            0   -3159.9914   -3159.9914    35016.638    28.283444    25.433186     48.67897      960 
     281            0   -88.789885  0.027384043   -48.479742   -217.88984 -7.3525988e-05    43.106862 -0.0021923541 -2.3096942e-08            0   -3159.9914   -3159.9914    35016.638    28.283444    25.433186     48.67897      960 
     282            0    -88.78986  0.034230947    -48.47972   -217.88981 -4.6691807e-05    43.106873 -0.0019211087 1.4868695e-05            0   -3159.9914   -3159.9914    35016.638    28.283444    25.433186     48.67897      960 
     283            0   -88.789823  0.041073084   -48.479697   -217.88977 -3.2010081e-06    43.106879 -0.0017112209 1.6170435e-06            0   -3159.9914   -3159.9914    35016.638    28.283444    25.433186     48.67897      960 
     284            0   -88.789833  0.047919989   -48.479704   -217.88979 -6.5063785e-06    43.106882 -0.0015856106 1.3271674e-05            0   -3159.9914   -3159.9914    35016.638    28.283444    25.433186     48.67897      960 
     285            0   -88.789866  0.054764986    -48.47972   -217.88982 -5.9976032e-05    43.106885 -0.0014357792 4.9453437e-06            0   -3159.9914   -3159.9914    35016.638    28.283444    25.433186     48.67897      960 
     286            0   -88.789824  0.061609983   -48.479698   -217.88978 5.9482987e-06    43.106888 -0.0012706193 8.2340935e-06            0   -3159.9914   -3159.9914    35016.638    28.283444    25.433186     48.67897      960 
     287            0   -88.789762  0.068454027    -48.47966   -217.88973 0.00010203725    43.106895 -0.00086288706 2.1053395e-05            0   -3159.9914   -3159.9914    35016.638    28.283444    25.433186     48.67897      960 
     288            0   -88.789814  0.075304985   -48.479679   -217.88977 5.8153832e-06    43.106903 -0.00037756168 1.3917178e-07            0   -3159.9914   -3159.9914    35016.638    28.283444    25.433186     48.67897      960 
     289            0   -88.789784  0.082146168   -48.479673   -217.88975 7.0780472e-05    43.106908 -6.6635131e-05 5.046357e-06            0   -3159.9914   -3159.9914    35016.638    28.283444    25.433186     48.67897      960 
     290            0   -88.789795  0.088992119   -48.479673   -217.88976 4.6406795e-05    43.106909 -1.0007658e-05 3.6009332e-06            0   -3159.9914   -3159.9914    35016.638    28.283444    25.433186     48.67897      960 
     291            0    -88.78979  0.095841169   -48.479671   -217.88975 5.1784159e-05    43.106909 -2.6588905e-06 2.3749916e-06            0   -3159.9914   -3159.9914    35016.638    28.283444    25.433186     48.67897      960 
     292            0    -88.78979   0.10268903   -48.479672   -217.88975 5.4912189e-05    43.106909 -1.5628884e-07 3.9714272e-06            0   -3159.9914   -3159.9914    35016.638    28.283444    25.433186     48.67897      960 
     293            0   -88.789799   0.10953307   -48.479677   -217.88976 4.0651373e-05    43.106909 -2.8890361e-07 2.1697932e-06            0   -3159.9914   -3159.9914    35016.638    28.283444    25.433186     48.67897      960 
     294            0   -88.789803   0.11637616    -48.47968   -217.88976 3.5098934e-05    43.106909 -5.0797623e-07 1.9197338e-06            0   -3159.9914   -3159.9914    35016.638    28.283444    25.433186     48.67897      960 
     295            0   -88.789804   0.12322402   -48.479681   -217.88976 3.3812881e-05    43.106909 -5.407904e-07 2.3715414e-06            0   -3159.9914   -3159.9914    35016.638    28.283444    25.433186     48.67897      960 
     296            0   -88.789804   0.13006496   -48.479681   -217.88976 3.320028e-05    43.106909 -4.7184755e-07 2.0262572e-06            0   -3159.9914   -3159.9914    35016.638    28.283444    25.433186     48.67897      960 
     297            0   -88.789812   0.13691211   -48.479687   -217.88977 2.0883047e-05    43.106909 -1.5186646e-07 1.4562293e-06            0   -3159.9914   -3159.9914    35016.638    28.283444    25.433186     48.67897      960 
     298            0   -88.789818   0.14376116   -48.479691   -217.88978 1.3573845e-05    43.106909 -1.1322289e-08 1.4274904e-06            0   -3159.9914   -3159.9914    35016.638    28.283444    25.433186     48.67897      960 
     299            0   -88.789824   0.15060616   -48.479696   -217.88978 4.1928911e-06    43.106909 3.1440835e-08 4.853054e-07            0   -3159.9914   -3159.9914    35016.638    28.283444    25.433186     48.67897      960 
     300            0   -88.789826   0.15745997   -48.479698   -217.88978 3.666041e-07    43.106909 1.1169507e-08 4.2304462e-07            0   -3159.9914   -3159.9914    35016.638    28.283444    25.433186     48.67897      960 
     301            0   -88.789826   0.16430402   -48.479698   -217.88978 2.4392216e-07    43.106909 4.9027077e-09 4.5763786e-07            0   -3159.9914   -3159.9914    35016.638    28.283444    25.433186     48.67897      960 
     302            0   -88.789827   0.17115498   -48.479698   -217.88978 6.5069609e-08    43.106909 -5.0426868e-09 4.1805991e-07            0   -3159.9914   -3159.9914    35016.638    28.283444    25.433186     48.67897      960 
     303            0   -88.789827   0.17799711   -48.479698   -217.88978 -1.2204717e-08    43.106909 -5.1437649e-09 3.8085698e-07            0   -3159.9914   -3159.9914    35016.638    28.283444    25.433186     48.67897      960 
     304            0   -88.789827   0.18484402   -48.479698   -217.88978 -9.6893166e-09    43.106909 -5.5755869e-10 3.6408992e-07            0   -3159.9914   -3159.9914    35016.638    28.283444    25.433186     48.67897      960 
     305            0   -88.789827   0.19168901   -48.479698   -217.88978 -2.0308831e-08    43.106909 4.3129973e-09 3.3877402e-07            0   -3159.9914   -3159.9914    35016.638    28.283444    25.433186     48.67897      960 
     306            0   -88.789827   0.20191312   -48.479698   -217.88978 -2.6201938e-08    43.106909 6.7420516e-09 3.1324956e-07            0   -3159.9914   -3159.9914    35016.638    28.283444    25.433186     48.67897      960 
Loop time of 0.201931 on 1 procs for 29 steps with 960 atoms

99.0% CPU use with 1 MPI tasks x no OpenMP threads

Minimization stats:
  Stopping criterion = force tolerance
  Energy initial, next-to-last, final = 
        -3159.99135335     -3159.99135335     -3159.99135335
  Force two-norm initial, final = 7.1938e-06 8.54035e-11
  Force max component initial, final = 7.36095e-07 6.66378e-12
  Final line search alpha, max atom move = 1 6.66378e-12
  Iterations, force evaluations = 29 58

MPI task timing breakdown:
Section |  min time  |  avg time  |  max time  |%varavg| %total
---------------------------------------------------------------
Pair    | 0.19894    | 0.19894    | 0.19894    |   0.0 | 98.52
Neigh   | 0          | 0          | 0          |   0.0 |  0.00
Comm    | 0.00067949 | 0.00067949 | 0.00067949 |   0.0 |  0.34
Output  | 0.00089264 | 0.00089264 | 0.00089264 |   0.0 |  0.44
Modify  | 0          | 0          | 0          |   0.0 |  0.00
Other   |            | 0.001418   |            |       |  0.70

Nlocal:    960 ave 960 max 960 min
Histogram: 1 0 0 0 0 0 0 0 0 0
Nghost:    1471 ave 1471 max 1471 min
Histogram: 1 0 0 0 0 0 0 0 0 0
Neighs:    55260 ave 55260 max 55260 min
Histogram: 1 0 0 0 0 0 0 0 0 0

Total # of neighbors = 55260
Ave neighs/atom = 57.5625
Neighbor list builds = 0
Dangerous builds = 0
Elastic Constant C11all = 47.6689933958151 GPa
Elastic Constant C22all = 41.3141070952988 GPa
Elastic Constant C33all = 1.07707300855964e-06 GPa
Elastic Constant C12all = 15.2531489290403 GPa
Elastic Constant C13all = -0.00243038253089622 GPa
Elastic Constant C23all = -0.0108930437169192 GPa
Elastic Constant C44all = -1.79610105988104e-06 GPa
Elastic Constant C55all = 9.42116155044914e-06 GPa
Elastic Constant C66all = 15.0620705033052 GPa
Elastic Constant C14all = 3.76391874397086e-05 GPa
Elastic Constant C15all = -0.000305960691708407 GPa
Elastic Constant C16all = -2.50132838100741 GPa
Elastic Constant C24all = 1.68231754287262e-05 GPa
Elastic Constant C25all = 0.000101684759219012 GPa
Elastic Constant C26all = 0.0262374561674377 GPa
Elastic Constant C34all = 1.75817897059005e-05 GPa
Elastic Constant C35all = 5.62166475539525e-05 GPa
Elastic Constant C36all = 0.00216540280250044 GPa
Elastic Constant C45all = -0.000828235105871042 GPa
Elastic Constant C46all = -3.42595172284632e-05 GPa
Elastic Constant C56all = -1.96780597150337e-07 GPa
Total wall time: 0:00:05
