   2   2   1   0
  0.2044415E+02  0.3866974E-09  0.3866975E-09  0.3866975E-09  0.5000000E-15
  1.000000000000000E-004
  CAR 
 unknown system                          
     22.39056908     -8.19173339 5000      5.80439330      1.00000000
     -8.192  0.0000E+00  0.0000E+00  0.0000E+00  0.0000E+00
     -8.186  0.0000E+00  0.0000E+00  0.0000E+00  0.0000E+00
     -8.179  0.0000E+00  0.0000E+00  0.0000E+00  0.0000E+00
     -8.173  0.0000E+00  0.0000E+00  0.0000E+00  0.0000E+00
     -8.167  0.0000E+00  0.0000E+00  0.0000E+00  0.0000E+00
     -8.161  0.0000E+00  0.0000E+00  0.0000E+00  0.0000E+00
     -8.155  0.0000E+00  0.0000E+00  0.0000E+00  0.0000E+00
     -8.149  0.0000E+00  0.0000E+00  0.0000E+00  0.0000E+00
     -8.143  0.0000E+00  0.0000E+00  0.0000E+00  0.0000E+00
     -8.137  0.0000E+00  0.0000E+00  0.0000E+00  0.0000E+00
     -8.131  0.0000E+00  0.0000E+00  0.0000E+00  0.0000E+00
     -8.124  0.0000E+00  0.0000E+00  0.0000E+00  0.0000E+00
     -8.118  0.0000E+00  0.0000E+00  0.0000E+00  0.0000E+00
     -8.112  0.0000E+00  0.0000E+00  0.0000E+00  0.0000E+00
     -8.106  0.0000E+00  0.0000E+00  0.0000E+00  0.0000E+00
     -8.100  0.0000E+00  0.0000E+00  0.0000E+00  0.0000E+00
     -8.094  0.0000E+00  0.0000E+00  0.0000E+00  0.0000E+00
     -8.088  0.0000E+00  0.0000E+00  0.0000E+00  0.0000E+00
     -8.082  0.0000E+00  0.0000E+00  0.0000E+00  0.0000E+00
     -8.075  0.0000E+00  0.0000E+00  0.0000E+00  0.0000E+00
     -8.069  0.0000E+00  0.0000E+00  0.0000E+00  0.0000E+00
     -8.063  0.0000E+00  0.0000E+00  0.0000E+00  0.0000E+00
     -8.057  0.0000E+00  0.0000E+00  0.0000E+00  0.0000E+00
     -8.051  0.0000E+00  0.0000E+00  0.0000E+00  0.0000E+00
     -8.045  0.0000E+00  0.0000E+00  0.0000E+00  0.0000E+00
     -8.039  0.0000E+00  0.0000E+00  0.0000E+00  0.0000E+00
     -8.033  0.0000E+00  0.0000E+00  0.0000E+00  0.0000E+00
     -8.027  0.0000E+00  0.0000E+00  0.0000E+00  0.0000E+00
     -8.020  0.0000E+00  0.0000E+00  0.0000E+00  0.0000E+00
     -8.014  0.0000E+00  0.0000E+00  0.0000E+00  0.0000E+00
     -8.008  0.0000E+00  0.0000E+00  0.0000E+00  0.0000E+00
     -8.002  0.0000E+00  0.0000E+00  0.0000E+00  0.0000E+00
     -7.996  0.0000E+00  0.0000E+00  0.0000E+00  0.0000E+00
     -7.990  0.0000E+00  0.0000E+00  0.0000E+00  0.0000E+00
     -7.984  0.0000E+00  0.0000E+00  0.0000E+00  0.0000E+00
     -7.978  0.0000E+00  0.0000E+00  0.0000E+00  0.0000E+00
     -7.971  0.0000E+00  0.0000E+00  0.0000E+00  0.0000E+00
     -7.965  0.0000E+00  0.0000E+00  0.0000E+00  0.0000E+00
     -7.959  0.0000E+00  0.0000E+00  0.0000E+00  0.0000E+00
     -7.953  0.0000E+00  0.0000E+00  0.0000E+00  0.0000E+00
     -7.947  0.0000E+00  0.0000E+00  0.0000E+00  0.0000E+00
     -7.941  0.0000E+00  0.0000E+00  0.0000E+00  0.0000E+00
     -7.935  0.0000E+00  0.0000E+00  0.0000E+00  0.0000E+00
     -7.929  0.0000E+00  0.0000E+00  0.0000E+00  0.0000E+00
     -7.923  0.0000E+00  0.0000E+00  0.0000E+00  0.0000E+00
     -7.916  0.0000E+00  0.0000E+00  0.0000E+00  0.0000E+00
     -7.910  0.0000E+00  0.0000E+00  0.0000E+00  0.0000E+00
     -7.904  0.0000E+00  0.0000E+00  0.0000E+00  0.0000E+00
     -7.898  0.0000E+00  0.0000E+00  0.0000E+00  0.0000E+00
     -7.892  0.0000E+00  0.0000E+00  0.0000E+00  0.0000E+00
     -7.886  0.0000E+00  0.0000E+00  0.0000E+00  0.0000E+00
     -7.880  0.0000E+00  0.0000E+00  0.0000E+00  0.0000E+00
     -7.874  0.0000E+00  0.0000E+00  0.0000E+00  0.0000E+00
     -7.867  0.0000E+00  0.0000E+00  0.0000E+00  0.0000E+00
     -7.861  0.0000E+00  0.0000E+00  0.0000E+00  0.0000E+00
     -7.855  0.0000E+00  0.0000E+00  0.0000E+00  0.0000E+00
     -7.849  0.0000E+00  0.0000E+00  0.0000E+00  0.0000E+00
     -7.843  0.0000E+00  0.0000E+00  0.0000E+00  0.0000E+00
     -7.837  0.0000E+00  0.0000E+00  0.0000E+00  0.0000E+00
     -7.831  0.0000E+00  0.0000E+00  0.0000E+00  0.0000E+00
     -7.825  0.0000E+00  0.0000E+00  0.0000E+00  0.0000E+00
     -7.819  0.0000E+00  0.0000E+00  0.0000E+00  0.0000E+00
     -7.812  0.0000E+00  0.0000E+00  0.0000E+00  0.0000E+00
     -7.806  0.0000E+00  0.0000E+00  0.0000E+00  0.0000E+00
     -7.800  0.0000E+00  0.0000E+00  0.0000E+00  0.0000E+00
     -7.794  0.0000E+00  0.0000E+00  0.0000E+00  0.0000E+00
     -7.788  0.0000E+00  0.0000E+00  0.0000E+00  0.0000E+00
     -7.782  0.0000E+00  0.0000E+00  0.0000E+00  0.0000E+00
     -7.776  0.0000E+00  0.0000E+00  0.0000E+00  0.0000E+00
     -7.770  0.0000E+00  0.0000E+00  0.0000E+00  0.0000E+00
     -7.763  0.0000E+00  0.0000E+00  0.0000E+00  0.0000E+00
     -7.757  0.0000E+00  0.0000E+00  0.0000E+00  0.0000E+00
     -7.751  0.0000E+00  0.0000E+00  0.0000E+00  0.0000E+00
     -7.745  0.0000E+00  0.0000E+00  0.0000E+00  0.0000E+00
     -7.739  0.0000E+00  0.0000E+00  0.0000E+00  0.0000E+00
     -7.733  0.0000E+00  0.0000E+00  0.0000E+00  0.0000E+00
     -7.727  0.0000E+00  0.0000E+00  0.0000E+00  0.0000E+00
     -7.721  0.0000E+00  0.0000E+00  0.0000E+00  0.0000E+00
     -7.715  0.0000E+00  0.0000E+00  0.0000E+00  0.0000E+00
     -7.708  0.0000E+00  0.0000E+00  0.0000E+00  0.0000E+00
     -7.702  0.0000E+00  0.0000E+00  0.0000E+00  0.0000E+00
     -7.696  0.0000E+00  0.0000E+00  0.0000E+00  0.0000E+00
     -7.690  0.0000E+00  0.0000E+00  0.0000E+00  0.0000E+00
     -7.684  0.0000E+00  0.0000E+00  0.0000E+00  0.0000E+00
     -7.678  0.0000E+00  0.0000E+00  0.0000E+00  0.0000E+00
     -7.672  0.0000E+00  0.0000E+00  0.0000E+00  0.0000E+00
     -7.666  0.0000E+00  0.0000E+00  0.0000E+00  0.0000E+00
     -7.659  0.0000E+00  0.0000E+00  0.0000E+00  0.0000E+00
     -7.653  0.0000E+00  0.0000E+00  0.0000E+00  0.0000E+00
     -7.647  0.0000E+00  0.0000E+00  0.0000E+00  0.0000E+00
     -7.641  0.0000E+00  0.0000E+00  0.0000E+00  0.0000E+00
     -7.635  0.0000E+00  0.0000E+00  0.0000E+00  0.0000E+00
     -7.629  0.0000E+00  0.0000E+00  0.0000E+00  0.0000E+00
     -7.623  0.0000E+00  0.0000E+00  0.0000E+00  0.0000E+00
     -7.617  0.0000E+00  0.0000E+00  0.0000E+00  0.0000E+00
     -7.611  0.0000E+00  0.0000E+00  0.0000E+00  0.0000E+00
     -7.604  0.0000E+00  0.0000E+00  0.0000E+00  0.0000E+00
     -7.598  0.0000E+00  0.0000E+00  0.0000E+00  0.0000E+00
     -7.592  0.0000E+00  0.0000E+00  0.0000E+00  0.0000E+00
     -7.586  0.0000E+00  0.0000E+00  0.0000E+00  0.0000E+00
     -7.580  0.0000E+00  0.0000E+00  0.0000E+00  0.0000E+00
     -7.574  0.0000E+00  0.0000E+00  0.0000E+00  0.0000E+00
     -7.568  0.0000E+00  0.0000E+00  0.0000E+00  0.0000E+00
     -7.562  0.0000E+00  0.0000E+00  0.0000E+00  0.0000E+00
     -7.555  0.0000E+00  0.0000E+00  0.0000E+00  0.0000E+00
     -7.549  0.0000E+00  0.0000E+00  0.0000E+00  0.0000E+00
     -7.543  0.0000E+00  0.0000E+00  0.0000E+00  0.0000E+00
     -7.537  0.0000E+00  0.0000E+00  0.0000E+00  0.0000E+00
     -7.531  0.0000E+00  0.0000E+00  0.0000E+00  0.0000E+00
     -7.525  0.0000E+00  0.0000E+00  0.0000E+00  0.0000E+00
     -7.519  0.0000E+00  0.0000E+00  0.0000E+00  0.0000E+00
     -7.513  0.0000E+00  0.0000E+00  0.0000E+00  0.0000E+00
     -7.507  0.0000E+00  0.0000E+00  0.0000E+00  0.0000E+00
     -7.500  0.0000E+00  0.0000E+00  0.0000E+00  0.0000E+00
     -7.494  0.0000E+00  0.0000E+00  0.0000E+00  0.0000E+00
     -7.488  0.0000E+00  0.0000E+00  0.0000E+00  0.0000E+00
     -7.482  0.0000E+00  0.0000E+00  0.0000E+00  0.0000E+00
     -7.476  0.0000E+00  0.0000E+00  0.0000E+00  0.0000E+00
     -7.470  0.0000E+00  0.0000E+00  0.0000E+00  0.0000E+00
     -7.464  0.0000E+00  0.0000E+00  0.0000E+00  0.0000E+00
     -7.458  0.0000E+00  0.0000E+00  0.0000E+00  0.0000E+00
     -7.451  0.0000E+00  0.0000E+00  0.0000E+00  0.0000E+00
     -7.445  0.0000E+00  0.0000E+00  0.0000E+00  0.0000E+00
     -7.439  0.0000E+00  0.0000E+00  0.0000E+00  0.0000E+00
     -7.433  0.0000E+00  0.0000E+00  0.0000E+00  0.0000E+00
     -7.427  0.0000E+00  0.0000E+00  0.0000E+00  0.0000E+00
     -7.421  0.0000E+00  0.0000E+00  0.0000E+00  0.0000E+00
     -7.415  0.0000E+00  0.0000E+00  0.0000E+00  0.0000E+00
     -7.409  0.0000E+00  0.0000E+00  0.0000E+00  0.0000E+00
     -7.403  0.0000E+00  0.0000E+00  0.0000E+00  0.0000E+00
     -7.396  0.0000E+00  0.0000E+00  0.0000E+00  0.0000E+00
     -7.390  0.0000E+00  0.0000E+00  0.0000E+00  0.0000E+00
     -7.384  0.0000E+00  0.0000E+00  0.0000E+00  0.0000E+00
     -7.378  0.0000E+00  0.0000E+00  0.0000E+00  0.0000E+00
     -7.372  0.1363E-19  0.1363E-19  0.8341E-22  0.8341E-22
     -7.366  0.0000E+00  0.0000E+00  0.8341E-22  0.8341E-22
     -7.360  0.0000E+00  0.0000E+00  0.8341E-22  0.8341E-22
     -7.354  0.1363E-19  0.1363E-19  0.1668E-21  0.1668E-21
     -7.347  0.1363E-19  0.1363E-19  0.2502E-21  0.2502E-21
     -7.341  0.1363E-19  0.1363E-19  0.3337E-21  0.3337E-21
     -7.335  0.2727E-19  0.2727E-19  0.5005E-21  0.5005E-21
     -7.329  0.2727E-19  0.2727E-19  0.6673E-21  0.6673E-21
     -7.323  0.4090E-19  0.4090E-19  0.9175E-21  0.9175E-21
     -7.317  0.6817E-19  0.6817E-19  0.1335E-20  0.1335E-20
     -7.311  0.9544E-19  0.9544E-19  0.1918E-20  0.1918E-20
     -7.305  0.1227E-18  0.1227E-18  0.2669E-20  0.2669E-20
     -7.299  0.1773E-18  0.1773E-18  0.3754E-20  0.3754E-20
     -7.292  0.2591E-18  0.2591E-18  0.5338E-20  0.5338E-20
     -7.286  0.3545E-18  0.3545E-18  0.7507E-20  0.7507E-20
     -7.280  0.4908E-18  0.4908E-18  0.1051E-19  0.1051E-19
     -7.274  0.6817E-18  0.6817E-18  0.1468E-19  0.1468E-19
     -7.268  0.1077E-17  0.1077E-17  0.2127E-19  0.2127E-19
     -7.262  0.1323E-17  0.1323E-17  0.2936E-19  0.2936E-19
     -7.256  0.1854E-17  0.1854E-17  0.4071E-19  0.4071E-19
     -7.250  0.2672E-17  0.2672E-17  0.5705E-19  0.5705E-19
     -7.243  0.3640E-17  0.3640E-17  0.7933E-19  0.7933E-19
     -7.237  0.4990E-17  0.4990E-17  0.1099E-18  0.1099E-18
     -7.231  0.6913E-17  0.6913E-17  0.1521E-18  0.1521E-18
     -7.225  0.9558E-17  0.9558E-17  0.2106E-18  0.2106E-18
     -7.219  0.1299E-16  0.1299E-16  0.2901E-18  0.2901E-18
     -7.213  0.1786E-16  0.1786E-16  0.3994E-18  0.3994E-18
     -7.207  0.2456E-16  0.2456E-16  0.5496E-18  0.5496E-18
     -7.201  0.3339E-16  0.3339E-16  0.7539E-18  0.7539E-18
     -7.195  0.4549E-16  0.4549E-16  0.1032E-17  0.1032E-17
     -7.188  0.6193E-16  0.6193E-16  0.1411E-17  0.1411E-17
     -7.182  0.8407E-16  0.8407E-16  0.1925E-17  0.1925E-17
     -7.176  0.1141E-15  0.1141E-15  0.2623E-17  0.2623E-17
     -7.170  0.1542E-15  0.1542E-15  0.3567E-17  0.3567E-17
     -7.164  0.2082E-15  0.2082E-15  0.4841E-17  0.4841E-17
     -7.158  0.2809E-15  0.2809E-15  0.6559E-17  0.6559E-17
     -7.152  0.3778E-15  0.3778E-15  0.8870E-17  0.8870E-17
     -7.146  0.5076E-15  0.5076E-15  0.1198E-16  0.1198E-16
     -7.139  0.6803E-15  0.6803E-15  0.1614E-16  0.1614E-16
     -7.133  0.9106E-15  0.9106E-15  0.2171E-16  0.2171E-16
     -7.127  0.1216E-14  0.1216E-14  0.2915E-16  0.2915E-16
     -7.121  0.1622E-14  0.1622E-14  0.3907E-16  0.3907E-16
     -7.115  0.2159E-14  0.2159E-14  0.5228E-16  0.5228E-16
     -7.109  0.2868E-14  0.2868E-14  0.6982E-16  0.6982E-16
     -7.103  0.3803E-14  0.3803E-14  0.9308E-16  0.9308E-16
     -7.097  0.5034E-14  0.5034E-14  0.1239E-15  0.1239E-15
     -7.091  0.6651E-14  0.6651E-14  0.1646E-15  0.1646E-15
     -7.084  0.8773E-14  0.8773E-14  0.2182E-15  0.2182E-15
     -7.078  0.1155E-13  0.1155E-13  0.2889E-15  0.2889E-15
     -7.072  0.1518E-13  0.1518E-13  0.3817E-15  0.3817E-15
     -7.066  0.1991E-13  0.1991E-13  0.5036E-15  0.5036E-15
     -7.060  0.2607E-13  0.2607E-13  0.6630E-15  0.6630E-15
     -7.054  0.3408E-13  0.3408E-13  0.8715E-15  0.8715E-15
     -7.048  0.4446E-13  0.4446E-13  0.1144E-14  0.1144E-14
     -7.042  0.5790E-13  0.5790E-13  0.1498E-14  0.1498E-14
     -7.035  0.7528E-13  0.7528E-13  0.1958E-14  0.1958E-14
     -7.029  0.9769E-13  0.9769E-13  0.2556E-14  0.2556E-14
     -7.023  0.1265E-12  0.1265E-12  0.3330E-14  0.3330E-14
     -7.017  0.1636E-12  0.1636E-12  0.4331E-14  0.4331E-14
     -7.011  0.2112E-12  0.2112E-12  0.5623E-14  0.5623E-14
     -7.005  0.2722E-12  0.2722E-12  0.7288E-14  0.7288E-14
     -6.999  0.3500E-12  0.3500E-12  0.9430E-14  0.9430E-14
     -6.993  0.4494E-12  0.4494E-12  0.1218E-13  0.1218E-13
     -6.987  0.5760E-12  0.5760E-12  0.1570E-13  0.1570E-13
     -6.980  0.7369E-12  0.7369E-12  0.2021E-13  0.2021E-13
     -6.974  0.9411E-12  0.9411E-12  0.2597E-13  0.2597E-13
     -6.968  0.1200E-11  0.1200E-11  0.3331E-13  0.3331E-13
     -6.962  0.1527E-11  0.1527E-11  0.4265E-13  0.4265E-13
     -6.956  0.1940E-11  0.1940E-11  0.5451E-13  0.5451E-13
     -6.950  0.2460E-11  0.2460E-11  0.6956E-13  0.6956E-13
     -6.944  0.3114E-11  0.3114E-11  0.8861E-13  0.8861E-13
     -6.938  0.3935E-11  0.3935E-11  0.1127E-12  0.1127E-12
     -6.931  0.4963E-11  0.4963E-11  0.1430E-12  0.1430E-12
     -6.925  0.6250E-11  0.6250E-11  0.1813E-12  0.1813E-12
     -6.919  0.7857E-11  0.7857E-11  0.2293E-12  0.2293E-12
     -6.913  0.9860E-11  0.9860E-11  0.2897E-12  0.2897E-12
     -6.907  0.1235E-10  0.1235E-10  0.3652E-12  0.3652E-12
     -6.901  0.1545E-10  0.1545E-10  0.4597E-12  0.4597E-12
     -6.895  0.1928E-10  0.1928E-10  0.5777E-12  0.5777E-12
     -6.889  0.2403E-10  0.2403E-10  0.7247E-12  0.7247E-12
     -6.883  0.2990E-10  0.2990E-10  0.9076E-12  0.9076E-12
     -6.876  0.3713E-10  0.3713E-10  0.1135E-11  0.1135E-11
     -6.870  0.4604E-10  0.4604E-10  0.1416E-11  0.1416E-11
     -6.864  0.5699E-10  0.5699E-10  0.1765E-11  0.1765E-11
     -6.858  0.7042E-10  0.7042E-10  0.2196E-11  0.2196E-11
     -6.852  0.8686E-10  0.8686E-10  0.2727E-11  0.2727E-11
     -6.846  0.1070E-09  0.1070E-09  0.3382E-11  0.3382E-11
     -6.840  0.1315E-09  0.1315E-09  0.4186E-11  0.4186E-11
     -6.834  0.1614E-09  0.1614E-09  0.5173E-11  0.5173E-11
     -6.827  0.1977E-09  0.1977E-09  0.6383E-11  0.6383E-11
     -6.821  0.2418E-09  0.2418E-09  0.7862E-11  0.7862E-11
     -6.815  0.2953E-09  0.2953E-09  0.9669E-11  0.9669E-11
     -6.809  0.3600E-09  0.3600E-09  0.1187E-10  0.1187E-10
     -6.803  0.4382E-09  0.4382E-09  0.1455E-10  0.1455E-10
     -6.797  0.5324E-09  0.5324E-09  0.1781E-10  0.1781E-10
     -6.791  0.6457E-09  0.6457E-09  0.2176E-10  0.2176E-10
     -6.785  0.7820E-09  0.7820E-09  0.2654E-10  0.2654E-10
     -6.779  0.9454E-09  0.9454E-09  0.3233E-10  0.3233E-10
     -6.772  0.1141E-08  0.1141E-08  0.3931E-10  0.3931E-10
     -6.766  0.1375E-08  0.1375E-08  0.4772E-10  0.4772E-10
     -6.760  0.1654E-08  0.1654E-08  0.5784E-10  0.5784E-10
     -6.754  0.1987E-08  0.1987E-08  0.7000E-10  0.7000E-10
     -6.748  0.2382E-08  0.2382E-08  0.8457E-10  0.8457E-10
     -6.742  0.2852E-08  0.2852E-08  0.1020E-09  0.1020E-09
     -6.736  0.3409E-08  0.3409E-08  0.1229E-09  0.1229E-09
     -6.730  0.4068E-08  0.4068E-08  0.1478E-09  0.1478E-09
     -6.723  0.4846E-08  0.4846E-08  0.1774E-09  0.1774E-09
     -6.717  0.5765E-08  0.5765E-08  0.2127E-09  0.2127E-09
     -6.711  0.6846E-08  0.6846E-08  0.2546E-09  0.2546E-09
     -6.705  0.8116E-08  0.8116E-08  0.3042E-09  0.3042E-09
     -6.699  0.9608E-08  0.9608E-08  0.3630E-09  0.3630E-09
     -6.693  0.1135E-07  0.1135E-07  0.4325E-09  0.4325E-09
     -6.687  0.1340E-07  0.1340E-07  0.5144E-09  0.5144E-09
     -6.681  0.1578E-07  0.1578E-07  0.6110E-09  0.6110E-09
     -6.675  0.1857E-07  0.1857E-07  0.7246E-09  0.7246E-09
     -6.668  0.2180E-07  0.2180E-07  0.8580E-09  0.8580E-09
     -6.662  0.2557E-07  0.2557E-07  0.1014E-08  0.1014E-08
     -6.656  0.2993E-07  0.2993E-07  0.1197E-08  0.1197E-08
     -6.650  0.3498E-07  0.3498E-07  0.1411E-08  0.1411E-08
     -6.644  0.4082E-07  0.4082E-07  0.1661E-08  0.1661E-08
     -6.638  0.4757E-07  0.4757E-07  0.1952E-08  0.1952E-08
     -6.632  0.5534E-07  0.5534E-07  0.2291E-08  0.2291E-08
     -6.626  0.6428E-07  0.6428E-07  0.2684E-08  0.2684E-08
     -6.619  0.7454E-07  0.7454E-07  0.3140E-08  0.3140E-08
     -6.613  0.8631E-07  0.8631E-07  0.3668E-08  0.3668E-08
     -6.607  0.9979E-07  0.9979E-07  0.4278E-08  0.4278E-08
     -6.601  0.1152E-06  0.1152E-06  0.4983E-08  0.4983E-08
     -6.595  0.1328E-06  0.1328E-06  0.5795E-08  0.5795E-08
     -6.589  0.1528E-06  0.1528E-06  0.6730E-08  0.6730E-08
     -6.583  0.1755E-06  0.1755E-06  0.7804E-08  0.7804E-08
     -6.577  0.2014E-06  0.2014E-06  0.9036E-08  0.9036E-08
     -6.571  0.2307E-06  0.2307E-06  0.1045E-07  0.1045E-07
     -6.564  0.2638E-06  0.2638E-06  0.1206E-07  0.1206E-07
     -6.558  0.3012E-06  0.3012E-06  0.1390E-07  0.1390E-07
     -6.552  0.3435E-06  0.3435E-06  0.1600E-07  0.1600E-07
     -6.546  0.3910E-06  0.3910E-06  0.1840E-07  0.1840E-07
     -6.540  0.4444E-06  0.4444E-06  0.2112E-07  0.2112E-07
     -6.534  0.5044E-06  0.5044E-06  0.2420E-07  0.2420E-07
     -6.528  0.5715E-06  0.5715E-06  0.2770E-07  0.2770E-07
     -6.522  0.6466E-06  0.6466E-06  0.3165E-07  0.3165E-07
     -6.515  0.7305E-06  0.7305E-06  0.3612E-07  0.3612E-07
     -6.509  0.8240E-06  0.8240E-06  0.4116E-07  0.4116E-07
     -6.503  0.9280E-06  0.9280E-06  0.4684E-07  0.4684E-07
     -6.497  0.1044E-05  0.1044E-05  0.5322E-07  0.5322E-07
     -6.491  0.1172E-05  0.1172E-05  0.6039E-07  0.6039E-07
     -6.485  0.1314E-05  0.1314E-05  0.6843E-07  0.6843E-07
     -6.479  0.1470E-05  0.1470E-05  0.7742E-07  0.7742E-07
     -6.473  0.1643E-05  0.1643E-05  0.8748E-07  0.8748E-07
     -6.467  0.1834E-05  0.1834E-05  0.9870E-07  0.9870E-07
     -6.460  0.2043E-05  0.2043E-05  0.1112E-06  0.1112E-06
     -6.454  0.2273E-05  0.2273E-05  0.1251E-06  0.1251E-06
     -6.448  0.2525E-05  0.2525E-05  0.1406E-06  0.1406E-06
     -6.442  0.2801E-05  0.2801E-05  0.1577E-06  0.1577E-06
     -6.436  0.3102E-05  0.3102E-05  0.1767E-06  0.1767E-06
     -6.430  0.3430E-05  0.3430E-05  0.1976E-06  0.1976E-06
     -6.424  0.3787E-05  0.3787E-05  0.2208E-06  0.2208E-06
     -6.418  0.4174E-05  0.4174E-05  0.2463E-06  0.2463E-06
     -6.411  0.4595E-05  0.4595E-05  0.2745E-06  0.2745E-06
     -6.405  0.5050E-05  0.5050E-05  0.3054E-06  0.3054E-06
     -6.399  0.5542E-05  0.5542E-05  0.3393E-06  0.3393E-06
     -6.393  0.6072E-05  0.6072E-05  0.3764E-06  0.3764E-06
     -6.387  0.6643E-05  0.6643E-05  0.4170E-06  0.4170E-06
     -6.381  0.7257E-05  0.7257E-05  0.4614E-06  0.4614E-06
     -6.375  0.7916E-05  0.7916E-05  0.5099E-06  0.5099E-06
     -6.369  0.8621E-05  0.8621E-05  0.5626E-06  0.5626E-06
     -6.363  0.9375E-05  0.9375E-05  0.6200E-06  0.6200E-06
     -6.356  0.1018E-04  0.1018E-04  0.6822E-06  0.6822E-06
     -6.350  0.1104E-04  0.1104E-04  0.7498E-06  0.7498E-06
     -6.344  0.1195E-04  0.1195E-04  0.8229E-06  0.8229E-06
     -6.338  0.1292E-04  0.1292E-04  0.9019E-06  0.9019E-06
     -6.332  0.1394E-04  0.1394E-04  0.9872E-06  0.9872E-06
     -6.326  0.1503E-04  0.1503E-04  0.1079E-05  0.1079E-05
     -6.320  0.1617E-04  0.1617E-04  0.1178E-05  0.1178E-05
     -6.314  0.1738E-04  0.1738E-04  0.1284E-05  0.1284E-05
     -6.307  0.1865E-04  0.1865E-04  0.1399E-05  0.1399E-05
     -6.301  0.1999E-04  0.1999E-04  0.1521E-05  0.1521E-05
     -6.295  0.2139E-04  0.2139E-04  0.1652E-05  0.1652E-05
     -6.289  0.2285E-04  0.2285E-04  0.1791E-05  0.1791E-05
     -6.283  0.2438E-04  0.2438E-04  0.1941E-05  0.1941E-05
     -6.277  0.2598E-04  0.2598E-04  0.2100E-05  0.2100E-05
     -6.271  0.2764E-04  0.2764E-04  0.2269E-05  0.2269E-05
     -6.265  0.2937E-04  0.2937E-04  0.2448E-05  0.2448E-05
     -6.259  0.3117E-04  0.3117E-04  0.2639E-05  0.2639E-05
     -6.252  0.3303E-04  0.3303E-04  0.2841E-05  0.2841E-05
     -6.246  0.3495E-04  0.3495E-04  0.3055E-05  0.3055E-05
     -6.240  0.3694E-04  0.3694E-04  0.3281E-05  0.3281E-05
     -6.234  0.3898E-04  0.3898E-04  0.3519E-05  0.3519E-05
     -6.228  0.4109E-04  0.4109E-04  0.3771E-05  0.3771E-05
     -6.222  0.4326E-04  0.4326E-04  0.4035E-05  0.4035E-05
     -6.216  0.4549E-04  0.4549E-04  0.4314E-05  0.4314E-05
     -6.210  0.4777E-04  0.4777E-04  0.4606E-05  0.4606E-05
     -6.203  0.5011E-04  0.5011E-04  0.4912E-05  0.4912E-05
     -6.197  0.5250E-04  0.5250E-04  0.5234E-05  0.5234E-05
     -6.191  0.5494E-04  0.5494E-04  0.5570E-05  0.5570E-05
     -6.185  0.5742E-04  0.5742E-04  0.5921E-05  0.5921E-05
     -6.179  0.5995E-04  0.5995E-04  0.6288E-05  0.6288E-05
     -6.173  0.6253E-04  0.6253E-04  0.6670E-05  0.6670E-05
     -6.167  0.6515E-04  0.6515E-04  0.7069E-05  0.7069E-05
     -6.161  0.6780E-04  0.6780E-04  0.7484E-05  0.7484E-05
     -6.155  0.7050E-04  0.7050E-04  0.7915E-05  0.7915E-05
     -6.148  0.7323E-04  0.7323E-04  0.8363E-05  0.8363E-05
     -6.142  0.7599E-04  0.7599E-04  0.8828E-05  0.8828E-05
     -6.136  0.7879E-04  0.7879E-04  0.9310E-05  0.9310E-05
     -6.130  0.8161E-04  0.8161E-04  0.9809E-05  0.9809E-05
     -6.124  0.8446E-04  0.8446E-04  0.1033E-04  0.1033E-04
     -6.118  0.8734E-04  0.8734E-04  0.1086E-04  0.1086E-04
     -6.112  0.9024E-04  0.9024E-04  0.1141E-04  0.1141E-04
     -6.106  0.9317E-04  0.9317E-04  0.1198E-04  0.1198E-04
     -6.099  0.9612E-04  0.9612E-04  0.1257E-04  0.1257E-04
     -6.093  0.9909E-04  0.9909E-04  0.1318E-04  0.1318E-04
     -6.087  0.1021E-03  0.1021E-03  0.1380E-04  0.1380E-04
     -6.081  0.1051E-03  0.1051E-03  0.1444E-04  0.1444E-04
     -6.075  0.1081E-03  0.1081E-03  0.1511E-04  0.1511E-04
     -6.069  0.1112E-03  0.1112E-03  0.1579E-04  0.1579E-04
     -6.063  0.1142E-03  0.1142E-03  0.1648E-04  0.1648E-04
     -6.057  0.1173E-03  0.1173E-03  0.1720E-04  0.1720E-04
     -6.051  0.1204E-03  0.1204E-03  0.1794E-04  0.1794E-04
     -6.044  0.1235E-03  0.1235E-03  0.1869E-04  0.1869E-04
     -6.038  0.1266E-03  0.1266E-03  0.1947E-04  0.1947E-04
     -6.032  0.1298E-03  0.1298E-03  0.2026E-04  0.2026E-04
     -6.026  0.1329E-03  0.1329E-03  0.2108E-04  0.2108E-04
     -6.020  0.1360E-03  0.1360E-03  0.2191E-04  0.2191E-04
     -6.014  0.1392E-03  0.1392E-03  0.2276E-04  0.2276E-04
     -6.008  0.1424E-03  0.1424E-03  0.2363E-04  0.2363E-04
     -6.002  0.1455E-03  0.1455E-03  0.2452E-04  0.2452E-04
     -5.995  0.1487E-03  0.1487E-03  0.2543E-04  0.2543E-04
     -5.989  0.1518E-03  0.1518E-03  0.2636E-04  0.2636E-04
     -5.983  0.1549E-03  0.1549E-03  0.2731E-04  0.2731E-04
     -5.977  0.1581E-03  0.1581E-03  0.2827E-04  0.2827E-04
     -5.971  0.1612E-03  0.1612E-03  0.2926E-04  0.2926E-04
     -5.965  0.1643E-03  0.1643E-03  0.3026E-04  0.3026E-04
     -5.959  0.1673E-03  0.1673E-03  0.3129E-04  0.3129E-04
     -5.953  0.1704E-03  0.1704E-03  0.3233E-04  0.3233E-04
     -5.947  0.1734E-03  0.1734E-03  0.3339E-04  0.3339E-04
     -5.940  0.1763E-03  0.1763E-03  0.3447E-04  0.3447E-04
     -5.934  0.1792E-03  0.1792E-03  0.3557E-04  0.3557E-04
     -5.928  0.1821E-03  0.1821E-03  0.3668E-04  0.3668E-04
     -5.922  0.1849E-03  0.1849E-03  0.3781E-04  0.3781E-04
     -5.916  0.1876E-03  0.1876E-03  0.3896E-04  0.3896E-04
     -5.910  0.1903E-03  0.1903E-03  0.4012E-04  0.4012E-04
     -5.904  0.1929E-03  0.1929E-03  0.4130E-04  0.4130E-04
     -5.898  0.1954E-03  0.1954E-03  0.4250E-04  0.4250E-04
     -5.891  0.1979E-03  0.1979E-03  0.4371E-04  0.4371E-04
     -5.885  0.2002E-03  0.2002E-03  0.4493E-04  0.4493E-04
     -5.879  0.2025E-03  0.2025E-03  0.4617E-04  0.4617E-04
     -5.873  0.2047E-03  0.2047E-03  0.4743E-04  0.4743E-04
     -5.867  0.2068E-03  0.2068E-03  0.4869E-04  0.4869E-04
     -5.861  0.2088E-03  0.2088E-03  0.4997E-04  0.4997E-04
     -5.855  0.2107E-03  0.2107E-03  0.5126E-04  0.5126E-04
     -5.849  0.2125E-03  0.2125E-03  0.5256E-04  0.5256E-04
     -5.843  0.2143E-03  0.2143E-03  0.5387E-04  0.5387E-04
     -5.836  0.2159E-03  0.2159E-03  0.5519E-04  0.5519E-04
     -5.830  0.2175E-03  0.2175E-03  0.5652E-04  0.5652E-04
     -5.824  0.2189E-03  0.2189E-03  0.5786E-04  0.5786E-04
     -5.818  0.2203E-03  0.2203E-03  0.5921E-04  0.5921E-04
     -5.812  0.2216E-03  0.2216E-03  0.6056E-04  0.6056E-04
     -5.806  0.2229E-03  0.2229E-03  0.6193E-04  0.6193E-04
     -5.800  0.2241E-03  0.2241E-03  0.6330E-04  0.6330E-04
     -5.794  0.2252E-03  0.2252E-03  0.6468E-04  0.6468E-04
     -5.787  0.2263E-03  0.2263E-03  0.6606E-04  0.6606E-04
     -5.781  0.2274E-03  0.2274E-03  0.6745E-04  0.6745E-04
     -5.775  0.2284E-03  0.2284E-03  0.6885E-04  0.6885E-04
     -5.769  0.2295E-03  0.2295E-03  0.7025E-04  0.7025E-04
     -5.763  0.2305E-03  0.2305E-03  0.7166E-04  0.7166E-04
     -5.757  0.2316E-03  0.2316E-03  0.7308E-04  0.7308E-04
     -5.751  0.2326E-03  0.2326E-03  0.7450E-04  0.7450E-04
     -5.745  0.2337E-03  0.2337E-03  0.7593E-04  0.7593E-04
     -5.739  0.2349E-03  0.2349E-03  0.7737E-04  0.7737E-04
     -5.732  0.2360E-03  0.2360E-03  0.7881E-04  0.7881E-04
     -5.726  0.2373E-03  0.2373E-03  0.8027E-04  0.8027E-04
     -5.720  0.2386E-03  0.2386E-03  0.8172E-04  0.8172E-04
     -5.714  0.2400E-03  0.2400E-03  0.8319E-04  0.8319E-04
     -5.708  0.2415E-03  0.2415E-03  0.8467E-04  0.8467E-04
     -5.702  0.2431E-03  0.2431E-03  0.8616E-04  0.8616E-04
     -5.696  0.2448E-03  0.2448E-03  0.8766E-04  0.8766E-04
     -5.690  0.2466E-03  0.2466E-03  0.8916E-04  0.8916E-04
     -5.683  0.2485E-03  0.2485E-03  0.9068E-04  0.9068E-04
     -5.677  0.2505E-03  0.2505E-03  0.9222E-04  0.9222E-04
     -5.671  0.2526E-03  0.2526E-03  0.9376E-04  0.9376E-04
     -5.665  0.2549E-03  0.2549E-03  0.9532E-04  0.9532E-04
     -5.659  0.2572E-03  0.2572E-03  0.9690E-04  0.9690E-04
     -5.653  0.2597E-03  0.2597E-03  0.9848E-04  0.9848E-04
     -5.647  0.2623E-03  0.2623E-03  0.1001E-03  0.1001E-03
     -5.641  0.2650E-03  0.2650E-03  0.1017E-03  0.1017E-03
     -5.635  0.2677E-03  0.2677E-03  0.1033E-03  0.1033E-03
     -5.628  0.2706E-03  0.2706E-03  0.1050E-03  0.1050E-03
     -5.622  0.2735E-03  0.2735E-03  0.1067E-03  0.1067E-03
     -5.616  0.2766E-03  0.2766E-03  0.1084E-03  0.1084E-03
     -5.610  0.2796E-03  0.2796E-03  0.1101E-03  0.1101E-03
     -5.604  0.2828E-03  0.2828E-03  0.1118E-03  0.1118E-03
     -5.598  0.2860E-03  0.2860E-03  0.1136E-03  0.1136E-03
     -5.592  0.2892E-03  0.2892E-03  0.1153E-03  0.1153E-03
     -5.586  0.2924E-03  0.2924E-03  0.1171E-03  0.1171E-03
     -5.579  0.2956E-03  0.2956E-03  0.1189E-03  0.1189E-03
     -5.573  0.2988E-03  0.2988E-03  0.1208E-03  0.1208E-03
     -5.567  0.3020E-03  0.3020E-03  0.1226E-03  0.1226E-03
     -5.561  0.3052E-03  0.3052E-03  0.1245E-03  0.1245E-03
     -5.555  0.3083E-03  0.3083E-03  0.1264E-03  0.1264E-03
     -5.549  0.3113E-03  0.3113E-03  0.1283E-03  0.1283E-03
     -5.543  0.3143E-03  0.3143E-03  0.1302E-03  0.1302E-03
     -5.537  0.3172E-03  0.3172E-03  0.1321E-03  0.1321E-03
     -5.531  0.3200E-03  0.3200E-03  0.1341E-03  0.1341E-03
     -5.524  0.3227E-03  0.3227E-03  0.1361E-03  0.1361E-03
     -5.518  0.3253E-03  0.3253E-03  0.1380E-03  0.1380E-03
     -5.512  0.3277E-03  0.3277E-03  0.1400E-03  0.1400E-03
     -5.506  0.3300E-03  0.3300E-03  0.1421E-03  0.1421E-03
     -5.500  0.3322E-03  0.3322E-03  0.1441E-03  0.1441E-03
     -5.494  0.3343E-03  0.3343E-03  0.1461E-03  0.1461E-03
     -5.488  0.3362E-03  0.3362E-03  0.1482E-03  0.1482E-03
     -5.482  0.3380E-03  0.3380E-03  0.1503E-03  0.1503E-03
     -5.475  0.3396E-03  0.3396E-03  0.1523E-03  0.1523E-03
     -5.469  0.3411E-03  0.3411E-03  0.1544E-03  0.1544E-03
     -5.463  0.3424E-03  0.3424E-03  0.1565E-03  0.1565E-03
     -5.457  0.3435E-03  0.3435E-03  0.1586E-03  0.1586E-03
     -5.451  0.3445E-03  0.3445E-03  0.1607E-03  0.1607E-03
     -5.445  0.3454E-03  0.3454E-03  0.1628E-03  0.1628E-03
     -5.439  0.3461E-03  0.3461E-03  0.1650E-03  0.1650E-03
     -5.433  0.3467E-03  0.3467E-03  0.1671E-03  0.1671E-03
     -5.427  0.3471E-03  0.3471E-03  0.1692E-03  0.1692E-03
     -5.420  0.3474E-03  0.3474E-03  0.1713E-03  0.1713E-03
     -5.414  0.3476E-03  0.3476E-03  0.1735E-03  0.1735E-03
     -5.408  0.3476E-03  0.3476E-03  0.1756E-03  0.1756E-03
     -5.402  0.3475E-03  0.3475E-03  0.1777E-03  0.1777E-03
     -5.396  0.3473E-03  0.3473E-03  0.1798E-03  0.1798E-03
     -5.390  0.3471E-03  0.3471E-03  0.1820E-03  0.1820E-03
     -5.384  0.3467E-03  0.3467E-03  0.1841E-03  0.1841E-03
     -5.378  0.3462E-03  0.3462E-03  0.1862E-03  0.1862E-03
     -5.371  0.3457E-03  0.3457E-03  0.1883E-03  0.1883E-03
     -5.365  0.3451E-03  0.3451E-03  0.1904E-03  0.1904E-03
     -5.359  0.3444E-03  0.3444E-03  0.1925E-03  0.1925E-03
     -5.353  0.3438E-03  0.3438E-03  0.1946E-03  0.1946E-03
     -5.347  0.3430E-03  0.3430E-03  0.1967E-03  0.1967E-03
     -5.341  0.3423E-03  0.3423E-03  0.1988E-03  0.1988E-03
     -5.335  0.3415E-03  0.3415E-03  0.2009E-03  0.2009E-03
     -5.329  0.3408E-03  0.3408E-03  0.2030E-03  0.2030E-03
     -5.323  0.3400E-03  0.3400E-03  0.2051E-03  0.2051E-03
     -5.316  0.3393E-03  0.3393E-03  0.2072E-03  0.2072E-03
     -5.310  0.3386E-03  0.3386E-03  0.2092E-03  0.2092E-03
     -5.304  0.3380E-03  0.3380E-03  0.2113E-03  0.2113E-03
     -5.298  0.3375E-03  0.3375E-03  0.2134E-03  0.2134E-03
     -5.292  0.3370E-03  0.3370E-03  0.2154E-03  0.2154E-03
     -5.286  0.3366E-03  0.3366E-03  0.2175E-03  0.2175E-03
     -5.280  0.3363E-03  0.3363E-03  0.2195E-03  0.2195E-03
     -5.274  0.3361E-03  0.3361E-03  0.2216E-03  0.2216E-03
     -5.267  0.3361E-03  0.3361E-03  0.2237E-03  0.2237E-03
     -5.261  0.3362E-03  0.3362E-03  0.2257E-03  0.2257E-03
     -5.255  0.3365E-03  0.3365E-03  0.2278E-03  0.2278E-03
     -5.249  0.3369E-03  0.3369E-03  0.2298E-03  0.2298E-03
     -5.243  0.3375E-03  0.3375E-03  0.2319E-03  0.2319E-03
     -5.237  0.3383E-03  0.3383E-03  0.2340E-03  0.2340E-03
     -5.231  0.3393E-03  0.3393E-03  0.2360E-03  0.2360E-03
     -5.225  0.3405E-03  0.3405E-03  0.2381E-03  0.2381E-03
     -5.219  0.3419E-03  0.3419E-03  0.2402E-03  0.2402E-03
     -5.212  0.3435E-03  0.3435E-03  0.2423E-03  0.2423E-03
     -5.206  0.3454E-03  0.3454E-03  0.2444E-03  0.2444E-03
     -5.200  0.3475E-03  0.3475E-03  0.2466E-03  0.2466E-03
     -5.194  0.3498E-03  0.3498E-03  0.2487E-03  0.2487E-03
     -5.188  0.3523E-03  0.3523E-03  0.2509E-03  0.2509E-03
     -5.182  0.3551E-03  0.3551E-03  0.2530E-03  0.2530E-03
     -5.176  0.3581E-03  0.3581E-03  0.2552E-03  0.2552E-03
     -5.170  0.3614E-03  0.3614E-03  0.2574E-03  0.2574E-03
     -5.163  0.3648E-03  0.3648E-03  0.2597E-03  0.2597E-03