    2    2  500    2
  0.2044415E+02  0.3866974E-09  0.3866975E-09  0.3866975E-09  0.5000000E-15
  1.000000000000000E-004
  CAR 
 unknown system                          
    8   56   12
 
  0.0000000E+00  0.0000000E+00  0.0000000E+00  0.7513148E-03
   1       -6.191733     -6.191733
   2        5.459106      5.459106
   3        5.459107      5.459107
   4        5.459108      5.459108
   5        8.074296      8.074296
   6        8.074299      8.074299
   7        8.074300      8.074300
   8        8.530021      8.530021
   9       13.214160     13.214160
  10       13.214163     13.214163
  11       13.348614     13.348614
  12       16.655624     16.655623
 
  0.9090909E-01  0.3469447E-17  0.0000000E+00  0.6010518E-02
   1       -6.086870     -6.086870
   2        4.496156      4.496156
   3        5.302159      5.302159
   4        5.302161      5.302161
   5        8.037753      8.037753
   6        8.308327      8.308327
   7        8.308330      8.308330
   8        9.359220      9.359220
   9       12.915643     12.915643
  10       12.915646     12.915646
  11       13.788113     13.788113
  12       16.300392     16.300392
 
  0.1818182E+00  0.6938894E-17  0.0000000E+00  0.6010518E-02
   1       -5.776513     -5.776513
   2        2.864758      2.864758
   3        4.977794      4.977794
   4        4.977796      4.977796
   5        7.709071      7.709071
   6        8.766750      8.766750
   7        8.766753      8.766753
   8       10.943271     10.943271
   9       12.568571     12.568571
  10       12.568572     12.568572
  11       14.530496     14.530496
  12       16.139504     16.139504
 
  0.2727273E+00  0.1387779E-16  0.0000000E+00  0.6010518E-02
   1       -5.277411     -5.277411
   2        1.253961      1.253961
   3        4.665873      4.665873
   4        4.665875      4.665875
   5        7.361951      7.361951
   6        9.024847      9.024847
   7        9.024850      9.024850
   8       12.509774     12.509774
   9       12.830583     12.830583
  10       12.830584     12.830584
  11       14.337512     14.337512
  12       17.607739     17.607739
 
  0.3636364E+00  0.1387779E-16  0.0000000E+00  0.6010518E-02
   1       -4.640928     -4.640928
   2       -0.155803     -0.155803
   3        4.440906      4.440906
   4        4.440909      4.440909
   5        7.102869      7.102869
   6        8.986153      8.986153
   7        8.986156      8.986156
   8       13.325048     13.325048
   9       13.841999     13.841999
  10       13.842001     13.842001
  11       14.734305     14.734305
  12       19.179275     19.179275
 
  0.4545455E+00  0.2775558E-16  0.0000000E+00  0.6010518E-02
   1       -4.057727     -4.057727
   2       -1.132913     -1.132913
   3        4.325712      4.325712
   4        4.325714      4.325714
   5        6.967970      6.967970
   6        8.890455      8.890455
   7        8.890458      8.890458
   8       13.236761     13.236761
   9       15.331054     15.331054
  10       15.331057     15.331057
  11       16.147292     16.147292
  12       17.318139     17.318138
 
  0.9090909E-01  0.9090909E-01  0.0000000E+00  0.4507889E-02
   1       -6.051708     -6.051708
   2        4.647387      4.647387
   3        4.997114      4.997114
   4        4.997114      4.997114
   5        7.764910      7.764910
   6        8.708214      8.708214
   7        8.708214      8.708214
   8        9.277615      9.277615
   9       12.365881     12.365881
  10       13.370461     13.370461
  11       13.936456     13.936456
  12       16.901016     16.901016
 
  0.1818182E+00  0.9090909E-01  0.0000000E+00  0.1803156E-01
   1       -5.809063     -5.809063
   2        3.337065      3.337065
   3        4.618217      4.618217
   4        4.782022      4.782022
   5        7.789073      7.789073
   6        8.712817      8.712817
   7        9.280031      9.280031
   8       10.303670     10.303670
   9       12.076484     12.076484
  10       13.329777     13.329777
  11       14.734049     14.734049
  12       16.508980     16.508980
 
  0.2727273E+00  0.9090909E-01  0.0000000E+00  0.1803156E-01
   1       -5.370288     -5.370288
   2        1.767128      1.767128
   3        4.309821      4.309821
   4        4.422465      4.422465
   5        7.870727      7.870727
   6        8.739362      8.739362
   7        9.634535      9.634535
   8       10.816994     10.816994
   9       13.047809     13.047809
  10       13.503117     13.503117
  11       14.964518     14.964518
  12       17.189002     17.189002
 
  0.3636364E+00  0.9090909E-01  0.0000000E+00  0.1803156E-01
   1       -4.769822     -4.769822
   2        0.306954      0.306954
   3        4.053539      4.053539
   4        4.127131      4.127131
   5        7.699056      7.699056
   6        8.812743      8.812743
   7        9.590280      9.590280
   8       11.573343     11.573343
   9       14.294260     14.294260
  10       14.372846     14.372846
  11       14.876432     14.876432
  12       18.712019     18.712019
 
  0.4545455E+00  0.9090909E-01  0.0000000E+00  0.1803156E-01
   1       -4.127369     -4.127369
   2       -0.843431     -0.843431
   3        3.766063      3.766063
   4        4.085203      4.085203
   5        7.554103      7.554103
   6        8.788598      8.788598
   7        9.373776      9.373776
   8       12.789184     12.789184
   9       14.229062     14.229062
  10       15.745180     15.745180
  11       16.351422     16.351422
  12       17.092502     17.092502
 
 -0.4545455E+00  0.9090909E-01  0.0000000E+00  0.1803156E-01
   1       -3.871316     -3.871316
   2       -1.227285     -1.227285
   3        3.596318      3.596318
   4        4.180445      4.180445
   5        7.523602      7.523602
   6        8.847086      8.847086
   7        9.198867      9.198867
   8       13.520413     13.520413
   9       14.699830     14.699830
  10       15.044785     15.044785
  11       16.295536     16.295536
  12       17.669982     17.669982
 
 -0.3636364E+00  0.9090909E-01  0.0000000E+00  0.1803156E-01
   1       -4.331550     -4.331550
   2       -0.509198     -0.509198
   3        3.564861      3.564861
   4        4.397529      4.397529
   5        7.620093      7.620093
   6        9.029366      9.029366
   7        9.120604      9.120604
   8       13.160669     13.160669
   9       13.447082     13.447082
  10       14.595230     14.595230
  11       16.503471     16.503471
  12       17.207711     17.207711
 
 -0.2727273E+00  0.9090909E-01  0.0000000E+00  0.1803156E-01
   1       -4.985348     -4.985348
   2        0.773949      0.773949
   3        3.686782      3.686782
   4        4.708249      4.708249
   5        7.833311      7.833311
   6        9.043269      9.043269
   7        9.221491      9.221491
   8       12.087741     12.087741
   9       12.305673     12.305673
  10       14.784061     14.784061
  11       14.890363     14.890363
  12       18.071310     18.071310
 
 -0.1818182E+00  0.9090909E-01  0.0000000E+00  0.1803156E-01
   1       -5.538103     -5.538103
   2        2.275007      2.275007
   3        3.979397      3.979397
   4        5.057213      5.057213
   5        8.129544      8.129544
   6        8.755956      8.755956
   7        9.075209      9.075209
   8       11.183023     11.183023
   9       11.911449     11.911449
  10       13.584949     13.584949
  11       15.077990     15.077990
  12       16.690067     16.690067
 
 -0.9090909E-01  0.9090909E-01  0.0000000E+00  0.9015778E-02
   1       -5.913202     -5.913202
   2        3.701290      3.701290
   3        4.527015      4.527015
   4        5.320210      5.320210
   5        8.363509      8.363509
   6        8.366015      8.366015
   7        8.497541      8.497541
   8       10.255369     10.255369
   9       12.246650     12.246650
  10       13.069076     13.069076
  11       14.417737     14.417737
  12       16.498070     16.498070
 
  0.1818182E+00  0.1818182E+00  0.0000000E+00  0.4507889E-02
   1       -5.634308     -5.634308
   2        3.167266      3.167266
   3        4.203334      4.203334
   4        4.203334      4.203334
   5        7.137425      7.137425
   6        9.552770      9.552770
   7       10.008697     10.008697
   8       10.008697     10.008697
   9       12.099845     12.099845
  10       13.838884     13.838884
  11       15.377702     15.377702
  12       17.616120     17.616120
 
  0.2727273E+00  0.1818182E+00  0.0000000E+00  0.1803156E-01
   1       -5.259374     -5.259374
   2        2.048720      2.048720
   3        3.795964      3.795964
   4        3.872084      3.872084
   5        7.183675      7.183675
   6        9.183809      9.183809
   7       10.291598     10.291598
   8       10.582525     10.582525
   9       13.248403     13.248403
  10       14.149127     14.149127
  11       16.134306     16.134306
  12       17.566918     17.566918
 
  0.3636364E+00  0.1818182E+00  0.0000000E+00  0.1803156E-01
   1       -4.707231     -4.707231
   2        0.725597      0.725597
   3        3.279916      3.279916
   4        3.680619      3.680619
   5        7.414034      7.414034
   6        9.533578      9.533578
   7       10.091579     10.091579
   8       10.681360     10.681360
   9       14.929501     14.929501
  10       14.947038     14.947038
  11       15.919518     15.919518
  12       18.600407     18.600407
 
  0.4545455E+00  0.1818182E+00  0.0000000E+00  0.1803156E-01
   1       -4.052492     -4.052492
   2       -0.466716     -0.466716
   3        2.818164      2.818164
   4        3.647301      3.647301
   5        7.454244      7.454244
   6        9.855235      9.855235
   7       10.451430     10.451430
   8       10.725820     10.725820
   9       15.318405     15.318405
  10       16.215850     16.215850
  11       16.756852     16.756852
  12       17.000602     17.000602
 
 -0.4545455E+00  0.1818182E+00  0.0000000E+00  0.1803156E-01
   1       -3.592552     -3.592552
   2       -1.145705     -1.145705
   3        2.494872      2.494872
   4        3.771425      3.771425
   5        7.546961      7.546961
   6        9.734475      9.734475
   7       10.176222     10.176222
   8       12.310351     12.310351
   9       14.454625     14.454625
  10       14.919197     14.919197
  11       16.864994     16.864994
  12       18.089794     18.089794
 
 -0.3636364E+00  0.1818182E+00  0.0000000E+00  0.1803156E-01
   1       -3.864235     -3.864235
   2       -0.752308     -0.752308
   3        2.350941      2.350941
   4        4.037125      4.037125
   5        7.782889      7.782889
   6        9.730506      9.730506
   7        9.958127      9.958127
   8       13.087782     13.087782
   9       13.237693     13.237693
  10       14.034575     14.034575
  11       16.763740     16.763740
  12       19.023211     19.023211
 
 -0.2727273E+00  0.1818182E+00  0.0000000E+00  0.1803156E-01
   1       -4.509403     -4.509403
   2        0.321078      0.321078
   3        2.438110      2.438110
   4        4.407321      4.407321
   5        8.126850      8.126850
   6        9.711389      9.711389
   7        9.782600      9.782600
   8       11.721853     11.721853
   9       12.030264     12.030264
  10       15.466658     15.466658
  11       17.086128     17.086128
  12       17.445616     17.445616
 
 -0.1818182E+00  0.1818182E+00  0.0000000E+00  0.9015778E-02
   1       -5.104846     -5.104846
   2        1.472919      1.472919
   3        2.912397      2.912397
   4        4.802139      4.802139
   5        8.427812      8.427812
   6        9.226614      9.226614
   7        9.470782      9.470782
   8       11.067826     11.067826
   9       11.620606     11.620606
  10       15.254505     15.254505
  11       15.978045     15.978045
  12       17.076521     17.076521
 
  0.2727273E+00  0.2727273E+00  0.0000000E+00  0.4507889E-02
   1       -4.947970     -4.947970
   2        1.584187      1.584187
   3        3.508066      3.508066
   4        3.508066      3.508066
   5        6.565586      6.565586
   6        8.342529      8.342529
   7       11.527303     11.527303
   8       11.527303     11.527303
   9       13.696952     13.696952
  10       14.617993     14.617993
  11       17.190504     17.190504
  12       18.597358     18.597358
 
  0.3636364E+00  0.2727273E+00  0.0000000E+00  0.1803156E-01
   1       -4.450892     -4.450892
   2        0.658381      0.658381
   3        2.994795      2.994795
   4        3.283717      3.283717
   5        6.693283      6.693283
   6        8.058648      8.058648
   7       11.796218     11.796218
   8       11.995375     11.995375
   9       15.128505     15.128505
  10       15.333278     15.333278
  11       17.406949     17.406949
  12       18.620119     18.620119
 
  0.4545455E+00  0.2727273E+00  0.0000000E+00  0.1803156E-01
   1       -3.814272     -3.814272
   2       -0.335369     -0.335369
   3        2.297784      2.297784
   4        3.223262      3.223262
   5        6.896104      6.896104
   6        8.775696      8.775696
   7       11.631815     11.631815
   8       11.886017     11.886017
   9       16.336566     16.336566
  10       16.628482     16.628482
  11       16.994044     16.994044
  12       17.029424     17.029424
 
 -0.4545455E+00  0.2727273E+00  0.0000000E+00  0.1803156E-01
   1       -3.226077     -3.226077
   2       -1.104149     -1.104149
   3        1.746171      1.746171
   4        3.330508      3.330508
   5        7.028123      7.028123
   6       10.212462     10.212462
   7       11.465465     11.465465
   8       11.578033     11.578033
   9       14.805544     14.805544
  10       14.962450     14.962450
  11       18.453277     18.453277
  12       18.485382     18.485382
 
 -0.3636364E+00  0.2727273E+00  0.0000000E+00  0.1803156E-01
   1       -3.281530     -3.281530
   2       -1.026664     -1.026664
   3        1.474329      1.474329
   4        3.593682      3.593682
   5        7.305869      7.305869
   6       11.212908     11.212908
   7       11.235711     11.235711
   8       12.110284     12.110284
   9       13.122746     13.122746
  10       13.254338     13.254338
  11       18.444480     18.444480
  12       20.341079     20.341285
 
 -0.2727273E+00  0.2727273E+00  0.0000000E+00  0.9015778E-02
   1       -3.891132     -3.891132
   2       -0.294325     -0.294325
   3        1.632550      1.632550
   4        3.979046      3.979046
   5        7.728956      7.728956
   6       10.646046     10.646046
   7       10.937327     10.937327
   8       11.768477     11.768477
   9       12.201522     12.201522
  10       14.045031     14.045031
  11       18.406912     18.406912
  12       19.050008     19.050008
 
  0.3636364E+00  0.3636364E+00  0.0000000E+00  0.4507889E-02
   1       -4.008337     -4.008337
   2        0.012598      0.012598
   3        3.018279      3.018279
   4        3.018279      3.018279
   5        6.223030      6.223030
   6        7.238927      7.238927
   7       13.146940     13.146940
   8       13.146940     13.146940
   9       15.579912     15.579912
  10       15.705095     15.705095
  11       18.433979     18.433979
  12       18.433979     18.433979
 
  0.4545455E+00  0.3636364E+00  0.0000000E+00  0.1803156E-01
   1       -3.406750     -3.406750
   2       -0.777947     -0.777947
   3        2.511656      2.511656
   4        2.916159      2.916159
   5        6.428981      6.428981
   6        7.240329      7.240329
   7       13.458149     13.458149
   8       13.488485     13.488485
   9       16.741670     16.741670
  10       16.811373     16.811373
  11       17.063813     17.063813
  12       17.208840     17.208840
 
 -0.4545455E+00  0.3636364E+00  0.0000000E+00  0.1803156E-01
   1       -2.758113     -2.758113
   2       -1.472099     -1.472099
   3        1.771624      1.771624
   4        2.986031      2.986031
   5        6.599704      6.599704
   6        8.378775      8.378775
   7       13.228429     13.228429
   8       13.323858     13.323858
   9       15.038654     15.038654
  10       15.169908     15.169908
  11       18.596978     18.596978
  12       18.819877     18.819877
 
 -0.3636364E+00  0.3636364E+00  0.0000000E+00  0.9015778E-02
   1       -2.702421     -2.702421
   2       -1.498196     -1.498196
   3        1.308480      1.308480
   4        3.220873      3.220873
   5        6.867783      6.867783
   6       10.055741     10.055741
   7       12.568755     12.568755
   8       13.044620     13.044620
   9       13.281410     13.281410
  10       13.705319     13.705319
  11       19.967044     19.967044
  12       20.390569     20.390569
 
  0.4545455E+00  0.4545455E+00  0.0000000E+00  0.4507889E-02
   1       -2.840657     -2.840657
   2       -1.482955     -1.482955
   3        2.767611      2.767611
   4        2.767612      2.767612
   5        6.190483      6.190483
   6        6.517918      6.517918
   7       14.796743     14.796743
   8       14.796743     14.796743
   9       16.843138     16.843138
  10       16.843138     16.843138
  11       17.095709     17.095709
  12       17.356149     17.356149
 
 -0.4545455E+00  0.4545455E+00  0.0000000E+00  0.9015778E-02
   1       -2.218094     -2.218094
   2       -2.106330     -2.106330
   3        2.352031      2.352031
   4        2.791677      2.791677
   5        6.370962      6.370962
   6        6.930191      6.930191
   7       14.741189     14.741189
   8       14.951857     14.951857
   9       15.465829     15.465829
  10       15.680645     15.680645
  11       18.489631     18.489629
  12       18.504467     18.504467
 
  0.2727273E+00  0.1818182E+00  0.9090909E-01  0.1803156E-01
   1       -5.500768     -5.500768
   2        2.487893      2.487893
   3        3.722898      3.722898
   4        4.673046      4.673046
   5        7.847674      7.847674
   6        9.018865      9.018865
   7        9.809412      9.809412
   8       10.257076     10.257076
   9       12.397820     12.397820
  10       13.830690     13.830690
  11       15.565851     15.565851
  12       16.915791     16.915791
 
  0.3636364E+00  0.1818182E+00  0.9090909E-01  0.3606311E-01
   1       -5.004463     -5.004463
   2        1.211206      1.211206
   3        3.174443      3.174443
   4        4.369126      4.369126
   5        8.139463      8.139463
   6        8.997652      8.997652
   7       10.156174     10.156174
   8       10.361853     10.361853
   9       12.952845     12.952845
  10       15.169723     15.169723
  11       15.754282     15.754282
  12       17.635196     17.635196
 
  0.4545455E+00  0.1818182E+00  0.9090909E-01  0.3606311E-01
   1       -4.369407     -4.369407
   2       -0.084298     -0.084298
   3        2.917734      2.917734
   4        4.041733      4.041733
   5        8.152852      8.152852
   6        8.845797      8.845797
   7       10.243399     10.243399
   8       11.186793     11.186793
   9       14.018123     14.018123
  10       15.209808     15.209808
  11       16.876181     16.876181
  12       17.260950     17.260950
 
 -0.4545455E+00  0.1818182E+00  0.9090909E-01  0.3606311E-01
   1       -3.781335     -3.781335
   2       -1.026782     -1.026782
   3        2.816613      2.816613
   4        3.841485      3.841485
   5        8.113597      8.113597
   6        8.671952      8.671952
   7       10.184067     10.184067
   8       12.612966     12.612966
   9       14.130100     14.130100
  10       15.258147     15.258147
  11       16.503510     16.503510
  12       17.834782     17.834782
 
  0.3636364E+00  0.2727273E+00  0.9090909E-01  0.1803156E-01
   1       -4.824453     -4.824453
   2        1.219030      1.219030
   3        3.033032      3.033032
   4        3.714398      3.714398
   5        7.304289      7.304289
   6        8.820159      8.820159
   7       10.397828     10.397828
   8       11.414743     11.414743
   9       13.832029     13.832029
  10       15.296898     15.296898
  11       16.797112     16.797112
  12       17.890934     17.890934
 
  0.4545455E+00  0.2727273E+00  0.9090909E-01  0.3606311E-01
   1       -4.227631     -4.227631
   2        0.174569      0.174569
   3        2.475659      2.475659
   4        3.417128      3.417128
   5        7.659284      7.659284
   6        9.218177      9.218177
   7       10.093229     10.093229
   8       11.803226     11.803226
   9       14.687170     14.687170
  10       16.040709     16.040709
  11       17.095100     17.095100
  12       17.872447     17.872447
 
 -0.4545455E+00  0.2727273E+00  0.9090909E-01  0.3606311E-01
   1       -3.580806     -3.580806
   2       -0.794688     -0.794688
   3        2.099079      2.099079
   4        3.269339      3.269339
   5        7.792325      7.792325
   6        9.726276      9.726276
   7       10.532846     10.532846
   8       11.765450     11.765450
   9       14.386720     14.386720
  10       16.024732     16.024732
  11       17.053554     17.053554
  12       18.301074     18.301074
 
 -0.3636364E+00  0.2727273E+00  0.9090909E-01  0.3606311E-01
   1       -3.327266     -3.327266
   2       -1.127249     -1.127249
   3        1.877795      1.877795
   4        3.354572      3.354572
   5        7.996528      7.996528
   6        9.470070      9.470070
   7       11.655620     11.655620
   8       12.178691     12.178691
   9       12.656344     12.656344
  10       15.355397     15.355397
  11       17.522093     17.522093
  12       18.322399     18.322399
 
 -0.2727273E+00  0.2727273E+00  0.9090909E-01  0.3606311E-01
   1       -3.811491     -3.811491
   2       -0.468175     -0.468175
   3        1.873886      1.873886
   4        3.636382      3.636382
   5        8.340671      8.340671
   6        9.287926      9.287926
   7       10.980975     10.980975
   8       11.587556     11.587556
   9       13.860035     13.860035
  10       14.119851     14.119851
  11       17.768760     17.768760
  12       19.245348     19.245348
 
 -0.1818182E+00  0.2727273E+00  0.9090909E-01  0.1803156E-01
   1       -4.462393     -4.462393
   2        0.479524      0.479524
   3        2.243807      2.243807
   4        4.031119      4.031119
   5        8.751498      8.751498
   6        8.877072      8.877072
   7       10.132550     10.132550
   8       11.132854     11.132854
   9       12.964458     12.964458
  10       15.788954     15.788954
  11       17.184690     17.184690
  12       17.885053     17.885053
 
  0.4545455E+00  0.3636364E+00  0.9090909E-01  0.1803156E-01
   1       -3.903548     -3.903548
   2       -0.120279     -0.120279
   3        2.573880      2.573880
   4        2.949876      2.949876
   5        6.961404      6.961404
   6        7.816957      7.816957
   7       11.745194     11.745194
   8       13.114096     13.114096
   9       15.440135     15.440135
  10       16.564887     16.564887
  11       17.058633     17.058633
  12       18.534442     18.534442
 
 -0.4545455E+00  0.3636364E+00  0.9090909E-01  0.3606311E-01
   1       -3.247122     -3.247122
   2       -0.917814     -0.917814
   3        1.960668      1.960668
   4        2.779907      2.779907
   5        7.304490      7.304490
   6        8.594841      8.594841
   7       11.409757     11.409757
   8       13.473558     13.473558
   9       14.655435     14.655435
  10       16.477041     16.477041
  11       17.349487     17.349487
  12       19.026927     19.026927
 
 -0.3636364E+00  0.3636364E+00  0.9090909E-01  0.3606311E-01
   1       -2.799415     -2.799415
   2       -1.396110     -1.396110
   3        1.462395      1.462395
   4        2.890810      2.890810
   5        7.513894      7.513894
   6       10.123428     10.123428
   7       11.120558     11.120558
   8       12.689222     12.689222
   9       13.430743     13.430743
  10       15.442946     15.442946
  11       18.338997     18.338997
  12       19.619045     19.619045
 
 -0.2727273E+00  0.3636364E+00  0.9090909E-01  0.1803156E-01
   1       -3.172038     -3.172038
   2       -1.007361     -1.007361
   3        1.362572      1.362572
   4        3.200451      3.200451
   5        7.871644      7.871644
   6       10.518125     10.518125
   7       11.237229     11.237229
   8       12.112443     12.112443
   9       12.923096     12.923096
  10       14.133865     14.133865
  11       19.514899     19.514899
  12       19.734895     19.734895
 
 -0.4545455E+00  0.4545455E+00  0.9090909E-01  0.1803156E-01
   1       -2.771294     -2.771294
   2       -1.482480     -1.482480
   3        2.389302      2.389302
   4        2.506981      2.506981
   5        6.900820      6.900820
   6        7.173525      7.173525
   7       13.248652     13.248652
   8       14.618879     14.618879
   9       15.229642     15.229642
  10       16.621852     16.621852
  11       17.359124     17.359124
  12       18.819919     18.819919
 
 -0.3636364E+00  0.4545455E+00  0.9090909E-01  0.1803156E-01
   1       -2.288260     -2.288260
   2       -1.913847     -1.913847
   3        1.763899      1.763899
   4        2.576368      2.576368
   5        7.178150      7.178150
   6        8.388830      8.388830
   7       12.813188     12.813188
   8       13.038144     13.038144
   9       15.019904     15.019904
  10       15.662413     15.662413
  11       18.228120     18.228120
  12       19.028088     19.028088
 
 -0.4545455E+00  0.3636364E+00  0.1818182E+00  0.1803156E-01
   1       -3.605950     -3.605950
   2       -0.499803     -0.499803
   3        1.850997      1.850997
   4        2.976582      2.976582
   5        8.568703      8.568703
   6        9.228428      9.228428
   7        9.730563      9.730563
   8       13.017162     13.017162
   9       14.300811     14.300811
  10       14.854248     14.854248
  11       18.860361     18.860361
  12       19.107278     19.107278
 
 -0.3636364E+00  0.3636364E+00  0.1818182E+00  0.3606311E-01
   1       -2.995900     -2.995900
   2       -1.177047     -1.177047
   3        1.580659      1.580659
   4        2.671532      2.671532
   5        8.945404      8.945404
   6        9.276790      9.276790
   7       10.522238     10.522238
   8       12.344436     12.344436
   9       13.467050     13.467050
  10       15.959105     15.959105
  11       17.820621     17.820621
  12       19.331340     19.331340
 
 -0.3636364E+00  0.4545455E+00  0.1818182E+00  0.1803156E-01
   1       -2.595725     -2.595725
   2       -1.527974     -1.527974
   3        1.805887      1.805887
   4        2.175199      2.175199
   5        8.494695      8.494695
   6        8.706648      8.706648
   7       11.016457     11.016457
   8       12.573915     12.573915
   9       14.933443     14.933443
  10       16.363024     16.363024
  11       17.696725     17.696725
  12       19.004787     19.004787
 
 -0.2727273E+00  0.4545455E+00  0.1818182E+00  0.1803156E-01
   1       -2.405835     -2.405835
   2       -1.686442     -1.686442
   3        1.540682      1.540682
   4        2.209796      2.209796
   5        8.839189      8.839189
   6       10.096498     10.096498
   7       10.791278     10.791278
   8       10.802481     10.802481
   9       14.951916     14.951916
  10       16.025457     16.025457
  11       17.991537     17.991537
  12       19.153929     19.153929
