 vasp.5.3.3 18Dez12 (build Jan 30 2013 10:57:47) complex                        
  
 executed on             LinuxIFC date 2016.06.21  15:46:59
 running on   16 total cores
 distrk:  each k-point on   16 cores,    1 groups
 distr:  one band on NCORES_PER_BAND=   4 cores,    4 groups


--------------------------------------------------------------------------------------------------------


 INCAR:
 POTCAR:    PAW_PBE Si 05Jan2001                  

 ----------------------------------------------------------------------------- 
|                                                                             |
|  ADVICE TO THIS USER RUNNING 'VASP/VAMP'   (HEAR YOUR MASTER'S VOICE ...):  |
|                                                                             |
|      You have switched on vdW-DFT.                                          |
|      This routine was written and supplied by Jiri Klimes.                  |
|      We recommed that you carefully read and cite the following             |
|      publication                                                            |
|      J. Klimes, D.R. Bowler, A. Michelides                                  |
|        J. Phys.: Cond Matt. 22 022201 (2010)                                |
|      J. Klimes, D.R. Bowler, A. Michelides                                  |
|        Phys. Rev. B. 83, 195131 (2011)                                      |
|      and references therein.                                                |
|                                                                             |
 ----------------------------------------------------------------------------- 

 POTCAR:    PAW_PBE Si 05Jan2001                  
   VRHFIN =Si: s2p2                                                             
   LEXCH  = PE                                                                  
   EATOM  =   103.0669 eV,    7.5752 Ry                                         
                                                                                
   TITEL  = PAW_PBE Si 05Jan2001                                                
   LULTRA =        F    use ultrasoft PP ?                                      
   IUNSCR =        1    unscreen: 0-lin 1-nonlin 2-no                           
   RPACOR =    1.500    partial core radius                                     
   POMASS =   28.085; ZVAL   =    4.000    mass and valenz                      
   RCORE  =    1.900    outmost cutoff radius                                   
   RWIGS  =    2.480; RWIGS  =    1.312    wigner-seitz radius (au A)           
   ENMAX  =  245.345; ENMIN  =  184.009 eV                                      
   ICORE  =        2    local potential                                         
   LCOR   =        T    correct aug charges                                     
   LPAW   =        T    paw PP                                                  
   EAUG   =  322.069                                                            
   DEXC   =    0.000                                                            
   RMAX   =    1.950    core radius for proj-oper                               
   RAUG   =    1.300    factor for augmentation sphere                          
   RDEP   =    1.993    radius for radial grids                                 
   RDEPT  =    1.837    core radius for aug-charge                              
                                                                                
   Atomic configuration                                                         
    6 entries                                                                   
     n  l   j            E        occ.                                          
     1  0  0.50     -1785.8828   2.0000                                         
     2  0  0.50      -139.4969   2.0000                                         
     2  1  1.50       -95.5546   6.0000                                         
     3  0  0.50       -10.8127   2.0000                                         
     3  1  0.50        -4.0811   2.0000                                         
     3  2  1.50        -4.0817   0.0000                                         
   Description                                                                  
     l       E           TYP  RCUT    TYP  RCUT                                 
     0    -10.8127223     23  1.900                                             
     0     -7.6451159     23  1.900                                             
     1     -4.0811372     23  1.900                                             
     1      2.4879257     23  1.900                                             
     2     -4.0817478      7  1.900                                             
  local pseudopotential read in
  partial core-charges read in
  partial kinetic energy density read in
  atomic valenz-charges read in
  non local Contribution for L=           0  read in
    real space projection operators read in
  non local Contribution for L=           0  read in
    real space projection operators read in
  non local Contribution for L=           1  read in
    real space projection operators read in
  non local Contribution for L=           1  read in
    real space projection operators read in
    PAW grid and wavefunctions read in
 
   number of l-projection  operators is LMAX  =           4
   number of lm-projection operators is LMMAX =           8
 

 ----------------------------------------------------------------------------- 
|                                                                             |
|  ADVICE TO THIS USER RUNNING 'VASP/VAMP'   (HEAR YOUR MASTER'S VOICE ...):  |
|                                                                             |
|      You enforced a specific xc-type in the INCAR file,                     |
|      a different type was found on the POTCAR file                          |
|          I HOPE YOU KNOW, WHAT YOU ARE  DOING                               |
|                                                                             |
 ----------------------------------------------------------------------------- 

  PAW_PBE Si 05Jan2001                  :
 energy of atom  1       EATOM= -103.0669
 kinetic energy error for atom=    0.0006 (will be added to EATOM!!)
 
 
 POSCAR: bulk@mp_149                             
  positions in direct lattice
  No initial velocities read in
 exchange correlation table for  LEXCH =       42
   RHO(1)=    0.500       N(1)  =     2000
   RHO(2)=  100.500       N(2)  =     4000
 


--------------------------------------------------------------------------------------------------------


 ion  position               nearest neighbor table
   1  0.875  0.875  0.875-   2 2.37   2 2.37   2 2.37   2 2.37
   2  0.125  0.125  0.125-   1 2.37   1 2.37   1 2.37   1 2.37
 
  LATTYP: Found a face centered cubic cell.
 ALAT       =     5.4687284904
  
  Lattice vectors:
  
 A1 = (   3.3488980000,   0.0000000000,   1.9334870000)
 A2 = (   1.1162990000,   3.1573720000,   1.9334870000)
 A3 = (   0.0000000000,   0.0000000000,   3.8669750000)


Analysis of symmetry for initial positions (statically):
=====================================================================
 Subroutine PRICEL returns:
 Original cell was already a primitive cell.
 

 Routine SETGRP: Setting up the symmetry group for a 
 face centered cubic supercell.


 Subroutine GETGRP returns: Found 48 space group operations
 (whereof 12 operations were pure point group operations)
 out of a pool of 48 trial point group operations.


The static configuration has the point symmetry D_3d.
 The point group associated with its full space group is O_h .


Analysis of symmetry for dynamics (positions and initial velocities):
=====================================================================
 Subroutine PRICEL returns:
 Original cell was already a primitive cell.
 

 Routine SETGRP: Setting up the symmetry group for a 
 face centered cubic supercell.


 Subroutine GETGRP returns: Found 48 space group operations
 (whereof 12 operations were pure point group operations)
 out of a pool of 48 trial point group operations.


The dynamic configuration has the point symmetry D_3d.
 The point group associated with its full space group is O_h .


Analysis of magnetic symmetry:
=====================================================================

 Subroutine MAGSYM returns: Found 48 space group operations
 (whereof 12 operations were pure point group operations)
 out of a pool of 48 trial space group operations
 (whereof 12 operations were pure point group operations)
 and found also     1 'primitive' translations


The magnetic configuration has the point symmetry D_3d.
 The point group associated with its full space group is O_h .


 irot  :   1
 --------------------------------------------------------------------
 isymop:   1   0   0
           0   1   0
           0   0   1

 gtrans:     0.0000000     0.0000000     0.0000000

 ptrans:     0.0000000     0.0000000     0.0000000
 rotmap:
 (   1->   1)  (   2->   2) 


 irot  :   2
 --------------------------------------------------------------------
 isymop:  -1   0   0
           0  -1   0
           0   0  -1

 gtrans:     0.0000000     0.0000000     0.0000000

 ptrans:     0.0000000     0.0000000     0.0000000
 rotmap:
 (   1->   2)  (   2->   1) 


 irot  :   3
 --------------------------------------------------------------------
 isymop:   0   0   1
           1   0   0
           0   1   0

 gtrans:     0.0000000     0.0000000     0.0000000

 ptrans:     0.0000000     0.0000000     0.0000000
 rotmap:
 (   1->   1)  (   2->   2) 


 irot  :   4
 --------------------------------------------------------------------
 isymop:   0   0  -1
          -1   0   0
           0  -1   0

 gtrans:     0.0000000     0.0000000     0.0000000

 ptrans:     0.0000000     0.0000000     0.0000000
 rotmap:
 (   1->   2)  (   2->   1) 


 irot  :   5
 --------------------------------------------------------------------
 isymop:   0   1   0
           0   0   1
           1   0   0

 gtrans:     0.0000000     0.0000000     0.0000000

 ptrans:     0.0000000     0.0000000     0.0000000
 rotmap:
 (   1->   1)  (   2->   2) 


 irot  :   6
 --------------------------------------------------------------------
 isymop:   0  -1   0
           0   0  -1
          -1   0   0

 gtrans:     0.0000000     0.0000000     0.0000000

 ptrans:     0.0000000     0.0000000     0.0000000
 rotmap:
 (   1->   2)  (   2->   1) 


 irot  :   7
 --------------------------------------------------------------------
 isymop:  -1   0   0
           0   0  -1
           0  -1   0

 gtrans:     0.0000000     0.0000000     0.0000000

 ptrans:     0.0000000     0.0000000     0.0000000
 rotmap:
 (   1->   2)  (   2->   1) 


 irot  :   8
 --------------------------------------------------------------------
 isymop:   1   0   0
           0   0   1
           0   1   0

 gtrans:     0.0000000     0.0000000     0.0000000

 ptrans:     0.0000000     0.0000000     0.0000000
 rotmap:
 (   1->   1)  (   2->   2) 


 irot  :   9
 --------------------------------------------------------------------
 isymop:   0  -1   0
          -1   0   0
           0   0  -1

 gtrans:     0.0000000     0.0000000     0.0000000

 ptrans:     0.0000000     0.0000000     0.0000000
 rotmap:
 (   1->   2)  (   2->   1) 


 irot  :  10
 --------------------------------------------------------------------
 isymop:   0   1   0
           1   0   0
           0   0   1

 gtrans:     0.0000000     0.0000000     0.0000000

 ptrans:     0.0000000     0.0000000     0.0000000
 rotmap:
 (   1->   1)  (   2->   2) 


 irot  :  11
 --------------------------------------------------------------------
 isymop:   0   0  -1
           0  -1   0
          -1   0   0

 gtrans:     0.0000000     0.0000000     0.0000000

 ptrans:     0.0000000     0.0000000     0.0000000
 rotmap:
 (   1->   2)  (   2->   1) 


 irot  :  12
 --------------------------------------------------------------------
 isymop:   0   0   1
           0   1   0
           1   0   0

 gtrans:     0.0000000     0.0000000     0.0000000

 ptrans:     0.0000000     0.0000000     0.0000000
 rotmap:
 (   1->   1)  (   2->   2) 


 irot  :  13
 --------------------------------------------------------------------
 isymop:   1   1   1
           0   0  -1
          -1   0   0

 gtrans:     0.5000000     0.0000000     0.0000000

 ptrans:     0.0000000     0.0000000     0.0000000
 rotmap:
 (   1->   2)  (   2->   1) 


 irot  :  14
 --------------------------------------------------------------------
 isymop:  -1  -1  -1
           0   0   1
           1   0   0

 gtrans:     0.5000000     0.0000000     0.0000000

 ptrans:     0.0000000     0.0000000     0.0000000
 rotmap:
 (   1->   1)  (   2->   2) 


 irot  :  15
 --------------------------------------------------------------------
 isymop:   1   1   1
           0  -1   0
           0   0  -1

 gtrans:     0.5000000     0.0000000     0.0000000

 ptrans:     0.0000000     0.0000000     0.0000000
 rotmap:
 (   1->   2)  (   2->   1) 


 irot  :  16
 --------------------------------------------------------------------
 isymop:  -1  -1  -1
           0   1   0
           0   0   1

 gtrans:     0.5000000     0.0000000     0.0000000

 ptrans:     0.0000000     0.0000000     0.0000000
 rotmap:
 (   1->   1)  (   2->   2) 


 irot  :  17
 --------------------------------------------------------------------
 isymop:   1   1   1
          -1   0   0
           0  -1   0

 gtrans:     0.5000000     0.0000000     0.0000000

 ptrans:     0.0000000     0.0000000     0.0000000
 rotmap:
 (   1->   2)  (   2->   1) 


 irot  :  18
 --------------------------------------------------------------------
 isymop:  -1  -1  -1
           1   0   0
           0   1   0

 gtrans:     0.5000000     0.0000000     0.0000000

 ptrans:     0.0000000     0.0000000     0.0000000
 rotmap:
 (   1->   1)  (   2->   2) 


 irot  :  19
 --------------------------------------------------------------------
 isymop:   0   1   0
           1   0   0
          -1  -1  -1

 gtrans:     0.0000000     0.0000000     0.5000000

 ptrans:     0.0000000     0.0000000     0.0000000
 rotmap:
 (   1->   1)  (   2->   2) 


 irot  :  20
 --------------------------------------------------------------------
 isymop:   0  -1   0
          -1   0   0
           1   1   1

 gtrans:     0.0000000     0.0000000     0.5000000

 ptrans:     0.0000000     0.0000000     0.0000000
 rotmap:
 (   1->   2)  (   2->   1) 


 irot  :  21
 --------------------------------------------------------------------
 isymop:   1   0   0
           0   0   1
          -1  -1  -1

 gtrans:     0.0000000     0.0000000     0.5000000

 ptrans:     0.0000000     0.0000000     0.0000000
 rotmap:
 (   1->   1)  (   2->   2) 


 irot  :  22
 --------------------------------------------------------------------
 isymop:  -1   0   0
           0   0  -1
           1   1   1

 gtrans:     0.0000000     0.0000000     0.5000000

 ptrans:     0.0000000     0.0000000     0.0000000
 rotmap:
 (   1->   2)  (   2->   1) 


 irot  :  23
 --------------------------------------------------------------------
 isymop:   0   0   1
           0   1   0
          -1  -1  -1

 gtrans:     0.0000000     0.0000000     0.5000000

 ptrans:     0.0000000     0.0000000     0.0000000
 rotmap:
 (   1->   1)  (   2->   2) 


 irot  :  24
 --------------------------------------------------------------------
 isymop:   0   0  -1
           0  -1   0
           1   1   1

 gtrans:     0.0000000     0.0000000     0.5000000

 ptrans:     0.0000000     0.0000000     0.0000000
 rotmap:
 (   1->   2)  (   2->   1) 


 irot  :  25
 --------------------------------------------------------------------
 isymop:   0   0  -1
           1   1   1
           0  -1   0

 gtrans:     0.0000000     0.5000000     0.0000000

 ptrans:     0.0000000     0.0000000     0.0000000
 rotmap:
 (   1->   2)  (   2->   1) 


 irot  :  26
 --------------------------------------------------------------------
 isymop:   0   0   1
          -1  -1  -1
           0   1   0

 gtrans:     0.0000000     0.5000000     0.0000000

 ptrans:     0.0000000     0.0000000     0.0000000
 rotmap:
 (   1->   1)  (   2->   2) 


 irot  :  27
 --------------------------------------------------------------------
 isymop:   0  -1   0
           1   1   1
          -1   0   0

 gtrans:     0.0000000     0.5000000     0.0000000

 ptrans:     0.0000000     0.0000000     0.0000000
 rotmap:
 (   1->   2)  (   2->   1) 


 irot  :  28
 --------------------------------------------------------------------
 isymop:   0   1   0
          -1  -1  -1
           1   0   0

 gtrans:     0.0000000     0.5000000     0.0000000

 ptrans:     0.0000000     0.0000000     0.0000000
 rotmap:
 (   1->   1)  (   2->   2) 


 irot  :  29
 --------------------------------------------------------------------
 isymop:  -1   0   0
           1   1   1
           0   0  -1

 gtrans:     0.0000000     0.5000000     0.0000000

 ptrans:     0.0000000     0.0000000     0.0000000
 rotmap:
 (   1->   2)  (   2->   1) 


 irot  :  30
 --------------------------------------------------------------------
 isymop:   1   0   0
          -1  -1  -1
           0   0   1

 gtrans:     0.0000000     0.5000000     0.0000000

 ptrans:     0.0000000     0.0000000     0.0000000
 rotmap:
 (   1->   1)  (   2->   2) 


 irot  :  31
 --------------------------------------------------------------------
 isymop:  -1  -1  -1
           0   1   0
           1   0   0

 gtrans:     0.5000000     0.0000000     0.0000000

 ptrans:     0.0000000     0.0000000     0.0000000
 rotmap:
 (   1->   1)  (   2->   2) 


 irot  :  32
 --------------------------------------------------------------------
 isymop:   1   1   1
           0  -1   0
          -1   0   0

 gtrans:     0.5000000     0.0000000     0.0000000

 ptrans:     0.0000000     0.0000000     0.0000000
 rotmap:
 (   1->   2)  (   2->   1) 


 irot  :  33
 --------------------------------------------------------------------
 isymop:  -1  -1  -1
           1   0   0
           0   0   1

 gtrans:     0.5000000     0.0000000     0.0000000

 ptrans:     0.0000000     0.0000000     0.0000000
 rotmap:
 (   1->   1)  (   2->   2) 


 irot  :  34
 --------------------------------------------------------------------
 isymop:   1   1   1
          -1   0   0
           0   0  -1

 gtrans:     0.5000000     0.0000000     0.0000000

 ptrans:     0.0000000     0.0000000     0.0000000
 rotmap:
 (   1->   2)  (   2->   1) 


 irot  :  35
 --------------------------------------------------------------------
 isymop:  -1  -1  -1
           0   0   1
           0   1   0

 gtrans:     0.5000000     0.0000000     0.0000000

 ptrans:     0.0000000     0.0000000     0.0000000
 rotmap:
 (   1->   1)  (   2->   2) 


 irot  :  36
 --------------------------------------------------------------------
 isymop:   1   1   1
           0   0  -1
           0  -1   0

 gtrans:     0.5000000     0.0000000     0.0000000

 ptrans:     0.0000000     0.0000000     0.0000000
 rotmap:
 (   1->   2)  (   2->   1) 


 irot  :  37
 --------------------------------------------------------------------
 isymop:   0  -1   0
           0   0  -1
           1   1   1

 gtrans:     0.0000000     0.0000000     0.5000000

 ptrans:     0.0000000     0.0000000     0.0000000
 rotmap:
 (   1->   2)  (   2->   1) 


 irot  :  38
 --------------------------------------------------------------------
 isymop:   0   1   0
           0   0   1
          -1  -1  -1

 gtrans:     0.0000000     0.0000000     0.5000000

 ptrans:     0.0000000     0.0000000     0.0000000
 rotmap:
 (   1->   1)  (   2->   2) 


 irot  :  39
 --------------------------------------------------------------------
 isymop:  -1   0   0
           0  -1   0
           1   1   1

 gtrans:     0.0000000     0.0000000     0.5000000

 ptrans:     0.0000000     0.0000000     0.0000000
 rotmap:
 (   1->   2)  (   2->   1) 


 irot  :  40
 --------------------------------------------------------------------
 isymop:   1   0   0
           0   1   0
          -1  -1  -1

 gtrans:     0.0000000     0.0000000     0.5000000

 ptrans:     0.0000000     0.0000000     0.0000000
 rotmap:
 (   1->   1)  (   2->   2) 


 irot  :  41
 --------------------------------------------------------------------
 isymop:   0   0  -1
          -1   0   0
           1   1   1

 gtrans:     0.0000000     0.0000000     0.5000000

 ptrans:     0.0000000     0.0000000     0.0000000
 rotmap:
 (   1->   2)  (   2->   1) 


 irot  :  42
 --------------------------------------------------------------------
 isymop:   0   0   1
           1   0   0
          -1  -1  -1

 gtrans:     0.0000000     0.0000000     0.5000000

 ptrans:     0.0000000     0.0000000     0.0000000
 rotmap:
 (   1->   1)  (   2->   2) 


 irot  :  43
 --------------------------------------------------------------------
 isymop:   1   0   0
          -1  -1  -1
           0   1   0

 gtrans:     0.0000000     0.5000000     0.0000000

 ptrans:     0.0000000     0.0000000     0.0000000
 rotmap:
 (   1->   1)  (   2->   2) 


 irot  :  44
 --------------------------------------------------------------------
 isymop:  -1   0   0
           1   1   1
           0  -1   0

 gtrans:     0.0000000     0.5000000     0.0000000

 ptrans:     0.0000000     0.0000000     0.0000000
 rotmap:
 (   1->   2)  (   2->   1) 


 irot  :  45
 --------------------------------------------------------------------
 isymop:   0   0   1
          -1  -1  -1
           1   0   0

 gtrans:     0.0000000     0.5000000     0.0000000

 ptrans:     0.0000000     0.0000000     0.0000000
 rotmap:
 (   1->   1)  (   2->   2) 


 irot  :  46
 --------------------------------------------------------------------
 isymop:   0   0  -1
           1   1   1
          -1   0   0

 gtrans:     0.0000000     0.5000000     0.0000000

 ptrans:     0.0000000     0.0000000     0.0000000
 rotmap:
 (   1->   2)  (   2->   1) 


 irot  :  47
 --------------------------------------------------------------------
 isymop:   0   1   0
          -1  -1  -1
           0   0   1

 gtrans:     0.0000000     0.5000000     0.0000000

 ptrans:     0.0000000     0.0000000     0.0000000
 rotmap:
 (   1->   1)  (   2->   2) 


 irot  :  48
 --------------------------------------------------------------------
 isymop:   0  -1   0
           1   1   1
           0   0  -1

 gtrans:     0.0000000     0.5000000     0.0000000

 ptrans:     0.0000000     0.0000000     0.0000000
 rotmap:
 (   1->   2)  (   2->   1) 
 
 
 KPOINTS: Automatic kpoint scheme                 

Automatic generation of k-mesh.
Space group operators:
 irot       det(A)        alpha          n_x          n_y          n_z        tau_x        tau_y        tau_z
    1     1.000000     0.000000     1.000000     0.000000     0.000000     0.000000     0.000000     0.000000
    2    -1.000000     0.000000     1.000000     0.000000     0.000000     0.000000     0.000000     0.000000
    3     1.000000   120.000000    -0.471405    -0.333333    -0.816497     0.000000     0.000000     0.000000
    4    -1.000000   120.000000    -0.471405    -0.333333    -0.816497     0.000000     0.000000     0.000000
    5     1.000000   120.000000     0.471405     0.333334     0.816496     0.000000     0.000000     0.000000
    6    -1.000000   120.000000     0.471405     0.333334     0.816496     0.000000     0.000000     0.000000
    7     1.000000   180.000000     0.288675     0.816497    -0.500000     0.000000     0.000000     0.000000
    8    -1.000000   180.000000     0.288675     0.816497    -0.500000     0.000000     0.000000     0.000000
    9     1.000000   180.000000     0.577350    -0.816497     0.000000     0.000000     0.000000     0.000000
   10    -1.000000   180.000000     0.577350    -0.816497     0.000000     0.000000     0.000000     0.000000
   11     1.000000   180.000000     0.866025     0.000000    -0.500000     0.000000     0.000000     0.000000
   12    -1.000000   180.000000     0.866025     0.000000    -0.500000     0.000000     0.000000     0.000000
   13     1.000000    90.000000    -0.816496    -0.577350     0.000000     0.500000     0.000000     0.000000
   14    -1.000000    90.000000    -0.816496    -0.577350     0.000000     0.500000     0.000000     0.000000
   15     1.000000   180.000000     0.866025     0.000000     0.500000     0.500000     0.000000     0.000000
   16    -1.000000   180.000000     0.866025     0.000000     0.500000     0.500000     0.000000     0.000000
   17     1.000000    90.000000     0.408248    -0.577350     0.707107     0.500000     0.000000     0.000000
   18    -1.000000    90.000000     0.408248    -0.577350     0.707107     0.500000     0.000000     0.000000
   19     1.000000   180.000000     0.816497     0.577350     0.000000     0.000000     0.000000     0.500000
   20    -1.000000   180.000000     0.816497     0.577350     0.000000     0.000000     0.000000     0.500000
   21     1.000000   120.000000     0.942809    -0.333333     0.000000     0.000000     0.000000     0.500000
   22    -1.000000   120.000000     0.942809    -0.333333     0.000000     0.000000     0.000000     0.500000
   23     1.000000   120.000000     0.000000    -1.000000     0.000000     0.000000     0.000000     0.500000
   24    -1.000000   120.000000     0.000000    -1.000000     0.000000     0.000000     0.000000     0.500000
   25     1.000000    90.000000     0.816497     0.577350     0.000000     0.000000     0.500000     0.000000
   26    -1.000000    90.000000     0.816497     0.577350     0.000000     0.000000     0.500000     0.000000
   27     1.000000    90.000000     0.408248    -0.577350    -0.707107     0.000000     0.500000     0.000000
   28    -1.000000    90.000000     0.408248    -0.577350    -0.707107     0.000000     0.500000     0.000000
   29     1.000000   180.000000     0.288675     0.816497     0.500000     0.000000     0.500000     0.000000
   30    -1.000000   180.000000     0.288675     0.816497     0.500000     0.000000     0.500000     0.000000
   31     1.000000   120.000000     0.000000     1.000000     0.000000     0.500000     0.000000     0.000000
   32    -1.000000   120.000000     0.000000     1.000000     0.000000     0.500000     0.000000     0.000000
   33     1.000000   120.000000     0.471404     0.333333    -0.816497     0.500000     0.000000     0.000000
   34    -1.000000   120.000000     0.471404     0.333333    -0.816497     0.500000     0.000000     0.000000
   35     1.000000   180.000000    -0.408248     0.577350     0.707107     0.500000     0.000000     0.000000
   36    -1.000000   180.000000    -0.408248     0.577350     0.707107     0.500000     0.000000     0.000000
   37     1.000000    90.000000    -0.408248     0.577350    -0.707107     0.000000     0.000000     0.500000
   38    -1.000000    90.000000    -0.408248     0.577350    -0.707107     0.000000     0.000000     0.500000
   39     1.000000   180.000000     0.000000     0.000000     1.000000     0.000000     0.000000     0.500000
   40    -1.000000   180.000000     0.000000     0.000000     1.000000     0.000000     0.000000     0.500000
   41     1.000000    90.000000    -0.408248     0.577350     0.707107     0.000000     0.000000     0.500000
   42    -1.000000    90.000000    -0.408248     0.577350     0.707107     0.000000     0.000000     0.500000
   43     1.000000   120.000000    -0.942809     0.333333     0.000000     0.000000     0.500000     0.000000
   44    -1.000000   120.000000    -0.942809     0.333333     0.000000     0.000000     0.500000     0.000000
   45     1.000000   179.999999    -0.408248     0.577350    -0.707107     0.000000     0.500000     0.000000
   46    -1.000000   179.999999    -0.408248     0.577350    -0.707107     0.000000     0.500000     0.000000
   47     1.000000   120.000000    -0.471404    -0.333333     0.816497     0.000000     0.500000     0.000000
   48    -1.000000   120.000000    -0.471404    -0.333333     0.816497     0.000000     0.500000     0.000000
 
 Subroutine IBZKPT returns following result:
 ===========================================
 
 Found     56 irreducible k-points:
 
 Following reciprocal coordinates:
            Coordinates               Weight
  0.000000  0.000000  0.000000      1.000000
  0.090909  0.000000  0.000000      8.000000
  0.181818  0.000000  0.000000      8.000000
  0.272727  0.000000  0.000000      8.000000
  0.363636  0.000000  0.000000      8.000000
  0.454545  0.000000  0.000000      8.000000
  0.090909  0.090909  0.000000      6.000000
  0.181818  0.090909  0.000000     24.000000
  0.272727  0.090909  0.000000     24.000000
  0.363636  0.090909  0.000000     24.000000
  0.454545  0.090909  0.000000     24.000000
 -0.454545  0.090909  0.000000     24.000000
 -0.363636  0.090909  0.000000     24.000000
 -0.272727  0.090909  0.000000     24.000000
 -0.181818  0.090909  0.000000     24.000000
 -0.090909  0.090909  0.000000     12.000000
  0.181818  0.181818  0.000000      6.000000
  0.272727  0.181818  0.000000     24.000000
  0.363636  0.181818  0.000000     24.000000
  0.454545  0.181818  0.000000     24.000000
 -0.454545  0.181818  0.000000     24.000000
 -0.363636  0.181818  0.000000     24.000000
 -0.272727  0.181818  0.000000     24.000000
 -0.181818  0.181818  0.000000     12.000000
  0.272727  0.272727  0.000000      6.000000
  0.363636  0.272727  0.000000     24.000000
  0.454545  0.272727  0.000000     24.000000
 -0.454545  0.272727  0.000000     24.000000
 -0.363636  0.272727  0.000000     24.000000
 -0.272727  0.272727  0.000000     12.000000
  0.363636  0.363636  0.000000      6.000000
  0.454545  0.363636  0.000000     24.000000
 -0.454545  0.363636  0.000000     24.000000
 -0.363636  0.363636  0.000000     12.000000
  0.454545  0.454545  0.000000      6.000000
 -0.454545  0.454545  0.000000     12.000000
  0.272727  0.181818  0.090909     24.000000
  0.363636  0.181818  0.090909     48.000000
  0.454545  0.181818  0.090909     48.000000
 -0.454545  0.181818  0.090909     48.000000
  0.363636  0.272727  0.090909     24.000000
  0.454545  0.272727  0.090909     48.000000
 -0.454545  0.272727  0.090909     48.000000
 -0.363636  0.272727  0.090909     48.000000
 -0.272727  0.272727  0.090909     48.000000
 -0.181818  0.272727  0.090909     24.000000
  0.454545  0.363636  0.090909     24.000000
 -0.454545  0.363636  0.090909     48.000000
 -0.363636  0.363636  0.090909     48.000000
 -0.272727  0.363636  0.090909     24.000000
 -0.454545  0.454545  0.090909     24.000000
 -0.363636  0.454545  0.090909     24.000000
 -0.454545  0.363636  0.181818     24.000000
 -0.363636  0.363636  0.181818     48.000000
 -0.363636  0.454545  0.181818     24.000000
 -0.272727  0.454545  0.181818     24.000000
 
 Following cartesian coordinates:
            Coordinates               Weight
  0.000000  0.000000  0.000000      1.000000
  0.027146 -0.009598  0.000000      8.000000
  0.054292 -0.019195  0.000000      8.000000
  0.081438 -0.028793  0.000000      8.000000
  0.108584 -0.038390  0.000000      8.000000
  0.135730 -0.047988  0.000000      8.000000
  0.027146  0.019195  0.000000      6.000000
  0.054292  0.009598  0.000000     24.000000
  0.081438  0.000000  0.000000     24.000000
  0.108584 -0.009598  0.000000     24.000000
  0.135730 -0.019195  0.000000     24.000000
 -0.135730  0.076780  0.000000     24.000000
 -0.108584  0.067183  0.000000     24.000000
 -0.081438  0.057585  0.000000     24.000000
 -0.054292  0.047988  0.000000     24.000000
 -0.027146  0.038390  0.000000     12.000000
  0.054292  0.038390  0.000000      6.000000
  0.081438  0.028793  0.000000     24.000000
  0.108584  0.019195  0.000000     24.000000
  0.135730  0.009598  0.000000     24.000000
 -0.135730  0.105573  0.000000     24.000000
 -0.108584  0.095975  0.000000     24.000000
 -0.081438  0.086378  0.000000     24.000000
 -0.054292  0.076780  0.000000     12.000000
  0.081438  0.057585  0.000000      6.000000
  0.108584  0.047988  0.000000     24.000000
  0.135730  0.038390  0.000000     24.000000
 -0.135730  0.134366  0.000000     24.000000
 -0.108584  0.124768  0.000000     24.000000
 -0.081438  0.115171  0.000000     12.000000
  0.108584  0.076780  0.000000      6.000000
  0.135730  0.067183  0.000000     24.000000
 -0.135730  0.163158  0.000000     24.000000
 -0.108584  0.153561  0.000000     12.000000
  0.135730  0.095975  0.000000      6.000000
 -0.135730  0.191951  0.000000     12.000000
  0.067865  0.019195  0.023509     24.000000
  0.095011  0.009598  0.023509     48.000000
  0.122157  0.000000  0.023509     48.000000
 -0.149303  0.095975  0.023509     48.000000
  0.095011  0.038390  0.023509     24.000000
  0.122157  0.028793  0.023509     48.000000
 -0.149303  0.124768  0.023509     48.000000
 -0.122157  0.115171  0.023509     48.000000
 -0.095011  0.105573  0.023509     48.000000
 -0.067865  0.095975  0.023509     24.000000
  0.122157  0.057585  0.023509     24.000000
 -0.149303  0.153561  0.023509     48.000000
 -0.122157  0.143963  0.023509     48.000000
 -0.095011  0.134366  0.023509     24.000000
 -0.149303  0.182353  0.023509     24.000000
 -0.122157  0.172756  0.023509     24.000000
 -0.162876  0.143963  0.047018     24.000000
 -0.135730  0.134366  0.047018     48.000000
 -0.135730  0.163158  0.047018     24.000000
 -0.108584  0.153561  0.047018     24.000000
 


--------------------------------------------------------------------------------------------------------




 Dimension of arrays:
   k-points           NKPTS =     56   k-points in BZ     NKDIM =     56   number of bands    NBANDS=     12
   number of dos      NEDOS =   5000   number of ions     NIONS =      2
   non local maximal  LDIM  =      4   non local SUM 2l+1 LMDIM =      8
   total plane-waves  NPLWV =  21952
   max r-space proj   IRMAX =      1   max aug-charges    IRDMAX=  18148
   dimension x,y,z NGX =    28 NGY =   28 NGZ =   28
   dimension x,y,z NGXF=    56 NGYF=   56 NGZF=   56
   support grid    NGXF=    56 NGYF=   56 NGZF=   56
   ions per type =               2
 NGX,Y,Z   is equivalent  to a cutoff of  12.04, 12.04, 12.04 a.u.
 NGXF,Y,Z  is equivalent  to a cutoff of  24.08, 24.08, 24.08 a.u.


 I would recommend the setting:
   dimension x,y,z NGX =    28 NGY =   28 NGZ =   28
 SYSTEM =  unknown system                          
 POSCAR =  bulk@mp_149                             

 Startparameter for this run:
   NWRITE =      2    write-flag & timer
   PREC   = accura    normal or accurate (medium, high low for compatibility)
   ISTART =      0    job   : 0-new  1-cont  2-samecut
   ICHARG =      2    charge: 1-file 2-atom 10-const
   ISPIN  =      2    spin polarized calculation?
   LNONCOLLINEAR =      F non collinear calculations
   LSORBIT =      F    spin-orbit coupling
   INIWAV =      1    electr: 0-lowe 1-rand  2-diag
   LASPH  =      F    aspherical Exc in radial PAW
   METAGGA=      F    non-selfconsistent MetaGGA calc.

 Electronic Relaxation 1
   ENCUT  =  500.0 eV  36.75 Ry    6.06 a.u.   7.05  7.05  7.05*2*pi/ulx,y,z
   ENINI  =  500.0     initial cutoff
   ENAUG  =  322.1 eV  augmentation charge cutoff
   NELM   =    500;   NELMIN=  2; NELMDL= -5     # of ELM steps 
   EDIFF  = 0.1E-06   stopping-criterion for ELM
   LREAL  =      F    real-space projection
   NLSPLINE    = F    spline interpolate recip. space projectors
   LCOMPAT=      F    compatible to vasp.4.4
   GGA_COMPAT  = T    GGA compatible to vasp.4.4-vasp.4.6
   LMAXPAW     = -100 max onsite density
   LMAXMIX     =    2 max onsite mixed and CHGCAR
   VOSKOWN=      0    Vosko Wilk Nusair interpolation
   ROPT   =    0.00000
 Ionic relaxation
   EDIFFG = -.1E-02   stopping-criterion for IOM
   NSW    =    500    number of steps for IOM
   NBLOCK =      1;   KBLOCK =    500    inner block; outer block 
   IBRION =      1    ionic relax: 0-MD 1-quasi-New 2-CG
   NFREE  =      0    steps in history (QN), initial steepest desc. (CG)
   ISIF   =      3    stress and relaxation
   IWAVPR =     11    prediction:  0-non 1-charg 2-wave 3-comb
   ISYM   =      2    0-nonsym 1-usesym 2-fastsym
   LCORR  =      T    Harris-Foulkes like correction to forces

   POTIM  = 0.5000    time-step for ionic-motion
   TEIN   =    0.0    initial temperature
   TEBEG  =    0.0;   TEEND  =   0.0 temperature during run
   SMASS  =  -3.00    Nose mass-parameter (am)
   estimated Nose-frequenzy (Omega)   =  0.10E-29 period in steps =****** mass=  -0.342E-27a.u.
   SCALEE = 1.0000    scale energy and forces
   NPACO  =    256;   APACO  = 16.0  distance and # of slots for P.C.
   PSTRESS=    0.0 pullay stress

  Mass of Ions in am
   POMASS =  28.09
  Ionic Valenz
   ZVAL   =   4.00
  Atomic Wigner-Seitz radii
   RWIGS  =  -1.00
  virtual crystal weights 
   VCA    =   1.00
   NELECT =       8.0000    total number of electrons
   NUPDOWN=      -1.0000    fix difference up-down

 DOS related values:
   EMIN   =  10.00;   EMAX   =-10.00  energy-range for DOS
   EFERMI =   0.00
   ISMEAR =     0;   SIGMA  =   0.20  broadening in eV -4-tet -1-fermi 0-gaus

 Electronic relaxation 2 (details)
   IALGO  =     38    algorithm
   LDIAG  =      T    sub-space diagonalisation (order eigenvalues)
   LSUBROT=      T    optimize rotation matrix (better conditioning)
   TURBO    =      0    0=normal 1=particle mesh
   IRESTART =      0    0=no restart 2=restart with 2 vectors
   NREBOOT  =      0    no. of reboots
   NMIN     =      0    reboot dimension
   EREF     =   0.00    reference energy to select bands
   IMIX   =      4    mixing-type and parameters
     AMIX     =   0.40;   BMIX     =  1.00
     AMIX_MAG =   1.60;   BMIX_MAG =  1.00
     AMIN     =   0.10
     WC   =   100.;   INIMIX=   1;  MIXPRE=   1;  MAXMIX= -45

 Intra band minimization:
   WEIMIN = 0.0010     energy-eigenvalue tresh-hold
   EBREAK =  0.21E-08  absolut break condition
   DEPER  =   0.30     relativ break condition  

   TIME   =   0.40     timestep for ELM

  volume/ion in A,a.u.               =      20.44       137.96
  Fermi-wavevector in a.u.,A,eV,Ry     =   0.950397  1.795990 12.289528  0.903255
  Thomas-Fermi vector in A             =   2.078770
 
 Write flags
   LWAVE  =      F    write WAVECAR
   LCHARG =      T    write CHGCAR
   LVTOT  =      F    write LOCPOT, total local potential
   LVHAR  =      T    write LOCPOT, Hartree potential only
   LELF   =      F    write electronic localiz. function (ELF)
   LORBIT =     11    0 simple, 1 ext, 2 COOP (PROOUT)


 Dipole corrections
   LMONO  =      F    monopole corrections only (constant potential shift)
   LDIPOL =      F    correct potential (dipole corrections)
   IDIPOL =      0    1-x, 2-y, 3-z, 4-all directions 
   EPSILON=  1.0000000 bulk dielectric constant

 Exchange correlation treatment:
   GGA     =    BO    GGA type
   LEXCH   =    42    internal setting for exchange type
   VOSKOWN=      0    Vosko Wilk Nusair interpolation
   LHFCALC =     F    Hartree Fock is set to
   LHFONE  =     F    Hartree Fock one center treatment
   AEXX    =    0.0000 exact exchange contribution

 vdW DFT:
   LUSE_VDW   =     T    switch on vdW DFT
   Zab_VDW    =-.8491    correlation parameter
   PARAM1     =0.1833
   PARAM2     =0.2200
   PARAM3     =0.0000

 Linear response parameters
   LEPSILON=     F    determine dielectric tensor
   LRPA    =     F    only Hartree local field effects (RPA)
   LNABLA  =     F    use nabla operator in PAW spheres
   LVEL    =     F    velocity operator in full k-point grid
   LINTERFAST=   F  fast interpolation
   KINTER  =     0    interpolate to denser k-point grid
   CSHIFT  =0.1000    complex shift for real part using Kramers Kronig
   OMEGAMAX=  -1.0    maximum frequency
   DEG_THRESHOLD= 0.2000000E-02 threshold for treating states as degnerate
   RTIME   =    0.100 relaxation time in fs

 Orbital magnetization related:
   ORBITALMAG=     F  switch on orbital magnetization
   LCHIMAG   =     F  perturbation theory with respect to B field
   DQ        =  0.001000  dq finite difference perturbation B field



--------------------------------------------------------------------------------------------------------


 quasi-Newton-method for relaxation of ions
 charge density and potential will be updated during run
 spin polarized calculation
 Variant of blocked Davidson
 Davidson routine will perform the subspace rotation
 perform sub-space diagonalisation
    after iterative eigenvector-optimisation
 modified Broyden-mixing scheme, WC =      100.0
 initial mixing is a Kerker type mixing with AMIX =  0.4000 and BMIX =      1.0000
 Hartree-type preconditioning will be used
 using additional bands            8
 reciprocal scheme for non local part
 use partial core corrections
 calculate Harris-corrections to forces 
   (improved forces if not selfconsistent)
 use gradient corrections 
 use of overlap-Matrix (Vanderbilt PP)
 Gauss-broadening in eV      SIGMA  =   0.20


--------------------------------------------------------------------------------------------------------


  energy-cutoff  :      500.00
  volume of cell :       40.89
      direct lattice vectors                 reciprocal lattice vectors
     3.348898000  0.000000000  1.933487000     0.298605691 -0.105573000  0.000000000
     1.116299000  3.157372000  1.933487000     0.000000000  0.316719094  0.000000000
     0.000000000  0.000000000  3.866975000    -0.149302807 -0.105573020  0.258600069

  length of vectors
     3.866974243  3.866974707  3.866975000     0.316719145  0.316719094  0.316719096


 
 k-points in units of 2pi/SCALE and weight: Automatic kpoint scheme                 
   0.00000000  0.00000000  0.00000000       0.001
   0.02714597 -0.00959755  0.00000000       0.006
   0.05429194 -0.01919509  0.00000000       0.006
   0.08143792 -0.02879264  0.00000000       0.006
   0.10858389 -0.03839018  0.00000000       0.006
   0.13572986 -0.04798773  0.00000000       0.006
   0.02714597  0.01919510  0.00000000       0.005
   0.05429194  0.00959755  0.00000000       0.018
   0.08143792  0.00000001  0.00000000       0.018
   0.10858389 -0.00959754  0.00000000       0.018
   0.13572986 -0.01919508  0.00000000       0.018
  -0.13572986  0.07678037  0.00000000       0.018
  -0.10858389  0.06718283  0.00000000       0.018
  -0.08143792  0.05758528  0.00000000       0.018
  -0.05429194  0.04798774  0.00000000       0.018
  -0.02714597  0.03839019  0.00000000       0.009
   0.05429194  0.03839020  0.00000000       0.005
   0.08143792  0.02879265  0.00000000       0.018
   0.10858389  0.01919511  0.00000000       0.018
   0.13572986  0.00959756  0.00000000       0.018
  -0.13572986  0.10557302  0.00000000       0.018
  -0.10858389  0.09597547  0.00000000       0.018
  -0.08143792  0.08637793  0.00000000       0.018
  -0.05429194  0.07678038  0.00000000       0.009
   0.08143792  0.05758530  0.00000000       0.005
   0.10858389  0.04798775  0.00000000       0.018
   0.13572986  0.03839021  0.00000000       0.018
  -0.13572986  0.13436566  0.00000000       0.018
  -0.10858389  0.12476812  0.00000000       0.018
  -0.08143792  0.11517057  0.00000000       0.009
   0.10858389  0.07678040  0.00000000       0.005
   0.13572986  0.06718285  0.00000000       0.018
  -0.13572986  0.16315831  0.00000000       0.018
  -0.10858389  0.15356076  0.00000000       0.009
   0.13572986  0.09597550  0.00000000       0.005
  -0.13572986  0.19195095  0.00000000       0.009
   0.06786493  0.01919511  0.02350910       0.018
   0.09501091  0.00959756  0.02350910       0.036
   0.12215688  0.00000002  0.02350910       0.036
  -0.14930284  0.09597547  0.02350910       0.036
   0.09501091  0.03839021  0.02350910       0.018
   0.12215688  0.02879266  0.02350910       0.036
  -0.14930284  0.12476811  0.02350910       0.036
  -0.12215687  0.11517057  0.02350910       0.036
  -0.09501090  0.10557302  0.02350910       0.036
  -0.06786493  0.09597548  0.02350910       0.018
   0.12215688  0.05758531  0.02350910       0.018
  -0.14930284  0.15356076  0.02350910       0.036
  -0.12215687  0.14396321  0.02350910       0.036
  -0.09501090  0.13436567  0.02350910       0.018
  -0.14930284  0.18235340  0.02350910       0.018
  -0.12215687  0.17275586  0.02350910       0.018
  -0.16287582  0.14396321  0.04701819       0.018
  -0.13572985  0.13436567  0.04701819       0.036
  -0.13572985  0.16315831  0.04701819       0.018
  -0.10858388  0.15356077  0.04701819       0.018
 
 k-points in reciprocal lattice and weights: Automatic kpoint scheme                 
   0.00000000  0.00000000  0.00000000       0.001
   0.09090909  0.00000000  0.00000000       0.006
   0.18181818  0.00000000  0.00000000       0.006
   0.27272727  0.00000000  0.00000000       0.006
   0.36363636  0.00000000  0.00000000       0.006
   0.45454545  0.00000000  0.00000000       0.006
   0.09090909  0.09090909  0.00000000       0.005
   0.18181818  0.09090909  0.00000000       0.018
   0.27272727  0.09090909  0.00000000       0.018
   0.36363636  0.09090909  0.00000000       0.018
   0.45454545  0.09090909  0.00000000       0.018
  -0.45454545  0.09090909  0.00000000       0.018
  -0.36363636  0.09090909  0.00000000       0.018
  -0.27272727  0.09090909  0.00000000       0.018
  -0.18181818  0.09090909  0.00000000       0.018
  -0.09090909  0.09090909  0.00000000       0.009
   0.18181818  0.18181818  0.00000000       0.005
   0.27272727  0.18181818  0.00000000       0.018
   0.36363636  0.18181818  0.00000000       0.018
   0.45454545  0.18181818  0.00000000       0.018
  -0.45454545  0.18181818  0.00000000       0.018
  -0.36363636  0.18181818  0.00000000       0.018
  -0.27272727  0.18181818  0.00000000       0.018
  -0.18181818  0.18181818  0.00000000       0.009
   0.27272727  0.27272727  0.00000000       0.005
   0.36363636  0.27272727  0.00000000       0.018
   0.45454545  0.27272727  0.00000000       0.018
  -0.45454545  0.27272727  0.00000000       0.018
  -0.36363636  0.27272727  0.00000000       0.018
  -0.27272727  0.27272727  0.00000000       0.009
   0.36363636  0.36363636  0.00000000       0.005
   0.45454545  0.36363636  0.00000000       0.018
  -0.45454545  0.36363636  0.00000000       0.018
  -0.36363636  0.36363636  0.00000000       0.009
   0.45454545  0.45454545  0.00000000       0.005
  -0.45454545  0.45454545  0.00000000       0.009
   0.27272727  0.18181818  0.09090909       0.018
   0.36363636  0.18181818  0.09090909       0.036
   0.45454545  0.18181818  0.09090909       0.036
  -0.45454545  0.18181818  0.09090909       0.036
   0.36363636  0.27272727  0.09090909       0.018
   0.45454545  0.27272727  0.09090909       0.036
  -0.45454545  0.27272727  0.09090909       0.036
  -0.36363636  0.27272727  0.09090909       0.036
  -0.27272727  0.27272727  0.09090909       0.036
  -0.18181818  0.27272727  0.09090909       0.018
   0.45454545  0.36363636  0.09090909       0.018
  -0.45454545  0.36363636  0.09090909       0.036
  -0.36363636  0.36363636  0.09090909       0.036
  -0.27272727  0.36363636  0.09090909       0.018
  -0.45454545  0.45454545  0.09090909       0.018
  -0.36363636  0.45454545  0.09090909       0.018
  -0.45454545  0.36363636  0.18181818       0.018
  -0.36363636  0.36363636  0.18181818       0.036
  -0.36363636  0.45454545  0.18181818       0.018
  -0.27272727  0.45454545  0.18181818       0.018
 
 position of ions in fractional coordinates (direct lattice) 
   0.87500000  0.87500000  0.87500000
   0.12500000  0.12500000  0.12500000
 
 position of ions in cartesian coordinates  (Angst):
   3.90704738  2.76270050  6.76720537
   0.55814962  0.39467150  0.96674362
 


--------------------------------------------------------------------------------------------------------


 k-point  1 :   0.0000 0.0000 0.0000  plane waves:    1037
 k-point  2 :   0.0909 0.0000 0.0000  plane waves:    1016
 k-point  3 :   0.1818 0.0000 0.0000  plane waves:    1019
 k-point  4 :   0.2727 0.0000 0.0000  plane waves:    1035
 k-point  5 :   0.3636 0.0000 0.0000  plane waves:    1044
 k-point  6 :   0.4545 0.0000 0.0000  plane waves:    1038
 k-point  7 :   0.0909 0.0909 0.0000  plane waves:    1014
 k-point  8 :   0.1818 0.0909 0.0000  plane waves:    1019
 k-point  9 :   0.2727 0.0909 0.0000  plane waves:    1031
 k-point 10 :   0.3636 0.0909 0.0000  plane waves:    1044
 k-point 11 :   0.4545 0.0909 0.0000  plane waves:    1036
 k-point 12 :  -0.4545 0.0909 0.0000  plane waves:    1044
 k-point 13 :  -0.3636 0.0909 0.0000  plane waves:    1040
 k-point 14 :  -0.2727 0.0909 0.0000  plane waves:    1040
 k-point 15 :  -0.1818 0.0909 0.0000  plane waves:    1032
 k-point 16 :  -0.0909 0.0909 0.0000  plane waves:    1021
 k-point 17 :   0.1818 0.1818 0.0000  plane waves:    1018
 k-point 18 :   0.2727 0.1818 0.0000  plane waves:    1027
 k-point 19 :   0.3636 0.1818 0.0000  plane waves:    1038
 k-point 20 :   0.4545 0.1818 0.0000  plane waves:    1035
 k-point 21 :  -0.4545 0.1818 0.0000  plane waves:    1043
 k-point 22 :  -0.3636 0.1818 0.0000  plane waves:    1044
 k-point 23 :  -0.2727 0.1818 0.0000  plane waves:    1043
 k-point 24 :  -0.1818 0.1818 0.0000  plane waves:    1037
 k-point 25 :   0.2727 0.2727 0.0000  plane waves:    1022
 k-point 26 :   0.3636 0.2727 0.0000  plane waves:    1039
 k-point 27 :   0.4545 0.2727 0.0000  plane waves:    1036
 k-point 28 :  -0.4545 0.2727 0.0000  plane waves:    1040
 k-point 29 :  -0.3636 0.2727 0.0000  plane waves:    1042
 k-point 30 :  -0.2727 0.2727 0.0000  plane waves:    1029
 k-point 31 :   0.3636 0.3636 0.0000  plane waves:    1030
 k-point 32 :   0.4545 0.3636 0.0000  plane waves:    1041
 k-point 33 :  -0.4545 0.3636 0.0000  plane waves:    1035
 k-point 34 :  -0.3636 0.3636 0.0000  plane waves:    1039
 k-point 35 :   0.4545 0.4545 0.0000  plane waves:    1034
 k-point 36 :  -0.4545 0.4545 0.0000  plane waves:    1033
 k-point 37 :   0.2727 0.1818 0.0909  plane waves:    1024
 k-point 38 :   0.3636 0.1818 0.0909  plane waves:    1036
 k-point 39 :   0.4545 0.1818 0.0909  plane waves:    1039
 k-point 40 :  -0.4545 0.1818 0.0909  plane waves:    1036
 k-point 41 :   0.3636 0.2727 0.0909  plane waves:    1040
 k-point 42 :   0.4545 0.2727 0.0909  plane waves:    1043
 k-point 43 :  -0.4545 0.2727 0.0909  plane waves:    1046
 k-point 44 :  -0.3636 0.2727 0.0909  plane waves:    1044
 k-point 45 :  -0.2727 0.2727 0.0909  plane waves:    1039
 k-point 46 :  -0.1818 0.2727 0.0909  plane waves:    1044
 k-point 47 :   0.4545 0.3636 0.0909  plane waves:    1038
 k-point 48 :  -0.4545 0.3636 0.0909  plane waves:    1040
 k-point 49 :  -0.3636 0.3636 0.0909  plane waves:    1041
 k-point 50 :  -0.2727 0.3636 0.0909  plane waves:    1037
 k-point 51 :  -0.4545 0.4545 0.0909  plane waves:    1041
 k-point 52 :  -0.3636 0.4545 0.0909  plane waves:    1044
 k-point 53 :  -0.4545 0.3636 0.1818  plane waves:    1041
 k-point 54 :  -0.3636 0.3636 0.1818  plane waves:    1049
 k-point 55 :  -0.3636 0.4545 0.1818  plane waves:    1039
 k-point 56 :  -0.2727 0.4545 0.1818  plane waves:    1044

 maximum and minimum number of plane-waves per node :       267      249

 maximum number of plane-waves:      1049
 maximum index in each direction: 
   IXMAX=    7   IYMAX=    7   IZMAX=    7
   IXMIN=   -7   IYMIN=   -7   IZMIN=   -7

 WARNING: aliasing errors must be expected set NGX to  30 to avoid them
 WARNING: aliasing errors must be expected set NGY to  30 to avoid them
 WARNING: aliasing errors must be expected set NGZ to  30 to avoid them
 aliasing errors are usually negligible using standard VASP settings
 and one can safely disregard these warnings

 parallel 3D FFT for wavefunctions:
    minimum data exchange during FFTs selected (reduces bandwidth)
 parallel 3D FFT for charge:
    minimum data exchange during FFTs selected (reduces bandwidth)


 total amount of memory used by VASP on root node    34417. kBytes
========================================================================

   base      :      30000. kBytes
   nonl-proj :        969. kBytes
   fftplans  :        586. kBytes
   grid      :       1373. kBytes
   one-center:          6. kBytes
   wavefun   :       1483. kBytes
 
 Broyden mixing: mesh for mixing (old mesh)
   NGX = 15   NGY = 15   NGZ = 15
  (NGX  = 56   NGY  = 56   NGZ  = 56)
  gives a total of   3375 points

 initial charge density was supplied:
 charge density of overlapping atoms calculated
 number of electron       8.0000000 magnetization       2.0000000
 keeping initial charge density in first step


--------------------------------------------------------------------------------------------------------


 Maximum index for augmentation-charges         1419 (set IRDMAX)


--------------------------------------------------------------------------------------------------------


 First call to EWALD:  gamma=   0.514
 Maximum number of real-space cells 3x 3x 3
 Maximum number of reciprocal cells 3x 3x 3

 FEWALD executed in parallel
    FEWALD:  cpu time    0.00: real time    0.00


----------------------------------------- Iteration    1(   1)  ---------------------------------------


vdW kernel read from vdw_kernel.bindat
  0.0000  0.2424  0.5071  0.7962  1.1119  1.4567  1.8333  2.2446  2.6937  3.1842
  3.7199  4.3049  4.9438  5.6415  6.4036  7.2358  8.1446  9.1372 10.2212 11.4050
 12.6979 14.1099 15.6519 17.3360 19.1751 21.1837 23.3773 25.7729 28.3892 31.2465
 34.3669 37.7748 41.4965 45.5611 50.0000
 
    POTLOK:  cpu time    3.46: real time    3.46
    SETDIJ:  cpu time    0.02: real time    0.01
     EDDAV:  cpu time    1.90: real time    1.90
       DOS:  cpu time    0.03: real time    0.03
    --------------------------------------------
      LOOP:  cpu time    5.40: real time    5.85

 eigenvalue-minimisations  :  2688
 total energy-change (2. order) : 0.7473687E+01  (-0.3016465E+03)
 number of electron       8.0000000 magnetization       2.0000000
 augmentation part        8.0000000 magnetization       2.0000000

 Free energy of the ion-electron system (eV)
  ---------------------------------------------------
  alpha Z        PSCENC =         3.29317992
  Ewald energy   TEWEN  =      -226.94489173
  -1/2 Hartree   DENC   =       -11.32339116
  -exchange  EXHF       =         0.00000000
  -V(xc)+E(xc)   XCENC  =       -20.01545751
  PAW double counting   =       189.18569288     -152.40348104
  entropy T*S    EENTRO =        -0.00704700
  eigenvalues    EBANDS =        17.09534402
  atomic energy  EATOM  =       208.59373829
  ---------------------------------------------------
  free energy    TOTEN  =         7.47368666 eV

  energy without entropy =        7.48073366  energy(sigma->0) =        7.47721016


--------------------------------------------------------------------------------------------------------




----------------------------------------- Iteration    1(   2)  ---------------------------------------


     EDDAV:  cpu time    2.13: real time    2.13
       DOS:  cpu time    0.04: real time    0.04
    --------------------------------------------
      LOOP:  cpu time    2.18: real time    2.34

 eigenvalue-minimisations  :  3412
 total energy-change (2. order) :-0.1495262E+02  (-0.1448715E+02)
 number of electron       8.0000000 magnetization       2.0000000
 augmentation part        8.0000000 magnetization       2.0000000

 Free energy of the ion-electron system (eV)
  ---------------------------------------------------
  alpha Z        PSCENC =         3.29317992
  Ewald energy   TEWEN  =      -226.94489173
  -1/2 Hartree   DENC   =       -11.32339116
  -exchange  EXHF       =         0.00000000
  -V(xc)+E(xc)   XCENC  =       -20.01545751
  PAW double counting   =       189.18569288     -152.40348104
  entropy T*S    EENTRO =        -0.00201428
  eigenvalues    EBANDS =         2.13769140
  atomic energy  EATOM  =       208.59373829
  ---------------------------------------------------
  free energy    TOTEN  =        -7.47893325 eV

  energy without entropy =       -7.47691896  energy(sigma->0) =       -7.47792610


--------------------------------------------------------------------------------------------------------




----------------------------------------- Iteration    1(   3)  ---------------------------------------


     EDDAV:  cpu time    2.23: real time    2.23
       DOS:  cpu time    0.04: real time    0.04
    --------------------------------------------
      LOOP:  cpu time    2.28: real time    2.69

 eigenvalue-minimisations  :  3524
 total energy-change (2. order) :-0.4203473E+00  (-0.4193145E+00)
 number of electron       8.0000000 magnetization       2.0000000
 augmentation part        8.0000000 magnetization       2.0000000

 Free energy of the ion-electron system (eV)
  ---------------------------------------------------
  alpha Z        PSCENC =         3.29317992
  Ewald energy   TEWEN  =      -226.94489173
  -1/2 Hartree   DENC   =       -11.32339116
  -exchange  EXHF       =         0.00000000
  -V(xc)+E(xc)   XCENC  =       -20.01545751
  PAW double counting   =       189.18569288     -152.40348104
  entropy T*S    EENTRO =        -0.00192739
  eigenvalues    EBANDS =         1.71725720
  atomic energy  EATOM  =       208.59373829
  ---------------------------------------------------
  free energy    TOTEN  =        -7.89928054 eV

  energy without entropy =       -7.89735315  energy(sigma->0) =       -7.89831685


--------------------------------------------------------------------------------------------------------




----------------------------------------- Iteration    1(   4)  ---------------------------------------


     EDDAV:  cpu time    1.90: real time    1.90
       DOS:  cpu time    0.04: real time    0.04
    --------------------------------------------
      LOOP:  cpu time    1.95: real time    2.76

 eigenvalue-minimisations  :  3136
 total energy-change (2. order) :-0.3213165E-02  (-0.3212802E-02)
 number of electron       8.0000000 magnetization       2.0000000
 augmentation part        8.0000000 magnetization       2.0000000

 Free energy of the ion-electron system (eV)
  ---------------------------------------------------
  alpha Z        PSCENC =         3.29317992
  Ewald energy   TEWEN  =      -226.94489173
  -1/2 Hartree   DENC   =       -11.32339116
  -exchange  EXHF       =         0.00000000
  -V(xc)+E(xc)   XCENC  =       -20.01545751
  PAW double counting   =       189.18569288     -152.40348104
  entropy T*S    EENTRO =        -0.00192633
  eigenvalues    EBANDS =         1.71404298
  atomic energy  EATOM  =       208.59373829
  ---------------------------------------------------
  free energy    TOTEN  =        -7.90249371 eV

  energy without entropy =       -7.90056738  energy(sigma->0) =       -7.90153054


--------------------------------------------------------------------------------------------------------




----------------------------------------- Iteration    1(   5)  ---------------------------------------


     EDDAV:  cpu time    2.52: real time    2.52
       DOS:  cpu time    0.04: real time    0.04
    CHARGE:  cpu time    0.12: real time    0.15
    MIXING:  cpu time    0.00: real time    0.00
    --------------------------------------------
      LOOP:  cpu time    2.69: real time    2.90

 eigenvalue-minimisations  :  3560
 total energy-change (2. order) :-0.3643792E-04  (-0.3643683E-04)
 number of electron       8.0000000 magnetization      -0.5410084
 augmentation part       -0.4836592 magnetization      -0.5492680

 Broyden mixing:
  rms(total) = 0.51877E+00    rms(broyden)= 0.51877E+00
  rms(prec ) = 0.96334E+00
  weight for this iteration     100.00

 Free energy of the ion-electron system (eV)
  ---------------------------------------------------
  alpha Z        PSCENC =         3.29317992
  Ewald energy   TEWEN  =      -226.94489173
  -1/2 Hartree   DENC   =       -11.32339116
  -exchange  EXHF       =         0.00000000
  -V(xc)+E(xc)   XCENC  =       -20.01545751
  PAW double counting   =       189.18569288     -152.40348104
  entropy T*S    EENTRO =        -0.00192631
  eigenvalues    EBANDS =         1.71400652
  atomic energy  EATOM  =       208.59373829
  ---------------------------------------------------
  free energy    TOTEN  =        -7.90253015 eV

  energy without entropy =       -7.90060384  energy(sigma->0) =       -7.90156699


--------------------------------------------------------------------------------------------------------




----------------------------------------- Iteration    1(   6)  ---------------------------------------


    POTLOK:  cpu time    1.58: real time    1.58
    SETDIJ:  cpu time    0.01: real time    0.01
     EDDAV:  cpu time    2.20: real time    2.20
       DOS:  cpu time    0.04: real time    0.04
    CHARGE:  cpu time    0.08: real time    0.08
    MIXING:  cpu time    0.00: real time    0.00
    --------------------------------------------
      LOOP:  cpu time    3.93: real time    4.10

 eigenvalue-minimisations  :  2996
 total energy-change (2. order) :-0.4244245E+00  (-0.1039689E-01)
 number of electron       8.0000000 magnetization       0.4327048
 augmentation part       -0.4762550 magnetization       0.4327623

 Broyden mixing:
  rms(total) = 0.25666E+00    rms(broyden)= 0.25666E+00
  rms(prec ) = 0.55595E+00
  weight for this iteration     100.00

 eigenvalues of (default mixing * dielectric matrix)
  average eigenvalue GAMMA=   0.8167
  0.8167

 Free energy of the ion-electron system (eV)
  ---------------------------------------------------
  alpha Z        PSCENC =         3.29317992
  Ewald energy   TEWEN  =      -226.94489173
  -1/2 Hartree   DENC   =       -12.85957759
  -exchange  EXHF       =         0.00000000
  -V(xc)+E(xc)   XCENC  =       -19.98884288
  PAW double counting   =       307.82668535     -271.17520095
  entropy T*S    EENTRO =        -0.00005697
  eigenvalues    EBANDS =         2.92801190
  atomic energy  EATOM  =       208.59373829
  ---------------------------------------------------
  free energy    TOTEN  =        -8.32695467 eV

  energy without entropy =       -8.32689770  energy(sigma->0) =       -8.32692618


--------------------------------------------------------------------------------------------------------




----------------------------------------- Iteration    1(   7)  ---------------------------------------


    POTLOK:  cpu time    1.55: real time    1.55
    SETDIJ:  cpu time    0.02: real time    0.01
     EDDAV:  cpu time    1.85: real time    1.85
       DOS:  cpu time    0.04: real time    0.04
    CHARGE:  cpu time    0.06: real time    0.06
    MIXING:  cpu time    0.00: real time    0.00
    --------------------------------------------
      LOOP:  cpu time    3.52: real time    3.73

 eigenvalue-minimisations  :  3168
 total energy-change (2. order) : 0.4378410E-02  (-0.7101263E-02)
 number of electron       8.0000000 magnetization       0.0479878
 augmentation part       -0.4709769 magnetization       0.0478509

 Broyden mixing:
  rms(total) = 0.15381E+00    rms(broyden)= 0.15381E+00
  rms(prec ) = 0.26324E+00
  weight for this iteration     100.00

 eigenvalues of (default mixing * dielectric matrix)
  average eigenvalue GAMMA=   1.1340
  1.5307  0.7373

 Free energy of the ion-electron system (eV)
  ---------------------------------------------------
  alpha Z        PSCENC =         3.29317992
  Ewald energy   TEWEN  =      -226.94489173
  -1/2 Hartree   DENC   =       -14.28500930
  -exchange  EXHF       =         0.00000000
  -V(xc)+E(xc)   XCENC  =       -19.76243464
  PAW double counting   =       439.66690843     -403.11346160
  entropy T*S    EENTRO =        -0.00009317
  eigenvalues    EBANDS =         4.22948756
  atomic energy  EATOM  =       208.59373829
  ---------------------------------------------------
  free energy    TOTEN  =        -8.32257626 eV

  energy without entropy =       -8.32248309  energy(sigma->0) =       -8.32252967


--------------------------------------------------------------------------------------------------------




----------------------------------------- Iteration    1(   8)  ---------------------------------------


    POTLOK:  cpu time    1.91: real time    1.91
    SETDIJ:  cpu time    0.01: real time    0.01
     EDDAV:  cpu time    2.22: real time    2.26
       DOS:  cpu time    0.04: real time    0.05
    CHARGE:  cpu time    0.08: real time    0.07
    MIXING:  cpu time    0.00: real time    0.00
    --------------------------------------------
      LOOP:  cpu time    4.26: real time    4.91

 eigenvalue-minimisations  :  3120
 total energy-change (2. order) :-0.2819163E-01  (-0.3351626E-02)
 number of electron       8.0000000 magnetization      -0.0053351
 augmentation part       -0.4675643 magnetization      -0.0053357

 Broyden mixing:
  rms(total) = 0.58927E-01    rms(broyden)= 0.58927E-01
  rms(prec ) = 0.67132E-01
  weight for this iteration     100.00

 eigenvalues of (default mixing * dielectric matrix)
  average eigenvalue GAMMA=   1.2984
  2.4999  0.7867  0.6087

 Free energy of the ion-electron system (eV)
  ---------------------------------------------------
  alpha Z        PSCENC =         3.29317992
  Ewald energy   TEWEN  =      -226.94489173
  -1/2 Hartree   DENC   =       -15.36481613
  -exchange  EXHF       =         0.00000000
  -V(xc)+E(xc)   XCENC  =       -19.59266457
  PAW double counting   =       548.81565883     -512.31613670
  entropy T*S    EENTRO =        -0.00005443
  eigenvalues    EBANDS =         5.16521866
  atomic energy  EATOM  =       208.59373829
  ---------------------------------------------------
  free energy    TOTEN  =        -8.35076789 eV

  energy without entropy =       -8.35071346  energy(sigma->0) =       -8.35074067


--------------------------------------------------------------------------------------------------------




----------------------------------------- Iteration    1(   9)  ---------------------------------------


    POTLOK:  cpu time    1.42: real time    1.42
    SETDIJ:  cpu time    0.01: real time    0.01
     EDDAV:  cpu time    2.16: real time    2.17
       DOS:  cpu time    0.04: real time    0.04
    CHARGE:  cpu time    0.09: real time    0.09
    MIXING:  cpu time    0.00: real time    0.00
    --------------------------------------------
      LOOP:  cpu time    3.74: real time    3.92

 eigenvalue-minimisations  :  3160
 total energy-change (2. order) : 0.2919560E-02  (-0.1157742E-03)
 number of electron       8.0000000 magnetization      -0.0008122
 augmentation part       -0.4676032 magnetization      -0.0007417

 Broyden mixing:
  rms(total) = 0.12600E-01    rms(broyden)= 0.12600E-01
  rms(prec ) = 0.26405E-01
  weight for this iteration     100.00

 eigenvalues of (default mixing * dielectric matrix)
  average eigenvalue GAMMA=   1.2341
  2.4785  1.0753  0.7745  0.6082

 Free energy of the ion-electron system (eV)
  ---------------------------------------------------
  alpha Z        PSCENC =         3.29317992
  Ewald energy   TEWEN  =      -226.94489173
  -1/2 Hartree   DENC   =       -15.39676209
  -exchange  EXHF       =         0.00000000
  -V(xc)+E(xc)   XCENC  =       -19.58312672
  PAW double counting   =       552.05582601     -515.54743306
  entropy T*S    EENTRO =        -0.00005217
  eigenvalues    EBANDS =         5.18167324
  atomic energy  EATOM  =       208.59373829
  ---------------------------------------------------
  free energy    TOTEN  =        -8.34784833 eV

  energy without entropy =       -8.34779616  energy(sigma->0) =       -8.34782224


--------------------------------------------------------------------------------------------------------




----------------------------------------- Iteration    1(  10)  ---------------------------------------


    POTLOK:  cpu time    1.41: real time    1.41
    SETDIJ:  cpu time    0.02: real time    0.02
     EDDAV:  cpu time    2.12: real time    2.12
       DOS:  cpu time    0.04: real time    0.04
    CHARGE:  cpu time    0.07: real time    0.07
    MIXING:  cpu time    0.00: real time    0.00
    --------------------------------------------
      LOOP:  cpu time    3.66: real time    4.71

 eigenvalue-minimisations  :  2960
 total energy-change (2. order) : 0.7454539E-02  (-0.8339331E-04)
 number of electron       8.0000000 magnetization       0.0015006
 augmentation part       -0.4681688 magnetization       0.0014057

 Broyden mixing:
  rms(total) = 0.55989E-02    rms(broyden)= 0.55989E-02
  rms(prec ) = 0.77080E-02
  weight for this iteration     100.00

 eigenvalues of (default mixing * dielectric matrix)
  average eigenvalue GAMMA=   1.3737
  2.3651  2.3651  0.8046  0.7221  0.6118

 Free energy of the ion-electron system (eV)
  ---------------------------------------------------
  alpha Z        PSCENC =         3.29317992
  Ewald energy   TEWEN  =      -226.94489173
  -1/2 Hartree   DENC   =       -15.34547161
  -exchange  EXHF       =         0.00000000
  -V(xc)+E(xc)   XCENC  =       -19.58045867
  PAW double counting   =       544.55503041     -508.01888477
  entropy T*S    EENTRO =        -0.00004539
  eigenvalues    EBANDS =         5.10740978
  atomic energy  EATOM  =       208.59373829
  ---------------------------------------------------
  free energy    TOTEN  =        -8.34039379 eV

  energy without entropy =       -8.34034840  energy(sigma->0) =       -8.34037109


--------------------------------------------------------------------------------------------------------




----------------------------------------- Iteration    1(  11)  ---------------------------------------


    POTLOK:  cpu time    1.41: real time    1.41
    SETDIJ:  cpu time    0.02: real time    0.01
     EDDAV:  cpu time    2.17: real time    2.17
       DOS:  cpu time    0.04: real time    0.04
    CHARGE:  cpu time    0.08: real time    0.08
    MIXING:  cpu time    0.00: real time    0.00
    --------------------------------------------
      LOOP:  cpu time    3.72: real time    3.98

 eigenvalue-minimisations  :  3100
 total energy-change (2. order) : 0.3810562E-03  (-0.1248970E-04)
 number of electron       8.0000000 magnetization      -0.0002078
 augmentation part       -0.4681826 magnetization      -0.0002071

 Broyden mixing:
  rms(total) = 0.30517E-02    rms(broyden)= 0.30517E-02
  rms(prec ) = 0.35405E-02
  weight for this iteration     100.00

 eigenvalues of (default mixing * dielectric matrix)
  average eigenvalue GAMMA=   1.3960
  2.5290  2.5290  1.2441  0.6175  0.6745  0.7816

 Free energy of the ion-electron system (eV)
  ---------------------------------------------------
  alpha Z        PSCENC =         3.29317992
  Ewald energy   TEWEN  =      -226.94489173
  -1/2 Hartree   DENC   =       -15.36326774
  -exchange  EXHF       =         0.00000000
  -V(xc)+E(xc)   XCENC  =       -19.57680631
  PAW double counting   =       543.55458495     -507.01731476
  entropy T*S    EENTRO =        -0.00004538
  eigenvalues    EBANDS =         5.12081003
  atomic energy  EATOM  =       208.59373829
  ---------------------------------------------------
  free energy    TOTEN  =        -8.34001273 eV

  energy without entropy =       -8.33996735  energy(sigma->0) =       -8.33999004


--------------------------------------------------------------------------------------------------------




----------------------------------------- Iteration    1(  12)  ---------------------------------------


    POTLOK:  cpu time    1.34: real time    1.34
    SETDIJ:  cpu time    0.01: real time    0.02
     EDDAV:  cpu time    2.32: real time    2.32
       DOS:  cpu time    0.04: real time    0.04
    CHARGE:  cpu time    0.07: real time    0.07
    MIXING:  cpu time    0.00: real time    0.00
    --------------------------------------------
      LOOP:  cpu time    3.80: real time    3.99

 eigenvalue-minimisations  :  3308
 total energy-change (2. order) :-0.2516631E-03  (-0.9271441E-06)
 number of electron       8.0000000 magnetization      -0.0003621
 augmentation part       -0.4681343 magnetization      -0.0003443

 Broyden mixing:
  rms(total) = 0.16019E-02    rms(broyden)= 0.16019E-02
  rms(prec ) = 0.18167E-02
  weight for this iteration     100.00

 eigenvalues of (default mixing * dielectric matrix)
  average eigenvalue GAMMA=   1.3954
  2.6683  2.6683  1.4124  0.9591  0.7769  0.6191  0.6637

 Free energy of the ion-electron system (eV)
  ---------------------------------------------------
  alpha Z        PSCENC =         3.29317992
  Ewald energy   TEWEN  =      -226.94489173
  -1/2 Hartree   DENC   =       -15.37456899
  -exchange  EXHF       =         0.00000000
  -V(xc)+E(xc)   XCENC  =       -19.57556987
  PAW double counting   =       541.40043589     -504.86437344
  entropy T*S    EENTRO =        -0.00004570
  eigenvalues    EBANDS =         5.13183126
  atomic energy  EATOM  =       208.59373829
  ---------------------------------------------------
  free energy    TOTEN  =        -8.34026439 eV

  energy without entropy =       -8.34021869  energy(sigma->0) =       -8.34024154


--------------------------------------------------------------------------------------------------------




----------------------------------------- Iteration    1(  13)  ---------------------------------------


    POTLOK:  cpu time    1.43: real time    1.43
    SETDIJ:  cpu time    0.02: real time    0.02
     EDDAV:  cpu time    2.20: real time    2.19
       DOS:  cpu time    0.05: real time    0.05
    CHARGE:  cpu time    0.07: real time    0.07
    MIXING:  cpu time    0.00: real time    0.00
    --------------------------------------------
      LOOP:  cpu time    3.76: real time    3.84

 eigenvalue-minimisations  :  3076
 total energy-change (2. order) : 0.1505687E-03  (-0.4840163E-06)
 number of electron       8.0000000 magnetization      -0.0000556
 augmentation part       -0.4681381 magnetization      -0.0000585

 Broyden mixing:
  rms(total) = 0.29834E-03    rms(broyden)= 0.29834E-03
  rms(prec ) = 0.34645E-03
  weight for this iteration     100.00

 eigenvalues of (default mixing * dielectric matrix)
  average eigenvalue GAMMA=   1.4149
  2.7548  2.6749  1.9833  1.0943  0.7750  0.7750  0.6274  0.6349

 Free energy of the ion-electron system (eV)
  ---------------------------------------------------
  alpha Z        PSCENC =         3.29317992
  Ewald energy   TEWEN  =      -226.94489173
  -1/2 Hartree   DENC   =       -15.37286595
  -exchange  EXHF       =         0.00000000
  -V(xc)+E(xc)   XCENC  =       -19.57599385
  PAW double counting   =       538.78223211     -502.24568598
  entropy T*S    EENTRO =        -0.00004549
  eigenvalues    EBANDS =         5.13021886
  atomic energy  EATOM  =       208.59373829
  ---------------------------------------------------
  free energy    TOTEN  =        -8.34011382 eV

  energy without entropy =       -8.34006834  energy(sigma->0) =       -8.34009108


--------------------------------------------------------------------------------------------------------




----------------------------------------- Iteration    1(  14)  ---------------------------------------


    POTLOK:  cpu time    1.42: real time    1.43
    SETDIJ:  cpu time    0.02: real time    0.02
     EDDAV:  cpu time    2.12: real time    2.12
       DOS:  cpu time    0.04: real time    0.05
    CHARGE:  cpu time    0.08: real time    0.08
    MIXING:  cpu time    0.00: real time    0.00
    --------------------------------------------
      LOOP:  cpu time    3.70: real time    4.18

 eigenvalue-minimisations  :  3000
 total energy-change (2. order) : 0.7135916E-05  (-0.5236080E-07)
 number of electron       8.0000000 magnetization       0.0000043
 augmentation part       -0.4681375 magnetization       0.0000041

 Broyden mixing:
  rms(total) = 0.88565E-04    rms(broyden)= 0.88565E-04
  rms(prec ) = 0.12143E-03
  weight for this iteration     100.00

 eigenvalues of (default mixing * dielectric matrix)
  average eigenvalue GAMMA=   1.3491
  2.7905  2.5814  2.0852  1.1097  0.8261  0.7898  0.7014  0.6186  0.6391

 Free energy of the ion-electron system (eV)
  ---------------------------------------------------
  alpha Z        PSCENC =         3.29317992
  Ewald energy   TEWEN  =      -226.94489173
  -1/2 Hartree   DENC   =       -15.37319885
  -exchange  EXHF       =         0.00000000
  -V(xc)+E(xc)   XCENC  =       -19.57597101
  PAW double counting   =       538.56030379     -502.02374532
  entropy T*S    EENTRO =        -0.00004548
  eigenvalues    EBANDS =         5.13052371
  atomic energy  EATOM  =       208.59373829
  ---------------------------------------------------
  free energy    TOTEN  =        -8.34010669 eV

  energy without entropy =       -8.34006121  energy(sigma->0) =       -8.34008395


--------------------------------------------------------------------------------------------------------




----------------------------------------- Iteration    1(  15)  ---------------------------------------


    POTLOK:  cpu time    1.38: real time    1.40
    SETDIJ:  cpu time    0.02: real time    0.02
     EDDAV:  cpu time    1.80: real time    1.81
       DOS:  cpu time    0.05: real time    0.05
    CHARGE:  cpu time    0.08: real time    0.08
    MIXING:  cpu time    0.00: real time    0.00
    --------------------------------------------
      LOOP:  cpu time    3.33: real time    3.98

 eigenvalue-minimisations  :  2272
 total energy-change (2. order) :-0.7005584E-05  (-0.1005986E-08)
 number of electron       8.0000000 magnetization       0.0000150
 augmentation part       -0.4681365 magnetization       0.0000149

 Broyden mixing:
  rms(total) = 0.42281E-04    rms(broyden)= 0.42281E-04
  rms(prec ) = 0.69059E-04
  weight for this iteration     100.00

 eigenvalues of (default mixing * dielectric matrix)
  average eigenvalue GAMMA=   1.3210
  2.7799  2.5680  2.1067  1.2026  0.9459  0.8938  0.7889  0.6738  0.6205  0.6294

 Free energy of the ion-electron system (eV)
  ---------------------------------------------------
  alpha Z        PSCENC =         3.29317992
  Ewald energy   TEWEN  =      -226.94489173
  -1/2 Hartree   DENC   =       -15.37343620
  -exchange  EXHF       =         0.00000000
  -V(xc)+E(xc)   XCENC  =       -19.57594482
  PAW double counting   =       538.62161407     -502.08508248
  entropy T*S    EENTRO =        -0.00004548
  eigenvalues    EBANDS =         5.13075475
  atomic energy  EATOM  =       208.59373829
  ---------------------------------------------------
  free energy    TOTEN  =        -8.34011369 eV

  energy without entropy =       -8.34006821  energy(sigma->0) =       -8.34009095


--------------------------------------------------------------------------------------------------------




----------------------------------------- Iteration    1(  16)  ---------------------------------------


    POTLOK:  cpu time    1.46: real time    1.51
    SETDIJ:  cpu time    0.02: real time    0.02
     EDDAV:  cpu time    1.60: real time    1.60
       DOS:  cpu time    0.04: real time    0.04
    CHARGE:  cpu time    0.08: real time    0.08
    MIXING:  cpu time    0.00: real time    0.00
    --------------------------------------------
      LOOP:  cpu time    3.20: real time    3.76

 eigenvalue-minimisations  :  1824
 total energy-change (2. order) :-0.5708208E-05  (-0.1211046E-08)
 number of electron       8.0000000 magnetization      -0.0000001
 augmentation part       -0.4681357 magnetization      -0.0000003

 Broyden mixing:
  rms(total) = 0.13573E-04    rms(broyden)= 0.13573E-04
  rms(prec ) = 0.19766E-04
  weight for this iteration     100.00

 eigenvalues of (default mixing * dielectric matrix)
  average eigenvalue GAMMA=   1.4368
  2.9820  2.6413  2.5528  2.1614  1.0455  0.9591  0.7827  0.7703  0.6634  0.6225
  0.6239

 Free energy of the ion-electron system (eV)
[...]
      8      14.9519      0.00000
      9      15.4658      0.00000
     10      15.6806      0.00000
     11      18.4896      0.00000
     12      18.5045      0.00000

 k-point  37 :       0.2727    0.1818    0.0909
  band No.  band energies     occupation 
      1      -5.5008      1.00000
      2       2.4879      1.00000
      3       3.7229      1.00000
      4       4.6730      1.00000
      5       7.8477      0.00000
      6       9.0189      0.00000
      7       9.8094      0.00000
      8      10.2571      0.00000
      9      12.3978      0.00000
     10      13.8307      0.00000
     11      15.5659      0.00000
     12      16.9158      0.00000

 k-point  38 :       0.3636    0.1818    0.0909
  band No.  band energies     occupation 
      1      -5.0045      1.00000
      2       1.2112      1.00000
      3       3.1744      1.00000
      4       4.3691      1.00000
      5       8.1395      0.00000
      6       8.9977      0.00000
      7      10.1562      0.00000
      8      10.3619      0.00000
      9      12.9528      0.00000
     10      15.1697      0.00000
     11      15.7543      0.00000
     12      17.6352      0.00000

 k-point  39 :       0.4545    0.1818    0.0909
  band No.  band energies     occupation 
      1      -4.3694      1.00000
      2      -0.0843      1.00000
      3       2.9177      1.00000
      4       4.0417      1.00000
      5       8.1529      0.00000
      6       8.8458      0.00000
      7      10.2434      0.00000
      8      11.1868      0.00000
      9      14.0181      0.00000
     10      15.2098      0.00000
     11      16.8762      0.00000
     12      17.2610      0.00000

 k-point  40 :      -0.4545    0.1818    0.0909
  band No.  band energies     occupation 
      1      -3.7813      1.00000
      2      -1.0268      1.00000
      3       2.8166      1.00000
      4       3.8415      1.00000
      5       8.1136      0.00000
      6       8.6720      0.00000
      7      10.1841      0.00000
      8      12.6130      0.00000
      9      14.1301      0.00000
     10      15.2581      0.00000
     11      16.5035      0.00000
     12      17.8348      0.00000

 k-point  41 :       0.3636    0.2727    0.0909
  band No.  band energies     occupation 
      1      -4.8245      1.00000
      2       1.2190      1.00000
      3       3.0330      1.00000
      4       3.7144      1.00000
      5       7.3043      0.00000
      6       8.8202      0.00000
      7      10.3978      0.00000
      8      11.4147      0.00000
      9      13.8320      0.00000
     10      15.2969      0.00000
     11      16.7971      0.00000
     12      17.8909      0.00000

 k-point  42 :       0.4545    0.2727    0.0909
  band No.  band energies     occupation 
      1      -4.2276      1.00000
      2       0.1746      1.00000
      3       2.4757      1.00000
      4       3.4171      1.00000
      5       7.6593      0.00000
      6       9.2182      0.00000
      7      10.0932      0.00000
      8      11.8032      0.00000
      9      14.6872      0.00000
     10      16.0407      0.00000
     11      17.0951      0.00000
     12      17.8724      0.00000

 k-point  43 :      -0.4545    0.2727    0.0909
  band No.  band energies     occupation 
      1      -3.5808      1.00000
      2      -0.7947      1.00000
      3       2.0991      1.00000
      4       3.2693      1.00000
      5       7.7923      0.00000
      6       9.7263      0.00000
      7      10.5328      0.00000
      8      11.7654      0.00000
      9      14.3867      0.00000
     10      16.0247      0.00000
     11      17.0536      0.00000
     12      18.3011      0.00000

 k-point  44 :      -0.3636    0.2727    0.0909
  band No.  band energies     occupation 
      1      -3.3273      1.00000
      2      -1.1272      1.00000
      3       1.8778      1.00000
      4       3.3546      1.00000
      5       7.9965      0.00000
      6       9.4701      0.00000
      7      11.6556      0.00000
      8      12.1787      0.00000
      9      12.6563      0.00000
     10      15.3554      0.00000
     11      17.5221      0.00000
     12      18.3224      0.00000

 k-point  45 :      -0.2727    0.2727    0.0909
  band No.  band energies     occupation 
      1      -3.8115      1.00000
      2      -0.4682      1.00000
      3       1.8739      1.00000
      4       3.6364      1.00000
      5       8.3407      0.00000
      6       9.2879      0.00000
      7      10.9810      0.00000
      8      11.5876      0.00000
      9      13.8600      0.00000
     10      14.1199      0.00000
     11      17.7688      0.00000
     12      19.2453      0.00000

 k-point  46 :      -0.1818    0.2727    0.0909
  band No.  band energies     occupation 
      1      -4.4624      1.00000
      2       0.4795      1.00000
      3       2.2438      1.00000
      4       4.0311      1.00000
      5       8.7515      0.00000
      6       8.8771      0.00000
      7      10.1325      0.00000
      8      11.1329      0.00000
      9      12.9645      0.00000
     10      15.7890      0.00000
     11      17.1847      0.00000
     12      17.8851      0.00000

 k-point  47 :       0.4545    0.3636    0.0909
  band No.  band energies     occupation 
      1      -3.9035      1.00000
      2      -0.1203      1.00000
      3       2.5739      1.00000
      4       2.9499      1.00000
      5       6.9614      0.00000
      6       7.8170      0.00000
      7      11.7452      0.00000
      8      13.1141      0.00000
      9      15.4401      0.00000
     10      16.5649      0.00000
     11      17.0586      0.00000
     12      18.5344      0.00000

 k-point  48 :      -0.4545    0.3636    0.0909
  band No.  band energies     occupation 
      1      -3.2471      1.00000
      2      -0.9178      1.00000
      3       1.9607      1.00000
      4       2.7799      1.00000
      5       7.3045      0.00000
      6       8.5948      0.00000
      7      11.4098      0.00000
      8      13.4736      0.00000
      9      14.6554      0.00000
     10      16.4770      0.00000
     11      17.3495      0.00000
     12      19.0269      0.00000

 k-point  49 :      -0.3636    0.3636    0.0909
  band No.  band energies     occupation 
      1      -2.7994      1.00000
      2      -1.3961      1.00000
      3       1.4624      1.00000
      4       2.8908      1.00000
      5       7.5139      0.00000
      6      10.1234      0.00000
      7      11.1206      0.00000
      8      12.6892      0.00000
      9      13.4307      0.00000
     10      15.4429      0.00000
     11      18.3390      0.00000
     12      19.6190      0.00000

 k-point  50 :      -0.2727    0.3636    0.0909
  band No.  band energies     occupation 
      1      -3.1720      1.00000
      2      -1.0074      1.00000
      3       1.3626      1.00000
      4       3.2005      1.00000
      5       7.8716      0.00000
      6      10.5181      0.00000
      7      11.2372      0.00000
      8      12.1124      0.00000
      9      12.9231      0.00000
     10      14.1339      0.00000
     11      19.5149      0.00000
     12      19.7349      0.00000

 k-point  51 :      -0.4545    0.4545    0.0909
  band No.  band energies     occupation 
      1      -2.7713      1.00000
      2      -1.4825      1.00000
      3       2.3893      1.00000
      4       2.5070      1.00000
      5       6.9008      0.00000
      6       7.1735      0.00000
      7      13.2487      0.00000
      8      14.6189      0.00000
      9      15.2296      0.00000
     10      16.6219      0.00000
     11      17.3591      0.00000
     12      18.8199      0.00000

 k-point  52 :      -0.3636    0.4545    0.0909
  band No.  band energies     occupation 
      1      -2.2883      1.00000
      2      -1.9138      1.00000
      3       1.7639      1.00000
      4       2.5764      1.00000
      5       7.1782      0.00000
      6       8.3888      0.00000
      7      12.8132      0.00000
      8      13.0381      0.00000
      9      15.0199      0.00000
     10      15.6624      0.00000
     11      18.2281      0.00000
     12      19.0281      0.00000

 k-point  53 :      -0.4545    0.3636    0.1818
  band No.  band energies     occupation 
      1      -3.6059      1.00000
      2      -0.4998      1.00000
      3       1.8510      1.00000
      4       2.9766      1.00000
      5       8.5687      0.00000
      6       9.2284      0.00000
      7       9.7306      0.00000
      8      13.0172      0.00000
      9      14.3008      0.00000
     10      14.8542      0.00000
     11      18.8604      0.00000
     12      19.1073      0.00000

 k-point  54 :      -0.3636    0.3636    0.1818
  band No.  band energies     occupation 
      1      -2.9959      1.00000
      2      -1.1770      1.00000
      3       1.5807      1.00000
      4       2.6715      1.00000
      5       8.9454      0.00000
      6       9.2768      0.00000
      7      10.5222      0.00000
      8      12.3444      0.00000
      9      13.4670      0.00000
     10      15.9591      0.00000
     11      17.8206      0.00000
     12      19.3313      0.00000

 k-point  55 :      -0.3636    0.4545    0.1818
  band No.  band energies     occupation 
      1      -2.5957      1.00000
      2      -1.5280      1.00000
      3       1.8059      1.00000
      4       2.1752      1.00000
      5       8.4947      0.00000
      6       8.7066      0.00000
      7      11.0165      0.00000
      8      12.5739      0.00000
      9      14.9334      0.00000
     10      16.3630      0.00000
     11      17.6967      0.00000
     12      19.0048      0.00000

 k-point  56 :      -0.2727    0.4545    0.1818
  band No.  band energies     occupation 
      1      -2.4058      1.00000
      2      -1.6864      1.00000
      3       1.5407      1.00000
      4       2.2098      1.00000
      5       8.8392      0.00000
      6      10.0965      0.00000
      7      10.7913      0.00000
      8      10.8025      0.00000
      9      14.9519      0.00000
     10      16.0255      0.00000
     11      17.9915      0.00000
     12      19.1539      0.00000


--------------------------------------------------------------------------------------------------------


 soft charge-density along one line, spin component           1
         0         1         2         3         4         5         6         7         8         9
 total charge-density along one line
 
 soft charge-density along one line, spin component           2
         0         1         2         3         4         5         6         7         8         9
 total charge-density along one line
 
 pseudopotential strength for first ion, spin component:           1
 18.546  25.870   0.000   0.000   0.000   0.000   0.000   0.000
 25.870  36.092   0.000   0.000   0.000   0.000   0.000   0.000
  0.000   0.000   4.200   0.000   0.000   7.819   0.000   0.000
  0.000   0.000   0.000   4.200   0.000   0.000   7.819   0.000
  0.000   0.000   0.000   0.000   4.200   0.000   0.000   7.819
  0.000   0.000   7.819   0.000   0.000  14.567   0.000   0.000
  0.000   0.000   0.000   7.819   0.000   0.000  14.567   0.000
  0.000   0.000   0.000   0.000   7.819   0.000   0.000  14.567
 pseudopotential strength for first ion, spin component:           2
 18.546  25.870   0.000   0.000   0.000   0.000   0.000   0.000
 25.870  36.092   0.000   0.000   0.000   0.000   0.000   0.000
  0.000   0.000   4.200   0.000   0.000   7.819   0.000   0.000
  0.000   0.000   0.000   4.200   0.000   0.000   7.819   0.000
  0.000   0.000   0.000   0.000   4.200   0.000   0.000   7.819
  0.000   0.000   7.819   0.000   0.000  14.567   0.000   0.000
  0.000   0.000   0.000   7.819   0.000   0.000  14.567   0.000
  0.000   0.000   0.000   0.000   7.819   0.000   0.000  14.567
 total augmentation occupancy for first ion, spin component:           1
  3.174  -0.925   0.000   0.000   0.000   0.000   0.000   0.000
 -0.925   0.476   0.000   0.000   0.000   0.000   0.000   0.000
  0.000   0.000   2.219   0.000   0.000  -0.395   0.000   0.000
  0.000   0.000   0.000   2.219   0.000   0.000  -0.395   0.000
  0.000   0.000   0.000   0.000   2.219   0.000   0.000  -0.395
  0.000   0.000  -0.395   0.000   0.000   0.081   0.000   0.000
  0.000   0.000   0.000  -0.395   0.000   0.000   0.081   0.000
  0.000   0.000   0.000   0.000  -0.395   0.000   0.000   0.081
 total augmentation occupancy for first ion, spin component:           2
  0.000   0.000   0.000   0.000   0.000   0.000   0.000   0.000
  0.000   0.000   0.000   0.000   0.000   0.000   0.000   0.000
  0.000   0.000   0.000   0.000   0.000   0.000   0.000   0.000
  0.000   0.000   0.000   0.000   0.000   0.000   0.000   0.000
  0.000   0.000   0.000   0.000   0.000   0.000   0.000   0.000
  0.000   0.000   0.000   0.000   0.000   0.000   0.000   0.000
  0.000   0.000   0.000   0.000   0.000   0.000   0.000   0.000
  0.000   0.000   0.000   0.000   0.000   0.000   0.000   0.000


------------------------ aborting loop because EDIFF is reached ----------------------------------------


 


 total charge     
 
# of ion     s       p       d       tot
----------------------------------------
  1        0.733   0.909   0.000   1.642
  2        0.733   0.909   0.000   1.642
------------------------------------------------
tot        1.466   1.818   0.000   3.284
 


 magnetization (x)
 
# of ion     s       p       d       tot
----------------------------------------
  1        0.000   0.000   0.000   0.000
  2        0.000   0.000   0.000   0.000
------------------------------------------------
tot        0.000   0.000   0.000   0.000
 
    CHARGE:  cpu time    0.09: real time    0.09
    FORLOC:  cpu time    0.00: real time    0.00
    FORNL :  cpu time    0.10: real time    0.10
    STRESS:  cpu time    0.33: real time    0.33
    FORCOR:  cpu time    1.39: real time    1.39
    FORHAR:  cpu time    0.01: real time    0.01
    MIXING:  cpu time    0.00: real time    0.00

  FORCE on cell =-STRESS in cart. coord.  units (eV):
  Direction    XX          YY          ZZ          XY          YZ          ZX
  --------------------------------------------------------------------------------------
  Alpha Z     3.24859     3.24859     3.24859
  Ewald     -75.30536   -75.30538   -75.30536    -0.00001     0.00001     0.00001
  Hartree     5.17753     5.17753     5.17753     0.00000     0.00000     0.00000
  E(xc)     -25.30739   -25.30739   -25.30739     0.00000     0.00000     0.00000
  Local     -29.74961   -29.74961   -29.74961     0.00001     0.00000     0.00000
  n-local    74.01500    77.39829    81.46372    -0.93071    -0.87208    -0.02407
  augment   -11.97678   -11.97678   -11.97679     0.00000     0.00000    -0.00001
  Kinetic    53.00811    55.08767    60.76635     0.77928     1.12191    -0.51955
  Fock        0.00000     0.00000     0.00000     0.00000     0.00000     0.00000
  -------------------------------------------------------------------------------------
  Total       0.00003     0.00003     0.00003     0.00000     0.00000     0.00000
  in kB       0.00115     0.00115     0.00115     0.00000     0.00000     0.00000
  external pressure =        0.00 kB  Pullay stress =        0.00 kB


 VOLUME and BASIS-vectors are now :
 -----------------------------------------------------------------------------
  energy-cutoff  :      500.00
  volume of cell :       41.45
      direct lattice vectors                 reciprocal lattice vectors
     3.364149986 -0.000000003  1.942292739     0.297251907 -0.105094365  0.000000000
     1.121382991  3.171751719  1.942292739     0.000000000  0.315283190  0.000000000
    -0.000000003 -0.000000002  3.884586487    -0.148625915 -0.105094385  0.257427657

  length of vectors
     3.884585719  3.884586189  3.884586487     0.315283241  0.315283190  0.315283192


 FORCES acting on ions
    electron-ion (+dipol)            ewald-force                    non-local-force                 convergence-correction
 -----------------------------------------------------------------------------------------------
   -.380E-05 0.695E-05 0.846E-05   0.634E-05 -.116E-04 -.142E-04   -.873E-16 -.471E-16 0.000E+00   0.411E-12 0.206E-12 0.582E-12
   0.380E-05 -.695E-05 -.846E-05   -.634E-05 0.116E-04 0.142E-04   0.873E-16 0.130E-15 -.347E-16   -.412E-12 -.206E-12 -.583E-12
 -----------------------------------------------------------------------------------------------
   -.124E-12 0.273E-13 -.207E-12   -.235E-15 -.697E-16 -.528E-16   -.716E-20 0.833E-16 -.347E-16   -.415E-15 -.918E-16 -.199E-15
 
 
 POSITION                                       TOTAL-FORCE (eV/Angst)
 -----------------------------------------------------------------------------------
      3.92484      2.77528      6.79803         0.000000      0.000000      0.000000
      0.56069      0.39647      0.97115         0.000000      0.000000      0.000000
 -----------------------------------------------------------------------------------
    total drift:                                0.000000      0.000000      0.000000


--------------------------------------------------------------------------------------------------------



  FREE ENERGIE OF THE ION-ELECTRON SYSTEM (eV)
  ---------------------------------------------------
  free  energy   TOTEN  =        -8.33813590 eV

  energy  without entropy=       -8.33809855  energy(sigma->0) =       -8.33811723
 
 d Force = 0.0000000E+00[ 0.000E+00, 0.000E+00]  d Energy = 0.3776565E-04-0.378E-04
 d Force = 0.0000000E+00[ 0.000E+00, 0.000E+00]  d Ewald  = 0.9495961E-02-0.950E-02


--------------------------------------------------------------------------------------------------------


    POTLOK:  cpu time    1.73: real time    1.73


--------------------------------------------------------------------------------------------------------


 Quasi-Newton relaxation of ions (Broydens 2nd method)
  g(Force)  = 0.551E-43   g(Stress)= 0.636E-10

 retain information from N=  1 steps
 eigenvalues of (default step * inverse Hessian matrix)
  average eigenvalue of G=   0.6115
 eigenvalue spectrum of G is  0.6115


--------------------------------------------------------------------------------------------------------


  
 reached required accuracy - stopping structural energy minimisation
     LOOP+:  cpu time   34.29: real time   40.40
    4ORBIT:  cpu time    0.00: real time    0.00
 


 total charge     
 
# of ion     s       p       d       tot
----------------------------------------
  1        0.733   0.909   0.000   1.642
  2        0.733   0.909   0.000   1.642
------------------------------------------------
tot        1.466   1.818   0.000   3.284
 


 magnetization (x)
 
# of ion     s       p       d       tot
----------------------------------------
  1        0.000   0.000   0.000   0.000
  2        0.000   0.000   0.000   0.000
------------------------------------------------
tot        0.000   0.000   0.000   0.000
 

 total amount of memory used by VASP on root node    34417. kBytes
========================================================================

   base      :      30000. kBytes
   nonl-proj :        969. kBytes
   fftplans  :        586. kBytes
   grid      :       1373. kBytes
   one-center:          6. kBytes
   wavefun   :       1483. kBytes
 
  
  
 General timing and accounting informations for this job:
 ========================================================
  
                  Total CPU time used (sec):      189.156
                            User time (sec):      187.272
                          System time (sec):        1.884
                         Elapsed time (sec):      227.087
  
                   Maximum memory used (kb):      112024.
                   Average memory used (kb):           0.
  
                          Minor page faults:       134548
                          Major page faults:            5
                 Voluntary context switches:         1763
