PROCAR lm decomposed
# of k-points:   56         # of bands:  12         # of ions:   2

 k-point    1 :    0.00000000 0.00000000 0.00000000     weight = 0.00075131

band   1 # energy   -6.19173339 # occ.  1.00000000
 
ion      s     py     pz     px    dxy    dyz    dz2    dxz    dx2    tot
  1  0.207  0.000  0.000  0.000  0.000  0.000  0.000  0.000  0.000  0.207
  2  0.207  0.000  0.000  0.000  0.000  0.000  0.000  0.000  0.000  0.207
tot  0.413  0.000  0.000  0.000  0.000  0.000  0.000  0.000  0.000  0.413
 
band   2 # energy    5.45910630 # occ.  0.99268777
 
ion      s     py     pz     px    dxy    dyz    dz2    dxz    dx2    tot
  1  0.000  0.003  0.122  0.083  0.000  0.000  0.000  0.000  0.000  0.209
  2  0.000  0.003  0.122  0.083  0.000  0.000  0.000  0.000  0.000  0.209
tot  0.000  0.007  0.245  0.167  0.000  0.000  0.000  0.000  0.000  0.418
 
band   3 # energy    5.45910672 # occ.  0.99268771
 
ion      s     py     pz     px    dxy    dyz    dz2    dxz    dx2    tot
  1  0.000  0.081  0.065  0.064  0.000  0.000  0.000  0.000  0.000  0.209
  2  0.000  0.081  0.065  0.064  0.000  0.000  0.000  0.000  0.000  0.209
tot  0.000  0.161  0.130  0.127  0.000  0.000  0.000  0.000  0.000  0.418
 
band   4 # energy    5.45910822 # occ.  0.99268750
 
ion      s     py     pz     px    dxy    dyz    dz2    dxz    dx2    tot
  1  0.000  0.125  0.022  0.062  0.000  0.000  0.000  0.000  0.000  0.209
  2  0.000  0.125  0.022  0.062  0.000  0.000  0.000  0.000  0.000  0.209
tot  0.000  0.250  0.043  0.125  0.000  0.000  0.000  0.000  0.000  0.418
 
band   5 # energy    8.07429630 # occ.  0.00000000
 
ion      s     py     pz     px    dxy    dyz    dz2    dxz    dx2    tot
  1  0.000  0.101  0.030  0.017  0.000  0.000  0.000  0.000  0.000  0.148
  2  0.000  0.101  0.030  0.017  0.000  0.000  0.000  0.000  0.000  0.148
tot  0.000  0.202  0.059  0.034  0.000  0.000  0.000  0.000  0.000  0.296
 
band   6 # energy    8.07429863 # occ.  0.00000000
 
ion      s     py     pz     px    dxy    dyz    dz2    dxz    dx2    tot
  1  0.000  0.047  0.066  0.035  0.000  0.000  0.000  0.000  0.000  0.148
  2  0.000  0.047  0.066  0.035  0.000  0.000  0.000  0.000  0.000  0.148
tot  0.000  0.094  0.132  0.071  0.000  0.000  0.000  0.000  0.000  0.296
 
band   7 # energy    8.07430041 # occ.  0.00000000
 
ion      s     py     pz     px    dxy    dyz    dz2    dxz    dx2    tot
  1  0.000  0.000  0.053  0.096  0.000  0.000  0.000  0.000  0.000  0.148
  2  0.000  0.000  0.053  0.096  0.000  0.000  0.000  0.000  0.000  0.148
tot  0.000  0.000  0.105  0.191  0.000  0.000  0.000  0.000  0.000  0.296
 
band   8 # energy    8.53002061 # occ.  0.00000000
 
ion      s     py     pz     px    dxy    dyz    dz2    dxz    dx2    tot
  1  0.351  0.000  0.000  0.000  0.000  0.000  0.000  0.000  0.000  0.351
  2  0.351  0.000  0.000  0.000  0.000  0.000  0.000  0.000  0.000  0.351
tot  0.702  0.000  0.000  0.000  0.000  0.000  0.000  0.000  0.000  0.702
 
band   9 # energy   13.21416000 # occ.  0.00000000
 
ion      s     py     pz     px    dxy    dyz    dz2    dxz    dx2    tot
  1  0.000  0.000  0.000  0.000  0.000  0.000  0.000  0.000  0.000  0.000
  2  0.000  0.000  0.000  0.000  0.000  0.000  0.000  0.000  0.000  0.000
tot  0.000  0.000  0.000  0.000  0.000  0.000  0.000  0.000  0.000  0.000
 
band  10 # energy   13.21416293 # occ.  0.00000000
 
ion      s     py     pz     px    dxy    dyz    dz2    dxz    dx2    tot
  1  0.000  0.000  0.000  0.000  0.000  0.000  0.000  0.000  0.000  0.000
  2  0.000  0.000  0.000  0.000  0.000  0.000  0.000  0.000  0.000  0.000
tot  0.000  0.000  0.000  0.000  0.000  0.000  0.000  0.000  0.000  0.000
 
band  11 # energy   13.34861417 # occ.  0.00000000
 
ion      s     py     pz     px    dxy    dyz    dz2    dxz    dx2    tot
  1  0.098  0.000  0.000  0.000  0.000  0.000  0.000  0.000  0.000  0.098
  2  0.098  0.000  0.000  0.000  0.000  0.000  0.000  0.000  0.000  0.098
tot  0.195  0.000  0.000  0.000  0.000  0.000  0.000  0.000  0.000  0.195
 
band  12 # energy   16.65562378 # occ.  0.00000000
 
ion      s     py     pz     px    dxy    dyz    dz2    dxz    dx2    tot
  1  0.000  0.001  0.017  0.021  0.000  0.000  0.000  0.000  0.000  0.038
  2  0.000  0.001  0.017  0.021  0.000  0.000  0.000  0.000  0.000  0.038
tot  0.000  0.001  0.033  0.042  0.000  0.000  0.000  0.000  0.000  0.076
 

 k-point    2 :    0.09090909 0.00000000 0.00000000     weight = 0.00601052

band   1 # energy   -6.08686971 # occ.  1.00000000
 
ion      s     py     pz     px    dxy    dyz    dz2    dxz    dx2    tot
  1  0.206  0.000  0.000  0.001  0.000  0.000  0.000  0.000  0.000  0.207
  2  0.206  0.000  0.000  0.001  0.000  0.000  0.000  0.000  0.000  0.207
tot  0.412  0.000  0.000  0.002  0.000  0.000  0.000  0.000  0.000  0.415
 
band   2 # energy    4.49615577 # occ.  1.00000000
 
ion      s     py     pz     px    dxy    dyz    dz2    dxz    dx2    tot
  1  0.048  0.019  0.000  0.148  0.000  0.000  0.000  0.000  0.000  0.215
  2  0.048  0.019  0.000  0.148  0.000  0.000  0.000  0.000  0.000  0.215
tot  0.096  0.037  0.000  0.297  0.000  0.000  0.000  0.000  0.000  0.429
 
band   3 # energy    5.30215912 # occ.  0.99980836
 
ion      s     py     pz     px    dxy    dyz    dz2    dxz    dx2    tot
  1  0.000  0.015  0.191  0.002  0.000  0.000  0.000  0.000  0.000  0.207
  2  0.000  0.015  0.191  0.002  0.000  0.000  0.000  0.000  0.000  0.207
tot  0.000  0.030  0.381  0.004  0.000  0.000  0.000  0.000  0.000  0.415
 
band   4 # energy    5.30216077 # occ.  0.99980835
 
ion      s     py     pz     px    dxy    dyz    dz2    dxz    dx2    tot
  1  0.000  0.170  0.017  0.021  0.000  0.000  0.000  0.000  0.000  0.207
  2  0.000  0.170  0.017  0.021  0.000  0.000  0.000  0.000  0.000  0.207
tot  0.000  0.339  0.033  0.042  0.000  0.000  0.000  0.000  0.000  0.415
 
band   5 # energy    8.03775334 # occ.  0.00000000
 
ion      s     py     pz     px    dxy    dyz    dz2    dxz    dx2    tot
  1  0.087  0.011  0.000  0.090  0.000  0.000  0.000  0.000  0.000  0.189
  2  0.087  0.011  0.000  0.090  0.000  0.000  0.000  0.000  0.000  0.189
tot  0.174  0.023  0.000  0.181  0.000  0.000  0.000  0.000  0.000  0.378
 
band   6 # energy    8.30832666 # occ.  0.00000000
 
ion      s     py     pz     px    dxy    dyz    dz2    dxz    dx2    tot
  1  0.000  0.108  0.029  0.013  0.000  0.000  0.000  0.000  0.000  0.151
  2  0.000  0.108  0.029  0.013  0.000  0.000  0.000  0.000  0.000  0.151
tot  0.000  0.216  0.058  0.027  0.000  0.000  0.000  0.000  0.000  0.301
 
band   7 # energy    8.30832971 # occ.  0.00000000
 
ion      s     py     pz     px    dxy    dyz    dz2    dxz    dx2    tot
  1  0.000  0.026  0.121  0.003  0.000  0.000  0.000  0.000  0.000  0.151
  2  0.000  0.026  0.121  0.003  0.000  0.000  0.000  0.000  0.000  0.151
tot  0.000  0.052  0.243  0.006  0.000  0.000  0.000  0.000  0.000  0.301
 
band   8 # energy    9.35922019 # occ.  0.00000000
 
ion      s     py     pz     px    dxy    dyz    dz2    dxz    dx2    tot
  1  0.223  0.008  0.000  0.067  0.000  0.000  0.000  0.000  0.000  0.299
  2  0.223  0.008  0.000  0.067  0.000  0.000  0.000  0.000  0.000  0.299
tot  0.446  0.017  0.000  0.135  0.000  0.000  0.000  0.000  0.000  0.598
 
band   9 # energy   12.91564334 # occ.  0.00000000
 
ion      s     py     pz     px    dxy    dyz    dz2    dxz    dx2    tot
  1  0.000  0.000  0.001  0.000  0.000  0.000  0.000  0.000  0.000  0.001
  2  0.000  0.000  0.001  0.000  0.000  0.000  0.000  0.000  0.000  0.001
tot  0.000  0.000  0.002  0.000  0.000  0.000  0.000  0.000  0.000  0.002
 
band  10 # energy   12.91564576 # occ.  0.00000000
 
ion      s     py     pz     px    dxy    dyz    dz2    dxz    dx2    tot
  1  0.000  0.001  0.000  0.000  0.000  0.000  0.000  0.000  0.000  0.001
  2  0.000  0.001  0.000  0.000  0.000  0.000  0.000  0.000  0.000  0.001
tot  0.000  0.002  0.000  0.000  0.000  0.000  0.000  0.000  0.000  0.002
 
band  11 # energy   13.78811309 # occ.  0.00000000
 
ion      s     py     pz     px    dxy    dyz    dz2    dxz    dx2    tot
  1  0.085  0.002  0.000  0.016  0.000  0.000  0.000  0.000  0.000  0.104
  2  0.085  0.002  0.000  0.016  0.000  0.000  0.000  0.000  0.000  0.104
tot  0.171  0.004  0.000  0.033  0.000  0.000  0.000  0.000  0.000  0.208
 
band  12 # energy   16.30039213 # occ.  0.00000000
 
ion      s     py     pz     px    dxy    dyz    dz2    dxz    dx2    tot
  1  0.008  0.003  0.000  0.024  0.000  0.000  0.000  0.000  0.000  0.036
  2  0.008  0.003  0.000  0.024  0.000  0.000  0.000  0.000  0.000  0.036
tot  0.016  0.006  0.000  0.049  0.000  0.000  0.000  0.000  0.000  0.071
 

 k-point    3 :    0.18181818 0.00000000 0.00000000     weight = 0.00601052

band   1 # energy   -5.77651333 # occ.  1.00000000
 
ion      s     py     pz     px    dxy    dyz    dz2    dxz    dx2    tot
  1  0.205  0.000  0.000  0.004  0.000  0.000  0.000  0.000  0.000  0.209
  2  0.205  0.000  0.000  0.004  0.000  0.000  0.000  0.000  0.000  0.209
tot  0.410  0.001  0.000  0.008  0.000  0.000  0.000  0.000  0.000  0.418
 
band   2 # energy    2.86475765 # occ.  1.00000000
 
ion      s     py     pz     px    dxy    dyz    dz2    dxz    dx2    tot
  1  0.082  0.015  0.000  0.117  0.000  0.000  0.000  0.000  0.000  0.214
  2  0.082  0.015  0.000  0.117  0.000  0.000  0.000  0.000  0.000  0.214
tot  0.164  0.029  0.000  0.234  0.000  0.000  0.000  0.000  0.000  0.427
 
band   3 # energy    4.97779440 # occ.  1.00000000
 
ion      s     py     pz     px    dxy    dyz    dz2    dxz    dx2    tot
  1  0.000  0.012  0.192  0.002  0.000  0.000  0.000  0.000  0.000  0.206
  2  0.000  0.012  0.192  0.002  0.000  0.000  0.000  0.000  0.000  0.206
tot  0.000  0.025  0.384  0.003  0.000  0.000  0.000  0.000  0.000  0.412
 
band   4 # energy    4.97779623 # occ.  1.00000000
 
ion      s     py     pz     px    dxy    dyz    dz2    dxz    dx2    tot
  1  0.000  0.171  0.014  0.021  0.000  0.000  0.000  0.000  0.000  0.206
  2  0.000  0.171  0.014  0.021  0.000  0.000  0.000  0.000  0.000  0.206
tot  0.000  0.342  0.028  0.043  0.000  0.000  0.000  0.000  0.000  0.412
 
band   5 # energy    7.70907094 # occ.  0.00000000
 
ion      s     py     pz     px    dxy    dyz    dz2    dxz    dx2    tot
  1  0.134  0.007  0.000  0.059  0.000  0.000  0.000  0.000  0.000  0.200
  2  0.134  0.007  0.000  0.059  0.000  0.000  0.000  0.000  0.000  0.200
tot  0.267  0.015  0.000  0.117  0.000  0.000  0.000  0.000  0.000  0.400
 
band   6 # energy    8.76674997 # occ.  0.00000000
 
ion      s     py     pz     px    dxy    dyz    dz2    dxz    dx2    tot
  1  0.000  0.103  0.034  0.013  0.000  0.000  0.000  0.000  0.000  0.149
  2  0.000  0.103  0.034  0.013  0.000  0.000  0.000  0.000  0.000  0.149
tot  0.000  0.206  0.067  0.026  0.000  0.000  0.000  0.000  0.000  0.298
 
band   7 # energy    8.76675299 # occ.  0.00000000
 
ion      s     py     pz     px    dxy    dyz    dz2    dxz    dx2    tot
  1  0.000  0.030  0.116  0.004  0.000  0.000  0.000  0.000  0.000  0.149
  2  0.000  0.030  0.116  0.004  0.000  0.000  0.000  0.000  0.000  0.149
tot  0.000  0.060  0.231  0.007  0.000  0.000  0.000  0.000  0.000  0.298
 
band   8 # energy   10.94327060 # occ.  0.00000000
 
ion      s     py     pz     px    dxy    dyz    dz2    dxz    dx2    tot
  1  0.150  0.014  0.000  0.110  0.000  0.000  0.000  0.000  0.000  0.274
  2  0.150  0.014  0.000  0.110  0.000  0.000  0.000  0.000  0.000  0.274
tot  0.300  0.027  0.000  0.220  0.000  0.000  0.000  0.000  0.000  0.548
 
band   9 # energy   12.56857061 # occ.  0.00000000
 
ion      s     py     pz     px    dxy    dyz    dz2    dxz    dx2    tot
  1  0.000  0.000  0.004  0.000  0.000  0.000  0.000  0.000  0.000  0.005
  2  0.000  0.000  0.004  0.000  0.000  0.000  0.000  0.000  0.000  0.005
tot  0.000  0.000  0.009  0.000  0.000  0.000  0.000  0.000  0.000  0.009
 
band  10 # energy   12.56857206 # occ.  0.00000000
 
ion      s     py     pz     px    dxy    dyz    dz2    dxz    dx2    tot
  1  0.000  0.004  0.000  0.000  0.000  0.000  0.000  0.000  0.000  0.005
  2  0.000  0.004  0.000  0.000  0.000  0.000  0.000  0.000  0.000  0.005
tot  0.000  0.008  0.000  0.001  0.000  0.000  0.000  0.000  0.000  0.009
 
band  11 # energy   14.53049615 # occ.  0.00000000
 
ion      s     py     pz     px    dxy    dyz    dz2    dxz    dx2    tot
  1  0.052  0.005  0.000  0.037  0.000  0.000  0.000  0.000  0.000  0.094
  2  0.052  0.005  0.000  0.037  0.000  0.000  0.000  0.000  0.000  0.094
tot  0.104  0.009  0.000  0.074  0.000  0.000  0.000  0.000  0.000  0.187
 
band  12 # energy   16.13950418 # occ.  0.00000000
 
ion      s     py     pz     px    dxy    dyz    dz2    dxz    dx2    tot
  1  0.031  0.003  0.000  0.024  0.000  0.000  0.000  0.000  0.000  0.058
  2  0.031  0.003  0.000  0.024  0.000  0.000  0.000  0.000  0.000  0.058
tot  0.062  0.006  0.000  0.048  0.000  0.000  0.000  0.000  0.000  0.115
 

 k-point    4 :    0.27272727 0.00000000 0.00000000     weight = 0.00601052

band   1 # energy   -5.27741132 # occ.  1.00000000
 
ion      s     py     pz     px    dxy    dyz    dz2    dxz    dx2    tot
  1  0.204  0.001  0.000  0.008  0.000  0.000  0.000  0.000  0.000  0.213
  2  0.204  0.001  0.000  0.008  0.000  0.000  0.000  0.000  0.000  0.213
tot  0.408  0.002  0.000  0.016  0.000  0.000  0.000  0.000  0.000  0.426
 
band   2 # energy    1.25396060 # occ.  1.00000000
 
ion      s     py     pz     px    dxy    dyz    dz2    dxz    dx2    tot
  1  0.099  0.012  0.000  0.097  0.000  0.000  0.000  0.000  0.000  0.209
  2  0.099  0.012  0.000  0.097  0.000  0.000  0.000  0.000  0.000  0.209
tot  0.198  0.024  0.000  0.195  0.000  0.000  0.000  0.000  0.000  0.417
 
band   3 # energy    4.66587304 # occ.  1.00000000
 
ion      s     py     pz     px    dxy    dyz    dz2    dxz    dx2    tot
  1  0.000  0.012  0.194  0.001  0.000  0.000  0.000  0.000  0.000  0.207
  2  0.000  0.012  0.194  0.001  0.000  0.000  0.000  0.000  0.000  0.207
tot  0.000  0.023  0.389  0.003  0.000  0.000  0.000  0.000  0.000  0.414
 
band   4 # energy    4.66587516 # occ.  1.00000000
 
ion      s     py     pz     px    dxy    dyz    dz2    dxz    dx2    tot
  1  0.000  0.173  0.013  0.022  0.000  0.000  0.000  0.000  0.000  0.207
  2  0.000  0.173  0.013  0.022  0.000  0.000  0.000  0.000  0.000  0.207
tot  0.000  0.345  0.026  0.043  0.000  0.000  0.000  0.000  0.000  0.414
 
band   5 # energy    7.36195084 # occ.  0.00000000
 
ion      s     py     pz     px    dxy    dyz    dz2    dxz    dx2    tot
  1  0.157  0.005  0.000  0.039  0.000  0.000  0.000  0.000  0.000  0.201
  2  0.157  0.005  0.000  0.039  0.000  0.000  0.000  0.000  0.000  0.201
tot  0.314  0.010  0.000  0.077  0.000  0.000  0.000  0.000  0.000  0.401
 
band   6 # energy    9.02484687 # occ.  0.00000000
 
ion      s     py     pz     px    dxy    dyz    dz2    dxz    dx2    tot
  1  0.000  0.080  0.040  0.010  0.000  0.000  0.000  0.000  0.000  0.131
  2  0.000  0.080  0.040  0.010  0.000  0.000  0.000  0.000  0.000  0.131
tot  0.000  0.160  0.081  0.020  0.000  0.000  0.000  0.000  0.000  0.261
 
band   7 # energy    9.02484971 # occ.  0.00000000
 
ion      s     py     pz     px    dxy    dyz    dz2    dxz    dx2    tot
  1  0.000  0.036  0.090  0.004  0.000  0.000  0.000  0.000  0.000  0.131
  2  0.000  0.036  0.090  0.004  0.000  0.000  0.000  0.000  0.000  0.131
tot  0.000  0.072  0.180  0.009  0.000  0.000  0.000  0.000  0.000  0.261
 
band   8 # energy   12.50977394 # occ.  0.00000000
 
ion      s     py     pz     px    dxy    dyz    dz2    dxz    dx2    tot
  1  0.092  0.017  0.000  0.138  0.000  0.000  0.000  0.000  0.000  0.247
  2  0.092  0.017  0.000  0.138  0.000  0.000  0.000  0.000  0.000  0.247
tot  0.185  0.034  0.000  0.276  0.000  0.000  0.000  0.000  0.000  0.495
 
band   9 # energy   12.83058327 # occ.  0.00000000
 
ion      s     py     pz     px    dxy    dyz    dz2    dxz    dx2    tot
  1  0.000  0.011  0.008  0.001  0.000  0.000  0.000  0.000  0.000  0.020
  2  0.000  0.011  0.008  0.001  0.000  0.000  0.000  0.000  0.000  0.020
tot  0.000  0.022  0.016  0.003  0.000  0.000  0.000  0.000  0.000  0.041
 
band  10 # energy   12.83058431 # occ.  0.00000000
 
ion      s     py     pz     px    dxy    dyz    dz2    dxz    dx2    tot
  1  0.000  0.007  0.012  0.001  0.000  0.000  0.000  0.000  0.000  0.020
  2  0.000  0.007  0.012  0.001  0.000  0.000  0.000  0.000  0.000  0.020
tot  0.000  0.014  0.025  0.002  0.000  0.000  0.000  0.000  0.000  0.041
 
band  11 # energy   14.33751194 # occ.  0.00000000
 
ion      s     py     pz     px    dxy    dyz    dz2    dxz    dx2    tot
  1  0.052  0.002  0.000  0.015  0.000  0.000  0.000  0.000  0.000  0.068
  2  0.052  0.002  0.000  0.015  0.000  0.000  0.000  0.000  0.000  0.068
tot  0.103  0.004  0.000  0.030  0.000  0.000  0.000  0.000  0.000  0.137
 
band  12 # energy   17.60773890 # occ.  0.00000000
 
ion      s     py     pz     px    dxy    dyz    dz2    dxz    dx2    tot
  1  0.031  0.010  0.000  0.079  0.000  0.000  0.000  0.000  0.000  0.119
  2  0.031  0.010  0.000  0.079  0.000  0.000  0.000  0.000  0.000  0.119
tot  0.062  0.020  0.000  0.157  0.000  0.000  0.000  0.000  0.000  0.239
 

 k-point    5 :    0.36363636 0.00000000 0.00000000     weight = 0.00601052

band   1 # energy   -4.64092818 # occ.  1.00000000
 
ion      s     py     pz     px    dxy    dyz    dz2    dxz    dx2    tot
  1  0.206  0.001  0.000  0.012  0.000  0.000  0.000  0.000  0.000  0.219
  2  0.206  0.001  0.000  0.012  0.000  0.000  0.000  0.000  0.000  0.219
tot  0.412  0.003  0.000  0.023  0.000  0.000  0.000  0.000  0.000  0.438
 
band   2 # energy   -0.15580343 # occ.  1.00000000
 
ion      s     py     pz     px    dxy    dyz    dz2    dxz    dx2    tot
  1  0.106  0.011  0.000  0.084  0.000  0.000  0.000  0.000  0.000  0.201
  2  0.106  0.011  0.000  0.084  0.000  0.000  0.000  0.000  0.000  0.201
tot  0.212  0.021  0.000  0.169  0.000  0.000  0.000  0.000  0.000  0.402
 
band   3 # energy    4.44090638 # occ.  1.00000000
 
ion      s     py     pz     px    dxy    dyz    dz2    dxz    dx2    tot
  1  0.000  0.011  0.196  0.001  0.000  0.000  0.000  0.000  0.000  0.209
  2  0.000  0.011  0.196  0.001  0.000  0.000  0.000  0.000  0.000  0.209
tot  0.000  0.023  0.393  0.003  0.000  0.000  0.000  0.000  0.000  0.418
 
band   4 # energy    4.44090878 # occ.  1.00000000
 
ion      s     py     pz     px    dxy    dyz    dz2    dxz    dx2    tot
  1  0.000  0.174  0.013  0.022  0.000  0.000  0.000  0.000  0.000  0.209
  2  0.000  0.174  0.013  0.022  0.000  0.000  0.000  0.000  0.000  0.209
tot  0.000  0.349  0.026  0.044  0.000  0.000  0.000  0.000  0.000  0.418
 
band   5 # energy    7.10286944 # occ.  0.00000000
 
ion      s     py     pz     px    dxy    dyz    dz2    dxz    dx2    tot
  1  0.171  0.003  0.000  0.026  0.000  0.000  0.000  0.000  0.000  0.201
  2  0.171  0.003  0.000  0.026  0.000  0.000  0.000  0.000  0.000  0.201
tot  0.343  0.006  0.000  0.052  0.000  0.000  0.000  0.000  0.000  0.401
 
band   6 # energy    8.98615294 # occ.  0.00000000
 
ion      s     py     pz     px    dxy    dyz    dz2    dxz    dx2    tot
  1  0.000  0.059  0.042  0.007  0.000  0.000  0.000  0.000  0.000  0.107
  2  0.000  0.059  0.042  0.007  0.000  0.000  0.000  0.000  0.000  0.107
tot  0.000  0.117  0.083  0.015  0.000  0.000  0.000  0.000  0.000  0.215
 
band   7 # energy    8.98615568 # occ.  0.00000000
 
ion      s     py     pz     px    dxy    dyz    dz2    dxz    dx2    tot
  1  0.000  0.037  0.066  0.005  0.000  0.000  0.000  0.000  0.000  0.107
  2  0.000  0.037  0.066  0.005  0.000  0.000  0.000  0.000  0.000  0.107
tot  0.000  0.074  0.132  0.009  0.000  0.000  0.000  0.000  0.000  0.215
 
band   8 # energy   13.32504842 # occ.  0.00000000
 
ion      s     py     pz     px    dxy    dyz    dz2    dxz    dx2    tot
  1  0.007  0.011  0.000  0.091  0.000  0.000  0.000  0.000  0.000  0.110
  2  0.007  0.011  0.000  0.091  0.000  0.000  0.000  0.000  0.000  0.110
tot  0.014  0.023  0.000  0.183  0.000  0.000  0.000  0.000  0.000  0.219
 
band   9 # energy   13.84199917 # occ.  0.00000000
 
ion      s     py     pz     px    dxy    dyz    dz2    dxz    dx2    tot
  1  0.000  0.029  0.005  0.004  0.000  0.000  0.000  0.000  0.000  0.038
  2  0.000  0.029  0.005  0.004  0.000  0.000  0.000  0.000  0.000  0.038
tot  0.000  0.058  0.010  0.007  0.000  0.000  0.000  0.000  0.000  0.076
 
band  10 # energy   13.84200129 # occ.  0.00000000
 
ion      s     py     pz     px    dxy    dyz    dz2    dxz    dx2    tot
  1  0.000  0.004  0.033  0.001  0.000  0.000  0.000  0.000  0.000  0.038
  2  0.000  0.004  0.033  0.001  0.000  0.000  0.000  0.000  0.000  0.038
tot  0.000  0.009  0.066  0.001  0.000  0.000  0.000  0.000  0.000  0.076
 
band  11 # energy   14.73430467 # occ.  0.00000000
 
ion      s     py     pz     px    dxy    dyz    dz2    dxz    dx2    tot
  1  0.100  0.009  0.000  0.072  0.000  0.000  0.000  0.000  0.000  0.182
  2  0.100  0.009  0.000  0.072  0.000  0.000  0.000  0.000  0.000  0.182
tot  0.200  0.018  0.000  0.145  0.000  0.000  0.000  0.000  0.000  0.363
 
band  12 # energy   19.17927485 # occ.  0.00000000
 
ion      s     py     pz     px    dxy    dyz    dz2    dxz    dx2    tot
  1  0.012  0.023  0.000  0.182  0.000  0.000  0.000  0.000  0.000  0.217
  2  0.012  0.023  0.000  0.182  0.000  0.000  0.000  0.000  0.000  0.217
tot  0.024  0.046  0.000  0.364  0.000  0.000  0.000  0.000  0.000  0.434
 

 k-point    6 :    0.45454545 0.00000000 0.00000000     weight = 0.00601052

band   1 # energy   -4.05772706 # occ.  1.00000000
 
ion      s     py     pz     px    dxy    dyz    dz2    dxz    dx2    tot
  1  0.215  0.002  0.000  0.012  0.000  0.000  0.000  0.000  0.000  0.228
  2  0.215  0.002  0.000  0.012  0.000  0.000  0.000  0.000  0.000  0.228
tot  0.429  0.003  0.000  0.024  0.000  0.000  0.000  0.000  0.000  0.457
 
band   2 # energy   -1.13291282 # occ.  1.00000000
 
ion      s     py     pz     px    dxy    dyz    dz2    dxz    dx2    tot
  1  0.101  0.010  0.000  0.080  0.000  0.000  0.000  0.000  0.000  0.191
  2  0.101  0.010  0.000  0.080  0.000  0.000  0.000  0.000  0.000  0.191
tot  0.202  0.020  0.000  0.159  0.000  0.000  0.000  0.000  0.000  0.382
 
band   3 # energy    4.32571155 # occ.  1.00000000
 
ion      s     py     pz     px    dxy    dyz    dz2    dxz    dx2    tot
  1  0.000  0.011  0.198  0.001  0.000  0.000  0.000  0.000  0.000  0.210
  2  0.000  0.011  0.198  0.001  0.000  0.000  0.000  0.000  0.000  0.210
tot  0.000  0.023  0.395  0.003  0.000  0.000  0.000  0.000  0.000  0.421
 
band   4 # energy    4.32571411 # occ.  1.00000000
 
ion      s     py     pz     px    dxy    dyz    dz2    dxz    dx2    tot
  1  0.000  0.176  0.013  0.022  0.000  0.000  0.000  0.000  0.000  0.210
  2  0.000  0.176  0.013  0.022  0.000  0.000  0.000  0.000  0.000  0.210
tot  0.000  0.351  0.026  0.044  0.000  0.000  0.000  0.000  0.000  0.421
 
band   5 # energy    6.96796963 # occ.  0.00000000
 
ion      s     py     pz     px    dxy    dyz    dz2    dxz    dx2    tot
  1  0.179  0.002  0.000  0.020  0.000  0.000  0.000  0.000  0.000  0.201
  2  0.179  0.002  0.000  0.020  0.000  0.000  0.000  0.000  0.000  0.201
tot  0.357  0.005  0.000  0.040  0.000  0.000  0.000  0.000  0.000  0.402
 
band   6 # energy    8.89045494 # occ.  0.00000000
 
ion      s     py     pz     px    dxy    dyz    dz2    dxz    dx2    tot
  1  0.000  0.050  0.039  0.006  0.000  0.000  0.000  0.000  0.000  0.096
  2  0.000  0.050  0.039  0.006  0.000  0.000  0.000  0.000  0.000  0.096
tot  0.000  0.100  0.079  0.013  0.000  0.000  0.000  0.000  0.000  0.191
 
band   7 # energy    8.89045768 # occ.  0.00000000
 
ion      s     py     pz     px    dxy    dyz    dz2    dxz    dx2    tot
  1  0.000  0.035  0.056  0.004  0.000  0.000  0.000  0.000  0.000  0.096
  2  0.000  0.035  0.056  0.004  0.000  0.000  0.000  0.000  0.000  0.096
tot  0.000  0.070  0.113  0.009  0.000  0.000  0.000  0.000  0.000  0.191
 
band   8 # energy   13.23676141 # occ.  0.00000000
 
ion      s     py     pz     px    dxy    dyz    dz2    dxz    dx2    tot
  1  0.004  0.007  0.000  0.052  0.000  0.000  0.000  0.000  0.000  0.063
  2  0.004  0.007  0.000  0.052  0.000  0.000  0.000  0.000  0.000  0.063
tot  0.009  0.013  0.000  0.104  0.000  0.000  0.000  0.000  0.000  0.126
 
band   9 # energy   15.33105403 # occ.  0.00000000
 
ion      s     py     pz     px    dxy    dyz    dz2    dxz    dx2    tot
  1  0.000  0.028  0.003  0.003  0.000  0.000  0.000  0.000  0.000  0.035
  2  0.000  0.028  0.003  0.003  0.000  0.000  0.000  0.000  0.000  0.035
tot  0.000  0.056  0.006  0.007  0.000  0.000  0.000  0.000  0.000  0.069
 
band  10 # energy   15.33105711 # occ.  0.00000000
 
ion      s     py     pz     px    dxy    dyz    dz2    dxz    dx2    tot
  1  0.000  0.003  0.031  0.000  0.000  0.000  0.000  0.000  0.000  0.035
  2  0.000  0.003  0.031  0.000  0.000  0.000  0.000  0.000  0.000  0.035
tot  0.000  0.006  0.063  0.001  0.000  0.000  0.000  0.000  0.000  0.069
 
band  11 # energy   16.14729158 # occ.  0.00000000
 
ion      s     py     pz     px    dxy    dyz    dz2    dxz    dx2    tot
  1  0.059  0.016  0.000  0.125  0.000  0.000  0.000  0.000  0.000  0.199
  2  0.059  0.016  0.000  0.125  0.000  0.000  0.000  0.000  0.000  0.199
tot  0.118  0.031  0.000  0.250  0.000  0.000  0.000  0.000  0.000  0.398
 
band  12 # energy   17.31813877 # occ.  0.00000000
 
ion      s     py     pz     px    dxy    dyz    dz2    dxz    dx2    tot
  1  0.000  0.008  0.069  0.001  0.000  0.000  0.000  0.000  0.000  0.078
  2  0.000  0.008  0.069  0.001  0.000  0.000  0.000  0.000  0.000  0.078
tot  0.000  0.016  0.138  0.002  0.000  0.000  0.000  0.000  0.000  0.155
 

 k-point    7 :    0.09090909 0.09090909 0.00000000     weight = 0.00450789

band   1 # energy   -6.05170759 # occ.  1.00000000
 
ion      s     py     pz     px    dxy    dyz    dz2    dxz    dx2    tot
  1  0.206  0.000  0.000  0.001  0.000  0.000  0.000  0.000  0.000  0.207
  2  0.206  0.000  0.000  0.001  0.000  0.000  0.000  0.000  0.000  0.207
tot  0.412  0.001  0.000  0.002  0.000  0.000  0.000  0.000  0.000  0.415
 
band   2 # energy    4.64738653 # occ.  1.00000000
 
ion      s     py     pz     px    dxy    dyz    dz2    dxz    dx2    tot
  1  0.072  0.053  0.000  0.106  0.000  0.000  0.000  0.000  0.000  0.231
  2  0.072  0.053  0.000  0.106  0.000  0.000  0.000  0.000  0.000  0.231
tot  0.143  0.106  0.000  0.212  0.000  0.000  0.000  0.000  0.000  0.461
 
band   3 # energy    4.99711382 # occ.  0.99999999
 
ion      s     py     pz     px    dxy    dyz    dz2    dxz    dx2    tot
  1  0.000  0.000  0.201  0.000  0.000  0.000  0.000  0.000  0.000  0.201
  2  0.000  0.000  0.201  0.000  0.000  0.000  0.000  0.000  0.000  0.201
tot  0.000  0.000  0.402  0.000  0.000  0.000  0.000  0.000  0.000  0.402
 
band   4 # energy    4.99711388 # occ.  0.99999999
 
ion      s     py     pz     px    dxy    dyz    dz2    dxz    dx2    tot
  1  0.000  0.134  0.000  0.067  0.000  0.000  0.000  0.000  0.000  0.201
  2  0.000  0.134  0.000  0.067  0.000  0.000  0.000  0.000  0.000  0.201
tot  0.000  0.268  0.000  0.134  0.000  0.000  0.000  0.000  0.000  0.402
 
band   5 # energy    7.76490951 # occ.  0.00000000
 
ion      s     py     pz     px    dxy    dyz    dz2    dxz    dx2    tot
  1  0.012  0.043  0.000  0.086  0.000  0.000  0.000  0.000  0.000  0.141
  2  0.012  0.043  0.000  0.086  0.000  0.000  0.000  0.000  0.000  0.141
tot  0.024  0.086  0.000  0.171  0.000  0.000  0.000  0.000  0.000  0.281
 
band   6 # energy    8.70821404 # occ.  0.00000000
 
ion      s     py     pz     px    dxy    dyz    dz2    dxz    dx2    tot
  1  0.000  0.104  0.000  0.052  0.000  0.000  0.000  0.000  0.000  0.157
  2  0.000  0.104  0.000  0.052  0.000  0.000  0.000  0.000  0.000  0.157
tot  0.000  0.209  0.000  0.104  0.000  0.000  0.000  0.000  0.000  0.313
 
band   7 # energy    8.70821425 # occ.  0.00000000
 
ion      s     py     pz     px    dxy    dyz    dz2    dxz    dx2    tot
  1  0.000  0.000  0.157  0.000  0.000  0.000  0.000  0.000  0.000  0.157
  2  0.000  0.000  0.157  0.000  0.000  0.000  0.000  0.000  0.000  0.157
tot  0.000  0.000  0.313  0.000  0.000  0.000  0.000  0.000  0.000  0.313
 
band   8 # energy    9.27761466 # occ.  0.00000000
 
ion      s     py     pz     px    dxy    dyz    dz2    dxz    dx2    tot
  1  0.271  0.019  0.000  0.038  0.000  0.000  0.000  0.000  0.000  0.327
  2  0.271  0.019  0.000  0.038  0.000  0.000  0.000  0.000  0.000  0.327
tot  0.542  0.038  0.000  0.075  0.000  0.000  0.000  0.000  0.000  0.655
 
band   9 # energy   12.36588137 # occ.  0.00000000
 
ion      s     py     pz     px    dxy    dyz    dz2    dxz    dx2    tot
  1  0.007  0.000  0.000  0.000  0.000  0.000  0.000  0.000  0.000  0.007
  2  0.007  0.000  0.000  0.000  0.000  0.000  0.000  0.000  0.000  0.007
tot  0.014  0.000  0.000  0.000  0.000  0.000  0.000  0.000  0.000  0.014
 
band  10 # energy   13.37046052 # occ.  0.00000000
 
ion      s     py     pz     px    dxy    dyz    dz2    dxz    dx2    tot
  1  0.000  0.000  0.000  0.000  0.000  0.000  0.000  0.000  0.000  0.000
  2  0.000  0.000  0.000  0.000  0.000  0.000  0.000  0.000  0.000  0.000
tot  0.000  0.000  0.000  0.000  0.000  0.000  0.000  0.000  0.000  0.000
 
band  11 # energy   13.93645623 # occ.  0.00000000
 
ion      s     py     pz     px    dxy    dyz    dz2    dxz    dx2    tot
  1  0.083  0.007  0.000  0.015  0.000  0.000  0.000  0.000  0.000  0.105
  2  0.083  0.007  0.000  0.015  0.000  0.000  0.000  0.000  0.000  0.105
tot  0.166  0.015  0.000  0.030  0.000  0.000  0.000  0.000  0.000  0.211
 
band  12 # energy   16.90101580 # occ.  0.00000000
 
ion      s     py     pz     px    dxy    dyz    dz2    dxz    dx2    tot
  1  0.000  0.008  0.024  0.004  0.000  0.000  0.000  0.000  0.000  0.037