<?xml version="1.0" encoding="ISO-8859-1"?>
<modeling>
 <generator>
  <i name="program" type="string">vasp </i>
  <i name="version" type="string">5.3.3  </i>
  <i name="subversion" type="string">18Dez12 (build Jan 30 2013 10:57:47) complex                          parallel </i>
  <i name="platform" type="string">LinuxIFC </i>
  <i name="date" type="string">2016 06 21 </i>
  <i name="time" type="string">15:46:59 </i>
 </generator>
 <incar>
  <i type="string" name="PREC">accurate</i>
  <i type="int" name="ISPIN">     2</i>
  <i type="int" name="NELM">   500</i>
  <i type="int" name="IBRION">     1</i>
  <i name="EDIFF">      0.00000010</i>
  <i name="EDIFFG">     -0.00100000</i>
  <i type="int" name="NSW">   500</i>
  <i type="int" name="ISIF">     3</i>
  <i name="ENCUT">    500.00000000</i>
  <i type="int" name="NEDOS">  5000</i>
  <i type="int" name="ISMEAR">     0</i>
  <i type="logical" name="LWAVE"> F  </i>
  <i type="logical" name="LCHARG"> T  </i>
  <i type="logical" name="LVTOT"> T  </i>
  <i type="logical" name="LVHAR"> T  </i>
  <i type="logical" name="LORBIT"> F  </i>
  <i type="int" name="NELM">   500</i>
  <i type="string" name="GGA"> BO</i>
  <i name="PARAM1">      0.18333333</i>
  <i name="PARAM2">      0.22000000</i>
  <i type="logical" name="LUSE_VDW"> T  </i>
  <i name="AGGAC">      0.00000000</i>
 </incar>
 <kpoints>
  <generation param="Gamma">
   <v type="int" name="divisions">      11       11       11 </v>
   <v name="usershift">      0.00000000       0.00000000       0.00000000 </v>
   <v name="genvec1">      0.09090909       0.00000000       0.00000000 </v>
   <v name="genvec2">      0.00000000       0.09090909       0.00000000 </v>
   <v name="genvec3">      0.00000000       0.00000000       0.09090909 </v>
   <v name="shift">      0.00000000       0.00000000       0.00000000 </v>
  </generation>
  <varray name="kpointlist" >
   <v>       0.00000000       0.00000000       0.00000000 </v>
   <v>       0.09090909       0.00000000       0.00000000 </v>
   <v>       0.18181818       0.00000000       0.00000000 </v>
   <v>       0.27272727       0.00000000       0.00000000 </v>
   <v>       0.36363636       0.00000000       0.00000000 </v>
   <v>       0.45454545       0.00000000       0.00000000 </v>
   <v>       0.09090909       0.09090909       0.00000000 </v>
   <v>       0.18181818       0.09090909       0.00000000 </v>
   <v>       0.27272727       0.09090909       0.00000000 </v>
   <v>       0.36363636       0.09090909       0.00000000 </v>
   <v>       0.45454545       0.09090909       0.00000000 </v>
   <v>      -0.45454545       0.09090909       0.00000000 </v>
   <v>      -0.36363636       0.09090909       0.00000000 </v>
   <v>      -0.27272727       0.09090909       0.00000000 </v>
   <v>      -0.18181818       0.09090909       0.00000000 </v>
   <v>      -0.09090909       0.09090909       0.00000000 </v>
   <v>       0.18181818       0.18181818       0.00000000 </v>
   <v>       0.27272727       0.18181818       0.00000000 </v>
   <v>       0.36363636       0.18181818       0.00000000 </v>
   <v>       0.45454545       0.18181818       0.00000000 </v>
   <v>      -0.45454545       0.18181818       0.00000000 </v>
   <v>      -0.36363636       0.18181818       0.00000000 </v>
   <v>      -0.27272727       0.18181818       0.00000000 </v>
   <v>      -0.18181818       0.18181818       0.00000000 </v>
   <v>       0.27272727       0.27272727       0.00000000 </v>
   <v>       0.36363636       0.27272727       0.00000000 </v>
   <v>       0.45454545       0.27272727       0.00000000 </v>
   <v>      -0.45454545       0.27272727       0.00000000 </v>
   <v>      -0.36363636       0.27272727       0.00000000 </v>
   <v>      -0.27272727       0.27272727       0.00000000 </v>
   <v>       0.36363636       0.36363636       0.00000000 </v>
   <v>       0.45454545       0.36363636       0.00000000 </v>
   <v>      -0.45454545       0.36363636       0.00000000 </v>
   <v>      -0.36363636       0.36363636       0.00000000 </v>
   <v>       0.45454545       0.45454545       0.00000000 </v>
   <v>      -0.45454545       0.45454545       0.00000000 </v>
   <v>       0.27272727       0.18181818       0.09090909 </v>
   <v>       0.36363636       0.18181818       0.09090909 </v>
   <v>       0.45454545       0.18181818       0.09090909 </v>
   <v>      -0.45454545       0.18181818       0.09090909 </v>
   <v>       0.36363636       0.27272727       0.09090909 </v>
   <v>       0.45454545       0.27272727       0.09090909 </v>
   <v>      -0.45454545       0.27272727       0.09090909 </v>
   <v>      -0.36363636       0.27272727       0.09090909 </v>
   <v>      -0.27272727       0.27272727       0.09090909 </v>
   <v>      -0.18181818       0.27272727       0.09090909 </v>
   <v>       0.45454545       0.36363636       0.09090909 </v>
   <v>      -0.45454545       0.36363636       0.09090909 </v>
   <v>      -0.36363636       0.36363636       0.09090909 </v>
   <v>      -0.27272727       0.36363636       0.09090909 </v>
   <v>      -0.45454545       0.45454545       0.09090909 </v>
   <v>      -0.36363636       0.45454545       0.09090909 </v>
   <v>      -0.45454545       0.36363636       0.18181818 </v>
   <v>      -0.36363636       0.36363636       0.18181818 </v>
   <v>      -0.36363636       0.45454545       0.18181818 </v>
   <v>      -0.27272727       0.45454545       0.18181818 </v>
  </varray>
  <varray name="weights" >
   <v>       0.00075131 </v>
   <v>       0.00601052 </v>
   <v>       0.00601052 </v>
   <v>       0.00601052 </v>
   <v>       0.00601052 </v>
   <v>       0.00601052 </v>
   <v>       0.00450789 </v>
   <v>       0.01803156 </v>
   <v>       0.01803156 </v>
   <v>       0.01803156 </v>
   <v>       0.01803156 </v>
   <v>       0.01803156 </v>
   <v>       0.01803156 </v>
   <v>       0.01803156 </v>
   <v>       0.01803156 </v>
   <v>       0.00901578 </v>
   <v>       0.00450789 </v>
   <v>       0.01803156 </v>
   <v>       0.01803156 </v>
   <v>       0.01803156 </v>
   <v>       0.01803156 </v>
   <v>       0.01803156 </v>
   <v>       0.01803156 </v>
   <v>       0.00901578 </v>
   <v>       0.00450789 </v>
   <v>       0.01803156 </v>
   <v>       0.01803156 </v>
   <v>       0.01803156 </v>
   <v>       0.01803156 </v>
   <v>       0.00901578 </v>
   <v>       0.00450789 </v>
   <v>       0.01803156 </v>
   <v>       0.01803156 </v>
   <v>       0.00901578 </v>
   <v>       0.00450789 </v>
   <v>       0.00901578 </v>
   <v>       0.01803156 </v>
   <v>       0.03606311 </v>
   <v>       0.03606311 </v>
   <v>       0.03606311 </v>
   <v>       0.01803156 </v>
   <v>       0.03606311 </v>
   <v>       0.03606311 </v>
   <v>       0.03606311 </v>
   <v>       0.03606311 </v>
   <v>       0.01803156 </v>
   <v>       0.01803156 </v>
   <v>       0.03606311 </v>
   <v>       0.03606311 </v>
   <v>       0.01803156 </v>
   <v>       0.01803156 </v>
   <v>       0.01803156 </v>
   <v>       0.01803156 </v>
   <v>       0.03606311 </v>
   <v>       0.01803156 </v>
   <v>       0.01803156 </v>
  </varray>
 </kpoints>
 <parameters>
  <separator name="general" >
   <i type="string" name="SYSTEM">unknown system</i>
   <i type="logical" name="LCOMPAT"> F  </i>
  </separator>
  <separator name="electronic" >
   <i type="string" name="PREC">accura</i>
   <i name="ENMAX">    500.00000000</i>
   <i name="ENAUG">    322.06900000</i>
   <i name="EDIFF">      0.00000010</i>
   <i type="int" name="IALGO">    38</i>
   <i type="int" name="IWAVPR">    11</i>
   <i type="int" name="NBANDS">    12</i>
   <i name="NELECT">      8.00000000</i>
   <i type="int" name="TURBO">     0</i>
   <i type="int" name="IRESTART">     0</i>
   <i type="int" name="NREBOOT">     0</i>
   <i type="int" name="NMIN">     0</i>
   <i name="EREF">      0.00000000</i>
   <separator name="electronic smearing" >
    <i type="int" name="ISMEAR">     0</i>
    <i name="SIGMA">      0.20000000</i>
    <i name="KSPACING">      0.50000000</i>
    <i type="logical" name="KGAMMA"> T  </i>
   </separator>
   <separator name="electronic projectors" >
    <i type="logical" name="LREAL"> F  </i>
    <v name="ROPT">      0.00000000</v>
    <i type="int" name="LMAXPAW">  -100</i>
    <i type="int" name="LMAXMIX">     2</i>
    <i type="logical" name="NLSPLINE"> F  </i>
   </separator>
   <separator name="electronic startup" >
    <i type="int" name="ISTART">     0</i>
    <i type="int" name="ICHARG">     2</i>
    <i type="int" name="INIWAV">     1</i>
   </separator>
   <separator name="electronic spin" >
    <i type="int" name="ISPIN">     2</i>
    <i type="logical" name="LNONCOLLINEAR"> F  </i>
    <v name="MAGMOM">      1.00000000      1.00000000</v>
    <i name="NUPDOWN">     -1.00000000</i>
    <i type="logical" name="LSORBIT"> F  </i>
    <v name="SAXIS">      0.00000000      0.00000000      1.00000000</v>
    <i type="logical" name="LSPIRAL"> F  </i>
    <v name="QSPIRAL">      0.00000000      0.00000000      0.00000000</v>
    <i type="logical" name="LZEROZ"> F  </i>
   </separator>
   <separator name="electronic exchange-correlation" >
    <i type="logical" name="LASPH"> F  </i>
    <i type="logical" name="LMETAGGA"> F  </i>
   </separator>
   <separator name="electronic convergence" >
    <i type="int" name="NELM">   500</i>
    <i type="int" name="NELMDL">    -5</i>
    <i type="int" name="NELMIN">     2</i>
    <i name="ENINI">    500.00000000</i>
    <separator name="electronic convergence detail" >
     <i type="logical" name="LDIAG"> T  </i>
     <i type="logical" name="LSUBROT"> T  </i>
     <i name="WEIMIN">      0.00100000</i>
     <i name="EBREAK">      0.00000000</i>
     <i name="DEPER">      0.30000000</i>
     <i type="int" name="NRMM">     4</i>
     <i name="TIME">      0.40000000</i>
    </separator>
   </separator>
   <separator name="electronic mixer" >
    <i name="AMIX">      0.40000000</i>
    <i name="BMIX">      1.00000000</i>
    <i name="AMIN">      0.10000000</i>
    <i name="AMIX_MAG">      1.60000000</i>
    <i name="BMIX_MAG">      1.00000000</i>
    <separator name="electronic mixer details" >
     <i type="int" name="IMIX">     4</i>
     <i type="int" name="MAXMIX">   -45</i>
     <i name="WC">    100.00000000</i>
     <i type="int" name="INIMIX">     1</i>
     <i type="int" name="MIXPRE">     1</i>
     <i type="int" name="MREMOVE">     5</i>
    </separator>
   </separator>
   <separator name="electronic dipolcorrection" >
    <i type="logical" name="LDIPOL"> F  </i>
    <i type="logical" name="LMONO"> F  </i>
    <i type="int" name="IDIPOL">     0</i>
    <i name="EPSILON">      1.00000000</i>
    <v name="DIPOL">   -100.00000000   -100.00000000   -100.00000000</v>
    <i name="EFIELD">      0.00000000</i>
   </separator>
  </separator>
  <separator name="grids" >
   <i type="int" name="NGX">    28</i>
   <i type="int" name="NGY">    28</i>
   <i type="int" name="NGZ">    28</i>
   <i type="int" name="NGXF">    56</i>
   <i type="int" name="NGYF">    56</i>
   <i type="int" name="NGZF">    56</i>
   <i type="logical" name="ADDGRID"> F  </i>
  </separator>
  <separator name="ionic" >
   <i type="int" name="NSW">   500</i>
   <i type="int" name="IBRION">     1</i>
   <i type="int" name="ISIF">     3</i>
   <i name="PSTRESS">      0.00000000</i>
   <i name="EDIFFG">     -0.00100000</i>
   <i type="int" name="NFREE">     0</i>
   <i name="POTIM">      0.50000000</i>
   <i name="SMASS">     -3.00000000</i>
   <i name="SCALEE">      1.00000000</i>
  </separator>
  <separator name="ionic md" >
   <i name="TEBEG">      0.00010000</i>
   <i name="TEEND">      0.00010000</i>
   <i type="int" name="NBLOCK">     1</i>
   <i type="int" name="KBLOCK">   500</i>
   <i type="int" name="NPACO">   256</i>
   <i name="APACO">     16.00000000</i>
  </separator>
  <separator name="symmetry" >
   <i type="int" name="ISYM">     2</i>
   <i name="SYMPREC">      0.00001000</i>
  </separator>
  <separator name="dos" >
   <i type="logical" name="LORBIT"> F  </i>
   <v name="RWIGS">     -1.00000000</v>
   <i type="int" name="NEDOS">  5000</i>
   <i name="EMIN">     10.00000000</i>
   <i name="EMAX">    -10.00000000</i>
   <i name="EFERMI">      0.00000000</i>
  </separator>
  <separator name="writing" >
   <i type="int" name="NWRITE">     2</i>
   <i type="logical" name="LWAVE"> F  </i>
   <i type="logical" name="LCHARG"> T  </i>
   <i type="logical" name="LPARD"> F  </i>
   <i type="logical" name="LVTOT"> F  </i>
   <i type="logical" name="LVHAR"> T  </i>
   <i type="logical" name="LELF"> F  </i>
   <i type="logical" name="LOPTICS"> F  </i>
   <v name="STM">      0.00000000      0.00000000      0.00000000      0.00000000      0.00000000      0.00000000      0.00000000</v>
  </separator>
  <separator name="performance" >
   <i type="int" name="NPAR">     4</i>
   <i type="int" name="NSIM">     4</i>
   <i type="int" name="NBLK">    -1</i>
   <i type="logical" name="LPLANE"> T  </i>
   <i type="logical" name="LSCALAPACK"> F  </i>
   <i type="logical" name="LSCAAWARE"> F  </i>
   <i type="logical" name="LSCALU"> F  </i>
   <i type="logical" name="LASYNC"> F  </i>
   <i type="logical" name="LORBITALREAL"> F  </i>
  </separator>
  <separator name="miscellaneous" >
   <i type="int" name="IDIOT">     3</i>
   <i type="logical" name="LMUSIC"> F  </i>
   <v name="POMASS">     28.08500000</v>
   <v name="DARWINR">      0.00000000</v>
   <v name="DARWINV">      1.00000000</v>
   <i type="logical" name="LCORR"> T  </i>
  </separator>
  <i type="logical" name="GGA_COMPAT"> T  </i>
  <i type="logical" name="LBERRY"> F  </i>
  <i type="int" name="ICORELEVEL">     0</i>
  <i type="logical" name="LDAU"> F  </i>
  <i type="int" name="I_CONSTRAINED_M">     0</i>
  <separator name="electronic exchange-correlation" >
   <i type="string" name="GGA">BO</i>
   <i type="int" name="VOSKOWN">     0</i>
   <i type="logical" name="LHFCALC"> F  </i>
   <i type="string" name="PRECFOCK"></i>
   <i type="logical" name="LSYMGRAD"> F  </i>
   <i type="logical" name="LHFONE"> F  </i>
   <i type="logical" name="LRHFCALC"> F  </i>
   <i type="logical" name="LTHOMAS"> F  </i>
   <i type="logical" name="LMODELHF"> F  </i>
   <i name="ENCUT4O">     -1.00000000</i>
   <i type="int" name="EXXOEP">     0</i>
   <i type="int" name="FOURORBIT">     0</i>
   <i name="AEXX">      0.00000000</i>
   <i name="HFALPHA">      0.00000000</i>
   <i name="MCALPHA">      0.00000000</i>
   <i name="ALDAX">      1.00000000</i>
   <i name="AGGAX">      1.00000000</i>
   <i name="ALDAC">      1.00000000</i>
   <i name="AGGAC">      0.00000000</i>
   <i type="int" name="NKREDX">     1</i>
   <i type="int" name="NKREDY">     1</i>
   <i type="int" name="NKREDZ">     1</i>
   <i type="logical" name="SHIFTRED"> F  </i>
   <i type="logical" name="ODDONLY"> F  </i>
   <i type="logical" name="EVENONLY"> F  </i>
   <i type="int" name="LMAXFOCK">     0</i>
   <i type="int" name="NMAXFOCKAE">     0</i>
   <i type="logical" name="LFOCKAEDFT"> F  </i>
   <i name="HFSCREEN">      0.00000000</i>
   <i name="HFSCREENC">      0.00000000</i>
   <i type="int" name="NBANDSGWLOW">     0</i>
  </separator>
  <separator name="vdW DFT" >
   <i type="logical" name="LUSE_VDW"> T  </i>
   <i name="Zab_VDW">     -0.84910000</i>
   <i name="PARAM1">      0.18333333</i>
   <i name="PARAM2">      0.22000000</i>
   <i name="PARAM3">      0.00000000</i>
  </separator>
  <separator name="model GW" >
   <i type="int" name="MODEL_GW">     0</i>
   <i name="MODEL_EPS0">     12.26648953</i>
   <i name="MODEL_ALPHA">      1.00000000</i>
  </separator>
  <separator name="linear response parameters" >
   <i type="logical" name="LEPSILON"> F  </i>
   <i type="logical" name="LRPA"> F  </i>
   <i type="logical" name="LNABLA"> F  </i>
   <i type="logical" name="LVEL"> F  </i>
   <i type="int" name="KINTER">     0</i>
   <i name="CSHIFT">      0.10000000</i>
   <i name="OMEGAMAX">     -1.00000000</i>
   <i name="DEG_THRESHOLD">      0.00200000</i>
  </separator>
  <separator name="orbital magnetization" >
   <i type="logical" name="NUCIND"> F  </i>
   <v name="MAGPOS">      0.00000000      0.00000000      0.00000000</v>
   <i type="logical" name="LNICSALL"> T  </i>
   <i type="logical" name="ORBITALMAG"> F  </i>
   <i type="logical" name="LMAGBLOCH"> F  </i>
   <i type="logical" name="LCHIMAG"> F  </i>
   <i type="logical" name="LGAUGE"> T  </i>
   <i type="int" name="MAGATOM">     0</i>
   <v name="MAGDIPOL">      0.00000000      0.00000000      0.00000000</v>
   <v name="AVECCONST">      0.00000000      0.00000000      0.00000000</v>
  </separator>
  <separator name="response functions" >
   <i type="logical" name="LADDER"> F  </i>
   <i type="logical" name="LFXC"> F  </i>
   <i type="logical" name="LHARTREE"> T  </i>
   <i type="int" name="IBSE">     0</i>
   <i type="logical" name="LTCTE"> F  </i>
   <i type="logical" name="LTETE"> F  </i>
   <i type="logical" name="LTRIPLET"> F  </i>
   <i type="logical" name="LFXCEPS"> F  </i>
   <i type="logical" name="L2ORDER"> F  </i>
   <i type="logical" name="LUSEW"> F  </i>
   <i name="ENCUTGW">     -2.00000000</i>
   <i name="ENCUTGWSOFT">     -2.00000000</i>
   <i name="ENCUTLF">     -1.00000000</i>
   <i type="int" name="LMAXMP2">    -1</i>
   <i name="SCISSOR">      0.00000000</i>
   <i type="int" name="NOMEGA">     0</i>
   <i type="int" name="NOMEGAR">     0</i>
   <i type="int" name="NBANDSGW">    -1</i>
   <i type="int" name="NBANDSO">    -1</i>
   <i type="int" name="NBANDSV">    -1</i>
   <i type="int" name="NELM">   500</i>
   <i type="int" name="DIM">     3</i>
   <i type="int" name="ANTIRES">     0</i>
   <i name="OMEGAMAX">    -30.00000000</i>
   <i name="OMEGATL">   -200.00000000</i>
   <i type="int" name="OMEGAGRID">     0</i>
   <i name="CSHIFT">     -0.10000000</i>
   <i type="logical" name="SELFENERGY"> F  </i>
   <i type="logical" name="LSPECTRAL"> F  </i>
   <i type="logical" name="ODDONLYGW"> F  </i>
   <i type="logical" name="EVENONLYGW"> F  </i>
   <i type="int" name="NKREDLFX">     1</i>
   <i type="int" name="NKREDLFY">     1</i>
   <i type="int" name="NKREDLFZ">     1</i>
   <i type="int" name="MAXMEM">  1800</i>
   <i type="int" name="TELESCOPE">     0</i>
  </separator>
 </parameters>
 <atominfo>
  <atoms>       2 </atoms>
  <types>       1 </types>
  <array name="atoms" >
   <dimension dim="1">ion</dimension>
   <field type="string">element</field>
   <field type="int">atomtype</field>
   <set>
    <rc><c>Si</c><c>   1</c></rc>
    <rc><c>Si</c><c>   1</c></rc>
   </set>
  </array>
  <array name="atomtypes" >
   <dimension dim="1">type</dimension>
   <field type="int">atomspertype</field>
   <field type="string">element</field>
   <field>mass</field>
   <field>valence</field>
   <field type="string">pseudopotential</field>
   <set>
    <rc><c>   2</c><c>Si</c><c>     28.08500000</c><c>      4.00000000</c><c>  PAW_PBE Si 05Jan2001                  </c></rc>
   </set>
  </array>
 </atominfo>
 <structure name="initialpos" >
  <crystal>
   <varray name="basis" >
    <v>       3.34889800       0.00000000       1.93348700 </v>
    <v>       1.11629900       3.15737200       1.93348700 </v>
    <v>       0.00000000       0.00000000       3.86697500 </v>
   </varray>
   <i name="volume">     40.88829843 </i>
   <varray name="rec_basis" >
    <v>       0.29860569      -0.10557300       0.00000000 </v>
    <v>       0.00000000       0.31671909       0.00000000 </v>
    <v>      -0.14930281      -0.10557302       0.25860007 </v>
   </varray>
  </crystal>
  <varray name="positions" >
   <v>       0.87500000       0.87500000       0.87500000 </v>
   <v>       0.12500000       0.12500000       0.12500000 </v>
  </varray>
 </structure>
 <calculation>
  <scstep>
   <time name="dav">    1.90    1.90</time>
   <time name="total">    5.40    5.85</time>
   <energy>
    <i name="alphaZ">      3.29317992 </i>
    <i name="ewald">   -226.94489173 </i>
    <i name="hartreedc">    -11.32339116 </i>
    <i name="XCdc">    -20.01545751 </i>
    <i name="pawpsdc">    189.18569288 </i>
    <i name="pawaedc">   -152.40348104 </i>
    <i name="eentropy">     -0.00704700 </i>
    <i name="bandstr">     17.09534402 </i>
    <i name="atom">    208.59373829 </i>
    <i name="e_fr_energy">      7.47368666 </i>
    <i name="e_wo_entrp">      7.48073366 </i>
    <i name="e_0_energy">      7.47721016 </i>
   </energy>
  </scstep>
  <scstep>
   <time name="dav">    2.13    2.13</time>
   <time name="total">    2.18    2.34</time>
   <energy>
    <i name="e_fr_energy">     -7.47893325 </i>
    <i name="e_wo_entrp">     -7.47691896 </i>
    <i name="e_0_energy">     -7.47792610 </i>
   </energy>
  </scstep>
  <scstep>
   <time name="dav">    2.23    2.23</time>
   <time name="total">    2.28    2.69</time>
   <energy>
    <i name="e_fr_energy">     -7.89928054 </i>
    <i name="e_wo_entrp">     -7.89735315 </i>
    <i name="e_0_energy">     -7.89831685 </i>
   </energy>
  </scstep>
  <scstep>
   <time name="dav">    1.90    1.90</time>
   <time name="total">    1.95    2.76</time>
   <energy>
    <i name="e_fr_energy">     -7.90249371 </i>
    <i name="e_wo_entrp">     -7.90056738 </i>
    <i name="e_0_energy">     -7.90153054 </i>
   </energy>
  </scstep>
  <scstep>
   <time name="dav">    2.52    2.52</time>
   <time name="total">    2.69    2.90</time>
   <energy>
    <i name="e_fr_energy">     -7.90253015 </i>
    <i name="e_wo_entrp">     -7.90060384 </i>
    <i name="e_0_energy">     -7.90156699 </i>
   </energy>
  </scstep>
  <scstep>
   <time name="dav">    2.20    2.20</time>
   <time name="total">    3.93    4.10</time>
   <energy>
    <i name="e_fr_energy">     -8.32695467 </i>
    <i name="e_wo_entrp">     -8.32689770 </i>
    <i name="e_0_energy">     -8.32692618 </i>
   </energy>
  </scstep>
  <scstep>
   <time name="dav">    1.85    1.85</time>
   <time name="total">    3.52    3.73</time>
   <energy>
    <i name="e_fr_energy">     -8.32257626 </i>
    <i name="e_wo_entrp">     -8.32248309 </i>
    <i name="e_0_energy">     -8.32252967 </i>
   </energy>
  </scstep>
  <scstep>
   <time name="dav">    2.22    2.26</time>
   <time name="total">    4.26    4.91</time>
   <energy>
    <i name="e_fr_energy">     -8.35076789 </i>
    <i name="e_wo_entrp">     -8.35071346 </i>
    <i name="e_0_energy">     -8.35074067 </i>
   </energy>
  </scstep>
  <scstep>
   <time name="dav">    2.16    2.17</time>
   <time name="total">    3.74    3.92</time>
   <energy>
    <i name="e_fr_energy">     -8.34784833 </i>
    <i name="e_wo_entrp">     -8.34779616 </i>
    <i name="e_0_energy">     -8.34782224 </i>
   </energy>
  </scstep>
  <scstep>
   <time name="dav">    2.12    2.12</time>
   <time name="total">    3.66    4.71</time>
   <energy>
    <i name="e_fr_energy">     -8.34039379 </i>
    <i name="e_wo_entrp">     -8.34034840 </i>
    <i name="e_0_energy">     -8.34037109 </i>
   </energy>
  </scstep>
  <scstep>
   <time name="dav">    2.17    2.17</time>
   <time name="total">    3.72    3.98</time>
   <energy>
    <i name="e_fr_energy">     -8.34001273 </i>
    <i name="e_wo_entrp">     -8.33996735 </i>
    <i name="e_0_energy">     -8.33999004 </i>
   </energy>
  </scstep>
  <scstep>
   <time name="dav">    2.32    2.32</time>
   <time name="total">    3.80    3.99</time>
   <energy>
    <i name="e_fr_energy">     -8.34026439 </i>
    <i name="e_wo_entrp">     -8.34021869 </i>
    <i name="e_0_energy">     -8.34024154 </i>
   </energy>
  </scstep>
  <scstep>
   <time name="dav">    2.20    2.19</time>
   <time name="total">    3.76    3.84</time>
   <energy>
    <i name="e_fr_energy">     -8.34011382 </i>
    <i name="e_wo_entrp">     -8.34006834 </i>
    <i name="e_0_energy">     -8.34009108 </i>
   </energy>
  </scstep>
  <scstep>
   <time name="dav">    2.12    2.12</time>
   <time name="total">    3.70    4.18</time>
   <energy>
    <i name="e_fr_energy">     -8.34010669 </i>
    <i name="e_wo_entrp">     -8.34006121 </i>
    <i name="e_0_energy">     -8.34008395 </i>
   </energy>
  </scstep>
  <scstep>
   <time name="dav">    1.80    1.81</time>
   <time name="total">    3.33    3.98</time>
   <energy>
    <i name="e_fr_energy">     -8.34011369 </i>
    <i name="e_wo_entrp">     -8.34006821 </i>
    <i name="e_0_energy">     -8.34009095 </i>
   </energy>
  </scstep>
  <scstep>
   <time name="dav">    1.60    1.60</time>
   <time name="total">    3.20    3.76</time>
   <energy>
    <i name="e_fr_energy">     -8.34011940 </i>
    <i name="e_wo_entrp">     -8.34007392 </i>
    <i name="e_0_energy">     -8.34009666 </i>
   </energy>
  </scstep>
  <scstep>
   <time name="dav">    1.40    1.40</time>
   <time name="total">    2.93    3.41</time>
   <energy>
    <i name="e_fr_energy">     -8.34011833 </i>
    <i name="e_wo_entrp">     -8.34007285 </i>
    <i name="e_0_energy">     -8.34009559 </i>
   </energy>
  </scstep>
  <scstep>
   <time name="dav">    1.24    1.23</time>
   <time name="total">    2.76    2.93</time>
   <energy>
    <i name="e_fr_energy">     -8.34011821 </i>
    <i name="e_wo_entrp">     -8.34007273 </i>
    <i name="e_0_energy">     -8.34009547 </i>
   </energy>
  </scstep>
  <scstep>
   <time name="dav">    1.09    1.09</time>
   <time name="total">    2.58    2.73</time>
   <energy>
    <i name="alphaZ">      3.29317992 </i>
    <i name="ewald">   -226.94489173 </i>
    <i name="hartreedc">    -15.37360318 </i>
    <i name="XCdc">    -19.57594138 </i>
    <i name="pawpsdc">    538.66426389 </i>
    <i name="pawaedc">   -502.12774721 </i>
    <i name="eentropy">     -0.00004548 </i>
    <i name="bandstr">      5.13092874 </i>
    <i name="atom">    208.59373829 </i>
    <i name="e_fr_energy">     -8.34011815 </i>
    <i name="e_wo_entrp">     -8.34007268 </i>
    <i name="e_0_energy">     -8.34009542 </i>
   </energy>
  </scstep>
  <structure>
   <crystal>
    <varray name="basis" >
     <v>       3.34889800       0.00000000       1.93348700 </v>
     <v>       1.11629900       3.15737200       1.93348700 </v>
     <v>       0.00000000       0.00000000       3.86697500 </v>
    </varray>
    <i name="volume">     40.88829843 </i>
    <varray name="rec_basis" >
     <v>       0.29860569      -0.10557300       0.00000000 </v>
     <v>       0.00000000       0.31671909       0.00000000 </v>
     <v>      -0.14930281      -0.10557302       0.25860007 </v>
    </varray>
   </crystal>
   <varray name="positions" >
    <v>       0.87500000       0.87500000       0.87500000 </v>
    <v>       0.12500000       0.12500000       0.12500000 </v>
   </varray>
  </structure>
  <varray name="forces" >
   <v>       0.00000000       0.00000000       0.00000000 </v>
   <v>       0.00000000       0.00000000       0.00000000 </v>
  </varray>
  <varray name="stress" >
   <v>      12.25771717      -0.00000129      -0.00000183 </v>
   <v>      -0.00000129      12.25772250      -0.00000129 </v>
   <v>      -0.00000183      -0.00000129      12.25772146 </v>
  </varray>
  <energy>
   <i name="e_fr_energy">     -8.34011815 </i>
   <i name="e_wo_entrp">     -8.34009542 </i>
   <i name="e_0_energy">     -0.00004548 </i>
  </energy>
  <time name="totalsc">   67.48   76.45</time>
 </calculation>
 <calculation>
  <scstep>
   <time name="dav">    1.98    1.99</time>
   <time name="total">    3.47    3.54</time>
   <energy>
    <i name="alphaZ">      3.21974295 </i>
    <i name="ewald">   -225.24525925 </i>
    <i name="hartreedc">    -15.25846638 </i>
    <i name="XCdc">    -19.67705917 </i>
    <i name="pawpsdc">    538.66368906 </i>
    <i name="pawaedc">   -502.12717239 </i>
    <i name="eentropy">     -0.00002162 </i>
    <i name="bandstr">      3.48667429 </i>
    <i name="atom">    208.59373829 </i>
    <i name="e_fr_energy">     -8.34413423 </i>
    <i name="e_wo_entrp">     -8.34411261 </i>
    <i name="e_0_energy">     -8.34412342 </i>
   </energy>
  </scstep>
  <scstep>
   <time name="dav">    2.32    2.34</time>
   <time name="total">    3.89    4.07</time>
   <energy>
    <i name="e_fr_energy">     -8.34054363 </i>
    <i name="e_wo_entrp">     -8.34051743 </i>
    <i name="e_0_energy">     -8.34053053 </i>
   </energy>
  </scstep>
  <scstep>
   <time name="dav">    2.46    2.48</time>
   <time name="total">    4.03    5.46</time>
   <energy>
    <i name="e_fr_energy">     -8.33596202 </i>
    <i name="e_wo_entrp">     -8.33592881 </i>
    <i name="e_0_energy">     -8.33594541 </i>
   </energy>
  </scstep>
  <scstep>
   <time name="dav">    2.28    2.30</time>
   <time name="total">    3.84    4.03</time>
   <energy>
    <i name="e_fr_energy">     -8.33550919 </i>
    <i name="e_wo_entrp">     -8.33547618 </i>
    <i name="e_0_energy">     -8.33549268 </i>
   </energy>
  </scstep>
  <scstep>
   <time name="dav">    2.21    2.22</time>
   <time name="total">    3.76    4.69</time>
   <energy>
    <i name="e_fr_energy">     -8.33454238 </i>
    <i name="e_wo_entrp">     -8.33450956 </i>
    <i name="e_0_energy">     -8.33452597 </i>
   </energy>
  </scstep>
  <scstep>
   <time name="dav">    2.14    2.15</time>
   <time name="total">    3.72    4.04</time>
   <energy>
    <i name="e_fr_energy">     -8.33457141 </i>
    <i name="e_wo_entrp">     -8.33453855 </i>
    <i name="e_0_energy">     -8.33455498 </i>
   </energy>
  </scstep>
  <scstep>
   <time name="dav">    1.51    1.51</time>
   <time name="total">    3.02    3.25</time>
   <energy>
    <i name="e_fr_energy">     -8.33461331 </i>
    <i name="e_wo_entrp">     -8.33458044 </i>
    <i name="e_0_energy">     -8.33459687 </i>
   </energy>
  </scstep>
  <scstep>
   <time name="dav">    1.44    1.45</time>
   <time name="total">    3.03    3.36</time>
   <energy>
    <i name="e_fr_energy">     -8.33462469 </i>
    <i name="e_wo_entrp">     -8.33459182 </i>
    <i name="e_0_energy">     -8.33460825 </i>
   </energy>
  </scstep>
  <scstep>
   <time name="dav">    1.37    1.37</time>
   <time name="total">    2.92    4.53</time>
   <energy>
    <i name="e_fr_energy">     -8.33462818 </i>
    <i name="e_wo_entrp">     -8.33459530 </i>
    <i name="e_0_energy">     -8.33461174 </i>
   </energy>
  </scstep>
  <scstep>
   <time name="dav">    1.78    1.79</time>
   <time name="total">    3.33    5.35</time>
   <energy>
    <i name="e_fr_energy">     -8.33462987 </i>
    <i name="e_wo_entrp">     -8.33459699 </i>
    <i name="e_0_energy">     -8.33461343 </i>
   </energy>
  </scstep>
  <scstep>
   <time name="dav">    1.42    1.42</time>
   <time name="total">    2.94    3.20</time>
   <energy>
    <i name="alphaZ">      3.21974295 </i>
    <i name="ewald">   -225.24525925 </i>
    <i name="hartreedc">    -15.63705851 </i>
    <i name="XCdc">    -19.67588396 </i>
    <i name="pawpsdc">    513.37721911 </i>
    <i name="pawaedc">   -476.81514236 </i>
    <i name="eentropy">     -0.00003287 </i>
    <i name="bandstr">      3.84804673 </i>
    <i name="atom">    208.59373829 </i>
    <i name="e_fr_energy">     -8.33462989 </i>
    <i name="e_wo_entrp">     -8.33459701 </i>
    <i name="e_0_energy">     -8.33461345 </i>
   </energy>
  </scstep>
  <structure>
   <crystal>
    <varray name="basis" >
     <v>       3.37416776       0.00000000       1.94807650 </v>
     <v>       1.12472225       3.18119657       1.94807650 </v>
     <v>       0.00000000       0.00000000       3.89615402 </v>
    </varray>
    <i name="volume">     41.82089237 </i>
    <varray name="rec_basis" >
     <v>       0.29636938      -0.10478234       0.00000000 </v>
     <v>       0.00000000       0.31434713       0.00000000 </v>
     <v>      -0.14818465      -0.10478236       0.25666336 </v>
    </varray>
   </crystal>
   <varray name="positions" >
    <v>       0.87500000       0.87500000       0.87500000 </v>
    <v>       0.12500000       0.12500000       0.12500000 </v>
   </varray>
  </structure>
  <varray name="forces" >
   <v>       0.00000000       0.00000000       0.00000000 </v>
   <v>       0.00000000       0.00000000       0.00000000 </v>
  </varray>
  <varray name="stress" >
   <v>      -7.63155732       0.00000082       0.00000116 </v>
   <v>       0.00000082      -7.63156068       0.00000082 </v>
   <v>       0.00000116       0.00000082      -7.63156003 </v>
  </varray>
  <energy>
   <i name="e_fr_energy">     -8.33462989 </i>
   <i name="e_wo_entrp">     -8.33461345 </i>
   <i name="e_0_energy">     -0.00003287 </i>
  </energy>
  <time name="totalsc">   41.47   50.51</time>
 </calculation>
 <calculation>
  <scstep>
   <time name="dav">    2.27    2.27</time>
   <time name="total">    3.85    3.87</time>
   <energy>
    <i name="alphaZ">      3.24818234 </i>
    <i name="ewald">   -225.90649949 </i>
    <i name="hartreedc">    -15.68296358 </i>
    <i name="XCdc">    -19.63665453 </i>
    <i name="pawpsdc">    513.37308551 </i>
    <i name="pawaedc">   -476.81100818 </i>
    <i name="eentropy">     -0.00004360 </i>
    <i name="bandstr">      4.48621529 </i>
    <i name="atom">    208.59373829 </i>
    <i name="e_fr_energy">     -8.33594796 </i>
    <i name="e_wo_entrp">     -8.33590436 </i>
    <i name="e_0_energy">     -8.33592616 </i>
   </energy>
  </scstep>
  <scstep>
   <time name="dav">    2.17    2.17</time>
   <time name="total">    3.75    4.37</time>
   <energy>
    <i name="e_fr_energy">     -8.33633252 </i>
    <i name="e_wo_entrp">     -8.33629189 </i>
    <i name="e_0_energy">     -8.33631220 </i>
   </energy>
  </scstep>
  <scstep>
   <time name="dav">    2.25    2.25</time>
   <time name="total">    3.88    4.08</time>
   <energy>
    <i name="e_fr_energy">     -8.33757616 </i>
    <i name="e_wo_entrp">     -8.33753902 </i>
    <i name="e_0_energy">     -8.33755759 </i>
   </energy>
  </scstep>
  <scstep>
   <time name="dav">    2.18    2.19</time>
   <time name="total">    3.75    4.34</time>
   <energy>
    <i name="e_fr_energy">     -8.33775481 </i>
    <i name="e_wo_entrp">     -8.33771759 </i>
    <i name="e_0_energy">     -8.33773620 </i>
   </energy>
  </scstep>
  <scstep>
   <time name="dav">    2.46    2.53</time>
   <time name="total">    4.06    6.43</time>
   <energy>
    <i name="e_fr_energy">     -8.33813056 </i>
    <i name="e_wo_entrp">     -8.33809326 </i>
    <i name="e_0_energy">     -8.33811191 </i>
   </energy>
  </scstep>
  <scstep>
   <time name="dav">    1.51    1.51</time>
   <time name="total">    3.11    3.25</time>
   <energy>
    <i name="e_fr_energy">     -8.33812064 </i>
    <i name="e_wo_entrp">     -8.33808336 </i>
    <i name="e_0_energy">     -8.33810200 </i>
   </energy>
  </scstep>
  <scstep>
   <time name="dav">    1.44    1.43</time>
   <time name="total">    3.01    3.28</time>
   <energy>
    <i name="e_fr_energy">     -8.33810324 </i>
    <i name="e_wo_entrp">     -8.33806596 </i>
    <i name="e_0_energy">     -8.33808460 </i>
   </energy>
  </scstep>
  <scstep>
   <time name="dav">    1.40    1.40</time>
   <time name="total">    2.99    3.29</time>
   <energy>
    <i name="e_fr_energy">     -8.33809940 </i>
    <i name="e_wo_entrp">     -8.33806212 </i>
    <i name="e_0_energy">     -8.33808076 </i>
   </energy>
  </scstep>
  <scstep>
   <time name="dav">    1.40    1.40</time>
   <time name="total">    2.96    3.09</time>
   <energy>
    <i name="e_fr_energy">     -8.33809885 </i>
    <i name="e_wo_entrp">     -8.33806157 </i>
    <i name="e_0_energy">     -8.33808021 </i>
   </energy>
  </scstep>
  <scstep>
   <time name="dav">    1.47    1.47</time>
   <time name="total">    3.20    3.64</time>
   <energy>
    <i name="e_fr_energy">     -8.33809816 </i>
    <i name="e_wo_entrp">     -8.33806088 </i>
    <i name="e_0_energy">     -8.33807952 </i>
   </energy>
  </scstep>
  <scstep>
   <time name="dav">    1.61    1.61</time>
   <time name="total">    3.18    4.03</time>
   <energy>
    <i name="alphaZ">      3.24818234 </i>
    <i name="ewald">   -225.90649949 </i>
    <i name="hartreedc">    -15.53407397 </i>
    <i name="XCdc">    -19.63702108 </i>
    <i name="pawpsdc">    523.06114072 </i>
    <i name="pawaedc">   -486.50887686 </i>
    <i name="eentropy">     -0.00003728 </i>
    <i name="bandstr">      4.34534920 </i>
    <i name="atom">    208.59373829 </i>
    <i name="e_fr_energy">     -8.33809814 </i>
    <i name="e_wo_entrp">     -8.33806086 </i>
    <i name="e_0_energy">     -8.33807950 </i>
   </energy>
  </scstep>
  <structure>
   <crystal>
    <varray name="basis" >
     <v>       3.36429140       0.00000000       1.94237438 </v>
     <v>       1.12143013       3.17188504       1.94237438 </v>
     <v>       0.00000000       0.00000000       3.88474977 </v>
    </varray>
    <i name="volume">     41.45473037 </i>
    <varray name="rec_basis" >
     <v>       0.29723941      -0.10508995       0.00000000 </v>
     <v>       0.00000000       0.31526994       0.00000000 </v>
     <v>      -0.14861967      -0.10508997       0.25741684 </v>
    </varray>
   </crystal>
   <varray name="positions" >
    <v>       0.87500000       0.87500000       0.87500000 </v>
    <v>       0.12500000       0.12500000       0.12500000 </v>
   </varray>
  </structure>
  <varray name="forces" >
   <v>       0.00000000       0.00000000       0.00000000 </v>
   <v>       0.00000000       0.00000000       0.00000000 </v>
  </varray>
  <varray name="stress" >
   <v>      -0.10899826       0.00000001       0.00000002 </v>
   <v>       0.00000001      -0.10899830       0.00000001 </v>
   <v>       0.00000002       0.00000001      -0.10899829 </v>
  </varray>
  <energy>
   <i name="e_fr_energy">     -8.33809814 </i>
   <i name="e_wo_entrp">     -8.33807950 </i>
   <i name="e_0_energy">     -0.00003728 </i>
  </energy>
  <time name="totalsc">   41.51   49.92</time>
 </calculation>
 <calculation>
  <scstep>
   <time name="dav">    2.62    2.63</time>
   <time name="total">    4.64    5.04</time>
   <energy>
    <i name="alphaZ">      3.24859197 </i>
    <i name="ewald">   -225.91599545 </i>
    <i name="hartreedc">    -15.53472707 </i>
    <i name="XCdc">    -19.63645724 </i>
    <i name="pawpsdc">    523.06206787 </i>
    <i name="pawaedc">   -486.50980421 </i>
    <i name="eentropy">     -0.00003743 </i>
    <i name="bandstr">      4.35452481 </i>
    <i name="atom">    208.59373829 </i>
    <i name="e_fr_energy">     -8.33809848 </i>
    <i name="e_wo_entrp">     -8.33806105 </i>
    <i name="e_0_energy">     -8.33807976 </i>
   </energy>
  </scstep>
  <scstep>
   <time name="dav">    1.92    1.91</time>
   <time name="total">    3.57    4.10</time>
   <energy>
    <i name="e_fr_energy">     -8.33810822 </i>
    <i name="e_wo_entrp">     -8.33807082 </i>
    <i name="e_0_energy">     -8.33808952 </i>
   </energy>
  </scstep>
  <scstep>
   <time name="dav">    1.59    1.59</time>
   <time name="total">    3.26    3.47</time>
   <energy>
    <i name="e_fr_energy">     -8.33812810 </i>
    <i name="e_wo_entrp">     -8.33809075 </i>
    <i name="e_0_energy">     -8.33810943 </i>
   </energy>
  </scstep>
  <scstep>
   <time name="dav">    1.60    1.60</time>
   <time name="total">    3.25    3.49</time>
   <energy>
    <i name="e_fr_energy">     -8.33813151 </i>
    <i name="e_wo_entrp">     -8.33809416 </i>
    <i name="e_0_energy">     -8.33811283 </i>
   </energy>
  </scstep>
  <scstep>
   <time name="dav">    1.59    1.59</time>
   <time name="total">    3.26    3.40</time>
   <energy>
    <i name="e_fr_energy">     -8.33813588 </i>
    <i name="e_wo_entrp">     -8.33809854 </i>
    <i name="e_0_energy">     -8.33811721 </i>
   </energy>
  </scstep>
  <scstep>
   <time name="dav">    1.52    1.52</time>
   <time name="total">    3.21    3.82</time>
   <energy>
    <i name="e_fr_energy">     -8.33813637 </i>
    <i name="e_wo_entrp">     -8.33809902 </i>
    <i name="e_0_energy">     -8.33811770 </i>
   </energy>
  </scstep>
  <scstep>
   <time name="dav">    1.51    1.51</time>
   <time name="total">    3.20    4.53</time>
   <energy>
    <i name="e_fr_energy">     -8.33813617 </i>
    <i name="e_wo_entrp">     -8.33809883 </i>
    <i name="e_0_energy">     -8.33811750 </i>
   </energy>
  </scstep>
  <scstep>
   <time name="dav">    1.18    1.18</time>
   <time name="total">    2.71    3.30</time>
   <energy>
    <i name="e_fr_energy">     -8.33813598 </i>
    <i name="e_wo_entrp">     -8.33809863 </i>
    <i name="e_0_energy">     -8.33811731 </i>
   </energy>
  </scstep>
  <scstep>
   <time name="dav">    1.66    1.67</time>
   <time name="total">    3.48    3.79</time>
   <energy>
    <i name="alphaZ">      3.24859197 </i>
    <i name="ewald">   -225.91599545 </i>
    <i name="hartreedc">    -15.53259918 </i>
    <i name="XCdc">    -19.63646260 </i>
    <i name="pawpsdc">    523.20346760 </i>
    <i name="pawaedc">   -486.65134660 </i>
    <i name="eentropy">     -0.00003735 </i>
    <i name="bandstr">      4.35250741 </i>
    <i name="atom">    208.59373829 </i>
    <i name="e_fr_energy">     -8.33813590 </i>
    <i name="e_wo_entrp">     -8.33809855 </i>
    <i name="e_0_energy">     -8.33811723 </i>
   </energy>
  </scstep>
  <structure>
   <crystal>
    <varray name="basis" >
     <v>       3.36414999       0.00000000       1.94229274 </v>
     <v>       1.12138299       3.17175172       1.94229274 </v>
     <v>       0.00000000       0.00000000       3.88458649 </v>
    </varray>
    <i name="volume">     41.44950317 </i>
    <varray name="rec_basis" >
     <v>       0.29725191      -0.10509437       0.00000000 </v>
     <v>       0.00000000       0.31528319       0.00000000 </v>
     <v>      -0.14862592      -0.10509439       0.25742766 </v>
    </varray>
   </crystal>
   <varray name="positions" >
    <v>       0.87500000       0.87500000       0.87500000 </v>
    <v>       0.12500000       0.12500000       0.12500000 </v>
   </varray>
  </structure>
  <varray name="forces" >
   <v>       0.00000000       0.00000000       0.00000000 </v>
   <v>       0.00000000       0.00000000       0.00000000 </v>
  </varray>
  <varray name="stress" >
   <v>       0.00114565       0.00000000       0.00000000 </v>
   <v>       0.00000000       0.00114565       0.00000000 </v>
   <v>       0.00000000       0.00000000       0.00114565 </v>
  </varray>
  <energy>
   <i name="e_fr_energy">     -8.33813590 </i>
   <i name="e_wo_entrp">     -8.33811723 </i>
   <i name="e_0_energy">     -0.00003735 </i>
  </energy>
  <time name="totalsc">   34.29   40.40</time>
  <eigenvalues>
   <array>
    <dimension dim="1">band</dimension>
    <dimension dim="2">kpoint</dimension>
    <dimension dim="3">spin</dimension>
    <field>eigene</field>
    <field>occ</field>
    <set>
     <set comment="spin 1">
      <set comment="kpoint 1">
       <r>   -6.1917    1.0000 </r>
       <r>    5.4591    0.9927 </r>
       <r>    5.4591    0.9927 </r>
       <r>    5.4591    0.9927 </r>
       <r>    8.0743    0.0000 </r>
       <r>    8.0743    0.0000 </r>
       <r>    8.0743    0.0000 </r>
       <r>    8.5300    0.0000 </r>
       <r>   13.2142    0.0000 </r>
       <r>   13.2142    0.0000 </r>
       <r>   13.3486    0.0000 </r>
       <r>   16.6556    0.0000 </r>
      </set>
      <set comment="kpoint 2">
       <r>   -6.0869    1.0000 </r>
       <r>    4.4962    1.0000 </r>
       <r>    5.3022    0.9998 </r>
       <r>    5.3022    0.9998 </r>
       <r>    8.0378    0.0000 </r>
       <r>    8.3083    0.0000 </r>
       <r>    8.3083    0.0000 </r>
       <r>    9.3592    0.0000 </r>
       <r>   12.9156    0.0000 </r>
       <r>   12.9156    0.0000 </r>
       <r>   13.7881    0.0000 </r>
       <r>   16.3004    0.0000 </r>
      </set>
      <set comment="kpoint 3">
       <r>   -5.7765    1.0000 </r>
       <r>    2.8648    1.0000 </r>
       <r>    4.9778    1.0000 </r>
       <r>    4.9778    1.0000 </r>
       <r>    7.7091    0.0000 </r>
       <r>    8.7667    0.0000 </r>
       <r>    8.7668    0.0000 </r>
       <r>   10.9433    0.0000 </r>
       <r>   12.5686    0.0000 </r>
       <r>   12.5686    0.0000 </r>
       <r>   14.5305    0.0000 </r>
       <r>   16.1395    0.0000 </r>
      </set>
      <set comment="kpoint 4">
       <r>   -5.2774    1.0000 </r>
       <r>    1.2540    1.0000 </r>
       <r>    4.6659    1.0000 </r>
       <r>    4.6659    1.0000 </r>
       <r>    7.3620    0.0000 </r>
       <r>    9.0248    0.0000 </r>
       <r>    9.0248    0.0000 </r>
       <r>   12.5098    0.0000 </r>
       <r>   12.8306    0.0000 </r>
       <r>   12.8306    0.0000 </r>
       <r>   14.3375    0.0000 </r>
       <r>   17.6077    0.0000 </r>
      </set>
      <set comment="kpoint 5">
       <r>   -4.6409    1.0000 </r>
       <r>   -0.1558    1.0000 </r>
       <r>    4.4409    1.0000 </r>
       <r>    4.4409    1.0000 </r>
       <r>    7.1029    0.0000 </r>
       <r>    8.9862    0.0000 </r>
       <r>    8.9862    0.0000 </r>
       <r>   13.3250    0.0000 </r>
       <r>   13.8420    0.0000 </r>
       <r>   13.8420    0.0000 </r>
       <r>   14.7343    0.0000 </r>
       <r>   19.1793    0.0000 </r>
      </set>
      <set comment="kpoint 6">
       <r>   -4.0577    1.0000 </r>
       <r>   -1.1329    1.0000 </r>
       <r>    4.3257    1.0000 </r>
       <r>    4.3257    1.0000 </r>
       <r>    6.9680    0.0000 </r>
       <r>    8.8905    0.0000 </r>
       <r>    8.8905    0.0000 </r>
       <r>   13.2368    0.0000 </r>
       <r>   15.3311    0.0000 </r>
       <r>   15.3311    0.0000 </r>
       <r>   16.1473    0.0000 </r>
       <r>   17.3181    0.0000 </r>
      </set>
      <set comment="kpoint 7">
       <r>   -6.0517    1.0000 </r>
       <r>    4.6474    1.0000 </r>
       <r>    4.9971    1.0000 </r>
       <r>    4.9971    1.0000 </r>
       <r>    7.7649    0.0000 </r>
       <r>    8.7082    0.0000 </r>
       <r>    8.7082    0.0000 </r>
       <r>    9.2776    0.0000 </r>
       <r>   12.3659    0.0000 </r>
       <r>   13.3705    0.0000 </r>
       <r>   13.9365    0.0000 </r>
       <r>   16.9010    0.0000 </r>
      </set>
      <set comment="kpoint 8">
       <r>   -5.8091    1.0000 </r>
       <r>    3.3371    1.0000 </r>
       <r>    4.6182    1.0000 </r>
       <r>    4.7820    1.0000 </r>
       <r>    7.7891    0.0000 </r>
       <r>    8.7128    0.0000 </r>
       <r>    9.2800    0.0000 </r>
       <r>   10.3037    0.0000 </r>
       <r>   12.0765    0.0000 </r>
       <r>   13.3298    0.0000 </r>
       <r>   14.7340    0.0000 </r>
       <r>   16.5090    0.0000 </r>
      </set>
      <set comment="kpoint 9">
       <r>   -5.3703    1.0000 </r>
       <r>    1.7671    1.0000 </r>
       <r>    4.3098    1.0000 </r>
       <r>    4.4225    1.0000 </r>
       <r>    7.8707    0.0000 </r>
       <r>    8.7394    0.0000 </r>
       <r>    9.6345    0.0000 </r>
       <r>   10.8170    0.0000 </r>
       <r>   13.0478    0.0000 </r>
       <r>   13.5031    0.0000 </r>
       <r>   14.9645    0.0000 </r>
       <r>   17.1890    0.0000 </r>
      </set>
      <set comment="kpoint 10">
       <r>   -4.7698    1.0000 </r>
       <r>    0.3070    1.0000 </r>
       <r>    4.0535    1.0000 </r>
       <r>    4.1271    1.0000 </r>
       <r>    7.6991    0.0000 </r>
       <r>    8.8127    0.0000 </r>
       <r>    9.5903    0.0000 </r>
       <r>   11.5733    0.0000 </r>
       <r>   14.2943    0.0000 </r>
       <r>   14.3728    0.0000 </r>
       <r>   14.8764    0.0000 </r>
       <r>   18.7120    0.0000 </r>
      </set>
      <set comment="kpoint 11">
       <r>   -4.1274    1.0000 </r>
       <r>   -0.8434    1.0000 </r>
       <r>    3.7661    1.0000 </r>
       <r>    4.0852    1.0000 </r>
       <r>    7.5541    0.0000 </r>
       <r>    8.7886    0.0000 </r>
       <r>    9.3738    0.0000 </r>
       <r>   12.7892    0.0000 </r>
       <r>   14.2291    0.0000 </r>
       <r>   15.7452    0.0000 </r>
       <r>   16.3514    0.0000 </r>
       <r>   17.0925    0.0000 </r>
      </set>
      <set comment="kpoint 12">
       <r>   -3.8713    1.0000 </r>
       <r>   -1.2273    1.0000 </r>
       <r>    3.5963    1.0000 </r>
       <r>    4.1804    1.0000 </r>
       <r>    7.5236    0.0000 </r>
       <r>    8.8471    0.0000 </r>
       <r>    9.1989    0.0000 </r>
       <r>   13.5204    0.0000 </r>
       <r>   14.6998    0.0000 </r>
       <r>   15.0448    0.0000 </r>
       <r>   16.2955    0.0000 </r>
       <r>   17.6700    0.0000 </r>
      </set>
      <set comment="kpoint 13">
       <r>   -4.3316    1.0000 </r>
       <r>   -0.5092    1.0000 </r>
       <r>    3.5649    1.0000 </r>
       <r>    4.3975    1.0000 </r>
       <r>    7.6201    0.0000 </r>
       <r>    9.0294    0.0000 </r>
       <r>    9.1206    0.0000 </r>
       <r>   13.1607    0.0000 </r>
       <r>   13.4471    0.0000 </r>
       <r>   14.5952    0.0000 </r>
       <r>   16.5035    0.0000 </r>
       <r>   17.2077    0.0000 </r>
      </set>
      <set comment="kpoint 14">
       <r>   -4.9853    1.0000 </r>
       <r>    0.7739    1.0000 </r>
       <r>    3.6868    1.0000 </r>
       <r>    4.7082    1.0000 </r>
       <r>    7.8333    0.0000 </r>
       <r>    9.0433    0.0000 </r>
       <r>    9.2215    0.0000 </r>
       <r>   12.0877    0.0000 </r>
       <r>   12.3057    0.0000 </r>
       <r>   14.7841    0.0000 </r>
       <r>   14.8904    0.0000 </r>
       <r>   18.0713    0.0000 </r>
      </set>
      <set comment="kpoint 15">
       <r>   -5.5381    1.0000 </r>
       <r>    2.2750    1.0000 </r>
       <r>    3.9794    1.0000 </r>
       <r>    5.0572    1.0000 </r>
       <r>    8.1295    0.0000 </r>
       <r>    8.7560    0.0000 </r>
       <r>    9.0752    0.0000 </r>
       <r>   11.1830    0.0000 </r>
       <r>   11.9114    0.0000 </r>
       <r>   13.5849    0.0000 </r>
       <r>   15.0780    0.0000 </r>
       <r>   16.6901    0.0000 </r>
      </set>
      <set comment="kpoint 16">
       <r>   -5.9132    1.0000 </r>
       <r>    3.7013    1.0000 </r>
       <r>    4.5270    1.0000 </r>
       <r>    5.3202    0.9997 </r>
       <r>    8.3635    0.0000 </r>
       <r>    8.3660    0.0000 </r>
       <r>    8.4975    0.0000 </r>
       <r>   10.2554    0.0000 </r>
       <r>   12.2467    0.0000 </r>
       <r>   13.0691    0.0000 </r>
       <r>   14.4177    0.0000 </r>
       <r>   16.4981    0.0000 </r>
      </set>
      <set comment="kpoint 17">
       <r>   -5.6343    1.0000 </r>
       <r>    3.1673    1.0000 </r>
       <r>    4.2033    1.0000 </r>
       <r>    4.2033    1.0000 </r>
       <r>    7.1374    0.0000 </r>
       <r>    9.5528    0.0000 </r>
       <r>   10.0087    0.0000 </r>
       <r>   10.0087    0.0000 </r>
       <r>   12.0998    0.0000 </r>
       <r>   13.8389    0.0000 </r>
       <r>   15.3777    0.0000 </r>
       <r>   17.6161    0.0000 </r>
      </set>
      <set comment="kpoint 18">
       <r>   -5.2594    1.0000 </r>
       <r>    2.0487    1.0000 </r>
       <r>    3.7960    1.0000 </r>
       <r>    3.8721    1.0000 </r>
       <r>    7.1837    0.0000 </r>
       <r>    9.1838    0.0000 </r>
       <r>   10.2916    0.0000 </r>
       <r>   10.5825    0.0000 </r>
       <r>   13.2484    0.0000 </r>
       <r>   14.1491    0.0000 </r>
       <r>   16.1343    0.0000 </r>
       <r>   17.5669    0.0000 </r>
      </set>
      <set comment="kpoint 19">
       <r>   -4.7072    1.0000 </r>
       <r>    0.7256    1.0000 </r>
       <r>    3.2799    1.0000 </r>
       <r>    3.6806    1.0000 </r>
       <r>    7.4140    0.0000 </r>
       <r>    9.5336    0.0000 </r>
       <r>   10.0916    0.0000 </r>
       <r>   10.6814    0.0000 </r>
       <r>   14.9295    0.0000 </r>
       <r>   14.9470    0.0000 </r>
       <r>   15.9195    0.0000 </r>
       <r>   18.6004    0.0000 </r>
      </set>
      <set comment="kpoint 20">
       <r>   -4.0525    1.0000 </r>
       <r>   -0.4667    1.0000 </r>
       <r>    2.8182    1.0000 </r>
       <r>    3.6473    1.0000 </r>
       <r>    7.4542    0.0000 </r>
       <r>    9.8552    0.0000 </r>
       <r>   10.4514    0.0000 </r>
       <r>   10.7258    0.0000 </r>
       <r>   15.3184    0.0000 </r>
       <r>   16.2159    0.0000 </r>
       <r>   16.7569    0.0000 </r>
       <r>   17.0006    0.0000 </r>
      </set>
      <set comment="kpoint 21">
       <r>   -3.5926    1.0000 </r>
       <r>   -1.1457    1.0000 </r>
       <r>    2.4949    1.0000 </r>
       <r>    3.7714    1.0000 </r>
       <r>    7.5470    0.0000 </r>
       <r>    9.7345    0.0000 </r>
       <r>   10.1762    0.0000 </r>
       <r>   12.3104    0.0000 </r>
       <r>   14.4546    0.0000 </r>
       <r>   14.9192    0.0000 </r>
       <r>   16.8650    0.0000 </r>
       <r>   18.0898    0.0000 </r>
      </set>
      <set comment="kpoint 22">
       <r>   -3.8642    1.0000 </r>
       <r>   -0.7523    1.0000 </r>
       <r>    2.3509    1.0000 </r>
       <r>    4.0371    1.0000 </r>
       <r>    7.7829    0.0000 </r>
       <r>    9.7305    0.0000 </r>
       <r>    9.9581    0.0000 </r>
       <r>   13.0878    0.0000 </r>
       <r>   13.2377    0.0000 </r>
       <r>   14.0346    0.0000 </r>
       <r>   16.7637    0.0000 </r>
       <r>   19.0232    0.0000 </r>
      </set>
      <set comment="kpoint 23">
       <r>   -4.5094    1.0000 </r>
       <r>    0.3211    1.0000 </r>
       <r>    2.4381    1.0000 </r>
       <r>    4.4073    1.0000 </r>
       <r>    8.1269    0.0000 </r>
       <r>    9.7114    0.0000 </r>
       <r>    9.7826    0.0000 </r>
       <r>   11.7219    0.0000 </r>
       <r>   12.0303    0.0000 </r>
       <r>   15.4667    0.0000 </r>
       <r>   17.0861    0.0000 </r>
       <r>   17.4456    0.0000 </r>
      </set>
      <set comment="kpoint 24">
       <r>   -5.1048    1.0000 </r>
       <r>    1.4729    1.0000 </r>
       <r>    2.9124    1.0000 </r>
       <r>    4.8021    1.0000 </r>
       <r>    8.4278    0.0000 </r>
       <r>    9.2266    0.0000 </r>
       <r>    9.4708    0.0000 </r>
       <r>   11.0678    0.0000 </r>
       <r>   11.6206    0.0000 </r>
       <r>   15.2545    0.0000 </r>
       <r>   15.9780    0.0000 </r>
       <r>   17.0765    0.0000 </r>
      </set>
      <set comment="kpoint 25">
       <r>   -4.9480    1.0000 </r>
       <r>    1.5842    1.0000 </r>
       <r>    3.5081    1.0000 </r>
       <r>    3.5081    1.0000 </r>
       <r>    6.5656    0.0000 </r>
       <r>    8.3425    0.0000 </r>
       <r>   11.5273    0.0000 </r>
       <r>   11.5273    0.0000 </r>
       <r>   13.6970    0.0000 </r>
       <r>   14.6180    0.0000 </r>
       <r>   17.1905    0.0000 </r>
       <r>   18.5974    0.0000 </r>
      </set>
      <set comment="kpoint 26">
       <r>   -4.4509    1.0000 </r>
       <r>    0.6584    1.0000 </r>
       <r>    2.9948    1.0000 </r>
       <r>    3.2837    1.0000 </r>
       <r>    6.6933    0.0000 </r>
       <r>    8.0586    0.0000 </r>
       <r>   11.7962    0.0000 </r>
       <r>   11.9954    0.0000 </r>
       <r>   15.1285    0.0000 </r>
       <r>   15.3333    0.0000 </r>
       <r>   17.4069    0.0000 </r>
       <r>   18.6201    0.0000 </r>
      </set>
      <set comment="kpoint 27">
       <r>   -3.8143    1.0000 </r>
       <r>   -0.3354    1.0000 </r>
       <r>    2.2978    1.0000 </r>
       <r>    3.2233    1.0000 </r>
       <r>    6.8961    0.0000 </r>
       <r>    8.7757    0.0000 </r>
       <r>   11.6318    0.0000 </r>
       <r>   11.8860    0.0000 </r>
       <r>   16.3366    0.0000 </r>
       <r>   16.6285    0.0000 </r>
       <r>   16.9940    0.0000 </r>
       <r>   17.0294    0.0000 </r>
      </set>
      <set comment="kpoint 28">
       <r>   -3.2261    1.0000 </r>
       <r>   -1.1041    1.0000 </r>
       <r>    1.7462    1.0000 </r>
       <r>    3.3305    1.0000 </r>
       <r>    7.0281    0.0000 </r>
       <r>   10.2125    0.0000 </r>
       <r>   11.4655    0.0000 </r>
       <r>   11.5780    0.0000 </r>
       <r>   14.8055    0.0000 </r>
       <r>   14.9625    0.0000 </r>
       <r>   18.4533    0.0000 </r>
       <r>   18.4854    0.0000 </r>
      </set>
      <set comment="kpoint 29">
       <r>   -3.2815    1.0000 </r>
       <r>   -1.0267    1.0000 </r>
       <r>    1.4743    1.0000 </r>
       <r>    3.5937    1.0000 </r>
       <r>    7.3059    0.0000 </r>
       <r>   11.2129    0.0000 </r>
       <r>   11.2357    0.0000 </r>
       <r>   12.1103    0.0000 </r>
       <r>   13.1227    0.0000 </r>
       <r>   13.2543    0.0000 </r>
       <r>   18.4445    0.0000 </r>
       <r>   20.3411    0.0000 </r>
      </set>
      <set comment="kpoint 30">
       <r>   -3.8911    1.0000 </r>
       <r>   -0.2943    1.0000 </r>
       <r>    1.6325    1.0000 </r>
       <r>    3.9790    1.0000 </r>
       <r>    7.7290    0.0000 </r>
       <r>   10.6460    0.0000 </r>
       <r>   10.9373    0.0000 </r>
       <r>   11.7685    0.0000 </r>
       <r>   12.2015    0.0000 </r>
       <r>   14.0450    0.0000 </r>
       <r>   18.4069    0.0000 </r>
       <r>   19.0500    0.0000 </r>
      </set>
      <set comment="kpoint 31">
       <r>   -4.0083    1.0000 </r>
       <r>    0.0126    1.0000 </r>
       <r>    3.0183    1.0000 </r>
       <r>    3.0183    1.0000 </r>
       <r>    6.2230    0.0015 </r>
       <r>    7.2389    0.0000 </r>
       <r>   13.1469    0.0000 </r>
       <r>   13.1469    0.0000 </r>
       <r>   15.5799    0.0000 </r>
       <r>   15.7051    0.0000 </r>
       <r>   18.4340    0.0000 </r>
       <r>   18.4340    0.0000 </r>
      </set>
      <set comment="kpoint 32">
       <r>   -3.4067    1.0000 </r>
       <r>   -0.7779    1.0000 </r>
       <r>    2.5117    1.0000 </r>
       <r>    2.9162    1.0000 </r>
       <r>    6.4290    0.0000 </r>
       <r>    7.2403    0.0000 </r>
       <r>   13.4581    0.0000 </r>
       <r>   13.4885    0.0000 </r>
       <r>   16.7417    0.0000 </r>
       <r>   16.8114    0.0000 </r>
       <r>   17.0638    0.0000 </r>
       <r>   17.2088    0.0000 </r>
      </set>
      <set comment="kpoint 33">
       <r>   -2.7581    1.0000 </r>
       <r>   -1.4721    1.0000 </r>
       <r>    1.7716    1.0000 </r>
       <r>    2.9860    1.0000 </r>
       <r>    6.5997    0.0000 </r>
       <r>    8.3788    0.0000 </r>
       <r>   13.2284    0.0000 </r>
       <r>   13.3239    0.0000 </r>
       <r>   15.0387    0.0000 </r>
       <r>   15.1699    0.0000 </r>
       <r>   18.5970    0.0000 </r>
       <r>   18.8199    0.0000 </r>
      </set>
      <set comment="kpoint 34">
       <r>   -2.7024    1.0000 </r>
       <r>   -1.4982    1.0000 </r>
       <r>    1.3085    1.0000 </r>
       <r>    3.2209    1.0000 </r>
       <r>    6.8678    0.0000 </r>
       <r>   10.0557    0.0000 </r>
       <r>   12.5688    0.0000 </r>
       <r>   13.0446    0.0000 </r>
       <r>   13.2814    0.0000 </r>
       <r>   13.7053    0.0000 </r>
       <r>   19.9670    0.0000 </r>
       <r>   20.3906    0.0000 </r>
      </set>
      <set comment="kpoint 35">
       <r>   -2.8407    1.0000 </r>
       <r>   -1.4830    1.0000 </r>
       <r>    2.7676    1.0000 </r>
       <r>    2.7676    1.0000 </r>
       <r>    6.1905    0.0032 </r>
       <r>    6.5179    0.0000 </r>
       <r>   14.7967    0.0000 </r>
       <r>   14.7967    0.0000 </r>
       <r>   16.8431    0.0000 </r>
       <r>   16.8431    0.0000 </r>
       <r>   17.0957    0.0000 </r>
       <r>   17.3561    0.0000 </r>
      </set>
      <set comment="kpoint 36">
       <r>   -2.2181    1.0000 </r>
       <r>   -2.1063    1.0000 </r>
       <r>    2.3520    1.0000 </r>
       <r>    2.7917    1.0000 </r>
       <r>    6.3710    0.0000 </r>
       <r>    6.9302    0.0000 </r>
       <r>   14.7412    0.0000 </r>
       <r>   14.9519    0.0000 </r>
       <r>   15.4658    0.0000 </r>
       <r>   15.6806    0.0000 </r>
       <r>   18.4896    0.0000 </r>
       <r>   18.5045    0.0000 </r>
      </set>
      <set comment="kpoint 37">
       <r>   -5.5008    1.0000 </r>
       <r>    2.4879    1.0000 </r>
       <r>    3.7229    1.0000 </r>
       <r>    4.6730    1.0000 </r>
       <r>    7.8477    0.0000 </r>
       <r>    9.0189    0.0000 </r>
       <r>    9.8094    0.0000 </r>
       <r>   10.2571    0.0000 </r>
       <r>   12.3978    0.0000 </r>
       <r>   13.8307    0.0000 </r>
       <r>   15.5659    0.0000 </r>
       <r>   16.9158    0.0000 </r>
      </set>
      <set comment="kpoint 38">
       <r>   -5.0045    1.0000 </r>
       <r>    1.2112    1.0000 </r>
       <r>    3.1744    1.0000 </r>
       <r>    4.3691    1.0000 </r>
       <r>    8.1395    0.0000 </r>
       <r>    8.9977    0.0000 </r>
       <r>   10.1562    0.0000 </r>
       <r>   10.3619    0.0000 </r>
       <r>   12.9528    0.0000 </r>
       <r>   15.1697    0.0000 </r>
       <r>   15.7543    0.0000 </r>
       <r>   17.6352    0.0000 </r>
      </set>
      <set comment="kpoint 39">
       <r>   -4.3694    1.0000 </r>
       <r>   -0.0843    1.0000 </r>
       <r>    2.9177    1.0000 </r>
       <r>    4.0417    1.0000 </r>
       <r>    8.1529    0.0000 </r>
       <r>    8.8458    0.0000 </r>
       <r>   10.2434    0.0000 </r>
       <r>   11.1868    0.0000 </r>
       <r>   14.0181    0.0000 </r>
       <r>   15.2098    0.0000 </r>
       <r>   16.8762    0.0000 </r>
       <r>   17.2610    0.0000 </r>
      </set>
      <set comment="kpoint 40">
       <r>   -3.7813    1.0000 </r>
       <r>   -1.0268    1.0000 </r>
       <r>    2.8166    1.0000 </r>
       <r>    3.8415    1.0000 </r>
       <r>    8.1136    0.0000 </r>
       <r>    8.6720    0.0000 </r>
       <r>   10.1841    0.0000 </r>
       <r>   12.6130    0.0000 </r>
       <r>   14.1301    0.0000 </r>
       <r>   15.2581    0.0000 </r>
       <r>   16.5035    0.0000 </r>
       <r>   17.8348    0.0000 </r>
      </set>
      <set comment="kpoint 41">
       <r>   -4.8245    1.0000 </r>
       <r>    1.2190    1.0000 </r>
       <r>    3.0330    1.0000 </r>
       <r>    3.7144    1.0000 </r>
       <r>    7.3043    0.0000 </r>
       <r>    8.8202    0.0000 </r>
       <r>   10.3978    0.0000 </r>
       <r>   11.4147    0.0000 </r>
       <r>   13.8320    0.0000 </r>
       <r>   15.2969    0.0000 </r>
       <r>   16.7971    0.0000 </r>
       <r>   17.8909    0.0000 </r>
      </set>
      <set comment="kpoint 42">
       <r>   -4.2276    1.0000 </r>
       <r>    0.1746    1.0000 </r>
       <r>    2.4757    1.0000 </r>
       <r>    3.4171    1.0000 </r>
       <r>    7.6593    0.0000 </r>
       <r>    9.2182    0.0000 </r>
       <r>   10.0932    0.0000 </r>
       <r>   11.8032    0.0000 </r>
       <r>   14.6872    0.0000 </r>
       <r>   16.0407    0.0000 </r>
       <r>   17.0951    0.0000 </r>
       <r>   17.8724    0.0000 </r>
      </set>
      <set comment="kpoint 43">
       <r>   -3.5808    1.0000 </r>
       <r>   -0.7947    1.0000 </r>
       <r>    2.0991    1.0000 </r>
       <r>    3.2693    1.0000 </r>
       <r>    7.7923    0.0000 </r>
       <r>    9.7263    0.0000 </r>
       <r>   10.5328    0.0000 </r>
       <r>   11.7654    0.0000 </r>
       <r>   14.3867    0.0000 </r>
       <r>   16.0247    0.0000 </r>
       <r>   17.0536    0.0000 </r>
       <r>   18.3011    0.0000 </r>
      </set>
      <set comment="kpoint 44">
       <r>   -3.3273    1.0000 </r>
       <r>   -1.1272    1.0000 </r>
       <r>    1.8778    1.0000 </r>
       <r>    3.3546    1.0000 </r>
       <r>    7.9965    0.0000 </r>
       <r>    9.4701    0.0000 </r>
       <r>   11.6556    0.0000 </r>
       <r>   12.1787    0.0000 </r>
       <r>   12.6563    0.0000 </r>
       <r>   15.3554    0.0000 </r>
       <r>   17.5221    0.0000 </r>
       <r>   18.3224    0.0000 </r>
      </set>
      <set comment="kpoint 45">
       <r>   -3.8115    1.0000 </r>
       <r>   -0.4682    1.0000 </r>
       <r>    1.8739    1.0000 </r>
       <r>    3.6364    1.0000 </r>
       <r>    8.3407    0.0000 </r>
       <r>    9.2879    0.0000 </r>
       <r>   10.9810    0.0000 </r>
       <r>   11.5876    0.0000 </r>
       <r>   13.8600    0.0000 </r>
       <r>   14.1199    0.0000 </r>
       <r>   17.7688    0.0000 </r>
       <r>   19.2453    0.0000 </r>
      </set>
      <set comment="kpoint 46">
       <r>   -4.4624    1.0000 </r>
       <r>    0.4795    1.0000 </r>
       <r>    2.2438    1.0000 </r>
       <r>    4.0311    1.0000 </r>
       <r>    8.7515    0.0000 </r>
       <r>    8.8771    0.0000 </r>
       <r>   10.1325    0.0000 </r>
       <r>   11.1329    0.0000 </r>
       <r>   12.9645    0.0000 </r>
       <r>   15.7890    0.0000 </r>
       <r>   17.1847    0.0000 </r>
       <r>   17.8851    0.0000 </r>
      </set>
      <set comment="kpoint 47">
       <r>   -3.9035    1.0000 </r>
       <r>   -0.1203    1.0000 </r>
       <r>    2.5739    1.0000 </r>
       <r>    2.9499    1.0000 </r>
       <r>    6.9614    0.0000 </r>
       <r>    7.8170    0.0000 </r>
       <r>   11.7452    0.0000 </r>
       <r>   13.1141    0.0000 </r>
       <r>   15.4401    0.0000 </r>
       <r>   16.5649    0.0000 </r>
       <r>   17.0586    0.0000 </r>
       <r>   18.5344    0.0000 </r>
      </set>
      <set comment="kpoint 48">
       <r>   -3.2471    1.0000 </r>
       <r>   -0.9178    1.0000 </r>
       <r>    1.9607    1.0000 </r>
       <r>    2.7799    1.0000 </r>
       <r>    7.3045    0.0000 </r>
       <r>    8.5948    0.0000 </r>
       <r>   11.4098    0.0000 </r>
       <r>   13.4736    0.0000 </r>
       <r>   14.6554    0.0000 </r>
       <r>   16.4770    0.0000 </r>
       <r>   17.3495    0.0000 </r>
       <r>   19.0269    0.0000 </r>
      </set>
      <set comment="kpoint 49">
       <r>   -2.7994    1.0000 </r>
       <r>   -1.3961    1.0000 </r>
       <r>    1.4624    1.0000 </r>
       <r>    2.8908    1.0000 </r>
       <r>    7.5139    0.0000 </r>
       <r>   10.1234    0.0000 </r>
       <r>   11.1206    0.0000 </r>
       <r>   12.6892    0.0000 </r>
       <r>   13.4307    0.0000 </r>
       <r>   15.4429    0.0000 </r>
       <r>   18.3390    0.0000 </r>
       <r>   19.6190    0.0000 </r>
      </set>
      <set comment="kpoint 50">
       <r>   -3.1720    1.0000 </r>
       <r>   -1.0074    1.0000 </r>
       <r>    1.3626    1.0000 </r>
       <r>    3.2005    1.0000 </r>
       <r>    7.8716    0.0000 </r>
       <r>   10.5181    0.0000 </r>
       <r>   11.2372    0.0000 </r>
       <r>   12.1124    0.0000 </r>
       <r>   12.9231    0.0000 </r>
       <r>   14.1339    0.0000 </r>
       <r>   19.5149    0.0000 </r>
       <r>   19.7349    0.0000 </r>
      </set>
      <set comment="kpoint 51">
       <r>   -2.7713    1.0000 </r>
       <r>   -1.4825    1.0000 </r>
       <r>    2.3893    1.0000 </r>
       <r>    2.5070    1.0000 </r>
       <r>    6.9008    0.0000 </r>
       <r>    7.1735    0.0000 </r>
       <r>   13.2487    0.0000 </r>
       <r>   14.6189    0.0000 </r>
       <r>   15.2296    0.0000 </r>
       <r>   16.6219    0.0000 </r>
       <r>   17.3591    0.0000 </r>
       <r>   18.8199    0.0000 </r>
      </set>
      <set comment="kpoint 52">
       <r>   -2.2883    1.0000 </r>
       <r>   -1.9138    1.0000 </r>
       <r>    1.7639    1.0000 </r>
       <r>    2.5764    1.0000 </r>
       <r>    7.1782    0.0000 </r>
       <r>    8.3888    0.0000 </r>
       <r>   12.8132    0.0000 </r>
       <r>   13.0381    0.0000 </r>
       <r>   15.0199    0.0000 </r>
       <r>   15.6624    0.0000 </r>
       <r>   18.2281    0.0000 </r>
       <r>   19.0281    0.0000 </r>
      </set>
      <set comment="kpoint 53">
       <r>   -3.6059    1.0000 </r>
       <r>   -0.4998    1.0000 </r>
       <r>    1.8510    1.0000 </r>
       <r>    2.9766    1.0000 </r>
       <r>    8.5687    0.0000 </r>
       <r>    9.2284    0.0000 </r>
       <r>    9.7306    0.0000 </r>
       <r>   13.0172    0.0000 </r>
       <r>   14.3008    0.0000 </r>
       <r>   14.8542    0.0000 </r>
       <r>   18.8604    0.0000 </r>
       <r>   19.1073    0.0000 </r>
      </set>
      <set comment="kpoint 54">
       <r>   -2.9959    1.0000 </r>
       <r>   -1.1770    1.0000 </r>
       <r>    1.5807    1.0000 </r>
       <r>    2.6715    1.0000 </r>
       <r>    8.9454    0.0000 </r>
       <r>    9.2768    0.0000 </r>
       <r>   10.5222    0.0000 </r>
       <r>   12.3444    0.0000 </r>
       <r>   13.4670    0.0000 </r>
       <r>   15.9591    0.0000 </r>
       <r>   17.8206    0.0000 </r>
       <r>   19.3313    0.0000 </r>
      </set>
      <set comment="kpoint 55">
       <r>   -2.5957    1.0000 </r>
       <r>   -1.5280    1.0000 </r>
       <r>    1.8059    1.0000 </r>
       <r>    2.1752    1.0000 </r>
       <r>    8.4947    0.0000 </r>
       <r>    8.7066    0.0000 </r>
       <r>   11.0165    0.0000 </r>
       <r>   12.5739    0.0000 </r>
       <r>   14.9334    0.0000 </r>
       <r>   16.3630    0.0000 </r>
       <r>   17.6967    0.0000 </r>
       <r>   19.0048    0.0000 </r>
      </set>
      <set comment="kpoint 56">
       <r>   -2.4058    1.0000 </r>
       <r>   -1.6864    1.0000 </r>
       <r>    1.5407    1.0000 </r>
       <r>    2.2098    1.0000 </r>
       <r>    8.8392    0.0000 </r>
       <r>   10.0965    0.0000 </r>
       <r>   10.7913    0.0000 </r>
       <r>   10.8025    0.0000 </r>
       <r>   14.9519    0.0000 </r>
       <r>   16.0255    0.0000 </r>
       <r>   17.9915    0.0000 </r>
       <r>   19.1539    0.0000 </r>
      </set>
     </set>
     <set comment="spin 2">
      <set comment="kpoint 1">
       <r>   -6.1917    1.0000 </r>
       <r>    5.4591    0.9927 </r>
       <r>    5.4591    0.9927 </r>
       <r>    5.4591    0.9927 </r>
       <r>    8.0743    0.0000 </r>
       <r>    8.0743    0.0000 </r>
       <r>    8.0743    0.0000 </r>
       <r>    8.5300    0.0000 </r>
       <r>   13.2142    0.0000 </r>
       <r>   13.2142    0.0000 </r>
       <r>   13.3486    0.0000 </r>
       <r>   16.6556    0.0000 </r>
      </set>
      <set comment="kpoint 2">
       <r>   -6.0869    1.0000 </r>
       <r>    4.4962    1.0000 </r>
       <r>    5.3022    0.9998 </r>
       <r>    5.3022    0.9998 </r>
       <r>    8.0378    0.0000 </r>
       <r>    8.3083    0.0000 </r>
       <r>    8.3083    0.0000 </r>
       <r>    9.3592    0.0000 </r>
       <r>   12.9156    0.0000 </r>
       <r>   12.9156    0.0000 </r>
       <r>   13.7881    0.0000 </r>
       <r>   16.3004    0.0000 </r>
      </set>
      <set comment="kpoint 3">
       <r>   -5.7765    1.0000 </r>
       <r>    2.8648    1.0000 </r>
       <r>    4.9778    1.0000 </r>
       <r>    4.9778    1.0000 </r>
       <r>    7.7091    0.0000 </r>
       <r>    8.7667    0.0000 </r>
       <r>    8.7668    0.0000 </r>
       <r>   10.9433    0.0000 </r>
       <r>   12.5686    0.0000 </r>
       <r>   12.5686    0.0000 </r>
       <r>   14.5305    0.0000 </r>
       <r>   16.1395    0.0000 </r>
      </set>
      <set comment="kpoint 4">
       <r>   -5.2774    1.0000 </r>
       <r>    1.2540    1.0000 </r>
       <r>    4.6659    1.0000 </r>
       <r>    4.6659    1.0000 </r>
       <r>    7.3620    0.0000 </r>
       <r>    9.0248    0.0000 </r>
       <r>    9.0248    0.0000 </r>
       <r>   12.5098    0.0000 </r>
       <r>   12.8306    0.0000 </r>
       <r>   12.8306    0.0000 </r>
       <r>   14.3375    0.0000 </r>
       <r>   17.6077    0.0000 </r>
      </set>
      <set comment="kpoint 5">
       <r>   -4.6409    1.0000 </r>
       <r>   -0.1558    1.0000 </r>
       <r>    4.4409    1.0000 </r>
       <r>    4.4409    1.0000 </r>
       <r>    7.1029    0.0000 </r>
       <r>    8.9862    0.0000 </r>
       <r>    8.9862    0.0000 </r>
       <r>   13.3250    0.0000 </r>
       <r>   13.8420    0.0000 </r>
       <r>   13.8420    0.0000 </r>
       <r>   14.7343    0.0000 </r>
       <r>   19.1793    0.0000 </r>
      </set>
      <set comment="kpoint 6">
       <r>   -4.0577    1.0000 </r>
       <r>   -1.1329    1.0000 </r>
       <r>    4.3257    1.0000 </r>
       <r>    4.3257    1.0000 </r>
       <r>    6.9680    0.0000 </r>
       <r>    8.8905    0.0000 </r>
       <r>    8.8905    0.0000 </r>
       <r>   13.2368    0.0000 </r>
       <r>   15.3311    0.0000 </r>
       <r>   15.3311    0.0000 </r>
       <r>   16.1473    0.0000 </r>
       <r>   17.3181    0.0000 </r>
      </set>
      <set comment="kpoint 7">
       <r>   -6.0517    1.0000 </r>
       <r>    4.6474    1.0000 </r>
       <r>    4.9971    1.0000 </r>
       <r>    4.9971    1.0000 </r>
       <r>    7.7649    0.0000 </r>
       <r>    8.7082    0.0000 </r>
       <r>    8.7082    0.0000 </r>
       <r>    9.2776    0.0000 </r>
       <r>   12.3659    0.0000 </r>
       <r>   13.3705    0.0000 </r>
       <r>   13.9365    0.0000 </r>
       <r>   16.9010    0.0000 </r>
      </set>
      <set comment="kpoint 8">
       <r>   -5.8091    1.0000 </r>
       <r>    3.3371    1.0000 </r>
       <r>    4.6182    1.0000 </r>
       <r>    4.7820    1.0000 </r>
       <r>    7.7891    0.0000 </r>
       <r>    8.7128    0.0000 </r>
       <r>    9.2800    0.0000 </r>
       <r>   10.3037    0.0000 </r>
       <r>   12.0765    0.0000 </r>
       <r>   13.3298    0.0000 </r>
       <r>   14.7340    0.0000 </r>
       <r>   16.5090    0.0000 </r>
      </set>
      <set comment="kpoint 9">
       <r>   -5.3703    1.0000 </r>
       <r>    1.7671    1.0000 </r>
       <r>    4.3098    1.0000 </r>
       <r>    4.4225    1.0000 </r>
       <r>    7.8707    0.0000 </r>
       <r>    8.7394    0.0000 </r>
       <r>    9.6345    0.0000 </r>
       <r>   10.8170    0.0000 </r>
       <r>   13.0478    0.0000 </r>
       <r>   13.5031    0.0000 </r>
       <r>   14.9645    0.0000 </r>
       <r>   17.1890    0.0000 </r>
      </set>
      <set comment="kpoint 10">
       <r>   -4.7698    1.0000 </r>
       <r>    0.3070    1.0000 </r>
       <r>    4.0535    1.0000 </r>
       <r>    4.1271    1.0000 </r>
       <r>    7.6991    0.0000 </r>
       <r>    8.8127    0.0000 </r>
       <r>    9.5903    0.0000 </r>
       <r>   11.5733    0.0000 </r>
       <r>   14.2943    0.0000 </r>
       <r>   14.3728    0.0000 </r>
       <r>   14.8764    0.0000 </r>
       <r>   18.7120    0.0000 </r>
      </set>
      <set comment="kpoint 11">
       <r>   -4.1274    1.0000 </r>
       <r>   -0.8434    1.0000 </r>
       <r>    3.7661    1.0000 </r>
       <r>    4.0852    1.0000 </r>
       <r>    7.5541    0.0000 </r>
       <r>    8.7886    0.0000 </r>
       <r>    9.3738    0.0000 </r>
       <r>   12.7892    0.0000 </r>
       <r>   14.2291    0.0000 </r>
       <r>   15.7452    0.0000 </r>
       <r>   16.3514    0.0000 </r>
       <r>   17.0925    0.0000 </r>
      </set>
      <set comment="kpoint 12">
       <r>   -3.8713    1.0000 </r>
       <r>   -1.2273    1.0000 </r>
       <r>    3.5963    1.0000 </r>
       <r>    4.1804    1.0000 </r>
       <r>    7.5236    0.0000 </r>
       <r>    8.8471    0.0000 </r>
       <r>    9.1989    0.0000 </r>
       <r>   13.5204    0.0000 </r>
       <r>   14.6998    0.0000 </r>
       <r>   15.0448    0.0000 </r>
       <r>   16.2955    0.0000 </r>
       <r>   17.6700    0.0000 </r>
      </set>
      <set comment="kpoint 13">
       <r>   -4.3316    1.0000 </r>
       <r>   -0.5092    1.0000 </r>
       <r>    3.5649    1.0000 </r>
       <r>    4.3975    1.0000 </r>
       <r>    7.6201    0.0000 </r>
       <r>    9.0294    0.0000 </r>
       <r>    9.1206    0.0000 </r>
       <r>   13.1607    0.0000 </r>
       <r>   13.4471    0.0000 </r>
       <r>   14.5952    0.0000 </r>
       <r>   16.5035    0.0000 </r>
       <r>   17.2077    0.0000 </r>
      </set>
      <set comment="kpoint 14">
       <r>   -4.9853    1.0000 </r>
       <r>    0.7739    1.0000 </r>
       <r>    3.6868    1.0000 </r>
       <r>    4.7082    1.0000 </r>
       <r>    7.8333    0.0000 </r>
       <r>    9.0433    0.0000 </r>
       <r>    9.2215    0.0000 </r>
       <r>   12.0877    0.0000 </r>
       <r>   12.3057    0.0000 </r>
       <r>   14.7841    0.0000 </r>
       <r>   14.8904    0.0000 </r>
       <r>   18.0713    0.0000 </r>
      </set>
      <set comment="kpoint 15">
       <r>   -5.5381    1.0000 </r>
       <r>    2.2750    1.0000 </r>
       <r>    3.9794    1.0000 </r>
       <r>    5.0572    1.0000 </r>
       <r>    8.1295    0.0000 </r>
       <r>    8.7560    0.0000 </r>
       <r>    9.0752    0.0000 </r>
       <r>   11.1830    0.0000 </r>
       <r>   11.9114    0.0000 </r>
       <r>   13.5849    0.0000 </r>
       <r>   15.0780    0.0000 </r>
       <r>   16.6901    0.0000 </r>
      </set>
      <set comment="kpoint 16">
       <r>   -5.9132    1.0000 </r>
       <r>    3.7013    1.0000 </r>
       <r>    4.5270    1.0000 </r>
       <r>    5.3202    0.9997 </r>
       <r>    8.3635    0.0000 </r>
       <r>    8.3660    0.0000 </r>
       <r>    8.4975    0.0000 </r>
       <r>   10.2554    0.0000 </r>
       <r>   12.2467    0.0000 </r>
       <r>   13.0691    0.0000 </r>
       <r>   14.4177    0.0000 </r>
       <r>   16.4981    0.0000 </r>
      </set>
      <set comment="kpoint 17">
       <r>   -5.6343    1.0000 </r>
       <r>    3.1673    1.0000 </r>
       <r>    4.2033    1.0000 </r>
       <r>    4.2033    1.0000 </r>
       <r>    7.1374    0.0000 </r>
       <r>    9.5528    0.0000 </r>
       <r>   10.0087    0.0000 </r>
       <r>   10.0087    0.0000 </r>
       <r>   12.0998    0.0000 </r>
       <r>   13.8389    0.0000 </r>
       <r>   15.3777    0.0000 </r>
       <r>   17.6161    0.0000 </r>
      </set>
      <set comment="kpoint 18">
       <r>   -5.2594    1.0000 </r>
       <r>    2.0487    1.0000 </r>
       <r>    3.7960    1.0000 </r>
       <r>    3.8721    1.0000 </r>
       <r>    7.1837    0.0000 </r>
       <r>    9.1838    0.0000 </r>
       <r>   10.2916    0.0000 </r>
       <r>   10.5825    0.0000 </r>
       <r>   13.2484    0.0000 </r>
       <r>   14.1491    0.0000 </r>
       <r>   16.1343    0.0000 </r>
       <r>   17.5669    0.0000 </r>
      </set>
      <set comment="kpoint 19">
       <r>   -4.7072    1.0000 </r>
       <r>    0.7256    1.0000 </r>
       <r>    3.2799    1.0000 </r>
       <r>    3.6806    1.0000 </r>
       <r>    7.4140    0.0000 </r>
       <r>    9.5336    0.0000 </r>
       <r>   10.0916    0.0000 </r>
       <r>   10.6814    0.0000 </r>
       <r>   14.9295    0.0000 </r>
       <r>   14.9470    0.0000 </r>
       <r>   15.9195    0.0000 </r>
       <r>   18.6004    0.0000 </r>
      </set>
      <set comment="kpoint 20">
       <r>   -4.0525    1.0000 </r>
       <r>   -0.4667    1.0000 </r>
       <r>    2.8182    1.0000 </r>
       <r>    3.6473    1.0000 </r>
       <r>    7.4542    0.0000 </r>
       <r>    9.8552    0.0000 </r>
       <r>   10.4514    0.0000 </r>
       <r>   10.7258    0.0000 </r>
       <r>   15.3184    0.0000 </r>
       <r>   16.2159    0.0000 </r>
       <r>   16.7569    0.0000 </r>
       <r>   17.0006    0.0000 </r>
      </set>
      <set comment="kpoint 21">
       <r>   -3.5926    1.0000 </r>
       <r>   -1.1457    1.0000 </r>
       <r>    2.4949    1.0000 </r>
       <r>    3.7714    1.0000 </r>
       <r>    7.5470    0.0000 </r>
       <r>    9.7345    0.0000 </r>
       <r>   10.1762    0.0000 </r>
       <r>   12.3104    0.0000 </r>
       <r>   14.4546    0.0000 </r>
       <r>   14.9192    0.0000 </r>
       <r>   16.8650    0.0000 </r>
       <r>   18.0898    0.0000 </r>
      </set>
      <set comment="kpoint 22">
       <r>   -3.8642    1.0000 </r>
       <r>   -0.7523    1.0000 </r>
       <r>    2.3509    1.0000 </r>
       <r>    4.0371    1.0000 </r>
       <r>    7.7829    0.0000 </r>
       <r>    9.7305    0.0000 </r>
       <r>    9.9581    0.0000 </r>
       <r>   13.0878    0.0000 </r>
       <r>   13.2377    0.0000 </r>
       <r>   14.0346    0.0000 </r>
       <r>   16.7637    0.0000 </r>
       <r>   19.0232    0.0000 </r>
      </set>
      <set comment="kpoint 23">
       <r>   -4.5094    1.0000 </r>
       <r>    0.3211    1.0000 </r>
       <r>    2.4381    1.0000 </r>
       <r>    4.4073    1.0000 </r>
       <r>    8.1269    0.0000 </r>
[...]
        <r>  0.0212  0.0232  0.0188 </r>
       </set>
       <set comment="band 10">
        <r>  0.0093  0.0084  0.0186 </r>
        <r>  0.0093  0.0084  0.0186 </r>
       </set>
       <set comment="band 11">
        <r>  0.0193  0.0015  0.0238 </r>
        <r>  0.0193  0.0015  0.0238 </r>
       </set>
       <set comment="band 12">
        <r>  0.0257  0.0160  0.0114 </r>
        <r>  0.0257  0.0160  0.0114 </r>
       </set>
      </set>
      <set comment="kpoint 45">
       <set comment="band 1">
        <r>  0.2047  0.0105  0.0010 </r>
        <r>  0.2047  0.0105  0.0010 </r>
       </set>
       <set comment="band 2">
        <r>  0.1514  0.0144  0.0010 </r>
        <r>  0.1514  0.0144  0.0010 </r>
       </set>
       <set comment="band 3">
        <r>  0.0199  0.0998  0.0024 </r>
        <r>  0.0199  0.0998  0.0024 </r>
       </set>
       <set comment="band 4">
        <r>  0.0031  0.0082  0.1743 </r>
        <r>  0.0031  0.0082  0.1743 </r>
       </set>
       <set comment="band 5">
        <r>  0.0528  0.0204  0.0252 </r>
        <r>  0.0528  0.0204  0.0252 </r>
       </set>
       <set comment="band 6">
        <r>  0.0267  0.0353  0.0585 </r>
        <r>  0.0267  0.0353  0.0585 </r>
       </set>
       <set comment="band 7">
        <r>  0.0364  0.0240  0.0313 </r>
        <r>  0.0364  0.0240  0.0313 </r>
       </set>
       <set comment="band 8">
        <r>  0.0118  0.0367  0.0453 </r>
        <r>  0.0118  0.0367  0.0453 </r>
       </set>
       <set comment="band 9">
        <r>  0.0234  0.0125  0.0163 </r>
        <r>  0.0234  0.0125  0.0163 </r>
       </set>
       <set comment="band 10">
        <r>  0.0107  0.0778  0.0001 </r>
        <r>  0.0107  0.0778  0.0001 </r>
       </set>
       <set comment="band 11">
        <r>  0.0294  0.0053  0.0056 </r>
        <r>  0.0294  0.0053  0.0056 </r>
       </set>
       <set comment="band 12">
        <r>  0.0212  0.0826  0.0003 </r>
        <r>  0.0212  0.0826  0.0003 </r>
       </set>
      </set>
      <set comment="kpoint 46">
       <set comment="band 1">
        <r>  0.2023  0.0100  0.0009 </r>
        <r>  0.2023  0.0100  0.0009 </r>
       </set>
       <set comment="band 2">
        <r>  0.1502  0.0439  0.0016 </r>
        <r>  0.1502  0.0439  0.0016 </r>
       </set>
       <set comment="band 3">
        <r>  0.0120  0.0742  0.0011 </r>
        <r>  0.0120  0.0742  0.0011 </r>
       </set>
       <set comment="band 4">
        <r>  0.0046  0.0054  0.1787 </r>
        <r>  0.0046  0.0054  0.1787 </r>
       </set>
       <set comment="band 5">
        <r>  0.0624  0.0217  0.0259 </r>
        <r>  0.0624  0.0217  0.0259 </r>
       </set>
       <set comment="band 6">
        <r>  0.0215  0.0120  0.0796 </r>
        <r>  0.0215  0.0120  0.0796 </r>
       </set>
       <set comment="band 7">
        <r>  0.0389  0.0375  0.0005 </r>
        <r>  0.0389  0.0375  0.0005 </r>
       </set>
       <set comment="band 8">
        <r>  0.0102  0.0273  0.0620 </r>
        <r>  0.0102  0.0273  0.0620 </r>
       </set>
       <set comment="band 9">
        <r>  0.0331  0.0299  0.0058 </r>
        <r>  0.0331  0.0299  0.0058 </r>
       </set>
       <set comment="band 10">
        <r>  0.0001  0.0818  0.0011 </r>
        <r>  0.0001  0.0818  0.0011 </r>
       </set>
       <set comment="band 11">
        <r>  0.0513  0.0670  0.0003 </r>
        <r>  0.0513  0.0670  0.0003 </r>
       </set>
       <set comment="band 12">
        <r>  0.0066  0.0034  0.0004 </r>
        <r>  0.0066  0.0034  0.0004 </r>
       </set>
      </set>
      <set comment="kpoint 47">
       <set comment="band 1">
        <r>  0.1980  0.0052  0.0007 </r>
        <r>  0.1980  0.0052  0.0007 </r>
       </set>
       <set comment="band 2">
        <r>  0.1759  0.0154  0.0050 </r>
        <r>  0.1759  0.0154  0.0050 </r>
       </set>
       <set comment="band 3">
        <r>  0.0062  0.0397  0.0806 </r>
        <r>  0.0062  0.0397  0.0806 </r>
       </set>
       <set comment="band 4">
        <r>  0.0005  0.0888  0.0825 </r>
        <r>  0.0005  0.0888  0.0825 </r>
       </set>
       <set comment="band 5">
        <r>  0.0402  0.0422  0.0151 </r>
        <r>  0.0402  0.0422  0.0151 </r>
       </set>
       <set comment="band 6">
        <r>  0.0416  0.0031  0.0091 </r>
        <r>  0.0416  0.0031  0.0091 </r>
       </set>
       <set comment="band 7">
        <r>  0.0266  0.0652  0.0552 </r>
        <r>  0.0266  0.0652  0.0552 </r>
       </set>
       <set comment="band 8">
        <r>  0.0014  0.0637  0.0780 </r>
        <r>  0.0014  0.0637  0.0780 </r>
       </set>
       <set comment="band 9">
        <r>  0.0466  0.0124  0.0022 </r>
        <r>  0.0466  0.0124  0.0022 </r>
       </set>
       <set comment="band 10">
        <r>  0.0026  0.0077  0.0270 </r>
        <r>  0.0026  0.0077  0.0270 </r>
       </set>
       <set comment="band 11">
        <r>  0.0387  0.0088  0.0279 </r>
        <r>  0.0387  0.0088  0.0279 </r>
       </set>
       <set comment="band 12">
        <r>  0.0062  0.0168  0.0214 </r>
        <r>  0.0062  0.0168  0.0214 </r>
       </set>
      </set>
      <set comment="kpoint 48">
       <set comment="band 1">
        <r>  0.1993  0.0064  0.0008 </r>
        <r>  0.1993  0.0064  0.0008 </r>
       </set>
       <set comment="band 2">
        <r>  0.1811  0.0124  0.0022 </r>
        <r>  0.1811  0.0124  0.0022 </r>
       </set>
       <set comment="band 3">
        <r>  0.0070  0.0936  0.0116 </r>
        <r>  0.0070  0.0936  0.0116 </r>
       </set>
       <set comment="band 4">
        <r>  0.0009  0.0215  0.1550 </r>
        <r>  0.0009  0.0215  0.1550 </r>
       </set>
       <set comment="band 5">
        <r>  0.0413  0.0267  0.0239 </r>
        <r>  0.0413  0.0267  0.0239 </r>
       </set>
       <set comment="band 6">
        <r>  0.0316  0.0352  0.0009 </r>
        <r>  0.0316  0.0352  0.0009 </r>
       </set>
       <set comment="band 7">
        <r>  0.0322  0.0618  0.0483 </r>
        <r>  0.0322  0.0618  0.0483 </r>
       </set>
       <set comment="band 8">
        <r>  0.0114  0.0712  0.0791 </r>
        <r>  0.0114  0.0712  0.0791 </r>
       </set>
       <set comment="band 9">
        <r>  0.0112  0.0047  0.0212 </r>
        <r>  0.0112  0.0047  0.0212 </r>
       </set>
       <set comment="band 10">
        <r>  0.0217  0.0042  0.0005 </r>
        <r>  0.0217  0.0042  0.0005 </r>
       </set>
       <set comment="band 11">
        <r>  0.0091  0.0094  0.0492 </r>
        <r>  0.0091  0.0094  0.0492 </r>
       </set>
       <set comment="band 12">
        <r>  0.0257  0.0286  0.0259 </r>
        <r>  0.0257  0.0286  0.0259 </r>
       </set>
      </set>
      <set comment="kpoint 49">
       <set comment="band 1">
        <r>  0.2069  0.0113  0.0012 </r>
        <r>  0.2069  0.0113  0.0012 </r>
       </set>
       <set comment="band 2">
        <r>  0.1768  0.0120  0.0011 </r>
        <r>  0.1768  0.0120  0.0011 </r>
       </set>
       <set comment="band 3">
        <r>  0.0050  0.0952  0.0018 </r>
        <r>  0.0050  0.0952  0.0018 </r>
       </set>
       <set comment="band 4">
        <r>  0.0020  0.0078  0.1670 </r>
        <r>  0.0020  0.0078  0.1670 </r>
       </set>
       <set comment="band 5">
        <r>  0.0432  0.0173  0.0249 </r>
        <r>  0.0432  0.0173  0.0249 </r>
       </set>
       <set comment="band 6">
        <r>  0.0150  0.0511  0.0040 </r>
        <r>  0.0150  0.0511  0.0040 </r>
       </set>
       <set comment="band 7">
        <r>  0.0376  0.0531  0.0498 </r>
        <r>  0.0376  0.0531  0.0498 </r>
       </set>
       <set comment="band 8">
        <r>  0.0260  0.0242  0.0453 </r>
        <r>  0.0260  0.0242  0.0453 </r>
       </set>
       <set comment="band 9">
        <r>  0.0139  0.0482  0.0438 </r>
        <r>  0.0139  0.0482  0.0438 </r>
       </set>
       <set comment="band 10">
        <r>  0.0130  0.0139  0.0210 </r>
        <r>  0.0130  0.0139  0.0210 </r>
       </set>
       <set comment="band 11">
        <r>  0.0134  0.0110  0.0200 </r>
        <r>  0.0134  0.0110  0.0200 </r>
       </set>
       <set comment="band 12">
        <r>  0.0098  0.0485  0.0081 </r>
        <r>  0.0098  0.0485  0.0081 </r>
       </set>
      </set>
      <set comment="kpoint 50">
       <set comment="band 1">
        <r>  0.2063  0.0136  0.0011 </r>
        <r>  0.2063  0.0136  0.0011 </r>
       </set>
       <set comment="band 2">
        <r>  0.1736  0.0272  0.0011 </r>
        <r>  0.1736  0.0272  0.0011 </r>
       </set>
       <set comment="band 3">
        <r>  0.0050  0.0779  0.0004 </r>
        <r>  0.0050  0.0779  0.0004 </r>
       </set>
       <set comment="band 4">
        <r>  0.0028  0.0039  0.1714 </r>
        <r>  0.0028  0.0039  0.1714 </r>
       </set>
       <set comment="band 5">
        <r>  0.0448  0.0149  0.0251 </r>
        <r>  0.0448  0.0149  0.0251 </r>
       </set>
       <set comment="band 6">
        <r>  0.0128  0.0109  0.0787 </r>
        <r>  0.0128  0.0109  0.0787 </r>
       </set>
       <set comment="band 7">
        <r>  0.0404  0.0492  0.0018 </r>
        <r>  0.0404  0.0492  0.0018 </r>
       </set>
       <set comment="band 8">
        <r>  0.0180  0.0555  0.0104 </r>
        <r>  0.0180  0.0555  0.0104 </r>
       </set>
       <set comment="band 9">
        <r>  0.0176  0.0329  0.0576 </r>
        <r>  0.0176  0.0329  0.0576 </r>
       </set>
       <set comment="band 10">
        <r>  0.0260  0.0407  0.0097 </r>
        <r>  0.0260  0.0407  0.0097 </r>
       </set>
       <set comment="band 11">
        <r>  0.0163  0.0106  0.0006 </r>
        <r>  0.0163  0.0106  0.0006 </r>
       </set>
       <set comment="band 12">
        <r>  0.0019  0.0605  0.0039 </r>
        <r>  0.0019  0.0605  0.0039 </r>
       </set>
      </set>
      <set comment="kpoint 51">
       <set comment="band 1">
        <r>  0.1940  0.0100  0.0009 </r>
        <r>  0.1940  0.0100  0.0009 </r>
       </set>
       <set comment="band 2">
        <r>  0.1880  0.0155  0.0018 </r>
        <r>  0.1880  0.0155  0.0018 </r>
       </set>
       <set comment="band 3">
        <r>  0.0037  0.0396  0.0818 </r>
        <r>  0.0037  0.0396  0.0818 </r>
       </set>
       <set comment="band 4">
        <r>  0.0008  0.0799  0.0830 </r>
        <r>  0.0008  0.0799  0.0830 </r>
       </set>
       <set comment="band 5">
        <r>  0.0427  0.0356  0.0137 </r>
        <r>  0.0427  0.0356  0.0137 </r>
       </set>
       <set comment="band 6">
        <r>  0.0424  0.0036  0.0116 </r>
        <r>  0.0424  0.0036  0.0116 </r>
       </set>
       <set comment="band 7">
        <r>  0.0190  0.0696  0.0548 </r>
        <r>  0.0190  0.0696  0.0548 </r>
       </set>
       <set comment="band 8">
        <r>  0.0070  0.0560  0.1023 </r>
        <r>  0.0070  0.0560  0.1023 </r>
       </set>
       <set comment="band 9">
        <r>  0.0055  0.0121  0.0045 </r>
        <r>  0.0055  0.0121  0.0045 </r>
       </set>
       <set comment="band 10">
        <r>  0.0105  0.0157  0.0358 </r>
        <r>  0.0105  0.0157  0.0358 </r>
       </set>
       <set comment="band 11">
        <r>  0.0211  0.0351  0.0198 </r>
        <r>  0.0211  0.0351  0.0198 </r>
       </set>
       <set comment="band 12">
        <r>  0.0142  0.0407  0.0021 </r>
        <r>  0.0142  0.0407  0.0021 </r>
       </set>
      </set>
      <set comment="kpoint 52">
       <set comment="band 1">
        <r>  0.2004  0.0132  0.0014 </r>
        <r>  0.2004  0.0132  0.0014 </r>
       </set>
       <set comment="band 2">
        <r>  0.1878  0.0168  0.0010 </r>
        <r>  0.1878  0.0168  0.0010 </r>
       </set>
       <set comment="band 3">
        <r>  0.0010  0.0963  0.0000 </r>
        <r>  0.0010  0.0963  0.0000 </r>
       </set>
       <set comment="band 4">
        <r>  0.0023  0.0034  0.1661 </r>
        <r>  0.0023  0.0034  0.1661 </r>
       </set>
       <set comment="band 5">
        <r>  0.0429  0.0111  0.0252 </r>
        <r>  0.0429  0.0111  0.0252 </r>
       </set>
       <set comment="band 6">
        <r>  0.0319  0.0437  0.0004 </r>
        <r>  0.0319  0.0437  0.0004 </r>
       </set>
       <set comment="band 7">
        <r>  0.0188  0.0106  0.0958 </r>
        <r>  0.0188  0.0106  0.0958 </r>
       </set>
       <set comment="band 8">
        <r>  0.0260  0.0683  0.0024 </r>
        <r>  0.0260  0.0683  0.0024 </r>
       </set>
       <set comment="band 9">
        <r>  0.0077  0.0180  0.0737 </r>
        <r>  0.0077  0.0180  0.0737 </r>
       </set>
       <set comment="band 10">
        <r>  0.0066  0.0604  0.0080 </r>
        <r>  0.0066  0.0604  0.0080 </r>
       </set>
       <set comment="band 11">
        <r>  0.0189  0.0415  0.0026 </r>
        <r>  0.0189  0.0415  0.0026 </r>
       </set>
       <set comment="band 12">
        <r>  0.0154  0.0207  0.0418 </r>
        <r>  0.0154  0.0207  0.0418 </r>
       </set>
      </set>
      <set comment="kpoint 53">
       <set comment="band 1">
        <r>  0.2015  0.0036  0.0027 </r>
        <r>  0.2015  0.0036  0.0027 </r>
       </set>
       <set comment="band 2">
        <r>  0.1744  0.0124  0.0150 </r>
        <r>  0.1744  0.0124  0.0150 </r>
       </set>
       <set comment="band 3">
        <r>  0.0089  0.0276  0.0652 </r>
        <r>  0.0089  0.0276  0.0652 </r>
       </set>
       <set comment="band 4">
        <r>  0.0027  0.1033  0.0619 </r>
        <r>  0.0027  0.1033  0.0619 </r>
       </set>
       <set comment="band 5">
        <r>  0.0278  0.0556  0.0309 </r>
        <r>  0.0278  0.0556  0.0309 </r>
       </set>
       <set comment="band 6">
        <r>  0.0171  0.0062  0.0267 </r>
        <r>  0.0171  0.0062  0.0267 </r>
       </set>
       <set comment="band 7">
        <r>  0.0620  0.0492  0.0366 </r>
        <r>  0.0620  0.0492  0.0366 </r>
       </set>
       <set comment="band 8">
        <r>  0.0049  0.0677  0.0649 </r>
        <r>  0.0049  0.0677  0.0649 </r>
       </set>
       <set comment="band 9">
        <r>  0.0112  0.0084  0.0330 </r>
        <r>  0.0112  0.0084  0.0330 </r>
       </set>
       <set comment="band 10">
        <r>  0.0347  0.0094  0.0058 </r>
        <r>  0.0347  0.0094  0.0058 </r>
       </set>
       <set comment="band 11">
        <r>  0.0077  0.0112  0.0183 </r>
        <r>  0.0077  0.0112  0.0183 </r>
       </set>
       <set comment="band 12">
        <r>  0.0278  0.0202  0.0545 </r>
        <r>  0.0278  0.0202  0.0545 </r>
       </set>
      </set>
      <set comment="kpoint 54">
       <set comment="band 1">
        <r>  0.2057  0.0067  0.0037 </r>
        <r>  0.2057  0.0067  0.0037 </r>
       </set>
       <set comment="band 2">
        <r>  0.1760  0.0110  0.0068 </r>
        <r>  0.1760  0.0110  0.0068 </r>
       </set>
       <set comment="band 3">
        <r>  0.0099  0.0537  0.0401 </r>
        <r>  0.0099  0.0537  0.0401 </r>
       </set>
       <set comment="band 4">
        <r>  0.0013  0.0664  0.0951 </r>
        <r>  0.0013  0.0664  0.0951 </r>
       </set>
       <set comment="band 5">
        <r>  0.0194  0.0236  0.0534 </r>
        <r>  0.0194  0.0236  0.0534 </r>
       </set>
       <set comment="band 6">
        <r>  0.0410  0.0436  0.0401 </r>
        <r>  0.0410  0.0436  0.0401 </r>
       </set>
       <set comment="band 7">
        <r>  0.0363  0.0494  0.0006 </r>
        <r>  0.0363  0.0494  0.0006 </r>
       </set>
       <set comment="band 8">
        <r>  0.0241  0.0113  0.0320 </r>
        <r>  0.0241  0.0113  0.0320 </r>
       </set>
       <set comment="band 9">
        <r>  0.0110  0.0693  0.0592 </r>
        <r>  0.0110  0.0693  0.0592 </r>
       </set>
       <set comment="band 10">
        <r>  0.0171  0.0029  0.0057 </r>
        <r>  0.0171  0.0029  0.0057 </r>
       </set>
       <set comment="band 11">
        <r>  0.0112  0.0104  0.0433 </r>
        <r>  0.0112  0.0104  0.0433 </r>
       </set>
       <set comment="band 12">
        <r>  0.0121  0.0339  0.0210 </r>
        <r>  0.0121  0.0339  0.0210 </r>
       </set>
      </set>
      <set comment="kpoint 55">
       <set comment="band 1">
        <r>  0.1996  0.0089  0.0038 </r>
        <r>  0.1996  0.0089  0.0038 </r>
       </set>
       <set comment="band 2">
        <r>  0.1923  0.0136  0.0074 </r>
        <r>  0.1923  0.0136  0.0074 </r>
       </set>
       <set comment="band 3">
        <r>  0.0035  0.0254  0.0660 </r>
        <r>  0.0035  0.0254  0.0660 </r>
       </set>
       <set comment="band 4">
        <r>  0.0000  0.0886  0.0652 </r>
        <r>  0.0000  0.0886  0.0652 </r>
       </set>
       <set comment="band 5">
        <r>  0.0304  0.0484  0.0295 </r>
        <r>  0.0304  0.0484  0.0295 </r>
       </set>
       <set comment="band 6">
        <r>  0.0296  0.0064  0.0274 </r>
        <r>  0.0296  0.0064  0.0274 </r>
       </set>
       <set comment="band 7">
        <r>  0.0364  0.0587  0.0382 </r>
        <r>  0.0364  0.0587  0.0382 </r>
       </set>
       <set comment="band 8">
        <r>  0.0240  0.0105  0.0388 </r>
        <r>  0.0240  0.0105  0.0388 </r>
       </set>
       <set comment="band 9">
        <r>  0.0005  0.0649  0.0556 </r>
        <r>  0.0005  0.0649  0.0556 </r>
       </set>
       <set comment="band 10">
        <r>  0.0112  0.0087  0.0226 </r>
        <r>  0.0112  0.0087  0.0226 </r>
       </set>
       <set comment="band 11">
        <r>  0.0203  0.0413  0.0408 </r>
        <r>  0.0203  0.0413  0.0408 </r>
       </set>
       <set comment="band 12">
        <r>  0.0138  0.0432  0.0087 </r>
        <r>  0.0138  0.0432  0.0087 </r>
       </set>
      </set>
      <set comment="kpoint 56">
       <set comment="band 1">
        <r>  0.2038  0.0134  0.0052 </r>
        <r>  0.2038  0.0134  0.0052 </r>
       </set>
       <set comment="band 2">
        <r>  0.1915  0.0180  0.0049 </r>
        <r>  0.1915  0.0180  0.0049 </r>
       </set>
       <set comment="band 3">
        <r>  0.0003  0.0858  0.0008 </r>
        <r>  0.0003  0.0858  0.0008 </r>
       </set>
       <set comment="band 4">
        <r>  0.0014  0.0103  0.1331 </r>
        <r>  0.0014  0.0103  0.1331 </r>
       </set>
       <set comment="band 5">
        <r>  0.0272  0.0102  0.0554 </r>
        <r>  0.0272  0.0102  0.0554 </r>
       </set>
       <set comment="band 6">
        <r>  0.0015  0.0363  0.0291 </r>
        <r>  0.0015  0.0363  0.0291 </r>
       </set>
       <set comment="band 7">
        <r>  0.0516  0.0299  0.0441 </r>
        <r>  0.0516  0.0299  0.0441 </r>
       </set>
       <set comment="band 8">
        <r>  0.0406  0.0526  0.0001 </r>
        <r>  0.0406  0.0526  0.0001 </r>
       </set>
       <set comment="band 9">
        <r>  0.0031  0.0211  0.0751 </r>
        <r>  0.0031  0.0211  0.0751 </r>
       </set>
       <set comment="band 10">
        <r>  0.0097  0.0680  0.0072 </r>
        <r>  0.0097  0.0680  0.0072 </r>
       </set>
       <set comment="band 11">
        <r>  0.0185  0.0341  0.0118 </r>
        <r>  0.0185  0.0341  0.0118 </r>
       </set>
       <set comment="band 12">
        <r>  0.0157  0.0290  0.0493 </r>
        <r>  0.0157  0.0290  0.0493 </r>
       </set>
      </set>
     </set>
    </set>
   </array>
  </projected>
 </calculation>
 <structure name="finalpos" >
  <crystal>
   <varray name="basis" >
    <v>       3.36414999       0.00000000       1.94229274 </v>
    <v>       1.12138299       3.17175172       1.94229274 </v>
    <v>       0.00000000       0.00000000       3.88458649 </v>
   </varray>
   <i name="volume">     41.44950317 </i>
   <varray name="rec_basis" >
    <v>       0.29725191      -0.10509437       0.00000000 </v>
    <v>       0.00000000       0.31528319       0.00000000 </v>
    <v>      -0.14862592      -0.10509439       0.25742766 </v>
   </varray>
  </crystal>
  <varray name="positions" >
   <v>       0.87500000       0.87500000       0.87500000 </v>
   <v>       0.12500000       0.12500000       0.12500000 </v>
  </varray>
 </structure>
</modeling>
