 running on   16 total cores
 distrk:  each k-point on   16 cores,    1 groups
 distr:  one band on    4 cores,    4 groups
 using from now: INCAR     
 vasp.5.3.3 18Dez12 (build Jan 30 2013 10:57:47) complex                        
  
 POSCAR found type information on POSCAR  Si
 POSCAR found :  1 types and       2 ions

 ----------------------------------------------------------------------------- 
|                                                                             |
|  ADVICE TO THIS USER RUNNING 'VASP/VAMP'   (HEAR YOUR MASTER'S VOICE ...):  |
|                                                                             |
|      You have switched on vdW-DFT.                                          |
|      This routine was written and supplied by Jiri Klimes.                  |
|      We recommed that you carefully read and cite the following             |
|      publication                                                            |
|      J. Klimes, D.R. Bowler, A. Michelides                                  |
|        J. Phys.: Cond Matt. 22 022201 (2010)                                |
|      J. Klimes, D.R. Bowler, A. Michelides                                  |
|        Phys. Rev. B. 83, 195131 (2011)                                      |
|      and references therein.                                                |
|                                                                             |
 ----------------------------------------------------------------------------- 


 ----------------------------------------------------------------------------- 
|                                                                             |
|  ADVICE TO THIS USER RUNNING 'VASP/VAMP'   (HEAR YOUR MASTER'S VOICE ...):  |
|                                                                             |
|      You enforced a specific xc-type in the INCAR file,                     |
|      a different type was found on the POTCAR file                          |
|          I HOPE YOU KNOW, WHAT YOU ARE  DOING                               |
|                                                                             |
 ----------------------------------------------------------------------------- 

 LDA part: xc-table for Pade appr. of Perdew
 POSCAR, INCAR and KPOINTS ok, starting setup
 WARNING: small aliasing (wrap around) errors must be expected
 FFT: planning ...
 WAVECAR not read
 entering main loop
       N       E                     dE             d eps       ncg     rms          rms(c)
 Total vdW correction in eV:    1.07924721310175     
DAV:   1     0.747368666078E+01    0.74737E+01   -0.30165E+03  2688   0.518E+02
DAV:   2    -0.747893324598E+01   -0.14953E+02   -0.14487E+02  3412   0.764E+01
DAV:   3    -0.789928054205E+01   -0.42035E+00   -0.41931E+00  3524   0.110E+01
DAV:   4    -0.790249370740E+01   -0.32132E-02   -0.32128E-02  3136   0.121E+00
DAV:   5    -0.790253014532E+01   -0.36438E-04   -0.36437E-04  3560   0.121E-01    0.519E+00
 Total vdW correction in eV:    1.12705016669151     
DAV:   6    -0.832695466899E+01   -0.42442E+00   -0.10397E-01  2996   0.157E+00    0.257E+00
 Total vdW correction in eV:    1.17575856993799     
DAV:   7    -0.832257625937E+01    0.43784E-02   -0.71013E-02  3168   0.129E+00    0.154E+00
 Total vdW correction in eV:    1.21577228400846     
DAV:   8    -0.835076788583E+01   -0.28192E-01   -0.33516E-02  3120   0.867E-01    0.589E-01
 Total vdW correction in eV:    1.21778260837442     
DAV:   9    -0.834784832599E+01    0.29196E-02   -0.11577E-03  3160   0.192E-01    0.126E-01
 Total vdW correction in eV:    1.21809048950088     
DAV:  10    -0.834039378671E+01    0.74545E-02   -0.83393E-04  2960   0.141E-01    0.560E-02
 Total vdW correction in eV:    1.21910982695932     
DAV:  11    -0.834001273055E+01    0.38106E-03   -0.12490E-04  3100   0.640E-02    0.305E-02
 Total vdW correction in eV:    1.21965073331491     
DAV:  12    -0.834026439365E+01   -0.25166E-03   -0.92714E-06  3308   0.144E-02    0.160E-02
 Total vdW correction in eV:    1.21974682070086     
DAV:  13    -0.834011382495E+01    0.15057E-03   -0.48402E-06  3076   0.118E-02    0.298E-03
 Total vdW correction in eV:    1.21978456123034     
DAV:  14    -0.834010668904E+01    0.71359E-05   -0.52361E-07  3000   0.432E-03    0.886E-04
 Total vdW correction in eV:    1.21979754617706     
DAV:  15    -0.834011369462E+01   -0.70056E-05   -0.10060E-08  2272   0.678E-04    0.423E-04
 Total vdW correction in eV:    1.21981457780449     
DAV:  16    -0.834011940283E+01   -0.57082E-05   -0.12110E-08  1824   0.658E-04    0.136E-04
 Total vdW correction in eV:    1.21981700218791     
DAV:  17    -0.834011832856E+01    0.10743E-05   -0.29702E-09  1588   0.322E-04    0.259E-05
 Total vdW correction in eV:    1.21981703221113     
DAV:  18    -0.834011820781E+01    0.12075E-06   -0.93425E-11  1564   0.746E-05    0.132E-05
 Total vdW correction in eV:    1.21981700846313     
DAV:  19    -0.834011815400E+01    0.53813E-07   -0.12705E-11  1540   0.260E-05
 Total vdW correction in eV:    1.21981696658137     
 Total vdW correction in eV:    1.21981697727883     
   1 F= -.83401182E+01 E0= -.83400954E+01  d E =-.834012E+01  mag=     0.0000
 BRION: g(F)=  0.150E-43 g(S)=  0.708E-02
 bond charge predicted
       N       E                     dE             d eps       ncg     rms          rms(c)
 Total vdW correction in eV:    1.21983652083249     
DAV:   1    -0.834413423371E+01   -0.40160E-02   -0.96691E-02  3016   0.125E+00    0.255E-01
 Total vdW correction in eV:    1.22655194606300     
DAV:   2    -0.834054362545E+01    0.35906E-02   -0.24955E-03  2984   0.242E-01    0.165E-01
 Total vdW correction in eV:    1.23522078162005     
DAV:   3    -0.833596201943E+01    0.45816E-02   -0.19610E-03  3064   0.165E-01    0.382E-02
 Total vdW correction in eV:    1.23513781383923     
DAV:   4    -0.833550918944E+01    0.45283E-03   -0.50036E-05  3104   0.400E-02    0.343E-02
 Total vdW correction in eV:    1.23529359693901     
DAV:   5    -0.833454238394E+01    0.96681E-03   -0.34130E-06  2984   0.104E-02    0.698E-03
 Total vdW correction in eV:    1.23533055987979     
DAV:   6    -0.833457141298E+01   -0.29029E-04   -0.11571E-07  2760   0.189E-03    0.318E-03
 Total vdW correction in eV:    1.23533655821048     
DAV:   7    -0.833461330769E+01   -0.41895E-04   -0.14014E-08  1628   0.727E-04    0.276E-04
 Total vdW correction in eV:    1.23533825343463     
DAV:   8    -0.833462469081E+01   -0.11383E-04   -0.15072E-09  1544   0.269E-04    0.373E-04
 Total vdW correction in eV:    1.23533911452875     
DAV:   9    -0.833462817523E+01   -0.34844E-05   -0.17286E-10  1472   0.880E-05    0.295E-04
 Total vdW correction in eV:    1.23533987327257     
DAV:  10    -0.833462986605E+01   -0.16908E-05   -0.66903E-11  1452   0.535E-05    0.166E-05
 Total vdW correction in eV:    1.23534002217703     
DAV:  11    -0.833462988630E+01   -0.20253E-07   -0.73833E-12  1432   0.189E-05
 Total vdW correction in eV:    1.23534006286982     
 Total vdW correction in eV:    1.23534003362475     
   2 F= -.83346299E+01 E0= -.83346135E+01  d E =0.548827E-02  mag=     0.0000
 BRION: g(F)=  0.123E-42 g(S)=  0.287E-02 retain N=  1 mean eig= 0.61
 eig:   0.609
 bond charge predicted
       N       E                     dE             d eps       ncg     rms          rms(c)
 Total vdW correction in eV:    1.23536039411974     
DAV:   1    -0.833594795715E+01   -0.13181E-02   -0.14920E-02  2984   0.495E-01    0.100E-01
 Total vdW correction in eV:    1.23270418671723     
DAV:   2    -0.833633251726E+01   -0.38456E-03   -0.39195E-04  3040   0.957E-02    0.646E-02
 Total vdW correction in eV:    1.22932910486008     
DAV:   3    -0.833757615623E+01   -0.12436E-02   -0.29994E-04  3040   0.646E-02    0.155E-02
 Total vdW correction in eV:    1.22935875328277     
DAV:   4    -0.833775480643E+01   -0.17865E-03   -0.75527E-06  3108   0.156E-02    0.138E-02
 Total vdW correction in eV:    1.22930448779018     
DAV:   5    -0.833813056344E+01   -0.37576E-03   -0.51924E-07  2980   0.407E-03    0.277E-03
 Total vdW correction in eV:    1.22928839521104     
DAV:   6    -0.833812064254E+01    0.99209E-05   -0.18300E-08  1664   0.751E-04    0.129E-03
 Total vdW correction in eV:    1.22928620949083     
DAV:   7    -0.833810323785E+01    0.17405E-04   -0.32002E-09  1468   0.365E-04    0.710E-05
 Total vdW correction in eV:    1.22928535304882     
DAV:   8    -0.833809939628E+01    0.38416E-05   -0.25649E-10  1416   0.114E-04    0.181E-04
 Total vdW correction in eV:    1.22928512167862     
DAV:   9    -0.833809884714E+01    0.54914E-06   -0.32898E-11  1396   0.386E-05    0.102E-04
 Total vdW correction in eV:    1.22928480932501     
DAV:  10    -0.833809816326E+01    0.68388E-06   -0.10741E-11  1412   0.221E-05    0.183E-05
 Total vdW correction in eV:    1.22928477665391     
DAV:  11    -0.833809813563E+01    0.27637E-07   -0.12870E-12  1400   0.751E-06
 Total vdW correction in eV:    1.22928477093505     
 Total vdW correction in eV:    1.22928478096501     
   3 F= -.83380981E+01 E0= -.83380795E+01  d E =-.346825E-02  mag=     0.0000
 BRION: g(F)=  0.282E-43 g(S)=  0.576E-06 retain N=  1 mean eig= 0.62
 eig:   0.618
 bond charge predicted
       N       E                     dE             d eps       ncg     rms          rms(c)
 Total vdW correction in eV:    1.22928491742611     
DAV:   1    -0.833809847817E+01   -0.31490E-06   -0.30508E-06  2996   0.707E-03    0.143E-03
 Total vdW correction in eV:    1.22924698927150     
DAV:   2    -0.833810821534E+01   -0.97372E-05   -0.75986E-08  1900   0.137E-03    0.900E-04
 Total vdW correction in eV:    1.22919952703717     
DAV:   3    -0.833812809985E+01   -0.19885E-04   -0.57809E-08  1416   0.972E-04    0.152E-04
 Total vdW correction in eV:    1.22919949637958     
DAV:   4    -0.833813150585E+01   -0.34060E-05   -0.29160E-09  1388   0.347E-04    0.145E-04
 Total vdW correction in eV:    1.22919742828960     
DAV:   5    -0.833813588382E+01   -0.43780E-05   -0.42720E-10  1384   0.137E-04    0.274E-05
 Total vdW correction in eV:    1.22919783070130     
DAV:   6    -0.833813637004E+01   -0.48623E-06   -0.84145E-11  1392   0.582E-05    0.675E-06
 Total vdW correction in eV:    1.22919775051800     
DAV:   7    -0.833813617494E+01    0.19510E-06   -0.15668E-11  1388   0.269E-05    0.736E-06
 Total vdW correction in eV:    1.22919786319450     
DAV:   8    -0.833813598166E+01    0.19329E-06   -0.31687E-12  1392   0.123E-05    0.346E-06
 Total vdW correction in eV:    1.22919794253141     
DAV:   9    -0.833813590128E+01    0.80376E-07   -0.72452E-13  1388   0.577E-06
 Total vdW correction in eV:    1.22919796683153     
 Total vdW correction in eV:    1.22919794416640     
   4 F= -.83381359E+01 E0= -.83381172E+01  d E =-.377657E-04  mag=     0.0000
 BRION: g(F)=  0.551E-43 g(S)=  0.636E-10 retain N=  1 mean eig= 0.61
 eig:   0.611
 reached required accuracy - stopping structural energy minimisation
