LAMMPS data file via write_data, version 13 Jan 2016, timestep = 14

256 atoms
1 atom types

-6.7228698449605693e-11 1.6199999870067234e+01 xlo xhi
-6.7136643098002441e-11 1.6199999870067135e+01 ylo yhi
-5.6733619838650890e-10 1.6199999869567339e+01 zlo zhi
0.0000000000000000e+00 0.0000000000000000e+00 0.0000000000000000e+00 xy xz yz

Masses

1 26.982

Atoms # charge

1 1 0.0000000000000000e+00 5.7730949233677892e-11 5.7821830557650838e-11 -4.6163527260704943e-12 0 0 0
2 1 0.0000000000000000e+00 5.7731578951137799e-11 5.7821645654275308e-11 4.0499999675293283e+00 0 0 0
3 1 0.0000000000000000e+00 5.7731915559515737e-11 5.7821605831177526e-11 8.0999999350622485e+00 0 0 0
4 1 0.0000000000000000e+00 5.7731887569888850e-11 5.7822019064100471e-11 1.2149999902595598e+01 0 0 0
5 1 0.0000000000000000e+00 5.7731127496896133e-11 4.0499999675913774e+00 -4.6163662003982700e-12 0 0 0
6 1 0.0000000000000000e+00 5.7731207315811971e-11 4.0499999675913774e+00 4.0499999675293292e+00 0 0 0
7 1 0.0000000000000000e+00 5.7732006188530099e-11 4.0499999675913783e+00 8.0999999350622502e+00 0 0 0
8 1 0.0000000000000000e+00 5.7732029258748576e-11 4.0499999675913774e+00 1.2149999902595599e+01 0 0 0
9 1 0.0000000000000000e+00 5.7731362042096218e-11 8.0999999351249574e+00 -4.6161664274775857e-12 0 0 0
10 1 0.0000000000000000e+00 5.7731150229106123e-11 8.0999999351249574e+00 4.0499999675293292e+00 0 0 0
11 1 0.0000000000000000e+00 5.7730961836838304e-11 8.0999999351249574e+00 8.0999999350622502e+00 0 0 0
12 1 0.0000000000000000e+00 5.7731282076420393e-11 8.0999999351249574e+00 1.2149999902595599e+01 0 0 0
13 1 0.0000000000000000e+00 5.7731620873886999e-11 1.2149999902658511e+01 -4.6167577897970520e-12 0 0 0
14 1 0.0000000000000000e+00 5.7731420694067978e-11 1.2149999902658511e+01 4.0499999675293292e+00 0 0 0
15 1 0.0000000000000000e+00 5.7732305446058615e-11 1.2149999902658511e+01 8.0999999350622485e+00 0 0 0
16 1 0.0000000000000000e+00 5.7731546297998993e-11 1.2149999902658511e+01 1.2149999902595599e+01 0 0 0
17 1 0.0000000000000000e+00 4.0499999675913338e+00 5.7821703894106214e-11 -4.6164401690083982e-12 0 0 0
18 1 0.0000000000000000e+00 4.0499999675913330e+00 5.7821985181278663e-11 4.0499999675293283e+00 0 0 0
19 1 0.0000000000000000e+00 4.0499999675913330e+00 5.7821706499534401e-11 8.0999999350622502e+00 0 0 0
20 1 0.0000000000000000e+00 4.0499999675913330e+00 5.7821270764023676e-11 1.2149999902595599e+01 0 0 0
21 1 0.0000000000000000e+00 4.0499999675913338e+00 4.0499999675913774e+00 -4.6156043055414428e-12 0 0 0
22 1 0.0000000000000000e+00 4.0499999675913330e+00 4.0499999675913774e+00 4.0499999675293292e+00 0 0 0
23 1 0.0000000000000000e+00 4.0499999675913338e+00 4.0499999675913765e+00 8.0999999350622502e+00 0 0 0
24 1 0.0000000000000000e+00 4.0499999675913330e+00 4.0499999675913774e+00 1.2149999902595599e+01 0 0 0
25 1 0.0000000000000000e+00 4.0499999675913330e+00 8.0999999351249556e+00 -4.6160821310658692e-12 0 0 0
26 1 0.0000000000000000e+00 4.0499999675913330e+00 8.0999999351249574e+00 4.0499999675293292e+00 0 0 0
27 1 0.0000000000000000e+00 4.0499999675913338e+00 8.0999999351249574e+00 8.0999999350622502e+00 0 0 0
28 1 0.0000000000000000e+00 4.0499999675913338e+00 8.0999999351249574e+00 1.2149999902595599e+01 0 0 0
29 1 0.0000000000000000e+00 4.0499999675913338e+00 1.2149999902658511e+01 -4.6153245739096394e-12 0 0 0
30 1 0.0000000000000000e+00 4.0499999675913338e+00 1.2149999902658511e+01 4.0499999675293283e+00 0 0 0
31 1 0.0000000000000000e+00 4.0499999675913338e+00 1.2149999902658511e+01 8.0999999350622502e+00 0 0 0
32 1 0.0000000000000000e+00 4.0499999675913338e+00 1.2149999902658511e+01 1.2149999902595599e+01 0 0 0
33 1 0.0000000000000000e+00 8.0999999351249574e+00 5.7820873226675942e-11 -4.6167481631910923e-12 0 0 0
34 1 0.0000000000000000e+00 8.0999999351249574e+00 5.7821484038359329e-11 4.0499999675293283e+00 0 0 0
35 1 0.0000000000000000e+00 8.0999999351249574e+00 5.7822271992382733e-11 8.0999999350622485e+00 0 0 0
36 1 0.0000000000000000e+00 8.0999999351249592e+00 5.7821612991055626e-11 1.2149999902595599e+01 0 0 0
37 1 0.0000000000000000e+00 8.0999999351249574e+00 4.0499999675913774e+00 -4.6156468987295769e-12 0 0 0
38 1 0.0000000000000000e+00 8.0999999351249574e+00 4.0499999675913765e+00 4.0499999675293292e+00 0 0 0
39 1 0.0000000000000000e+00 8.0999999351249574e+00 4.0499999675913774e+00 8.0999999350622502e+00 0 0 0
40 1 0.0000000000000000e+00 8.0999999351249574e+00 4.0499999675913774e+00 1.2149999902595601e+01 0 0 0
41 1 0.0000000000000000e+00 8.0999999351249574e+00 8.0999999351249574e+00 -4.6145455688088135e-12 0 0 0
42 1 0.0000000000000000e+00 8.0999999351249592e+00 8.0999999351249574e+00 4.0499999675293292e+00 0 0 0
43 1 0.0000000000000000e+00 8.0999999351249574e+00 8.0999999351249574e+00 8.0999999350622502e+00 0 0 0
44 1 0.0000000000000000e+00 8.0999999351249592e+00 8.0999999351249556e+00 1.2149999902595601e+01 0 0 0
45 1 0.0000000000000000e+00 8.0999999351249574e+00 1.2149999902658511e+01 -4.6162228833467281e-12 0 0 0
46 1 0.0000000000000000e+00 8.0999999351249592e+00 1.2149999902658511e+01 4.0499999675293292e+00 0 0 0
47 1 0.0000000000000000e+00 8.0999999351249574e+00 1.2149999902658511e+01 8.0999999350622502e+00 0 0 0
48 1 0.0000000000000000e+00 8.0999999351249592e+00 1.2149999902658511e+01 1.2149999902595599e+01 0 0 0
49 1 0.0000000000000000e+00 1.2149999902658562e+01 5.7822027289720269e-11 -4.6161050857218123e-12 0 0 0
50 1 0.0000000000000000e+00 1.2149999902658562e+01 5.7821985679231440e-11 4.0499999675293283e+00 0 0 0
51 1 0.0000000000000000e+00 1.2149999902658562e+01 5.7821901399068781e-11 8.0999999350622485e+00 0 0 0
52 1 0.0000000000000000e+00 1.2149999902658562e+01 5.7821740080854511e-11 1.2149999902595598e+01 0 0 0
53 1 0.0000000000000000e+00 1.2149999902658562e+01 4.0499999675913774e+00 -4.6165509282530536e-12 0 0 0
54 1 0.0000000000000000e+00 1.2149999902658562e+01 4.0499999675913774e+00 4.0499999675293292e+00 0 0 0
55 1 0.0000000000000000e+00 1.2149999902658562e+01 4.0499999675913774e+00 8.0999999350622502e+00 0 0 0
56 1 0.0000000000000000e+00 1.2149999902658562e+01 4.0499999675913765e+00 1.2149999902595598e+01 0 0 0
57 1 0.0000000000000000e+00 1.2149999902658562e+01 8.0999999351249574e+00 -4.6163617329950287e-12 0 0 0
58 1 0.0000000000000000e+00 1.2149999902658562e+01 8.0999999351249574e+00 4.0499999675293292e+00 0 0 0
59 1 0.0000000000000000e+00 1.2149999902658564e+01 8.0999999351249574e+00 8.0999999350622502e+00 0 0 0
60 1 0.0000000000000000e+00 1.2149999902658562e+01 8.0999999351249574e+00 1.2149999902595599e+01 0 0 0
61 1 0.0000000000000000e+00 1.2149999902658564e+01 1.2149999902658511e+01 -4.6160685398043266e-12 0 0 0
62 1 0.0000000000000000e+00 1.2149999902658562e+01 1.2149999902658511e+01 4.0499999675293283e+00 0 0 0
63 1 0.0000000000000000e+00 1.2149999902658562e+01 1.2149999902658511e+01 8.0999999350622502e+00 0 0 0
64 1 0.0000000000000000e+00 1.2149999902658564e+01 1.2149999902658511e+01 1.2149999902595599e+01 0 0 0
65 1 0.0000000000000000e+00 5.7731212793763284e-11 2.0249999838246886e+00 2.0249999837625503e+00 0 0 0
66 1 0.0000000000000000e+00 5.7731394278685893e-11 2.0249999838246890e+00 6.0749999512959292e+00 0 0 0
67 1 0.0000000000000000e+00 5.7731992003323098e-11 2.0249999838246890e+00 1.0124999918828825e+01 0 0 0
68 1 0.0000000000000000e+00 5.7731356064556870e-11 2.0249999838246882e+00 1.4174999886362794e+01 0 0 0
69 1 0.0000000000000000e+00 5.7731291295031846e-11 6.0749999513582686e+00 2.0249999837625507e+00 0 0 0
70 1 0.0000000000000000e+00 5.7731554574244184e-11 6.0749999513582686e+00 6.0749999512959292e+00 0 0 0
71 1 0.0000000000000000e+00 5.7731151018510612e-11 6.0749999513582686e+00 1.0124999918828825e+01 0 0 0
72 1 0.0000000000000000e+00 5.7731265949667699e-11 6.0749999513582686e+00 1.4174999886362794e+01 0 0 0
73 1 0.0000000000000000e+00 5.7731958322347732e-11 1.0124999918891826e+01 2.0249999837625512e+00 0 0 0
74 1 0.0000000000000000e+00 5.7731270921077671e-11 1.0124999918891827e+01 6.0749999512959292e+00 0 0 0
75 1 0.0000000000000000e+00 5.7731318791654358e-11 1.0124999918891826e+01 1.0124999918828825e+01 0 0 0
76 1 0.0000000000000000e+00 5.7731781659215364e-11 1.0124999918891826e+01 1.4174999886362794e+01 0 0 0
77 1 0.0000000000000000e+00 5.7731761093711957e-11 1.4174999886425409e+01 2.0249999837625512e+00 0 0 0
78 1 0.0000000000000000e+00 5.7731308123075476e-11 1.4174999886425409e+01 6.0749999512959301e+00 0 0 0
79 1 0.0000000000000000e+00 5.7732776632910955e-11 1.4174999886425409e+01 1.0124999918828825e+01 0 0 0
80 1 0.0000000000000000e+00 5.7731740450847335e-11 1.4174999886425409e+01 1.4174999886362794e+01 0 0 0
81 1 0.0000000000000000e+00 4.0499999675913330e+00 2.0249999838246890e+00 2.0249999837625512e+00 0 0 0
82 1 0.0000000000000000e+00 4.0499999675913330e+00 2.0249999838246886e+00 6.0749999512959292e+00 0 0 0
83 1 0.0000000000000000e+00 4.0499999675913330e+00 2.0249999838246890e+00 1.0124999918828825e+01 0 0 0
84 1 0.0000000000000000e+00 4.0499999675913330e+00 2.0249999838246886e+00 1.4174999886362794e+01 0 0 0
85 1 0.0000000000000000e+00 4.0499999675913330e+00 6.0749999513582686e+00 2.0249999837625512e+00 0 0 0
86 1 0.0000000000000000e+00 4.0499999675913330e+00 6.0749999513582695e+00 6.0749999512959301e+00 0 0 0
87 1 0.0000000000000000e+00 4.0499999675913338e+00 6.0749999513582686e+00 1.0124999918828825e+01 0 0 0
88 1 0.0000000000000000e+00 4.0499999675913338e+00 6.0749999513582678e+00 1.4174999886362794e+01 0 0 0
89 1 0.0000000000000000e+00 4.0499999675913330e+00 1.0124999918891827e+01 2.0249999837625512e+00 0 0 0
90 1 0.0000000000000000e+00 4.0499999675913338e+00 1.0124999918891827e+01 6.0749999512959292e+00 0 0 0
91 1 0.0000000000000000e+00 4.0499999675913338e+00 1.0124999918891827e+01 1.0124999918828825e+01 0 0 0
92 1 0.0000000000000000e+00 4.0499999675913330e+00 1.0124999918891826e+01 1.4174999886362794e+01 0 0 0
93 1 0.0000000000000000e+00 4.0499999675913330e+00 1.4174999886425409e+01 2.0249999837625516e+00 0 0 0
94 1 0.0000000000000000e+00 4.0499999675913338e+00 1.4174999886425409e+01 6.0749999512959301e+00 0 0 0
95 1 0.0000000000000000e+00 4.0499999675913338e+00 1.4174999886425409e+01 1.0124999918828827e+01 0 0 0
96 1 0.0000000000000000e+00 4.0499999675913338e+00 1.4174999886425409e+01 1.4174999886362796e+01 0 0 0
97 1 0.0000000000000000e+00 8.0999999351249574e+00 2.0249999838246895e+00 2.0249999837625512e+00 0 0 0
98 1 0.0000000000000000e+00 8.0999999351249574e+00 2.0249999838246890e+00 6.0749999512959292e+00 0 0 0
99 1 0.0000000000000000e+00 8.0999999351249574e+00 2.0249999838246882e+00 1.0124999918828827e+01 0 0 0
100 1 0.0000000000000000e+00 8.0999999351249574e+00 2.0249999838246890e+00 1.4174999886362794e+01 0 0 0
101 1 0.0000000000000000e+00 8.0999999351249574e+00 6.0749999513582686e+00 2.0249999837625512e+00 0 0 0
102 1 0.0000000000000000e+00 8.0999999351249574e+00 6.0749999513582686e+00 6.0749999512959301e+00 0 0 0
103 1 0.0000000000000000e+00 8.0999999351249574e+00 6.0749999513582686e+00 1.0124999918828825e+01 0 0 0
104 1 0.0000000000000000e+00 8.0999999351249574e+00 6.0749999513582678e+00 1.4174999886362794e+01 0 0 0
105 1 0.0000000000000000e+00 8.0999999351249592e+00 1.0124999918891827e+01 2.0249999837625507e+00 0 0 0
106 1 0.0000000000000000e+00 8.0999999351249592e+00 1.0124999918891827e+01 6.0749999512959292e+00 0 0 0
107 1 0.0000000000000000e+00 8.0999999351249574e+00 1.0124999918891827e+01 1.0124999918828825e+01 0 0 0
108 1 0.0000000000000000e+00 8.0999999351249574e+00 1.0124999918891826e+01 1.4174999886362794e+01 0 0 0
109 1 0.0000000000000000e+00 8.0999999351249574e+00 1.4174999886425409e+01 2.0249999837625512e+00 0 0 0
110 1 0.0000000000000000e+00 8.0999999351249574e+00 1.4174999886425409e+01 6.0749999512959292e+00 0 0 0
111 1 0.0000000000000000e+00 8.0999999351249574e+00 1.4174999886425409e+01 1.0124999918828827e+01 0 0 0
112 1 0.0000000000000000e+00 8.0999999351249592e+00 1.4174999886425409e+01 1.4174999886362794e+01 0 0 0
113 1 0.0000000000000000e+00 1.2149999902658562e+01 2.0249999838246882e+00 2.0249999837625503e+00 0 0 0
114 1 0.0000000000000000e+00 1.2149999902658562e+01 2.0249999838246886e+00 6.0749999512959301e+00 0 0 0
115 1 0.0000000000000000e+00 1.2149999902658562e+01 2.0249999838246886e+00 1.0124999918828825e+01 0 0 0
116 1 0.0000000000000000e+00 1.2149999902658562e+01 2.0249999838246886e+00 1.4174999886362794e+01 0 0 0
117 1 0.0000000000000000e+00 1.2149999902658562e+01 6.0749999513582686e+00 2.0249999837625512e+00 0 0 0
118 1 0.0000000000000000e+00 1.2149999902658562e+01 6.0749999513582686e+00 6.0749999512959292e+00 0 0 0
119 1 0.0000000000000000e+00 1.2149999902658562e+01 6.0749999513582686e+00 1.0124999918828825e+01 0 0 0
120 1 0.0000000000000000e+00 1.2149999902658562e+01 6.0749999513582686e+00 1.4174999886362794e+01 0 0 0
121 1 0.0000000000000000e+00 1.2149999902658564e+01 1.0124999918891827e+01 2.0249999837625507e+00 0 0 0
122 1 0.0000000000000000e+00 1.2149999902658564e+01 1.0124999918891827e+01 6.0749999512959292e+00 0 0 0
123 1 0.0000000000000000e+00 1.2149999902658562e+01 1.0124999918891826e+01 1.0124999918828825e+01 0 0 0
124 1 0.0000000000000000e+00 1.2149999902658562e+01 1.0124999918891827e+01 1.4174999886362794e+01 0 0 0
125 1 0.0000000000000000e+00 1.2149999902658564e+01 1.4174999886425409e+01 2.0249999837625516e+00 0 0 0
126 1 0.0000000000000000e+00 1.2149999902658562e+01 1.4174999886425409e+01 6.0749999512959301e+00 0 0 0
127 1 0.0000000000000000e+00 1.2149999902658564e+01 1.4174999886425409e+01 1.0124999918828825e+01 0 0 0
128 1 0.0000000000000000e+00 1.2149999902658562e+01 1.4174999886425409e+01 1.4174999886362794e+01 0 0 0
129 1 0.0000000000000000e+00 2.0249999838246215e+00 5.7819972976591400e-11 2.0249999837625516e+00 0 0 0
130 1 0.0000000000000000e+00 2.0249999838246224e+00 5.7820363622544553e-11 6.0749999512959301e+00 0 0 0
131 1 0.0000000000000000e+00 2.0249999838246220e+00 5.7820301852297486e-11 1.0124999918828827e+01 0 0 0
132 1 0.0000000000000000e+00 2.0249999838246220e+00 5.7820307462879017e-11 1.4174999886362794e+01 0 0 0
133 1 0.0000000000000000e+00 2.0249999838246215e+00 4.0499999675913774e+00 2.0249999837625507e+00 0 0 0
134 1 0.0000000000000000e+00 2.0249999838246220e+00 4.0499999675913774e+00 6.0749999512959292e+00 0 0 0
135 1 0.0000000000000000e+00 2.0249999838246215e+00 4.0499999675913774e+00 1.0124999918828825e+01 0 0 0
136 1 0.0000000000000000e+00 2.0249999838246215e+00 4.0499999675913774e+00 1.4174999886362794e+01 0 0 0
137 1 0.0000000000000000e+00 2.0249999838246220e+00 8.0999999351249574e+00 2.0249999837625507e+00 0 0 0
138 1 0.0000000000000000e+00 2.0249999838246220e+00 8.0999999351249574e+00 6.0749999512959292e+00 0 0 0
139 1 0.0000000000000000e+00 2.0249999838246215e+00 8.0999999351249556e+00 1.0124999918828825e+01 0 0 0
140 1 0.0000000000000000e+00 2.0249999838246215e+00 8.0999999351249574e+00 1.4174999886362794e+01 0 0 0
141 1 0.0000000000000000e+00 2.0249999838246220e+00 1.2149999902658511e+01 2.0249999837625503e+00 0 0 0
142 1 0.0000000000000000e+00 2.0249999838246215e+00 1.2149999902658511e+01 6.0749999512959292e+00 0 0 0
143 1 0.0000000000000000e+00 2.0249999838246215e+00 1.2149999902658511e+01 1.0124999918828825e+01 0 0 0
144 1 0.0000000000000000e+00 2.0249999838246215e+00 1.2149999902658511e+01 1.4174999886362794e+01 0 0 0
145 1 0.0000000000000000e+00 6.0749999513582473e+00 5.7820476330643327e-11 2.0249999837625516e+00 0 0 0
146 1 0.0000000000000000e+00 6.0749999513582473e+00 5.7820414961292627e-11 6.0749999512959292e+00 0 0 0
147 1 0.0000000000000000e+00 6.0749999513582482e+00 5.7819671504374914e-11 1.0124999918828827e+01 0 0 0
148 1 0.0000000000000000e+00 6.0749999513582473e+00 5.7819782068431363e-11 1.4174999886362794e+01 0 0 0
149 1 0.0000000000000000e+00 6.0749999513582482e+00 4.0499999675913774e+00 2.0249999837625507e+00 0 0 0
150 1 0.0000000000000000e+00 6.0749999513582482e+00 4.0499999675913774e+00 6.0749999512959301e+00 0 0 0
151 1 0.0000000000000000e+00 6.0749999513582482e+00 4.0499999675913774e+00 1.0124999918828825e+01 0 0 0
152 1 0.0000000000000000e+00 6.0749999513582473e+00 4.0499999675913765e+00 1.4174999886362794e+01 0 0 0
153 1 0.0000000000000000e+00 6.0749999513582473e+00 8.0999999351249574e+00 2.0249999837625512e+00 0 0 0
154 1 0.0000000000000000e+00 6.0749999513582473e+00 8.0999999351249574e+00 6.0749999512959292e+00 0 0 0
155 1 0.0000000000000000e+00 6.0749999513582473e+00 8.0999999351249574e+00 1.0124999918828825e+01 0 0 0
156 1 0.0000000000000000e+00 6.0749999513582473e+00 8.0999999351249574e+00 1.4174999886362794e+01 0 0 0
157 1 0.0000000000000000e+00 6.0749999513582473e+00 1.2149999902658511e+01 2.0249999837625503e+00 0 0 0
158 1 0.0000000000000000e+00 6.0749999513582473e+00 1.2149999902658511e+01 6.0749999512959292e+00 0 0 0
159 1 0.0000000000000000e+00 6.0749999513582473e+00 1.2149999902658511e+01 1.0124999918828825e+01 0 0 0
160 1 0.0000000000000000e+00 6.0749999513582473e+00 1.2149999902658511e+01 1.4174999886362794e+01 0 0 0
161 1 0.0000000000000000e+00 1.0124999918891854e+01 5.7819952245396556e-11 2.0249999837625507e+00 0 0 0
162 1 0.0000000000000000e+00 1.0124999918891854e+01 5.7821163942846873e-11 6.0749999512959292e+00 0 0 0
163 1 0.0000000000000000e+00 1.0124999918891854e+01 5.7820184508736695e-11 1.0124999918828827e+01 0 0 0
164 1 0.0000000000000000e+00 1.0124999918891854e+01 5.7819633842732101e-11 1.4174999886362794e+01 0 0 0
165 1 0.0000000000000000e+00 1.0124999918891854e+01 4.0499999675913783e+00 2.0249999837625503e+00 0 0 0
166 1 0.0000000000000000e+00 1.0124999918891854e+01 4.0499999675913765e+00 6.0749999512959301e+00 0 0 0
167 1 0.0000000000000000e+00 1.0124999918891854e+01 4.0499999675913774e+00 1.0124999918828825e+01 0 0 0
168 1 0.0000000000000000e+00 1.0124999918891854e+01 4.0499999675913774e+00 1.4174999886362794e+01 0 0 0
169 1 0.0000000000000000e+00 1.0124999918891854e+01 8.0999999351249556e+00 2.0249999837625507e+00 0 0 0
170 1 0.0000000000000000e+00 1.0124999918891854e+01 8.0999999351249574e+00 6.0749999512959292e+00 0 0 0
171 1 0.0000000000000000e+00 1.0124999918891854e+01 8.0999999351249574e+00 1.0124999918828825e+01 0 0 0
172 1 0.0000000000000000e+00 1.0124999918891854e+01 8.0999999351249556e+00 1.4174999886362794e+01 0 0 0
173 1 0.0000000000000000e+00 1.0124999918891854e+01 1.2149999902658511e+01 2.0249999837625507e+00 0 0 0
174 1 0.0000000000000000e+00 1.0124999918891854e+01 1.2149999902658513e+01 6.0749999512959292e+00 0 0 0
175 1 0.0000000000000000e+00 1.0124999918891854e+01 1.2149999902658511e+01 1.0124999918828825e+01 0 0 0
176 1 0.0000000000000000e+00 1.0124999918891854e+01 1.2149999902658513e+01 1.4174999886362794e+01 0 0 0
177 1 0.0000000000000000e+00 1.4174999886425480e+01 5.7819944010931405e-11 2.0249999837625512e+00 0 0 0
178 1 0.0000000000000000e+00 1.4174999886425480e+01 5.7820138547948713e-11 6.0749999512959301e+00 0 0 0
179 1 0.0000000000000000e+00 1.4174999886425480e+01 5.7820167365860679e-11 1.0124999918828825e+01 0 0 0
180 1 0.0000000000000000e+00 1.4174999886425480e+01 5.7820811931625578e-11 1.4174999886362794e+01 0 0 0
181 1 0.0000000000000000e+00 1.4174999886425480e+01 4.0499999675913774e+00 2.0249999837625507e+00 0 0 0
182 1 0.0000000000000000e+00 1.4174999886425480e+01 4.0499999675913774e+00 6.0749999512959292e+00 0 0 0
183 1 0.0000000000000000e+00 1.4174999886425482e+01 4.0499999675913774e+00 1.0124999918828825e+01 0 0 0
184 1 0.0000000000000000e+00 1.4174999886425480e+01 4.0499999675913774e+00 1.4174999886362794e+01 0 0 0
185 1 0.0000000000000000e+00 1.4174999886425480e+01 8.0999999351249574e+00 2.0249999837625512e+00 0 0 0
186 1 0.0000000000000000e+00 1.4174999886425480e+01 8.0999999351249574e+00 6.0749999512959292e+00 0 0 0
187 1 0.0000000000000000e+00 1.4174999886425480e+01 8.0999999351249556e+00 1.0124999918828825e+01 0 0 0
188 1 0.0000000000000000e+00 1.4174999886425480e+01 8.0999999351249574e+00 1.4174999886362794e+01 0 0 0
189 1 0.0000000000000000e+00 1.4174999886425480e+01 1.2149999902658511e+01 2.0249999837625507e+00 0 0 0
190 1 0.0000000000000000e+00 1.4174999886425480e+01 1.2149999902658511e+01 6.0749999512959292e+00 0 0 0
191 1 0.0000000000000000e+00 1.4174999886425480e+01 1.2149999902658511e+01 1.0124999918828825e+01 0 0 0
192 1 0.0000000000000000e+00 1.4174999886425480e+01 1.2149999902658511e+01 1.4174999886362794e+01 0 0 0
193 1 0.0000000000000000e+00 2.0249999838246215e+00 2.0249999838246890e+00 -4.6161873467875961e-12 0 0 0
194 1 0.0000000000000000e+00 2.0249999838246220e+00 2.0249999838246886e+00 4.0499999675293283e+00 0 0 0
195 1 0.0000000000000000e+00 2.0249999838246220e+00 2.0249999838246890e+00 8.0999999350622485e+00 0 0 0
196 1 0.0000000000000000e+00 2.0249999838246220e+00 2.0249999838246890e+00 1.2149999902595601e+01 0 0 0
197 1 0.0000000000000000e+00 2.0249999838246215e+00 6.0749999513582686e+00 -4.6164774204305031e-12 0 0 0
198 1 0.0000000000000000e+00 2.0249999838246220e+00 6.0749999513582686e+00 4.0499999675293301e+00 0 0 0
199 1 0.0000000000000000e+00 2.0249999838246215e+00 6.0749999513582686e+00 8.0999999350622485e+00 0 0 0
200 1 0.0000000000000000e+00 2.0249999838246220e+00 6.0749999513582678e+00 1.2149999902595599e+01 0 0 0
201 1 0.0000000000000000e+00 2.0249999838246220e+00 1.0124999918891826e+01 -4.6162068577270741e-12 0 0 0
202 1 0.0000000000000000e+00 2.0249999838246220e+00 1.0124999918891827e+01 4.0499999675293292e+00 0 0 0
203 1 0.0000000000000000e+00 2.0249999838246215e+00 1.0124999918891827e+01 8.0999999350622502e+00 0 0 0
204 1 0.0000000000000000e+00 2.0249999838246220e+00 1.0124999918891826e+01 1.2149999902595599e+01 0 0 0
205 1 0.0000000000000000e+00 2.0249999838246215e+00 1.4174999886425407e+01 -4.6163968982487070e-12 0 0 0
206 1 0.0000000000000000e+00 2.0249999838246215e+00 1.4174999886425407e+01 4.0499999675293283e+00 0 0 0
207 1 0.0000000000000000e+00 2.0249999838246220e+00 1.4174999886425407e+01 8.0999999350622485e+00 0 0 0
208 1 0.0000000000000000e+00 2.0249999838246215e+00 1.4174999886425407e+01 1.2149999902595599e+01 0 0 0
209 1 0.0000000000000000e+00 6.0749999513582473e+00 2.0249999838246886e+00 -4.6162078445515804e-12 0 0 0
210 1 0.0000000000000000e+00 6.0749999513582482e+00 2.0249999838246886e+00 4.0499999675293283e+00 0 0 0
211 1 0.0000000000000000e+00 6.0749999513582473e+00 2.0249999838246890e+00 8.0999999350622502e+00 0 0 0
212 1 0.0000000000000000e+00 6.0749999513582482e+00 2.0249999838246895e+00 1.2149999902595601e+01 0 0 0
213 1 0.0000000000000000e+00 6.0749999513582473e+00 6.0749999513582686e+00 -4.6155405392233410e-12 0 0 0
214 1 0.0000000000000000e+00 6.0749999513582473e+00 6.0749999513582686e+00 4.0499999675293292e+00 0 0 0
215 1 0.0000000000000000e+00 6.0749999513582482e+00 6.0749999513582686e+00 8.0999999350622502e+00 0 0 0
216 1 0.0000000000000000e+00 6.0749999513582473e+00 6.0749999513582678e+00 1.2149999902595599e+01 0 0 0
217 1 0.0000000000000000e+00 6.0749999513582473e+00 1.0124999918891827e+01 -4.6158763197620753e-12 0 0 0
218 1 0.0000000000000000e+00 6.0749999513582464e+00 1.0124999918891827e+01 4.0499999675293292e+00 0 0 0
219 1 0.0000000000000000e+00 6.0749999513582473e+00 1.0124999918891827e+01 8.0999999350622502e+00 0 0 0
220 1 0.0000000000000000e+00 6.0749999513582473e+00 1.0124999918891826e+01 1.2149999902595601e+01 0 0 0
221 1 0.0000000000000000e+00 6.0749999513582473e+00 1.4174999886425407e+01 -4.6168539657409053e-12 0 0 0
222 1 0.0000000000000000e+00 6.0749999513582482e+00 1.4174999886425407e+01 4.0499999675293283e+00 0 0 0
223 1 0.0000000000000000e+00 6.0749999513582473e+00 1.4174999886425407e+01 8.0999999350622502e+00 0 0 0
224 1 0.0000000000000000e+00 6.0749999513582473e+00 1.4174999886425407e+01 1.2149999902595599e+01 0 0 0
225 1 0.0000000000000000e+00 1.0124999918891854e+01 2.0249999838246886e+00 -4.6157106246720624e-12 0 0 0
226 1 0.0000000000000000e+00 1.0124999918891854e+01 2.0249999838246886e+00 4.0499999675293292e+00 0 0 0
227 1 0.0000000000000000e+00 1.0124999918891854e+01 2.0249999838246890e+00 8.0999999350622502e+00 0 0 0
228 1 0.0000000000000000e+00 1.0124999918891854e+01 2.0249999838246882e+00 1.2149999902595599e+01 0 0 0
229 1 0.0000000000000000e+00 1.0124999918891854e+01 6.0749999513582686e+00 -4.6160890354132986e-12 0 0 0
230 1 0.0000000000000000e+00 1.0124999918891854e+01 6.0749999513582695e+00 4.0499999675293292e+00 0 0 0
231 1 0.0000000000000000e+00 1.0124999918891854e+01 6.0749999513582686e+00 8.0999999350622502e+00 0 0 0
232 1 0.0000000000000000e+00 1.0124999918891854e+01 6.0749999513582686e+00 1.2149999902595601e+01 0 0 0
233 1 0.0000000000000000e+00 1.0124999918891852e+01 1.0124999918891827e+01 -4.6165694254661474e-12 0 0 0
234 1 0.0000000000000000e+00 1.0124999918891852e+01 1.0124999918891827e+01 4.0499999675293292e+00 0 0 0
235 1 0.0000000000000000e+00 1.0124999918891852e+01 1.0124999918891827e+01 8.0999999350622502e+00 0 0 0
236 1 0.0000000000000000e+00 1.0124999918891852e+01 1.0124999918891826e+01 1.2149999902595599e+01 0 0 0
237 1 0.0000000000000000e+00 1.0124999918891854e+01 1.4174999886425407e+01 -4.6169621828459190e-12 0 0 0
238 1 0.0000000000000000e+00 1.0124999918891854e+01 1.4174999886425407e+01 4.0499999675293274e+00 0 0 0
239 1 0.0000000000000000e+00 1.0124999918891854e+01 1.4174999886425407e+01 8.0999999350622485e+00 0 0 0
240 1 0.0000000000000000e+00 1.0124999918891854e+01 1.4174999886425409e+01 1.2149999902595599e+01 0 0 0
241 1 0.0000000000000000e+00 1.4174999886425480e+01 2.0249999838246882e+00 -4.6163434281781483e-12 0 0 0
242 1 0.0000000000000000e+00 1.4174999886425480e+01 2.0249999838246886e+00 4.0499999675293283e+00 0 0 0
243 1 0.0000000000000000e+00 1.4174999886425480e+01 2.0249999838246886e+00 8.0999999350622502e+00 0 0 0
244 1 0.0000000000000000e+00 1.4174999886425480e+01 2.0249999838246886e+00 1.2149999902595599e+01 0 0 0
245 1 0.0000000000000000e+00 1.4174999886425480e+01 6.0749999513582686e+00 -4.6165587868382090e-12 0 0 0
246 1 0.0000000000000000e+00 1.4174999886425480e+01 6.0749999513582686e+00 4.0499999675293292e+00 0 0 0
247 1 0.0000000000000000e+00 1.4174999886425480e+01 6.0749999513582686e+00 8.0999999350622502e+00 0 0 0
248 1 0.0000000000000000e+00 1.4174999886425480e+01 6.0749999513582686e+00 1.2149999902595601e+01 0 0 0
249 1 0.0000000000000000e+00 1.4174999886425480e+01 1.0124999918891827e+01 -4.6167602377393302e-12 0 0 0
250 1 0.0000000000000000e+00 1.4174999886425480e+01 1.0124999918891827e+01 4.0499999675293292e+00 0 0 0
251 1 0.0000000000000000e+00 1.4174999886425480e+01 1.0124999918891827e+01 8.0999999350622502e+00 0 0 0
252 1 0.0000000000000000e+00 1.4174999886425480e+01 1.0124999918891827e+01 1.2149999902595599e+01 0 0 0
253 1 0.0000000000000000e+00 1.4174999886425480e+01 1.4174999886425407e+01 -4.6171082436463503e-12 0 0 0
254 1 0.0000000000000000e+00 1.4174999886425480e+01 1.4174999886425407e+01 4.0499999675293283e+00 0 0 0
255 1 0.0000000000000000e+00 1.4174999886425480e+01 1.4174999886425407e+01 8.0999999350622485e+00 0 0 0
256 1 0.0000000000000000e+00 1.4174999886425480e+01 1.4174999886425407e+01 1.2149999902595598e+01 0 0 0

Velocities

1 0.0000000000000000e+00 0.0000000000000000e+00 0.0000000000000000e+00
2 0.0000000000000000e+00 0.0000000000000000e+00 0.0000000000000000e+00
3 0.0000000000000000e+00 0.0000000000000000e+00 0.0000000000000000e+00
4 0.0000000000000000e+00 0.0000000000000000e+00 0.0000000000000000e+00
5 0.0000000000000000e+00 0.0000000000000000e+00 0.0000000000000000e+00
6 0.0000000000000000e+00 0.0000000000000000e+00 0.0000000000000000e+00
7 0.0000000000000000e+00 0.0000000000000000e+00 0.0000000000000000e+00
8 0.0000000000000000e+00 0.0000000000000000e+00 0.0000000000000000e+00
9 0.0000000000000000e+00 0.0000000000000000e+00 0.0000000000000000e+00
10 0.0000000000000000e+00 0.0000000000000000e+00 0.0000000000000000e+00
11 0.0000000000000000e+00 0.0000000000000000e+00 0.0000000000000000e+00
12 0.0000000000000000e+00 0.0000000000000000e+00 0.0000000000000000e+00
13 0.0000000000000000e+00 0.0000000000000000e+00 0.0000000000000000e+00
14 0.0000000000000000e+00 0.0000000000000000e+00 0.0000000000000000e+00
15 0.0000000000000000e+00 0.0000000000000000e+00 0.0000000000000000e+00
16 0.0000000000000000e+00 0.0000000000000000e+00 0.0000000000000000e+00
17 0.0000000000000000e+00 0.0000000000000000e+00 0.0000000000000000e+00
18 0.0000000000000000e+00 0.0000000000000000e+00 0.0000000000000000e+00
19 0.0000000000000000e+00 0.0000000000000000e+00 0.0000000000000000e+00
20 0.0000000000000000e+00 0.0000000000000000e+00 0.0000000000000000e+00
21 0.0000000000000000e+00 0.0000000000000000e+00 0.0000000000000000e+00
22 0.0000000000000000e+00 0.0000000000000000e+00 0.0000000000000000e+00
23 0.0000000000000000e+00 0.0000000000000000e+00 0.0000000000000000e+00
24 0.0000000000000000e+00 0.0000000000000000e+00 0.0000000000000000e+00
25 0.0000000000000000e+00 0.0000000000000000e+00 0.0000000000000000e+00
26 0.0000000000000000e+00 0.0000000000000000e+00 0.0000000000000000e+00
27 0.0000000000000000e+00 0.0000000000000000e+00 0.0000000000000000e+00
28 0.0000000000000000e+00 0.0000000000000000e+00 0.0000000000000000e+00
29 0.0000000000000000e+00 0.0000000000000000e+00 0.0000000000000000e+00
30 0.0000000000000000e+00 0.0000000000000000e+00 0.0000000000000000e+00
31 0.0000000000000000e+00 0.0000000000000000e+00 0.0000000000000000e+00
32 0.0000000000000000e+00 0.0000000000000000e+00 0.0000000000000000e+00
33 0.0000000000000000e+00 0.0000000000000000e+00 0.0000000000000000e+00
34 0.0000000000000000e+00 0.0000000000000000e+00 0.0000000000000000e+00
35 0.0000000000000000e+00 0.0000000000000000e+00 0.0000000000000000e+00
36 0.0000000000000000e+00 0.0000000000000000e+00 0.0000000000000000e+00
37 0.0000000000000000e+00 0.0000000000000000e+00 0.0000000000000000e+00
38 0.0000000000000000e+00 0.0000000000000000e+00 0.0000000000000000e+00
39 0.0000000000000000e+00 0.0000000000000000e+00 0.0000000000000000e+00
40 0.0000000000000000e+00 0.0000000000000000e+00 0.0000000000000000e+00
41 0.0000000000000000e+00 0.0000000000000000e+00 0.0000000000000000e+00
42 0.0000000000000000e+00 0.0000000000000000e+00 0.0000000000000000e+00