datafile (written by JARVIS-FF) 

256 	 atoms 
1  atom types
0.0 16.199999870  xlo xhi
0.0 16.199999870  ylo yhi
0.0 16.199999869  zlo zhi
0E-9 0E-9 0E-9  xy xz yz


Atoms 

     1   1 0.000000 0E-9 0E-9 0E-9
     2   1 0.000000 0E-9 0E-9 4.049999968
     3   1 0.000000 0E-9 0E-9 8.099999935
     4   1 0.000000 0E-9 0E-9 12.149999903
     5   1 0.000000 0E-9 4.049999968 0E-9
     6   1 0.000000 0E-9 4.049999968 4.049999968
     7   1 0.000000 0E-9 4.049999968 8.099999935
     8   1 0.000000 0E-9 4.049999968 12.149999903
     9   1 0.000000 0E-9 8.099999935 0E-9
    10   1 0.000000 0E-9 8.099999935 4.049999968
    11   1 0.000000 0E-9 8.099999935 8.099999935
    12   1 0.000000 0E-9 8.099999935 12.149999903
    13   1 0.000000 0E-9 12.149999903 0E-9
    14   1 0.000000 0E-9 12.149999903 4.049999968
    15   1 0.000000 0E-9 12.149999903 8.099999935
    16   1 0.000000 0E-9 12.149999903 12.149999903
    17   1 0.000000 4.049999968 0E-9 0E-9
    18   1 0.000000 4.049999968 0E-9 4.049999968
    19   1 0.000000 4.049999968 0E-9 8.099999935
    20   1 0.000000 4.049999968 0E-9 12.149999903
    21   1 0.000000 4.049999968 4.049999968 0E-9
    22   1 0.000000 4.049999968 4.049999968 4.049999968
    23   1 0.000000 4.049999968 4.049999968 8.099999935
    24   1 0.000000 4.049999968 4.049999968 12.149999903
    25   1 0.000000 4.049999968 8.099999935 0E-9
    26   1 0.000000 4.049999968 8.099999935 4.049999968
    27   1 0.000000 4.049999968 8.099999935 8.099999935
    28   1 0.000000 4.049999968 8.099999935 12.149999903
    29   1 0.000000 4.049999968 12.149999903 0E-9
    30   1 0.000000 4.049999968 12.149999903 4.049999968
    31   1 0.000000 4.049999968 12.149999903 8.099999935
    32   1 0.000000 4.049999968 12.149999903 12.149999903
    33   1 0.000000 8.099999935 0E-9 0E-9
    34   1 0.000000 8.099999935 0E-9 4.049999968
    35   1 0.000000 8.099999935 0E-9 8.099999935
    36   1 0.000000 8.099999935 0E-9 12.149999903
    37   1 0.000000 8.099999935 4.049999968 0E-9
    38   1 0.000000 8.099999935 4.049999968 4.049999968
    39   1 0.000000 8.099999935 4.049999968 8.099999935
    40   1 0.000000 8.099999935 4.049999968 12.149999903
    41   1 0.000000 8.099999935 8.099999935 0E-9
    42   1 0.000000 8.099999935 8.099999935 4.049999968
    43   1 0.000000 8.099999935 8.099999935 8.099999935
    44   1 0.000000 8.099999935 8.099999935 12.149999903
    45   1 0.000000 8.099999935 12.149999903 0E-9
    46   1 0.000000 8.099999935 12.149999903 4.049999968
    47   1 0.000000 8.099999935 12.149999903 8.099999935
    48   1 0.000000 8.099999935 12.149999903 12.149999903
    49   1 0.000000 12.149999903 -0E-9 0E-9
    50   1 0.000000 12.149999903 0E-9 4.049999968
    51   1 0.000000 12.149999903 0E-9 8.099999935
    52   1 0.000000 12.149999903 0E-9 12.149999903
    53   1 0.000000 12.149999903 4.049999968 0E-9
    54   1 0.000000 12.149999903 4.049999968 4.049999968
    55   1 0.000000 12.149999903 4.049999968 8.099999935
    56   1 0.000000 12.149999903 4.049999968 12.149999903
    57   1 0.000000 12.149999903 8.099999935 0E-9
    58   1 0.000000 12.149999903 8.099999935 4.049999968
    59   1 0.000000 12.149999903 8.099999935 8.099999935
    60   1 0.000000 12.149999903 8.099999935 12.149999903
    61   1 0.000000 12.149999903 12.149999903 0E-9
    62   1 0.000000 12.149999903 12.149999903 4.049999968
    63   1 0.000000 12.149999903 12.149999903 8.099999935
    64   1 0.000000 12.149999903 12.149999903 12.149999903
    65   1 0.000000 0E-9 2.024999984 2.024999984
    66   1 0.000000 0E-9 2.024999984 6.074999951
    67   1 0.000000 0E-9 2.024999984 10.124999919
    68   1 0.000000 0E-9 2.024999984 14.174999886
    69   1 0.000000 0E-9 6.074999951 2.024999984
    70   1 0.000000 0E-9 6.074999951 6.074999951
    71   1 0.000000 0E-9 6.074999951 10.124999919
    72   1 0.000000 0E-9 6.074999951 14.174999886
    73   1 0.000000 0E-9 10.124999919 2.024999984
    74   1 0.000000 0E-9 10.124999919 6.074999951
    75   1 0.000000 0E-9 10.124999919 10.124999919
    76   1 0.000000 0E-9 10.124999919 14.174999886
    77   1 0.000000 0E-9 14.174999886 2.024999984
    78   1 0.000000 0E-9 14.174999886 6.074999951
    79   1 0.000000 0E-9 14.174999886 10.124999919
    80   1 0.000000 0E-9 14.174999886 14.174999886
    81   1 0.000000 4.049999968 2.024999984 2.024999984
    82   1 0.000000 4.049999968 2.024999984 6.074999951
    83   1 0.000000 4.049999968 2.024999984 10.124999919
    84   1 0.000000 4.049999968 2.024999984 14.174999886
    85   1 0.000000 4.049999968 6.074999951 2.024999984
    86   1 0.000000 4.049999968 6.074999951 6.074999951
    87   1 0.000000 4.049999968 6.074999951 10.124999919
    88   1 0.000000 4.049999968 6.074999951 14.174999886
    89   1 0.000000 4.049999968 10.124999919 2.024999984
    90   1 0.000000 4.049999968 10.124999919 6.074999951
    91   1 0.000000 4.049999968 10.124999919 10.124999919
    92   1 0.000000 4.049999968 10.124999919 14.174999886
    93   1 0.000000 4.049999968 14.174999886 2.024999984
    94   1 0.000000 4.049999968 14.174999886 6.074999951
    95   1 0.000000 4.049999968 14.174999886 10.124999919
    96   1 0.000000 4.049999968 14.174999886 14.174999886
    97   1 0.000000 8.099999935 2.024999984 2.024999984
    98   1 0.000000 8.099999935 2.024999984 6.074999951
    99   1 0.000000 8.099999935 2.024999984 10.124999919
   100   1 0.000000 8.099999935 2.024999984 14.174999886
   101   1 0.000000 8.099999935 6.074999951 2.024999984
   102   1 0.000000 8.099999935 6.074999951 6.074999951
   103   1 0.000000 8.099999935 6.074999951 10.124999919
   104   1 0.000000 8.099999935 6.074999951 14.174999886
   105   1 0.000000 8.099999935 10.124999919 2.024999984
   106   1 0.000000 8.099999935 10.124999919 6.074999951
   107   1 0.000000 8.099999935 10.124999919 10.124999919
   108   1 0.000000 8.099999935 10.124999919 14.174999886
   109   1 0.000000 8.099999935 14.174999886 2.024999984
   110   1 0.000000 8.099999935 14.174999886 6.074999951
   111   1 0.000000 8.099999935 14.174999886 10.124999919
   112   1 0.000000 8.099999935 14.174999886 14.174999886
   113   1 0.000000 12.149999903 2.024999984 2.024999984
   114   1 0.000000 12.149999903 2.024999984 6.074999951
   115   1 0.000000 12.149999903 2.024999984 10.124999919
   116   1 0.000000 12.149999903 2.024999984 14.174999886
   117   1 0.000000 12.149999903 6.074999951 2.024999984
   118   1 0.000000 12.149999903 6.074999951 6.074999951
   119   1 0.000000 12.149999903 6.074999951 10.124999919
   120   1 0.000000 12.149999903 6.074999951 14.174999886
   121   1 0.000000 12.149999903 10.124999919 2.024999984
   122   1 0.000000 12.149999903 10.124999919 6.074999951
   123   1 0.000000 12.149999903 10.124999919 10.124999919
   124   1 0.000000 12.149999903 10.124999919 14.174999886
   125   1 0.000000 12.149999903 14.174999886 2.024999984
   126   1 0.000000 12.149999903 14.174999886 6.074999951
   127   1 0.000000 12.149999903 14.174999886 10.124999919
   128   1 0.000000 12.149999903 14.174999886 14.174999886
   129   1 0.000000 2.024999984 0E-9 2.024999984
   130   1 0.000000 2.024999984 0E-9 6.074999951
   131   1 0.000000 2.024999984 0E-9 10.124999919
   132   1 0.000000 2.024999984 0E-9 14.174999886
   133   1 0.000000 2.024999984 4.049999968 2.024999984
   134   1 0.000000 2.024999984 4.049999968 6.074999951
   135   1 0.000000 2.024999984 4.049999968 10.124999919
   136   1 0.000000 2.024999984 4.049999968 14.174999886
   137   1 0.000000 2.024999984 8.099999935 2.024999984
   138   1 0.000000 2.024999984 8.099999935 6.074999951
   139   1 0.000000 2.024999984 8.099999935 10.124999919
   140   1 0.000000 2.024999984 8.099999935 14.174999886
   141   1 0.000000 2.024999984 12.149999903 2.024999984
   142   1 0.000000 2.024999984 12.149999903 6.074999951
   143   1 0.000000 2.024999984 12.149999903 10.124999919
   144   1 0.000000 2.024999984 12.149999903 14.174999886
   145   1 0.000000 6.074999951 0E-9 2.024999984
   146   1 0.000000 6.074999951 0E-9 6.074999951
   147   1 0.000000 6.074999951 0E-9 10.124999919
   148   1 0.000000 6.074999951 0E-9 14.174999886
   149   1 0.000000 6.074999951 4.049999968 2.024999984
   150   1 0.000000 6.074999951 4.049999968 6.074999951
   151   1 0.000000 6.074999951 4.049999968 10.124999919
   152   1 0.000000 6.074999951 4.049999968 14.174999886
   153   1 0.000000 6.074999951 8.099999935 2.024999984
   154   1 0.000000 6.074999951 8.099999935 6.074999951
   155   1 0.000000 6.074999951 8.099999935 10.124999919
   156   1 0.000000 6.074999951 8.099999935 14.174999886
   157   1 0.000000 6.074999951 12.149999903 2.024999984
   158   1 0.000000 6.074999951 12.149999903 6.074999951
   159   1 0.000000 6.074999951 12.149999903 10.124999919
   160   1 0.000000 6.074999951 12.149999903 14.174999886
   161   1 0.000000 10.124999919 0E-9 2.024999984
   162   1 0.000000 10.124999919 0E-9 6.074999951
   163   1 0.000000 10.124999919 0E-9 10.124999919
   164   1 0.000000 10.124999919 0E-9 14.174999886
   165   1 0.000000 10.124999919 4.049999968 2.024999984
   166   1 0.000000 10.124999919 4.049999968 6.074999951
   167   1 0.000000 10.124999919 4.049999968 10.124999919
   168   1 0.000000 10.124999919 4.049999968 14.174999886
   169   1 0.000000 10.124999919 8.099999935 2.024999984
   170   1 0.000000 10.124999919 8.099999935 6.074999951
   171   1 0.000000 10.124999919 8.099999935 10.124999919
   172   1 0.000000 10.124999919 8.099999935 14.174999886
   173   1 0.000000 10.124999919 12.149999903 2.024999984
   174   1 0.000000 10.124999919 12.149999903 6.074999951
   175   1 0.000000 10.124999919 12.149999903 10.124999919
   176   1 0.000000 10.124999919 12.149999903 14.174999886
   177   1 0.000000 14.174999886 0E-9 2.024999984
   178   1 0.000000 14.174999886 0E-9 6.074999951
   179   1 0.000000 14.174999886 0E-9 10.124999919
   180   1 0.000000 14.174999886 0E-9 14.174999886
   181   1 0.000000 14.174999886 4.049999968 2.024999984
   182   1 0.000000 14.174999886 4.049999968 6.074999951
   183   1 0.000000 14.174999886 4.049999968 10.124999919
   184   1 0.000000 14.174999886 4.049999968 14.174999886
   185   1 0.000000 14.174999886 8.099999935 2.024999984
   186   1 0.000000 14.174999886 8.099999935 6.074999951
   187   1 0.000000 14.174999886 8.099999935 10.124999919
   188   1 0.000000 14.174999886 8.099999935 14.174999886
   189   1 0.000000 14.174999886 12.149999903 2.024999984
   190   1 0.000000 14.174999886 12.149999903 6.074999951
   191   1 0.000000 14.174999886 12.149999903 10.124999919
   192   1 0.000000 14.174999886 12.149999903 14.174999886
   193   1 0.000000 2.024999984 2.024999984 0E-9
   194   1 0.000000 2.024999984 2.024999984 4.049999968
   195   1 0.000000 2.024999984 2.024999984 8.099999935
   196   1 0.000000 2.024999984 2.024999984 12.149999903
   197   1 0.000000 2.024999984 6.074999951 0E-9
   198   1 0.000000 2.024999984 6.074999951 4.049999968
   199   1 0.000000 2.024999984 6.074999951 8.099999935
   200   1 0.000000 2.024999984 6.074999951 12.149999903
   201   1 0.000000 2.024999984 10.124999919 0E-9
   202   1 0.000000 2.024999984 10.124999919 4.049999968
   203   1 0.000000 2.024999984 10.124999919 8.099999935
   204   1 0.000000 2.024999984 10.124999919 12.149999903
   205   1 0.000000 2.024999984 14.174999886 0E-9
   206   1 0.000000 2.024999984 14.174999886 4.049999968
   207   1 0.000000 2.024999984 14.174999886 8.099999935
   208   1 0.000000 2.024999984 14.174999886 12.149999903
   209   1 0.000000 6.074999951 2.024999984 0E-9
   210   1 0.000000 6.074999951 2.024999984 4.049999968
   211   1 0.000000 6.074999951 2.024999984 8.099999935
   212   1 0.000000 6.074999951 2.024999984 12.149999903
   213   1 0.000000 6.074999951 6.074999951 0E-9
   214   1 0.000000 6.074999951 6.074999951 4.049999968
   215   1 0.000000 6.074999951 6.074999951 8.099999935
   216   1 0.000000 6.074999951 6.074999951 12.149999903
   217   1 0.000000 6.074999951 10.124999919 0E-9
   218   1 0.000000 6.074999951 10.124999919 4.049999968
   219   1 0.000000 6.074999951 10.124999919 8.099999935
   220   1 0.000000 6.074999951 10.124999919 12.149999903
   221   1 0.000000 6.074999951 14.174999886 0E-9
   222   1 0.000000 6.074999951 14.174999886 4.049999968
   223   1 0.000000 6.074999951 14.174999886 8.099999935
   224   1 0.000000 6.074999951 14.174999886 12.149999903
   225   1 0.000000 10.124999919 2.024999984 0E-9
   226   1 0.000000 10.124999919 2.024999984 4.049999968
   227   1 0.000000 10.124999919 2.024999984 8.099999935
   228   1 0.000000 10.124999919 2.024999984 12.149999903
   229   1 0.000000 10.124999919 6.074999951 0E-9
   230   1 0.000000 10.124999919 6.074999951 4.049999968
   231   1 0.000000 10.124999919 6.074999951 8.099999935
   232   1 0.000000 10.124999919 6.074999951 12.149999903
   233   1 0.000000 10.124999919 10.124999919 0E-9
   234   1 0.000000 10.124999919 10.124999919 4.049999968
   235   1 0.000000 10.124999919 10.124999919 8.099999935
   236   1 0.000000 10.124999919 10.124999919 12.149999903
   237   1 0.000000 10.124999919 14.174999886 0E-9
   238   1 0.000000 10.124999919 14.174999886 4.049999968
   239   1 0.000000 10.124999919 14.174999886 8.099999935
   240   1 0.000000 10.124999919 14.174999886 12.149999903
   241   1 0.000000 14.174999886 2.024999984 0E-9
   242   1 0.000000 14.174999886 2.024999984 4.049999968
   243   1 0.000000 14.174999886 2.024999984 8.099999935
   244   1 0.000000 14.174999886 2.024999984 12.149999903
   245   1 0.000000 14.174999886 6.074999951 0E-9
   246   1 0.000000 14.174999886 6.074999951 4.049999968
   247   1 0.000000 14.174999886 6.074999951 8.099999935
   248   1 0.000000 14.174999886 6.074999951 12.149999903
   249   1 0.000000 14.174999886 10.124999919 0E-9
   250   1 0.000000 14.174999886 10.124999919 4.049999968
   251   1 0.000000 14.174999886 10.124999919 8.099999935
   252   1 0.000000 14.174999886 10.124999919 12.149999903
   253   1 0.000000 14.174999886 14.174999886 0E-9
   254   1 0.000000 14.174999886 14.174999886 4.049999968
   255   1 0.000000 14.174999886 14.174999886 8.099999935
   256   1 0.000000 14.174999886 14.174999886 12.149999903
