LAMMPS (13 Jan 2016)
include /users/knc6/inelast.mod
# Compute elastic constant tensor for a crystal
#
# Written by Aidan Thompson (Sandia, athomps@sandia.gov)
#
#  This script uses the following three include files.
#
#   init.mod      (must be modified for different crystal structures)
# 	       	  Define units, deformation parameters and initial
#		  configuration of the atoms and simulation cell.
#
#
#   potential.mod    (must be modified for different pair styles)
# 		     Define pair style and other attributes
#		     not stored in restart file
#
#
#   displace.mod    (displace.mod should not need to be modified)
# 		    Perform positive and negative box displacements
# 		    in direction ${dir} and size ${up}.
# 		    It uses the resultant changes
#		    in stress to compute one
# 		    row of the elastic stiffness tensor
#
#		    Inputs variables:
#		    	   dir = the Voigt deformation component
#		    		    (1,2,3,4,5,6)
#		    Global constants:
#       	    	   up = the deformation magnitude (strain units)
#       		   cfac = conversion from LAMMPS pressure units to
#               	   output units for elastic constants
#
#
#  To run this on a different system, it should only be necessary to
#  modify the files init.mod and potential.mod. In order to calculate
#  the elastic constants correctly, care must be taken to specify
#  the correct units in init.mod (units, cfac and cunits). It is also
#  important to verify that the minimization of energy w.r.t atom
#  positions in the deformed cell is fully converged.
#  One indication of this is that the elastic constants are insensitive
#  to the choice of the variable ${up} in init.mod. Another is to check
#  the final max and two-norm forces reported in the log file. If you know
#  that minimization is not required, you can set maxiter = 0.0 in
#  init.mod.
#
#  There are two alternate versions of displace.mod provided.
#  They are displace_restart.mod and displace_reverse.mod.
#  The former resets the box using a restart file while
#  the latter reverses the deformation. Copy whichever
#  one you like best to displace.mod.
#

include init.mod
variable dump_file string "None"
variable up  equal 1.0e-6
variable cfac  equal 1.0e-4
variable cunits  string GPa
variable etol  equal 0
variable ftol  equal 1.0e-10
variable maxiter equal 1000
variable maxeval equal 10000
variable dmax equal 1.0e-2
variable data_file string "data"
units metal
atom_style charge
boundary p p p
atom_modify sort 0 0.0

read_data data
  triclinic box = (0 0 0) to (16.2 16.2 16.2) with tilt (0 0 0)
  1 by 1 by 1 MPI processor grid
  reading atoms ...
  256 atoms

### interactions
mass 1 26.98154
include potential.mod
pair_style eam/alloy
pair_coeff * * /users/knc6/Software/jarvis/jarvis/lammps/examples/Al03.eam.alloy  Al
neighbor 1.0 nsq
neigh_modify once no every 1 delay 0 check yes
min_style  cg
min_modify           dmax ${dmax} line quadratic
min_modify           dmax 0.01 line quadratic
thermo          1
thermo_style custom step temp press cpu pxx pyy pzz pxy pxz pyz ke pe etotal vol lx ly lz atoms
thermo_modify norm no
#fix 3 all nph aniso 0.0 0.0 1.0
#fix langevin all langevin 0.0 0.0 1.0 12233

#fix 3 all box/relax tri 0.0 vmax 0.001
fix            3 all box/relax aniso 0.0 vmax 0.001
#fix 3 all box/relax  aniso 0.0
#dump            2a all cfg 100 *.cfg mass type xs ys zs  vx vy vz fx fy fz
#dump_modify     2a element  Mo S

#fix 1a all qeq/comb 1 0.0001 file fq.out
#fix             2 all qeq/reax 1 0.0 10.0 1e-6 /scratch/lfs/kamal/JARVIS/All2/ReaxFF/param.qeq
minimize ${etol} ${ftol} ${maxiter} ${maxeval}
minimize 0 ${ftol} ${maxiter} ${maxeval}
minimize 0 1e-10 ${maxiter} ${maxeval}
minimize 0 1e-10 1000 ${maxeval}
minimize 0 1e-10 1000 10000
Neighbor list info ...
  1 neighbor list requests
  update every 1 steps, delay 0 steps, check yes
  max neighbors/atom: 2000, page size: 100000
  master list distance cutoff = 7.72488
  ghost atom cutoff = 7.72488
Memory usage per processor = 3.36043 Mbytes
Step Temp Press CPU Pxx Pyy Pzz Pxy Pxz Pyz KinEng PotEng TotEng Volume Lx Ly Lz Atoms 
       0            0 6.8433446e-05            0 5.6767127e-05 5.6767129e-05 9.1766081e-05 1.2551534e-12 4.0164909e-12 9.5339361e-12            0   -860.16001   -860.16001    4251.5279         16.2         16.2         16.2      256 
       1            0 -4.5503508e-06 0.0020611286 -1.3240656e-05 -1.3240663e-05 1.2830267e-05 2.3847915e-12 1.5856771e-11 1.0726332e-11            0   -860.16001   -860.16001    4251.5279         16.2         16.2         16.2      256 
       2            0 4.921718e-07 0.0041251183 6.5494434e-06 6.549437e-06 -1.1622365e-05 -8.5768816e-12 1.644251e-11  1.02295e-11            0   -860.16001   -860.16001    4251.5279         16.2         16.2         16.2      256 
       3            0 -9.0316753e-08 0.0062010288 -9.3469119e-08 -9.2244336e-08 -8.5236804e-08 -1.0543289e-11 1.184028e-11 2.1327148e-11            0   -860.16001   -860.16001    4251.5279         16.2         16.2         16.2      256 
       4            0 6.7256611e-05 0.0082650185 6.6756651e-05 6.6539289e-05 6.8473893e-05 8.8697507e-12 2.0542677e-11 -8.7442354e-12            0   -860.16001   -860.16001    4251.5279         16.2         16.2         16.2      256 
       5            0 -2.2120018e-08  0.010332108 -5.7237483e-07 -8.1266104e-07 1.3186758e-06 -1.2551534e-12 -5.2298059e-12 9.1521602e-13            0   -860.16001   -860.16001    4251.5279         16.2         16.2         16.2      256 
       6            0 3.6081128e-09  0.012396097 5.7124427e-07 8.1914382e-07 -1.3795637e-06 -2.7613375e-12 -6.2339286e-12 8.2264846e-12            0   -860.16001   -860.16001    4251.5279         16.2         16.2         16.2      256 
       7            0 -3.0158999e-07   0.01446414 -3.0616237e-07 -3.118173e-07 -2.867903e-07 -7.6145973e-12 2.3596884e-11 -1.7258359e-12            0   -860.16001   -860.16001    4251.5279         16.2         16.2         16.2      256 
       8            0 1.4685407e-06  0.016527176 1.4687882e-06 1.470425e-06 1.4664089e-06 6.9033437e-12 1.2467857e-11 -9.4711784e-12            0   -860.16001   -860.16001    4251.5279         16.2         16.2         16.2      256 
       9            0 -2.5515689e-08  0.018596172 1.5227724e-06 3.7187933e-06 -5.3181128e-06 1.1631088e-11 8.3676894e-14 -8.08005e-12            0   -860.16001   -860.16001    4251.5279         16.2         16.2         16.2      256 
      10            0 -8.7380398e-09  0.020658016 -8.7670583e-09 -9.0411106e-09 -8.4059506e-09 6.1502517e-12 -4.1838447e-12 -9.2358371e-12            0   -860.16001   -860.16001    4251.5279         16.2         16.2         16.2      256 
      11            0 4.9726572e-08  0.022734165 4.9640334e-08 4.9760311e-08 4.977907e-08 1.0877996e-11 7.5309204e-13 5.5802028e-12            0   -860.16001   -860.16001    4251.5279         16.2         16.2         16.2      256 
      12            0 8.4315244e-09  0.024801016 9.244163e-09 3.8246804e-08 -2.2196394e-08 2.9286913e-12 7.5727589e-12 6.8876543e-12            0   -860.16001   -860.16001    4251.5279         16.2         16.2         16.2      256 
      13            0 -1.8779227e-08  0.027848005 -1.8546209e-08 -1.1812029e-08 -2.5979442e-08 -1.0543289e-11 1.0668804e-11 3.258169e-12            0   -860.16001   -860.16001    4251.5279         16.2         16.2         16.2      256 
Loop time of 0.027864 on 1 procs for 13 steps with 256 atoms

100.5% CPU use with 1 MPI tasks x no OpenMP threads

Minimization stats:
  Stopping criterion = force tolerance
  Energy initial, next-to-last, final = 
        -860.160005864     -860.160005864     -860.160005864
  Force two-norm initial, final = 3.27075e-07 9.21091e-11
  Force max component initial, final = 2.4351e-07 6.89389e-11
  Final line search alpha, max atom move = 1 6.89389e-11
  Iterations, force evaluations = 13 26

MPI task timing breakdown:
Section |  min time  |  avg time  |  max time  |%varavg| %total
---------------------------------------------------------------
Pair    | 0.026249   | 0.026249   | 0.026249   |   0.0 | 94.20
Neigh   | 0          | 0          | 0          |   0.0 |  0.00
Comm    | 0.0002389  | 0.0002389  | 0.0002389  |   0.0 |  0.86
Output  | 0.00027275 | 0.00027275 | 0.00027275 |   0.0 |  0.98
Modify  | 0          | 0          | 0          |   0.0 |  0.00
Other   |            | 0.001103   |            |       |  3.96

Nlocal:    256 ave 256 max 256 min
Histogram: 1 0 0 0 0 0 0 0 0 0
Nghost:    1431 ave 1431 max 1431 min
Histogram: 1 0 0 0 0 0 0 0 0 0
Neighs:    17152 ave 17152 max 17152 min
Histogram: 1 0 0 0 0 0 0 0 0 0

Total # of neighbors = 17152
Ave neighs/atom = 67
Neighbor list builds = 0
Dangerous builds = 0
#minimize ${etol} ${ftol} ${maxiter} ${maxeval}
#minimize ${etol} ${ftol} ${maxiter} ${maxeval}

variable tmp equal pxx
variable pxx0 equal ${tmp}
variable pxx0 equal -1.85462094773227e-08
variable tmp equal pyy
variable pyy0 equal ${tmp}
variable pyy0 equal -1.18120290473046e-08
variable tmp equal pzz
variable pzz0 equal ${tmp}
variable pzz0 equal -2.59794423667275e-08
variable tmp equal pyz
variable pyz0 equal ${tmp}
variable pyz0 equal 3.25816904844101e-12
variable tmp equal pxz
variable pxz0 equal ${tmp}
variable pxz0 equal 1.0668803946741e-11
variable tmp equal pxy
variable pxy0 equal ${tmp}
variable pxy0 equal -1.05432886061911e-11

variable tmp equal lx
variable lx0 equal ${tmp}
variable lx0 equal 16.1999998701345
variable tmp equal ly
variable ly0 equal ${tmp}
variable ly0 equal 16.1999998701343
variable tmp equal lz
variable lz0 equal ${tmp}
variable lz0 equal 16.1999998701347

# These formulas define the derivatives w.r.t. strain components
# Constants uses $, variables use v_
variable d1 equal -(v_pxx1-${pxx0})/(v_delta/v_len0)*${cfac}
variable d1 equal -(v_pxx1--1.85462094773227e-08)/(v_delta/v_len0)*${cfac}
variable d1 equal -(v_pxx1--1.85462094773227e-08)/(v_delta/v_len0)*0.0001
variable d2 equal -(v_pyy1-${pyy0})/(v_delta/v_len0)*${cfac}
variable d2 equal -(v_pyy1--1.18120290473046e-08)/(v_delta/v_len0)*${cfac}
variable d2 equal -(v_pyy1--1.18120290473046e-08)/(v_delta/v_len0)*0.0001
variable d3 equal -(v_pzz1-${pzz0})/(v_delta/v_len0)*${cfac}
variable d3 equal -(v_pzz1--2.59794423667275e-08)/(v_delta/v_len0)*${cfac}
variable d3 equal -(v_pzz1--2.59794423667275e-08)/(v_delta/v_len0)*0.0001
variable d4 equal -(v_pyz1-${pyz0})/(v_delta/v_len0)*${cfac}
variable d4 equal -(v_pyz1-3.25816904844101e-12)/(v_delta/v_len0)*${cfac}
variable d4 equal -(v_pyz1-3.25816904844101e-12)/(v_delta/v_len0)*0.0001
variable d5 equal -(v_pxz1-${pxz0})/(v_delta/v_len0)*${cfac}
variable d5 equal -(v_pxz1-1.0668803946741e-11)/(v_delta/v_len0)*${cfac}
variable d5 equal -(v_pxz1-1.0668803946741e-11)/(v_delta/v_len0)*0.0001
variable d6 equal -(v_pxy1-${pxy0})/(v_delta/v_len0)*${cfac}
variable d6 equal -(v_pxy1--1.05432886061911e-11)/(v_delta/v_len0)*${cfac}
variable d6 equal -(v_pxy1--1.05432886061911e-11)/(v_delta/v_len0)*0.0001

# Write restart
unfix 3
minimize ${etol} ${ftol} ${maxiter} ${maxeval}
minimize 0 ${ftol} ${maxiter} ${maxeval}
minimize 0 1e-10 ${maxiter} ${maxeval}
minimize 0 1e-10 1000 ${maxeval}
minimize 0 1e-10 1000 10000
Memory usage per processor = 3.36043 Mbytes
Step Temp Press CPU Pxx Pyy Pzz Pxy Pxz Pyz KinEng PotEng TotEng Volume Lx Ly Lz Atoms 
      13            0 -1.8863746e-08            0 -1.8620012e-08 -1.1950012e-08 -2.6021213e-08 -7.489082e-12 7.6564358e-12 -2.667201e-12            0   -860.16001   -860.16001    4251.5279         16.2         16.2         16.2      256 
      14            0 -1.8823248e-08  0.002956152 -1.8568928e-08 -1.1842341e-08 -2.6058475e-08 3.9746525e-12 1.1714765e-11 -6.6418534e-13            0   -860.16001   -860.16001    4251.5279         16.2         16.2         16.2      256 
Loop time of 0.00297308 on 1 procs for 1 steps with 256 atoms

0.0% CPU use with 1 MPI tasks x no OpenMP threads

Minimization stats:
  Stopping criterion = force tolerance
  Energy initial, next-to-last, final = 
        -860.160005864     -860.160005864     -860.160005864
  Force two-norm initial, final = 1.80637e-11 1.63628e-11
  Force max component initial, final = 1.50435e-12 1.07334e-12
  Final line search alpha, max atom move = 1 1.07334e-12
  Iterations, force evaluations = 1 2

MPI task timing breakdown:
Section |  min time  |  avg time  |  max time  |%varavg| %total
---------------------------------------------------------------
Pair    | 0.0029037  | 0.0029037  | 0.0029037  |   0.0 | 97.67
Neigh   | 0          | 0          | 0          |   0.0 |  0.00
Comm    | 2.6941e-05 | 2.6941e-05 | 2.6941e-05 |   0.0 |  0.91
Output  | 0          | 0          | 0          |   0.0 |  0.00
Modify  | 0          | 0          | 0          |   0.0 |  0.00
Other   |            | 4.244e-05  |            |       |  1.43

Nlocal:    256 ave 256 max 256 min
Histogram: 1 0 0 0 0 0 0 0 0 0
Nghost:    1431 ave 1431 max 1431 min
Histogram: 1 0 0 0 0 0 0 0 0 0
Neighs:    17152 ave 17152 max 17152 min
Histogram: 1 0 0 0 0 0 0 0 0 0

Total # of neighbors = 17152
Ave neighs/atom = 67
Neighbor list builds = 0
Dangerous builds = 0
#fix 1a all qeq/comb 1 0.0001 file fq.out
write_restart restart.equil
write_data data0

# uxx Perturbation

variable dir equal 1
include /users/knc6/displace.mod
# NOTE: This script should not need to be
# modified. See in.elastic for more info.
#
# Find which reference length to use

if "${dir} == 1" then    "variable len0 equal ${lx0}"
variable len0 equal ${lx0}
variable len0 equal 16.1999998701345
if "${dir} == 2" then    "variable len0 equal ${ly0}"
if "${dir} == 3" then    "variable len0 equal ${lz0}"
if "${dir} == 4" then    "variable len0 equal ${lz0}"
if "${dir} == 5" then    "variable len0 equal ${lz0}"
if "${dir} == 6" then    "variable len0 equal ${ly0}"

# Reset box and simulation parameters

clear
box tilt large
read_restart restart.equil
  triclinic box = (-6.72287e-11 -6.71366e-11 -5.67336e-10) to (16.2 16.2 16.2) with tilt (0 0 0)
  1 by 1 by 1 MPI processor grid
  256 atoms
include potential.mod
pair_style eam/alloy
pair_coeff * * /users/knc6/Software/jarvis/jarvis/lammps/examples/Al03.eam.alloy  Al
neighbor 1.0 nsq
neigh_modify once no every 1 delay 0 check yes
min_style  cg
min_modify           dmax ${dmax} line quadratic
min_modify           dmax 0.01 line quadratic
thermo          1
thermo_style custom step temp press cpu pxx pyy pzz pxy pxz pyz ke pe etotal vol lx ly lz atoms
thermo_modify norm no
# Negative deformation

variable delta equal -${up}*${len0}
variable delta equal -1e-06*${len0}
variable delta equal -1e-06*16.1999998701345
if "${dir} == 1" then    "change_box all x delta 0 ${delta} remap units box"
change_box all x delta 0 ${delta} remap units box
change_box all x delta 0 -1.61999998701345e-05 remap units box
  triclinic box = (-6.72287e-11 -6.71366e-11 -5.67336e-10) to (16.2 16.2 16.2) with tilt (0 0 0)
if "${dir} == 2" then    "change_box all y delta 0 ${delta} remap units box"
if "${dir} == 3" then    "change_box all z delta 0 ${delta} remap units box"
if "${dir} == 4" then    "change_box all yz delta ${delta} remap units box"
if "${dir} == 5" then    "change_box all xz delta ${delta} remap units box"
if "${dir} == 6" then    "change_box all xy delta ${delta} remap units box"

# Relax atoms positions

minimize ${etol} ${ftol} ${maxiter} ${maxeval}
minimize 0 ${ftol} ${maxiter} ${maxeval}
minimize 0 1e-10 ${maxiter} ${maxeval}
minimize 0 1e-10 1000 ${maxeval}
minimize 0 1e-10 1000 10000
Neighbor list info ...
  1 neighbor list requests
  update every 1 steps, delay 0 steps, check yes
  max neighbors/atom: 2000, page size: 100000
  master list distance cutoff = 7.72488
  ghost atom cutoff = 7.72488
Memory usage per processor = 3.36043 Mbytes
Step Temp Press CPU Pxx Pyy Pzz Pxy Pxz Pyz KinEng PotEng TotEng Volume Lx Ly Lz Atoms 
      14            0   0.79016911            0    1.1681595   0.60117392   0.60117391 -2.4684708e-12 9.078952e-12 8.9638962e-12            0   -860.16001   -860.16001    4251.5236    16.199984         16.2         16.2      256 
      15            0   0.79016911 0.0029358864    1.1681595   0.60117392   0.60117391 -1.5480241e-12 -8.4095362e-12 -3.0950022e-11            0   -860.16001   -860.16001    4251.5236    16.199984         16.2         16.2      256 
Loop time of 0.00295401 on 1 procs for 1 steps with 256 atoms

135.4% CPU use with 1 MPI tasks x no OpenMP threads

Minimization stats:
  Stopping criterion = force tolerance
  Energy initial, next-to-last, final = 
        -860.160005862     -860.160005862     -860.160005862
  Force two-norm initial, final = 1.67696e-11 9.72073e-12
  Force max component initial, final = 1.12763e-12 7.81153e-13
  Final line search alpha, max atom move = 1 7.81153e-13
  Iterations, force evaluations = 1 2

MPI task timing breakdown:
Section |  min time  |  avg time  |  max time  |%varavg| %total
---------------------------------------------------------------
Pair    | 0.002883   | 0.002883   | 0.002883   |   0.0 | 97.59
Neigh   | 0          | 0          | 0          |   0.0 |  0.00
Comm    | 2.8849e-05 | 2.8849e-05 | 2.8849e-05 |   0.0 |  0.98
Output  | 0          | 0          | 0          |   0.0 |  0.00
Modify  | 0          | 0          | 0          |   0.0 |  0.00
Other   |            | 4.22e-05   |            |       |  1.43

Nlocal:    256 ave 256 max 256 min
Histogram: 1 0 0 0 0 0 0 0 0 0
Nghost:    1431 ave 1431 max 1431 min
Histogram: 1 0 0 0 0 0 0 0 0 0
Neighs:    17152 ave 17152 max 17152 min
Histogram: 1 0 0 0 0 0 0 0 0 0

Total # of neighbors = 17152
Ave neighs/atom = 67
Neighbor list builds = 0
Dangerous builds = 0

# Obtain new stress tensor

variable tmp equal pxx
variable pxx1 equal ${tmp}
variable pxx1 equal 1.16815948055423
variable tmp equal pyy
variable pyy1 equal ${tmp}
variable pyy1 equal 0.60117392456489
variable tmp equal pzz
variable pzz1 equal ${tmp}
variable pzz1 equal 0.601173910329496
variable tmp equal pxy
variable pxy1 equal ${tmp}
variable pxy1 equal -1.54802408147278e-12
variable tmp equal pxz
variable pxz1 equal ${tmp}
variable pxz1 equal -8.40953622637916e-12
variable tmp equal pyz
variable pyz1 equal ${tmp}
variable pyz1 equal -3.09500220072835e-11

# Compute elastic constant from pressure tensor

variable C1neg equal ${d1}
variable C1neg equal 116.815949910044
variable C2neg equal ${d2}
variable C2neg equal 60.1173936376919
variable C3neg equal ${d3}
variable C3neg equal 60.1173936308939
variable C4neg equal ${d4}
variable C4neg equal -3.42081910557245e-09
variable C5neg equal ${d5}
variable C5neg equal -1.90783401731202e-09
variable C6neg equal ${d6}
variable C6neg equal 8.99526452471832e-10

# Reset box and simulation parameters

clear
box tilt large
read_restart restart.equil
  triclinic box = (-6.72287e-11 -6.71366e-11 -5.67336e-10) to (16.2 16.2 16.2) with tilt (0 0 0)
  1 by 1 by 1 MPI processor grid
  256 atoms
include potential.mod
pair_style eam/alloy
pair_coeff * * /users/knc6/Software/jarvis/jarvis/lammps/examples/Al03.eam.alloy  Al
neighbor 1.0 nsq
neigh_modify once no every 1 delay 0 check yes
min_style  cg
min_modify           dmax ${dmax} line quadratic
min_modify           dmax 0.01 line quadratic
thermo          1
thermo_style custom step temp press cpu pxx pyy pzz pxy pxz pyz ke pe etotal vol lx ly lz atoms
thermo_modify norm no

# Positive deformation

variable delta equal ${up}*${len0}
variable delta equal 1e-06*${len0}
variable delta equal 1e-06*16.1999998701345
if "${dir} == 1" then    "change_box all x delta 0 ${delta} remap units box"
change_box all x delta 0 ${delta} remap units box
change_box all x delta 0 1.61999998701345e-05 remap units box
  triclinic box = (-6.72287e-11 -6.71366e-11 -5.67336e-10) to (16.2 16.2 16.2) with tilt (0 0 0)
if "${dir} == 2" then    "change_box all y delta 0 ${delta} remap units box"
if "${dir} == 3" then    "change_box all z delta 0 ${delta} remap units box"
if "${dir} == 4" then    "change_box all yz delta ${delta} remap units box"
if "${dir} == 5" then    "change_box all xz delta ${delta} remap units box"
if "${dir} == 6" then    "change_box all xy delta ${delta} remap units box"

# Relax atoms positions

minimize ${etol} ${ftol} ${maxiter} ${maxeval}
minimize 0 ${ftol} ${maxiter} ${maxeval}
minimize 0 1e-10 ${maxiter} ${maxeval}
minimize 0 1e-10 1000 ${maxeval}
minimize 0 1e-10 1000 10000
Neighbor list info ...
  1 neighbor list requests
  update every 1 steps, delay 0 steps, check yes
  max neighbors/atom: 2000, page size: 100000
  master list distance cutoff = 7.72488
  ghost atom cutoff = 7.72488
Memory usage per processor = 3.36043 Mbytes
Step Temp Press CPU Pxx Pyy Pzz Pxy Pxz Pyz KinEng PotEng TotEng Volume Lx Ly Lz Atoms 
      14            0  -0.79016374            0   -1.1681501  -0.60117056  -0.60117058 -9.915702e-12 -7.9074585e-12 1.4408101e-11            0   -860.16001   -860.16001    4251.5321    16.200016         16.2         16.2      256 
      15            0  -0.79016374 0.0029439926   -1.1681501  -0.60117056  -0.60117058 -1.259336e-11 3.1378804e-12 -2.7676105e-11            0   -860.16001   -860.16001    4251.5321    16.200016         16.2         16.2      256 
Loop time of 0.00296092 on 1 procs for 1 steps with 256 atoms

135.1% CPU use with 1 MPI tasks x no OpenMP threads

Minimization stats:
  Stopping criterion = force tolerance
  Energy initial, next-to-last, final = 
        -860.160005862     -860.160005862     -860.160005862
  Force two-norm initial, final = 1.67879e-11 9.72644e-12
  Force max component initial, final = 1.12661e-12 7.81555e-13
  Final line search alpha, max atom move = 1 7.81555e-13
  Iterations, force evaluations = 1 2

MPI task timing breakdown:
Section |  min time  |  avg time  |  max time  |%varavg| %total
---------------------------------------------------------------
Pair    | 0.0028892  | 0.0028892  | 0.0028892  |   0.0 | 97.58
Neigh   | 0          | 0          | 0          |   0.0 |  0.00
Comm    | 2.8133e-05 | 2.8133e-05 | 2.8133e-05 |   0.0 |  0.95
Output  | 0          | 0          | 0          |   0.0 |  0.00
Modify  | 0          | 0          | 0          |   0.0 |  0.00
Other   |            | 4.363e-05  |            |       |  1.47

Nlocal:    256 ave 256 max 256 min
Histogram: 1 0 0 0 0 0 0 0 0 0
Nghost:    1431 ave 1431 max 1431 min
Histogram: 1 0 0 0 0 0 0 0 0 0
Neighs:    17152 ave 17152 max 17152 min
Histogram: 1 0 0 0 0 0 0 0 0 0

Total # of neighbors = 17152
Ave neighs/atom = 67
Neighbor list builds = 0
Dangerous builds = 0

# Obtain new stress tensor

variable tmp equal pe
variable e1 equal ${tmp}
variable e1 equal -860.160005862228
variable tmp equal press
variable p1 equal ${tmp}
variable p1 equal -0.790163737770194
variable tmp equal pxx
variable pxx1 equal ${tmp}
variable pxx1 equal -1.16815006945073
variable tmp equal pyy
variable pyy1 equal ${tmp}
variable pyy1 equal -0.601170564793003
variable tmp equal pzz
variable pzz1 equal ${tmp}
variable pzz1 equal -0.601170579066844
variable tmp equal pxy
variable pxy1 equal ${tmp}
variable pxy1 equal -1.25933599084795e-11
variable tmp equal pxz
variable pxz1 equal ${tmp}
variable pxz1 equal 3.13788037586699e-12
variable tmp equal pyz
variable pyz1 equal ${tmp}
variable pyz1 equal -2.76761049151468e-11

# Compute elastic constant from pressure tensor

variable C1pos equal ${d1}
variable C1pos equal 116.815005090452
variable C2pos equal ${d2}
variable C2pos equal 60.1170552980974
variable C3pos equal ${d3}
variable C3pos equal 60.1170553087402
variable C4pos equal ${d4}
variable C4pos equal 3.09342739635878e-09
variable C5pos equal ${d5}
variable C5pos equal 7.53092357087401e-10
variable C6pos equal ${d6}
variable C6pos equal 2.0500713022884e-10

# Combine positive and negative

variable C1${dir} equal 0.5*(${C1neg}+${C1pos})
variable C11 equal 0.5*(${C1neg}+${C1pos})
variable C11 equal 0.5*(116.815949910044+${C1pos})
variable C11 equal 0.5*(116.815949910044+116.815005090452)
variable C2${dir} equal 0.5*(${C2neg}+${C2pos})
variable C21 equal 0.5*(${C2neg}+${C2pos})
variable C21 equal 0.5*(60.1173936376919+${C2pos})
variable C21 equal 0.5*(60.1173936376919+60.1170552980974)
variable C3${dir} equal 0.5*(${C3neg}+${C3pos})
variable C31 equal 0.5*(${C3neg}+${C3pos})
variable C31 equal 0.5*(60.1173936308939+${C3pos})
variable C31 equal 0.5*(60.1173936308939+60.1170553087402)
variable C4${dir} equal 0.5*(${C4neg}+${C4pos})
variable C41 equal 0.5*(${C4neg}+${C4pos})
variable C41 equal 0.5*(-3.42081910557245e-09+${C4pos})
variable C41 equal 0.5*(-3.42081910557245e-09+3.09342739635878e-09)
variable C5${dir} equal 0.5*(${C5neg}+${C5pos})
variable C51 equal 0.5*(${C5neg}+${C5pos})
variable C51 equal 0.5*(-1.90783401731202e-09+${C5pos})
variable C51 equal 0.5*(-1.90783401731202e-09+7.53092357087401e-10)
variable C6${dir} equal 0.5*(${C6neg}+${C6pos})
variable C61 equal 0.5*(${C6neg}+${C6pos})
variable C61 equal 0.5*(8.99526452471832e-10+${C6pos})
variable C61 equal 0.5*(8.99526452471832e-10+2.0500713022884e-10)

# Delete dir to make sure it is not reused

variable dir delete

# uyy Perturbation

variable dir equal 2
include /users/knc6/displace.mod
# NOTE: This script should not need to be
# modified. See in.elastic for more info.
#
# Find which reference length to use

if "${dir} == 1" then    "variable len0 equal ${lx0}"
if "${dir} == 2" then    "variable len0 equal ${ly0}"
variable len0 equal ${ly0}
variable len0 equal 16.1999998701343
if "${dir} == 3" then    "variable len0 equal ${lz0}"
if "${dir} == 4" then    "variable len0 equal ${lz0}"
if "${dir} == 5" then    "variable len0 equal ${lz0}"
if "${dir} == 6" then    "variable len0 equal ${ly0}"

# Reset box and simulation parameters

clear
box tilt large
read_restart restart.equil
  triclinic box = (-6.72287e-11 -6.71366e-11 -5.67336e-10) to (16.2 16.2 16.2) with tilt (0 0 0)
  1 by 1 by 1 MPI processor grid
  256 atoms
include potential.mod
pair_style eam/alloy
pair_coeff * * /users/knc6/Software/jarvis/jarvis/lammps/examples/Al03.eam.alloy  Al
neighbor 1.0 nsq
neigh_modify once no every 1 delay 0 check yes
min_style  cg
min_modify           dmax ${dmax} line quadratic
min_modify           dmax 0.01 line quadratic
thermo          1
thermo_style custom step temp press cpu pxx pyy pzz pxy pxz pyz ke pe etotal vol lx ly lz atoms
thermo_modify norm no
# Negative deformation

variable delta equal -${up}*${len0}
variable delta equal -1e-06*${len0}
variable delta equal -1e-06*16.1999998701343
if "${dir} == 1" then    "change_box all x delta 0 ${delta} remap units box"
if "${dir} == 2" then    "change_box all y delta 0 ${delta} remap units box"
change_box all y delta 0 ${delta} remap units box
change_box all y delta 0 -1.61999998701343e-05 remap units box
  triclinic box = (-6.72287e-11 -6.71366e-11 -5.67336e-10) to (16.2 16.2 16.2) with tilt (0 0 0)
if "${dir} == 3" then    "change_box all z delta 0 ${delta} remap units box"
if "${dir} == 4" then    "change_box all yz delta ${delta} remap units box"
if "${dir} == 5" then    "change_box all xz delta ${delta} remap units box"
if "${dir} == 6" then    "change_box all xy delta ${delta} remap units box"

# Relax atoms positions

minimize ${etol} ${ftol} ${maxiter} ${maxeval}
minimize 0 ${ftol} ${maxiter} ${maxeval}
minimize 0 1e-10 ${maxiter} ${maxeval}
minimize 0 1e-10 1000 ${maxeval}
minimize 0 1e-10 1000 10000
Neighbor list info ...
  1 neighbor list requests
  update every 1 steps, delay 0 steps, check yes
  max neighbors/atom: 2000, page size: 100000
  master list distance cutoff = 7.72488
  ghost atom cutoff = 7.72488
Memory usage per processor = 3.36043 Mbytes
Step Temp Press CPU Pxx Pyy Pzz Pxy Pxz Pyz KinEng PotEng TotEng Volume Lx Ly Lz Atoms 
      14            0   0.79016911            0   0.60117392    1.1681595   0.60117391 1.1463746e-11 -1.966409e-11 -1.9350301e-12            0   -860.16001   -860.16001    4251.5236         16.2    16.199984         16.2      256 
      15            0   0.79016911 0.0029449463   0.60117392    1.1681595   0.60117391 -5.648196e-12 -1.5061856e-11 -1.2494019e-11            0   -860.16001   -860.16001    4251.5236         16.2    16.199984         16.2      256 
Loop time of 0.00296187 on 1 procs for 1 steps with 256 atoms

135.0% CPU use with 1 MPI tasks x no OpenMP threads

Minimization stats:
  Stopping criterion = force tolerance
  Energy initial, next-to-last, final = 
        -860.160005862     -860.160005862     -860.160005862
  Force two-norm initial, final = 1.66326e-11 9.75327e-12
  Force max component initial, final = 1.12648e-12 7.81841e-13
  Final line search alpha, max atom move = 1 7.81841e-13
  Iterations, force evaluations = 1 2

MPI task timing breakdown:
Section |  min time  |  avg time  |  max time  |%varavg| %total
---------------------------------------------------------------
Pair    | 0.0028911  | 0.0028911  | 0.0028911  |   0.0 | 97.61
Neigh   | 0          | 0          | 0          |   0.0 |  0.00
Comm    | 2.7895e-05 | 2.7895e-05 | 2.7895e-05 |   0.0 |  0.94
Output  | 0          | 0          | 0          |   0.0 |  0.00
Modify  | 0          | 0          | 0          |   0.0 |  0.00
Other   |            | 4.292e-05  |            |       |  1.45

Nlocal:    256 ave 256 max 256 min
Histogram: 1 0 0 0 0 0 0 0 0 0
Nghost:    1431 ave 1431 max 1431 min
Histogram: 1 0 0 0 0 0 0 0 0 0
Neighs:    17152 ave 17152 max 17152 min
Histogram: 1 0 0 0 0 0 0 0 0 0

Total # of neighbors = 17152
Ave neighs/atom = 67
Neighbor list builds = 0
Dangerous builds = 0

# Obtain new stress tensor

variable tmp equal pxx
variable pxx1 equal ${tmp}
variable pxx1 equal 0.601173917773765
variable tmp equal pyy
variable pyy1 equal ${tmp}
variable pyy1 equal 1.16815948724294
variable tmp equal pzz
variable pzz1 equal ${tmp}
variable pzz1 equal 0.601173910325338
variable tmp equal pxy
variable pxy1 equal ${tmp}
variable pxy1 equal -5.64819597294122e-12
variable tmp equal pxz
variable pxz1 equal ${tmp}
variable pxz1 equal -1.50618559278433e-11
variable tmp equal pyz
variable pyz1 equal ${tmp}
variable pyz1 equal -1.24940186845894e-11

# Compute elastic constant from pressure tensor

variable C1neg equal ${d1}
variable C1neg equal 60.1173936319975
variable C2neg equal ${d2}
variable C2neg equal 116.815949905497
variable C3neg equal ${d3}
variable C3neg equal 60.117393630478
variable C4neg equal ${d4}
variable C4neg equal -1.57521877330304e-09
variable C5neg equal ${d5}
variable C5neg equal -2.57306598745843e-09
variable C6neg equal ${d6}
variable C6neg equal 4.89509263324988e-10

# Reset box and simulation parameters

clear
box tilt large
read_restart restart.equil
  triclinic box = (-6.72287e-11 -6.71366e-11 -5.67336e-10) to (16.2 16.2 16.2) with tilt (0 0 0)
  1 by 1 by 1 MPI processor grid
  256 atoms
include potential.mod
pair_style eam/alloy
pair_coeff * * /users/knc6/Software/jarvis/jarvis/lammps/examples/Al03.eam.alloy  Al
neighbor 1.0 nsq
neigh_modify once no every 1 delay 0 check yes
min_style  cg
min_modify           dmax ${dmax} line quadratic
min_modify           dmax 0.01 line quadratic
thermo          1
thermo_style custom step temp press cpu pxx pyy pzz pxy pxz pyz ke pe etotal vol lx ly lz atoms
thermo_modify norm no

# Positive deformation

variable delta equal ${up}*${len0}
variable delta equal 1e-06*${len0}
variable delta equal 1e-06*16.1999998701343
if "${dir} == 1" then    "change_box all x delta 0 ${delta} remap units box"
if "${dir} == 2" then    "change_box all y delta 0 ${delta} remap units box"
change_box all y delta 0 ${delta} remap units box
change_box all y delta 0 1.61999998701343e-05 remap units box
  triclinic box = (-6.72287e-11 -6.71366e-11 -5.67336e-10) to (16.2 16.2 16.2) with tilt (0 0 0)
if "${dir} == 3" then    "change_box all z delta 0 ${delta} remap units box"
if "${dir} == 4" then    "change_box all yz delta ${delta} remap units box"
if "${dir} == 5" then    "change_box all xz delta ${delta} remap units box"
if "${dir} == 6" then    "change_box all xy delta ${delta} remap units box"

# Relax atoms positions

minimize ${etol} ${ftol} ${maxiter} ${maxeval}
minimize 0 ${ftol} ${maxiter} ${maxeval}
minimize 0 1e-10 ${maxiter} ${maxeval}
minimize 0 1e-10 1000 ${maxeval}
minimize 0 1e-10 1000 10000
Neighbor list info ...
  1 neighbor list requests
  update every 1 steps, delay 0 steps, check yes
  max neighbors/atom: 2000, page size: 100000
  master list distance cutoff = 7.72488
  ghost atom cutoff = 7.72488
Memory usage per processor = 3.36043 Mbytes
Step Temp Press CPU Pxx Pyy Pzz Pxy Pxz Pyz KinEng PotEng TotEng Volume Lx Ly Lz Atoms 
      14            0  -0.79016374            0  -0.60117057   -1.1681501  -0.60117058 -4.1838405e-13 -7.8237817e-12 5.5697377e-12            0   -860.16001   -860.16001    4251.5321         16.2    16.200016         16.2      256 
      15            0  -0.79016374 0.0029361248  -0.60117057   -1.1681501  -0.60117058 8.158489e-12 -1.9873242e-11 3.3679916e-12            0   -860.16001   -860.16001    4251.5321         16.2    16.200016         16.2      256 
Loop time of 0.00295305 on 1 procs for 1 steps with 256 atoms

135.5% CPU use with 1 MPI tasks x no OpenMP threads

Minimization stats:
  Stopping criterion = force tolerance
  Energy initial, next-to-last, final = 
        -860.160005862     -860.160005862     -860.160005862
  Force two-norm initial, final = 1.65813e-11 9.76839e-12
  Force max component initial, final = 1.12676e-12 7.83148e-13
  Final line search alpha, max atom move = 1 7.83148e-13
  Iterations, force evaluations = 1 2

MPI task timing breakdown:
Section |  min time  |  avg time  |  max time  |%varavg| %total
---------------------------------------------------------------
Pair    | 0.002883   | 0.002883   | 0.002883   |   0.0 | 97.63
Neigh   | 0          | 0          | 0          |   0.0 |  0.00
Comm    | 2.5988e-05 | 2.5988e-05 | 2.5988e-05 |   0.0 |  0.88
Output  | 0          | 0          | 0          |   0.0 |  0.00
Modify  | 0          | 0          | 0          |   0.0 |  0.00
Other   |            | 4.411e-05  |            |       |  1.49

Nlocal:    256 ave 256 max 256 min
Histogram: 1 0 0 0 0 0 0 0 0 0
Nghost:    1431 ave 1431 max 1431 min
Histogram: 1 0 0 0 0 0 0 0 0 0
Neighs:    17152 ave 17152 max 17152 min
Histogram: 1 0 0 0 0 0 0 0 0 0

Total # of neighbors = 17152
Ave neighs/atom = 67
Neighbor list builds = 0
Dangerous builds = 0

# Obtain new stress tensor

variable tmp equal pe
variable e1 equal ${tmp}
variable e1 equal -860.16000586223
variable tmp equal press
variable p1 equal ${tmp}
variable p1 equal -0.790163737824098
variable tmp equal pxx
variable pxx1 equal ${tmp}
variable pxx1 equal -0.601170571592575
variable tmp equal pyy
variable pyy1 equal ${tmp}
variable pyy1 equal -1.16815006279085
variable tmp equal pzz
variable pzz1 equal ${tmp}
variable pzz1 equal -0.601170579088867
variable tmp equal pxy
variable pxy1 equal ${tmp}
variable pxy1 equal 8.15848897725416e-12
variable tmp equal pxz
variable pxz1 equal ${tmp}
variable pxz1 equal -1.98732423804909e-11
variable tmp equal pyz
variable pyz1 equal ${tmp}
variable pyz1 equal 3.36799160343056e-12

# Compute elastic constant from pressure tensor

variable C1pos equal ${d1}
variable C1pos equal 60.1170553046366
variable C2pos equal ${d2}
variable C2pos equal 116.815005097882
variable C3pos equal ${d3}
variable C3pos equal 60.1170553109425
variable C4pos equal ${d4}
variable C4pos equal -1.0982255498955e-11
variable C5pos equal ${d5}
variable C5pos equal 3.05420463272319e-09
variable C6pos equal ${d6}
variable C6pos equal -1.87017775834453e-09

# Combine positive and negative

variable C1${dir} equal 0.5*(${C1neg}+${C1pos})
variable C12 equal 0.5*(${C1neg}+${C1pos})
variable C12 equal 0.5*(60.1173936319975+${C1pos})
variable C12 equal 0.5*(60.1173936319975+60.1170553046366)
variable C2${dir} equal 0.5*(${C2neg}+${C2pos})
variable C22 equal 0.5*(${C2neg}+${C2pos})
variable C22 equal 0.5*(116.815949905497+${C2pos})
variable C22 equal 0.5*(116.815949905497+116.815005097882)
variable C3${dir} equal 0.5*(${C3neg}+${C3pos})
variable C32 equal 0.5*(${C3neg}+${C3pos})
variable C32 equal 0.5*(60.117393630478+${C3pos})
variable C32 equal 0.5*(60.117393630478+60.1170553109425)
variable C4${dir} equal 0.5*(${C4neg}+${C4pos})
variable C42 equal 0.5*(${C4neg}+${C4pos})
variable C42 equal 0.5*(-1.57521877330304e-09+${C4pos})
variable C42 equal 0.5*(-1.57521877330304e-09+-1.0982255498955e-11)
variable C5${dir} equal 0.5*(${C5neg}+${C5pos})
variable C52 equal 0.5*(${C5neg}+${C5pos})
variable C52 equal 0.5*(-2.57306598745843e-09+${C5pos})
variable C52 equal 0.5*(-2.57306598745843e-09+3.05420463272319e-09)
variable C6${dir} equal 0.5*(${C6neg}+${C6pos})
variable C62 equal 0.5*(${C6neg}+${C6pos})
variable C62 equal 0.5*(4.89509263324988e-10+${C6pos})
variable C62 equal 0.5*(4.89509263324988e-10+-1.87017775834453e-09)

# Delete dir to make sure it is not reused

variable dir delete

# uzz Perturbation

variable dir equal 3
include /users/knc6/displace.mod
# NOTE: This script should not need to be
# modified. See in.elastic for more info.
#
# Find which reference length to use

if "${dir} == 1" then    "variable len0 equal ${lx0}"
if "${dir} == 2" then    "variable len0 equal ${ly0}"
if "${dir} == 3" then    "variable len0 equal ${lz0}"
variable len0 equal ${lz0}
variable len0 equal 16.1999998701347
if "${dir} == 4" then    "variable len0 equal ${lz0}"
if "${dir} == 5" then    "variable len0 equal ${lz0}"
if "${dir} == 6" then    "variable len0 equal ${ly0}"

# Reset box and simulation parameters

clear
box tilt large
read_restart restart.equil
  triclinic box = (-6.72287e-11 -6.71366e-11 -5.67336e-10) to (16.2 16.2 16.2) with tilt (0 0 0)
  1 by 1 by 1 MPI processor grid
  256 atoms
include potential.mod
pair_style eam/alloy
pair_coeff * * /users/knc6/Software/jarvis/jarvis/lammps/examples/Al03.eam.alloy  Al
neighbor 1.0 nsq
neigh_modify once no every 1 delay 0 check yes
min_style  cg
min_modify           dmax ${dmax} line quadratic
min_modify           dmax 0.01 line quadratic
thermo          1
thermo_style custom step temp press cpu pxx pyy pzz pxy pxz pyz ke pe etotal vol lx ly lz atoms
thermo_modify norm no
# Negative deformation

variable delta equal -${up}*${len0}
variable delta equal -1e-06*${len0}
variable delta equal -1e-06*16.1999998701347
if "${dir} == 1" then    "change_box all x delta 0 ${delta} remap units box"
if "${dir} == 2" then    "change_box all y delta 0 ${delta} remap units box"
if "${dir} == 3" then    "change_box all z delta 0 ${delta} remap units box"
change_box all z delta 0 ${delta} remap units box
change_box all z delta 0 -1.61999998701347e-05 remap units box
  triclinic box = (-6.72287e-11 -6.71366e-11 -5.67336e-10) to (16.2 16.2 16.2) with tilt (0 0 0)
if "${dir} == 4" then    "change_box all yz delta ${delta} remap units box"
if "${dir} == 5" then    "change_box all xz delta ${delta} remap units box"
if "${dir} == 6" then    "change_box all xy delta ${delta} remap units box"

# Relax atoms positions

minimize ${etol} ${ftol} ${maxiter} ${maxeval}
minimize 0 ${ftol} ${maxiter} ${maxeval}
minimize 0 1e-10 ${maxiter} ${maxeval}
minimize 0 1e-10 1000 ${maxeval}
minimize 0 1e-10 1000 10000
Neighbor list info ...
  1 neighbor list requests
  update every 1 steps, delay 0 steps, check yes
  max neighbors/atom: 2000, page size: 100000
  master list distance cutoff = 7.72488
  ghost atom cutoff = 7.72488
Memory usage per processor = 3.36043 Mbytes
Step Temp Press CPU Pxx Pyy Pzz Pxy Pxz Pyz KinEng PotEng TotEng Volume Lx Ly Lz Atoms 
      14            0   0.79016911            0   0.60117392   0.60117392    1.1681595 -3.9328179e-12 -9.4973369e-12 -4.4662587e-12            0   -860.16001   -860.16001    4251.5236         16.2         16.2    16.199984      256 
      15            0   0.79016911 0.0029819012   0.60117392   0.60117392    1.1681595 1.0166753e-11 2.9286942e-13 -7.1020835e-12            0   -860.16001   -860.16001    4251.5236         16.2         16.2    16.199984      256 
Loop time of 0.00299883 on 1 procs for 1 steps with 256 atoms

133.4% CPU use with 1 MPI tasks x no OpenMP threads

Minimization stats:
  Stopping criterion = force tolerance
  Energy initial, next-to-last, final = 
        -860.160005862     -860.160005862     -860.160005862
  Force two-norm initial, final = 1.67908e-11 9.69754e-12
  Force max component initial, final = 1.09558e-12 7.78922e-13
  Final line search alpha, max atom move = 1 7.78922e-13
  Iterations, force evaluations = 1 2

MPI task timing breakdown:
Section |  min time  |  avg time  |  max time  |%varavg| %total
---------------------------------------------------------------
Pair    | 0.0029271  | 0.0029271  | 0.0029271  |   0.0 | 97.61
Neigh   | 0          | 0          | 0          |   0.0 |  0.00
Comm    | 2.9087e-05 | 2.9087e-05 | 2.9087e-05 |   0.0 |  0.97
Output  | 0          | 0          | 0          |   0.0 |  0.00
Modify  | 0          | 0          | 0          |   0.0 |  0.00
Other   |            | 4.268e-05  |            |       |  1.42

Nlocal:    256 ave 256 max 256 min
Histogram: 1 0 0 0 0 0 0 0 0 0
Nghost:    1431 ave 1431 max 1431 min
Histogram: 1 0 0 0 0 0 0 0 0 0
Neighs:    17152 ave 17152 max 17152 min
Histogram: 1 0 0 0 0 0 0 0 0 0

Total # of neighbors = 17152
Ave neighs/atom = 67
Neighbor list builds = 0
Dangerous builds = 0

# Obtain new stress tensor

variable tmp equal pxx
variable pxx1 equal ${tmp}
variable pxx1 equal 0.601173917866793
variable tmp equal pyy
variable pyy1 equal ${tmp}
variable pyy1 equal 0.60117392462316
variable tmp equal pzz
variable pzz1 equal ${tmp}
variable pzz1 equal 1.16815947316768
variable tmp equal pxy
variable pxy1 equal ${tmp}
variable pxy1 equal 1.01667527512942e-11
variable tmp equal pxz
variable pxz1 equal ${tmp}
variable pxz1 equal 2.92869420819174e-13
variable tmp equal pyz
variable pyz1 equal ${tmp}
variable pyz1 equal -7.10208345486498e-12

# Compute elastic constant from pressure tensor

variable C1neg equal ${d1}
variable C1neg equal 60.1173936413002
variable C2neg equal ${d2}
variable C2neg equal 60.1173936435189
variable C3neg equal ${d3}
variable C3neg equal 116.815949914712
variable C4neg equal ${d4}
variable C4neg equal -1.0360252503306e-09
variable C5neg equal ${d5}
variable C5neg equal -1.03759345259218e-09
variable C6neg equal ${d6}
variable C6neg equal 2.07100413574853e-09

# Reset box and simulation parameters

clear
box tilt large
read_restart restart.equil
  triclinic box = (-6.72287e-11 -6.71366e-11 -5.67336e-10) to (16.2 16.2 16.2) with tilt (0 0 0)
  1 by 1 by 1 MPI processor grid
  256 atoms
include potential.mod
pair_style eam/alloy
pair_coeff * * /users/knc6/Software/jarvis/jarvis/lammps/examples/Al03.eam.alloy  Al
neighbor 1.0 nsq
neigh_modify once no every 1 delay 0 check yes
min_style  cg
min_modify           dmax ${dmax} line quadratic
min_modify           dmax 0.01 line quadratic
thermo          1
thermo_style custom step temp press cpu pxx pyy pzz pxy pxz pyz ke pe etotal vol lx ly lz atoms
thermo_modify norm no

# Positive deformation

variable delta equal ${up}*${len0}
variable delta equal 1e-06*${len0}
variable delta equal 1e-06*16.1999998701347
if "${dir} == 1" then    "change_box all x delta 0 ${delta} remap units box"
if "${dir} == 2" then    "change_box all y delta 0 ${delta} remap units box"
if "${dir} == 3" then    "change_box all z delta 0 ${delta} remap units box"
change_box all z delta 0 ${delta} remap units box
change_box all z delta 0 1.61999998701347e-05 remap units box
  triclinic box = (-6.72287e-11 -6.71366e-11 -5.67336e-10) to (16.2 16.2 16.2) with tilt (0 0 0)
if "${dir} == 4" then    "change_box all yz delta ${delta} remap units box"
if "${dir} == 5" then    "change_box all xz delta ${delta} remap units box"
if "${dir} == 6" then    "change_box all xy delta ${delta} remap units box"

# Relax atoms positions

minimize ${etol} ${ftol} ${maxiter} ${maxeval}
minimize 0 ${ftol} ${maxiter} ${maxeval}
minimize 0 1e-10 ${maxiter} ${maxeval}
minimize 0 1e-10 1000 ${maxeval}
minimize 0 1e-10 1000 10000
Neighbor list info ...
  1 neighbor list requests
  update every 1 steps, delay 0 steps, check yes
  max neighbors/atom: 2000, page size: 100000
  master list distance cutoff = 7.72488
  ghost atom cutoff = 7.72488
Memory usage per processor = 3.36043 Mbytes
Step Temp Press CPU Pxx Pyy Pzz Pxy Pxz Pyz KinEng PotEng TotEng Volume Lx Ly Lz Atoms 
      14            0  -0.79016374            0  -0.60117057  -0.60117056   -1.1681501 1.0334086e-11 -9.70651e-12 5.9933515e-12            0   -860.16001   -860.16001    4251.5321         16.2         16.2    16.200016      256 
      15            0  -0.79016374 0.0029809475  -0.60117057  -0.60117056   -1.1681501 1.0877985e-11 4.3930325e-12 -2.3570711e-11            0   -860.16001   -860.16001    4251.5321         16.2         16.2    16.200016      256 
Loop time of 0.00299788 on 1 procs for 1 steps with 256 atoms

133.4% CPU use with 1 MPI tasks x no OpenMP threads

Minimization stats:
  Stopping criterion = force tolerance
  Energy initial, next-to-last, final = 
        -860.160005862     -860.160005862     -860.160005862
  Force two-norm initial, final = 1.67872e-11 9.69381e-12
  Force max component initial, final = 1.09576e-12 7.80324e-13
  Final line search alpha, max atom move = 1 7.80324e-13
  Iterations, force evaluations = 1 2

MPI task timing breakdown:
Section |  min time  |  avg time  |  max time  |%varavg| %total
---------------------------------------------------------------
Pair    | 0.0029278  | 0.0029278  | 0.0029278  |   0.0 | 97.66
Neigh   | 0          | 0          | 0          |   0.0 |  0.00
Comm    | 2.9087e-05 | 2.9087e-05 | 2.9087e-05 |   0.0 |  0.97
Output  | 0          | 0          | 0          |   0.0 |  0.00
Modify  | 0          | 0          | 0          |   0.0 |  0.00
Other   |            | 4.101e-05  |            |       |  1.37

Nlocal:    256 ave 256 max 256 min
Histogram: 1 0 0 0 0 0 0 0 0 0
Nghost:    1431 ave 1431 max 1431 min
Histogram: 1 0 0 0 0 0 0 0 0 0
Neighs:    17152 ave 17152 max 17152 min
Histogram: 1 0 0 0 0 0 0 0 0 0

Total # of neighbors = 17152
Ave neighs/atom = 67
Neighbor list builds = 0
Dangerous builds = 0

# Obtain new stress tensor

variable tmp equal pe
variable e1 equal ${tmp}
variable e1 equal -860.160005862164
variable tmp equal press
variable p1 equal ${tmp}
variable p1 equal -0.790163737842691
variable tmp equal pxx
variable pxx1 equal ${tmp}
variable pxx1 equal -0.601170571648325
variable tmp equal pyy
variable pyy1 equal ${tmp}
variable pyy1 equal -0.601170564868155
variable tmp equal pzz
variable pzz1 equal ${tmp}
variable pzz1 equal -1.16815007701159
variable tmp equal pxy
variable pxy1 equal ${tmp}
variable pxy1 equal 1.08779853030055e-11
variable tmp equal pxz
variable pxz1 equal ${tmp}
variable pxz1 equal 4.39303252621378e-12
variable tmp equal pyz
variable pyz1 equal ${tmp}
variable pyz1 equal -2.35707114233875e-11

# Compute elastic constant from pressure tensor

variable C1pos equal ${d1}
variable C1pos equal 60.1170553102115
variable C2pos equal ${d2}
variable C2pos equal 60.1170553056126
variable C3pos equal ${d3}
variable C3pos equal 116.815005103215
variable C4pos equal ${d4}
variable C4pos equal 2.68288804718285e-09
variable C5pos equal ${d5}
variable C5pos equal 6.27577142052722e-10
variable C6pos equal ${d6}
variable C6pos equal -2.14212739091966e-09

# Combine positive and negative

variable C1${dir} equal 0.5*(${C1neg}+${C1pos})
variable C13 equal 0.5*(${C1neg}+${C1pos})
variable C13 equal 0.5*(60.1173936413002+${C1pos})
variable C13 equal 0.5*(60.1173936413002+60.1170553102115)
variable C2${dir} equal 0.5*(${C2neg}+${C2pos})
variable C23 equal 0.5*(${C2neg}+${C2pos})
variable C23 equal 0.5*(60.1173936435189+${C2pos})
variable C23 equal 0.5*(60.1173936435189+60.1170553056126)
variable C3${dir} equal 0.5*(${C3neg}+${C3pos})
variable C33 equal 0.5*(${C3neg}+${C3pos})
variable C33 equal 0.5*(116.815949914712+${C3pos})
variable C33 equal 0.5*(116.815949914712+116.815005103215)
variable C4${dir} equal 0.5*(${C4neg}+${C4pos})
variable C43 equal 0.5*(${C4neg}+${C4pos})
variable C43 equal 0.5*(-1.0360252503306e-09+${C4pos})
variable C43 equal 0.5*(-1.0360252503306e-09+2.68288804718285e-09)
variable C5${dir} equal 0.5*(${C5neg}+${C5pos})
variable C53 equal 0.5*(${C5neg}+${C5pos})
variable C53 equal 0.5*(-1.03759345259218e-09+${C5pos})
variable C53 equal 0.5*(-1.03759345259218e-09+6.27577142052722e-10)
variable C6${dir} equal 0.5*(${C6neg}+${C6pos})
variable C63 equal 0.5*(${C6neg}+${C6pos})
variable C63 equal 0.5*(2.07100413574853e-09+${C6pos})
variable C63 equal 0.5*(2.07100413574853e-09+-2.14212739091966e-09)

# Delete dir to make sure it is not reused

variable dir delete

# uyz Perturbation

variable dir equal 4
include /users/knc6/displace.mod
# NOTE: This script should not need to be
# modified. See in.elastic for more info.
#
# Find which reference length to use

if "${dir} == 1" then    "variable len0 equal ${lx0}"
if "${dir} == 2" then    "variable len0 equal ${ly0}"
if "${dir} == 3" then    "variable len0 equal ${lz0}"
if "${dir} == 4" then    "variable len0 equal ${lz0}"
variable len0 equal ${lz0}
variable len0 equal 16.1999998701347
if "${dir} == 5" then    "variable len0 equal ${lz0}"
if "${dir} == 6" then    "variable len0 equal ${ly0}"

# Reset box and simulation parameters

clear
box tilt large
read_restart restart.equil
  triclinic box = (-6.72287e-11 -6.71366e-11 -5.67336e-10) to (16.2 16.2 16.2) with tilt (0 0 0)
  1 by 1 by 1 MPI processor grid
  256 atoms
include potential.mod
pair_style eam/alloy
pair_coeff * * /users/knc6/Software/jarvis/jarvis/lammps/examples/Al03.eam.alloy  Al
neighbor 1.0 nsq
neigh_modify once no every 1 delay 0 check yes
min_style  cg
min_modify           dmax ${dmax} line quadratic
min_modify           dmax 0.01 line quadratic
thermo          1
thermo_style custom step temp press cpu pxx pyy pzz pxy pxz pyz ke pe etotal vol lx ly lz atoms
thermo_modify norm no
# Negative deformation

variable delta equal -${up}*${len0}
variable delta equal -1e-06*${len0}
variable delta equal -1e-06*16.1999998701347
if "${dir} == 1" then    "change_box all x delta 0 ${delta} remap units box"
if "${dir} == 2" then    "change_box all y delta 0 ${delta} remap units box"
if "${dir} == 3" then    "change_box all z delta 0 ${delta} remap units box"
if "${dir} == 4" then    "change_box all yz delta ${delta} remap units box"
change_box all yz delta ${delta} remap units box
change_box all yz delta -1.61999998701347e-05 remap units box
  triclinic box = (-6.72287e-11 -6.71366e-11 -5.67336e-10) to (16.2 16.2 16.2) with tilt (0 0 -1.62e-05)
if "${dir} == 5" then    "change_box all xz delta ${delta} remap units box"
if "${dir} == 6" then    "change_box all xy delta ${delta} remap units box"

# Relax atoms positions

minimize ${etol} ${ftol} ${maxiter} ${maxeval}
minimize 0 ${ftol} ${maxiter} ${maxeval}
minimize 0 1e-10 ${maxiter} ${maxeval}
minimize 0 1e-10 1000 ${maxeval}
minimize 0 1e-10 1000 10000
Neighbor list info ...
  1 neighbor list requests
  update every 1 steps, delay 0 steps, check yes
  max neighbors/atom: 2000, page size: 100000
  master list distance cutoff = 7.72488
  ghost atom cutoff = 7.72488
Memory usage per processor = 3.36043 Mbytes
Step Temp Press CPU Pxx Pyy Pzz Pxy Pxz Pyz KinEng PotEng TotEng Volume Lx Ly Lz Atoms 
      14            0 6.8593974e-07            0 5.0345835e-08 8.3597973e-07 1.1714937e-06 -7.1962129e-12 -8.4095278e-12   0.31659621            0   -860.16001   -860.16001    4251.5279         16.2         16.2         16.2      256 
      15            0 6.8585604e-07 0.0030009747 5.0280881e-08 8.3589704e-07 1.1713902e-06 2.3847915e-12 -4.685906e-12   0.31659621            0   -860.16001   -860.16001    4251.5279         16.2         16.2         16.2      256 
Loop time of 0.00301695 on 1 procs for 1 steps with 256 atoms

0.0% CPU use with 1 MPI tasks x no OpenMP threads

Minimization stats:
  Stopping criterion = force tolerance
  Energy initial, next-to-last, final = 
        -860.160005863     -860.160005863     -860.160005863
  Force two-norm initial, final = 1.6769e-11 9.74133e-12
  Force max component initial, final = 1.1287e-12 7.80967e-13
  Final line search alpha, max atom move = 1 7.80967e-13
  Iterations, force evaluations = 1 2

MPI task timing breakdown:
Section |  min time  |  avg time  |  max time  |%varavg| %total
---------------------------------------------------------------
Pair    | 0.0029461  | 0.0029461  | 0.0029461  |   0.0 | 97.65
Neigh   | 0          | 0          | 0          |   0.0 |  0.00
Comm    | 2.7657e-05 | 2.7657e-05 | 2.7657e-05 |   0.0 |  0.92
Output  | 0          | 0          | 0          |   0.0 |  0.00
Modify  | 0          | 0          | 0          |   0.0 |  0.00
Other   |            | 4.315e-05  |            |       |  1.43

Nlocal:    256 ave 256 max 256 min
Histogram: 1 0 0 0 0 0 0 0 0 0
Nghost:    1431 ave 1431 max 1431 min
Histogram: 1 0 0 0 0 0 0 0 0 0
Neighs:    17152 ave 17152 max 17152 min
Histogram: 1 0 0 0 0 0 0 0 0 0

Total # of neighbors = 17152
Ave neighs/atom = 67
Neighbor list builds = 0
Dangerous builds = 0

# Obtain new stress tensor

variable tmp equal pxx
variable pxx1 equal ${tmp}
variable pxx1 equal 5.02808806052552e-08
variable tmp equal pyy
variable pyy1 equal ${tmp}
variable pyy1 equal 8.35897044686166e-07
variable tmp equal pzz
variable pzz1 equal ${tmp}
variable pzz1 equal 1.17139019385336e-06
variable tmp equal pxy
variable pxy1 equal ${tmp}
variable pxy1 equal 2.38479147044799e-12
variable tmp equal pxz
variable pxz1 equal ${tmp}
variable pxz1 equal -4.68590604719606e-12
variable tmp equal pyz
variable pyz1 equal ${tmp}
variable pyz1 equal 0.316596214465832

# Compute elastic constant from pressure tensor

variable C1neg equal ${d1}
variable C1neg equal 6.88270900825779e-06
variable C2neg equal ${d2}
variable C2neg equal 8.4770907373347e-05
variable C3neg equal ${d3}
variable C3neg equal 0.000119736963622009
variable C4neg equal ${d4}
variable C4neg equal 31.6596214462574
variable C5neg equal ${d5}
variable C5neg equal -1.53547099939371e-09
variable C6neg equal ${d6}
variable C6neg equal 1.29280800766391e-09

# Reset box and simulation parameters

clear
box tilt large
read_restart restart.equil
  triclinic box = (-6.72287e-11 -6.71366e-11 -5.67336e-10) to (16.2 16.2 16.2) with tilt (0 0 0)
  1 by 1 by 1 MPI processor grid
  256 atoms
include potential.mod
pair_style eam/alloy
pair_coeff * * /users/knc6/Software/jarvis/jarvis/lammps/examples/Al03.eam.alloy  Al
neighbor 1.0 nsq
neigh_modify once no every 1 delay 0 check yes
min_style  cg
min_modify           dmax ${dmax} line quadratic
min_modify           dmax 0.01 line quadratic
thermo          1
thermo_style custom step temp press cpu pxx pyy pzz pxy pxz pyz ke pe etotal vol lx ly lz atoms
thermo_modify norm no

# Positive deformation

variable delta equal ${up}*${len0}
variable delta equal 1e-06*${len0}
variable delta equal 1e-06*16.1999998701347
if "${dir} == 1" then    "change_box all x delta 0 ${delta} remap units box"
if "${dir} == 2" then    "change_box all y delta 0 ${delta} remap units box"
if "${dir} == 3" then    "change_box all z delta 0 ${delta} remap units box"
if "${dir} == 4" then    "change_box all yz delta ${delta} remap units box"
change_box all yz delta ${delta} remap units box
change_box all yz delta 1.61999998701347e-05 remap units box
  triclinic box = (-6.72287e-11 -6.71366e-11 -5.67336e-10) to (16.2 16.2 16.2) with tilt (0 0 1.62e-05)
if "${dir} == 5" then    "change_box all xz delta ${delta} remap units box"
if "${dir} == 6" then    "change_box all xy delta ${delta} remap units box"

# Relax atoms positions

minimize ${etol} ${ftol} ${maxiter} ${maxeval}
minimize 0 ${ftol} ${maxiter} ${maxeval}
minimize 0 1e-10 ${maxiter} ${maxeval}
minimize 0 1e-10 1000 ${maxeval}
minimize 0 1e-10 1000 10000
Neighbor list info ...
  1 neighbor list requests
  update every 1 steps, delay 0 steps, check yes
  max neighbors/atom: 2000, page size: 100000
  master list distance cutoff = 7.72488
  ghost atom cutoff = 7.72488
Memory usage per processor = 3.36043 Mbytes
Step Temp Press CPU Pxx Pyy Pzz Pxy Pxz Pyz KinEng PotEng TotEng Volume Lx Ly Lz Atoms 
      14            0 6.859415e-07            0 5.0350332e-08 8.3597606e-07 1.1714981e-06 1.6065964e-11 1.1714765e-12  -0.31659621            0   -860.16001   -860.16001    4251.5279         16.2         16.2         16.2      256 
      15            0 6.8587838e-07 0.0030069351 5.0310983e-08 8.3592262e-07 1.1714015e-06 2.719499e-12 -6.6941515e-13  -0.31659621            0   -860.16001   -860.16001    4251.5279         16.2         16.2         16.2      256 
Loop time of 0.00302386 on 1 procs for 1 steps with 256 atoms

132.3% CPU use with 1 MPI tasks x no OpenMP threads

Minimization stats:
  Stopping criterion = force tolerance
  Energy initial, next-to-last, final = 
        -860.160005863     -860.160005863     -860.160005863
  Force two-norm initial, final = 1.6774e-11 9.73273e-12
  Force max component initial, final = 1.12256e-12 7.7887e-13
  Final line search alpha, max atom move = 1 7.7887e-13
  Iterations, force evaluations = 1 2

MPI task timing breakdown:
Section |  min time  |  avg time  |  max time  |%varavg| %total
---------------------------------------------------------------
Pair    | 0.0029521  | 0.0029521  | 0.0029521  |   0.0 | 97.63
Neigh   | 0          | 0          | 0          |   0.0 |  0.00
Comm    | 2.8133e-05 | 2.8133e-05 | 2.8133e-05 |   0.0 |  0.93
Output  | 0          | 0          | 0          |   0.0 |  0.00
Modify  | 0          | 0          | 0          |   0.0 |  0.00
Other   |            | 4.363e-05  |            |       |  1.44

Nlocal:    256 ave 256 max 256 min
Histogram: 1 0 0 0 0 0 0 0 0 0
Nghost:    1431 ave 1431 max 1431 min
Histogram: 1 0 0 0 0 0 0 0 0 0
Neighs:    17152 ave 17152 max 17152 min
Histogram: 1 0 0 0 0 0 0 0 0 0

Total # of neighbors = 17152
Ave neighs/atom = 67
Neighbor list builds = 0
Dangerous builds = 0

# Obtain new stress tensor

variable tmp equal pe
variable e1 equal ${tmp}
variable e1 equal -860.160005863265
variable tmp equal press
variable p1 equal ${tmp}
variable p1 equal 6.85878377959007e-07
variable tmp equal pxx
variable pxx1 equal ${tmp}
variable pxx1 equal 5.03109833677638e-08
variable tmp equal pyy
variable pyy1 equal ${tmp}
variable pyy1 equal 8.35922623666609e-07
variable tmp equal pzz
variable pzz1 equal ${tmp}
variable pzz1 equal 1.17140152684265e-06
variable tmp equal pxy
variable pxy1 equal ${tmp}
variable pxy1 equal 2.71949904524771e-12
variable tmp equal pxz
variable pxz1 equal ${tmp}
variable pxz1 equal -6.69415149599437e-13
variable tmp equal pyz
variable pyz1 equal ${tmp}
variable pyz1 equal -0.31659621445691

# Compute elastic constant from pressure tensor

variable C1pos equal ${d1}
variable C1pos equal -6.88571928450865e-06
variable C2pos equal ${d2}
variable C2pos equal -8.47734652713913e-05
variable C3pos equal ${d3}
variable C3pos equal -0.000119738096920938
variable C4pos equal ${d4}
variable C4pos equal 31.6596214460168
variable C5pos equal ${d5}
variable C5pos equal 1.13382190963404e-09
variable C6pos equal ${d6}
variable C6pos equal -1.32627876514388e-09

# Combine positive and negative

variable C1${dir} equal 0.5*(${C1neg}+${C1pos})
variable C14 equal 0.5*(${C1neg}+${C1pos})
variable C14 equal 0.5*(6.88270900825779e-06+${C1pos})
variable C14 equal 0.5*(6.88270900825779e-06+-6.88571928450865e-06)
variable C2${dir} equal 0.5*(${C2neg}+${C2pos})
variable C24 equal 0.5*(${C2neg}+${C2pos})
variable C24 equal 0.5*(8.4770907373347e-05+${C2pos})
variable C24 equal 0.5*(8.4770907373347e-05+-8.47734652713913e-05)
variable C3${dir} equal 0.5*(${C3neg}+${C3pos})
variable C34 equal 0.5*(${C3neg}+${C3pos})
variable C34 equal 0.5*(0.000119736963622009+${C3pos})
variable C34 equal 0.5*(0.000119736963622009+-0.000119738096920938)
variable C4${dir} equal 0.5*(${C4neg}+${C4pos})
variable C44 equal 0.5*(${C4neg}+${C4pos})
variable C44 equal 0.5*(31.6596214462574+${C4pos})
variable C44 equal 0.5*(31.6596214462574+31.6596214460168)
variable C5${dir} equal 0.5*(${C5neg}+${C5pos})
variable C54 equal 0.5*(${C5neg}+${C5pos})
variable C54 equal 0.5*(-1.53547099939371e-09+${C5pos})
variable C54 equal 0.5*(-1.53547099939371e-09+1.13382190963404e-09)
variable C6${dir} equal 0.5*(${C6neg}+${C6pos})
variable C64 equal 0.5*(${C6neg}+${C6pos})
variable C64 equal 0.5*(1.29280800766391e-09+${C6pos})
variable C64 equal 0.5*(1.29280800766391e-09+-1.32627876514388e-09)

# Delete dir to make sure it is not reused

variable dir delete

# uxz Perturbation

variable dir equal 5
include /users/knc6/displace.mod
# NOTE: This script should not need to be
# modified. See in.elastic for more info.
#
# Find which reference length to use

if "${dir} == 1" then    "variable len0 equal ${lx0}"
if "${dir} == 2" then    "variable len0 equal ${ly0}"
if "${dir} == 3" then    "variable len0 equal ${lz0}"
if "${dir} == 4" then    "variable len0 equal ${lz0}"
if "${dir} == 5" then    "variable len0 equal ${lz0}"
variable len0 equal ${lz0}
variable len0 equal 16.1999998701347
if "${dir} == 6" then    "variable len0 equal ${ly0}"

# Reset box and simulation parameters

clear
box tilt large
read_restart restart.equil
  triclinic box = (-6.72287e-11 -6.71366e-11 -5.67336e-10) to (16.2 16.2 16.2) with tilt (0 0 0)
  1 by 1 by 1 MPI processor grid
  256 atoms
include potential.mod
pair_style eam/alloy
pair_coeff * * /users/knc6/Software/jarvis/jarvis/lammps/examples/Al03.eam.alloy  Al
neighbor 1.0 nsq
neigh_modify once no every 1 delay 0 check yes
min_style  cg
min_modify           dmax ${dmax} line quadratic
min_modify           dmax 0.01 line quadratic
thermo          1
thermo_style custom step temp press cpu pxx pyy pzz pxy pxz pyz ke pe etotal vol lx ly lz atoms
thermo_modify norm no
# Negative deformation

variable delta equal -${up}*${len0}
variable delta equal -1e-06*${len0}
variable delta equal -1e-06*16.1999998701347
if "${dir} == 1" then    "change_box all x delta 0 ${delta} remap units box"
if "${dir} == 2" then    "change_box all y delta 0 ${delta} remap units box"
if "${dir} == 3" then    "change_box all z delta 0 ${delta} remap units box"
if "${dir} == 4" then    "change_box all yz delta ${delta} remap units box"
if "${dir} == 5" then    "change_box all xz delta ${delta} remap units box"
change_box all xz delta ${delta} remap units box
change_box all xz delta -1.61999998701347e-05 remap units box
  triclinic box = (-6.72287e-11 -6.71366e-11 -5.67336e-10) to (16.2 16.2 16.2) with tilt (0 -1.62e-05 0)
if "${dir} == 6" then    "change_box all xy delta ${delta} remap units box"

# Relax atoms positions

minimize ${etol} ${ftol} ${maxiter} ${maxeval}
minimize 0 ${ftol} ${maxiter} ${maxeval}
minimize 0 1e-10 ${maxiter} ${maxeval}
minimize 0 1e-10 1000 ${maxeval}
minimize 0 1e-10 1000 10000
Neighbor list info ...
  1 neighbor list requests
  update every 1 steps, delay 0 steps, check yes
  max neighbors/atom: 2000, page size: 100000
  master list distance cutoff = 7.72488
  ghost atom cutoff = 7.72488
Memory usage per processor = 3.36043 Mbytes
Step Temp Press CPU Pxx Pyy Pzz Pxy Pxz Pyz KinEng PotEng TotEng Volume Lx Ly Lz Atoms 
      14            0 6.8594027e-07            0 8.2922555e-07 5.707227e-08 1.171523e-06 -5.146129e-12   0.31659621 -9.2515266e-12            0   -860.16001   -860.16001    4251.5279         16.2         16.2         16.2      256 
      15            0 6.858872e-07 0.0029709339 8.2921457e-07 5.703699e-08  1.17141e-06 5.6481903e-12   0.31659621 -1.3346465e-11            0   -860.16001   -860.16001    4251.5279         16.2         16.2         16.2      256 
Loop time of 0.00298905 on 1 procs for 1 steps with 256 atoms

0.0% CPU use with 1 MPI tasks x no OpenMP threads

Minimization stats:
  Stopping criterion = force tolerance
  Energy initial, next-to-last, final = 
        -860.160005863     -860.160005863     -860.160005863
  Force two-norm initial, final = 1.67166e-11 9.7401e-12
  Force max component initial, final = 1.13017e-12 7.85566e-13
  Final line search alpha, max atom move = 1 7.85566e-13
  Iterations, force evaluations = 1 2

MPI task timing breakdown:
Section |  min time  |  avg time  |  max time  |%varavg| %total
---------------------------------------------------------------
Pair    | 0.0029171  | 0.0029171  | 0.0029171  |   0.0 | 97.59
Neigh   | 0          | 0          | 0          |   0.0 |  0.00
Comm    | 2.8849e-05 | 2.8849e-05 | 2.8849e-05 |   0.0 |  0.97
Output  | 0          | 0          | 0          |   0.0 |  0.00
Modify  | 0          | 0          | 0          |   0.0 |  0.00
Other   |            | 4.315e-05  |            |       |  1.44

Nlocal:    256 ave 256 max 256 min
Histogram: 1 0 0 0 0 0 0 0 0 0
Nghost:    1431 ave 1431 max 1431 min
Histogram: 1 0 0 0 0 0 0 0 0 0
Neighs:    17152 ave 17152 max 17152 min
Histogram: 1 0 0 0 0 0 0 0 0 0

Total # of neighbors = 17152
Ave neighs/atom = 67
Neighbor list builds = 0
Dangerous builds = 0

# Obtain new stress tensor

variable tmp equal pxx
variable pxx1 equal ${tmp}
variable pxx1 equal 8.29214566116843e-07
variable tmp equal pyy
variable pyy1 equal ${tmp}
variable pyy1 equal 5.70369896112286e-08
variable tmp equal pzz
variable pzz1 equal ${tmp}
variable pzz1 equal 1.17141004096658e-06
variable tmp equal pxy
variable pxy1 equal ${tmp}
variable pxy1 equal 5.64819032474525e-12
variable tmp equal pxz
variable pxz1 equal ${tmp}
variable pxz1 equal 0.316596214436477
variable tmp equal pyz
variable pyz1 equal ${tmp}
variable pyz1 equal -1.33464645451388e-11

# Compute elastic constant from pressure tensor

variable C1neg equal ${d1}
variable C1neg equal 8.47760775594166e-05
variable C2neg equal ${d2}
variable C2neg equal 6.88490186585332e-06
variable C3neg equal ${d3}
variable C3neg equal 0.000119738948333331
variable C4neg equal ${d4}
variable C4neg equal -1.66046335935798e-09
variable C5neg equal ${d5}
variable C5neg equal 31.6596214425808
variable C6neg equal ${d6}
variable C6neg equal 1.61914789309363e-09

# Reset box and simulation parameters

clear
box tilt large
read_restart restart.equil
  triclinic box = (-6.72287e-11 -6.71366e-11 -5.67336e-10) to (16.2 16.2 16.2) with tilt (0 0 0)
  1 by 1 by 1 MPI processor grid
  256 atoms
include potential.mod
pair_style eam/alloy
pair_coeff * * /users/knc6/Software/jarvis/jarvis/lammps/examples/Al03.eam.alloy  Al
neighbor 1.0 nsq
neigh_modify once no every 1 delay 0 check yes
min_style  cg
min_modify           dmax ${dmax} line quadratic
min_modify           dmax 0.01 line quadratic
thermo          1
thermo_style custom step temp press cpu pxx pyy pzz pxy pxz pyz ke pe etotal vol lx ly lz atoms
thermo_modify norm no

# Positive deformation

variable delta equal ${up}*${len0}
variable delta equal 1e-06*${len0}
variable delta equal 1e-06*16.1999998701347
if "${dir} == 1" then    "change_box all x delta 0 ${delta} remap units box"
if "${dir} == 2" then    "change_box all y delta 0 ${delta} remap units box"
if "${dir} == 3" then    "change_box all z delta 0 ${delta} remap units box"
if "${dir} == 4" then    "change_box all yz delta ${delta} remap units box"
if "${dir} == 5" then    "change_box all xz delta ${delta} remap units box"
change_box all xz delta ${delta} remap units box
change_box all xz delta 1.61999998701347e-05 remap units box
  triclinic box = (-6.72287e-11 -6.71366e-11 -5.67336e-10) to (16.2 16.2 16.2) with tilt (0 1.62e-05 0)
if "${dir} == 6" then    "change_box all xy delta ${delta} remap units box"

# Relax atoms positions

minimize ${etol} ${ftol} ${maxiter} ${maxeval}
minimize 0 ${ftol} ${maxiter} ${maxeval}
minimize 0 1e-10 ${maxiter} ${maxeval}
minimize 0 1e-10 1000 ${maxeval}
minimize 0 1e-10 1000 10000
Neighbor list info ...
  1 neighbor list requests
  update every 1 steps, delay 0 steps, check yes
  max neighbors/atom: 2000, page size: 100000
  master list distance cutoff = 7.72488
  ghost atom cutoff = 7.72488
Memory usage per processor = 3.36043 Mbytes
Step Temp Press CPU Pxx Pyy Pzz Pxy Pxz Pyz KinEng PotEng TotEng Volume Lx Ly Lz Atoms 
      14            0 6.8593719e-07            0 8.2922729e-07 5.7081992e-08 1.1715023e-06 -6.652313e-12  -0.31659621 -1.0344556e-11            0   -860.16001   -860.16001    4251.5279         16.2         16.2         16.2      256 
      15            0 6.8588741e-07 0.0029640198 8.2921994e-07 5.7036796e-08 1.1714055e-06 -4.0164909e-12  -0.31659621 -2.1191173e-11            0   -860.16001   -860.16001    4251.5279         16.2         16.2         16.2      256 
Loop time of 0.00297999 on 1 procs for 1 steps with 256 atoms

134.2% CPU use with 1 MPI tasks x no OpenMP threads

Minimization stats:
  Stopping criterion = force tolerance
  Energy initial, next-to-last, final = 
        -860.160005863     -860.160005863     -860.160005863
  Force two-norm initial, final = 1.67186e-11 9.74038e-12
  Force max component initial, final = 1.12621e-12 7.81781e-13
  Final line search alpha, max atom move = 1 7.81781e-13
  Iterations, force evaluations = 1 2

MPI task timing breakdown:
Section |  min time  |  avg time  |  max time  |%varavg| %total
---------------------------------------------------------------
Pair    | 0.0029089  | 0.0029089  | 0.0029089  |   0.0 | 97.62
Neigh   | 0          | 0          | 0          |   0.0 |  0.00
Comm    | 2.7895e-05 | 2.7895e-05 | 2.7895e-05 |   0.0 |  0.94
Output  | 0          | 0          | 0          |   0.0 |  0.00
Modify  | 0          | 0          | 0          |   0.0 |  0.00
Other   |            | 4.315e-05  |            |       |  1.45

Nlocal:    256 ave 256 max 256 min
Histogram: 1 0 0 0 0 0 0 0 0 0
Nghost:    1431 ave 1431 max 1431 min
Histogram: 1 0 0 0 0 0 0 0 0 0
Neighs:    17152 ave 17152 max 17152 min
Histogram: 1 0 0 0 0 0 0 0 0 0

Total # of neighbors = 17152
Ave neighs/atom = 67
Neighbor list builds = 0
Dangerous builds = 0

# Obtain new stress tensor

variable tmp equal pe
variable e1 equal ${tmp}
variable e1 equal -860.160005863261
variable tmp equal press
variable p1 equal ${tmp}
variable p1 equal 6.85887409833721e-07
variable tmp equal pxx
variable pxx1 equal ${tmp}
variable pxx1 equal 8.29219942357263e-07
variable tmp equal pyy
variable pyy1 equal ${tmp}
variable pyy1 equal 5.70367961084119e-08
variable tmp equal pzz
variable pzz1 equal ${tmp}
variable pzz1 equal 1.17140549103549e-06
variable tmp equal pxy
variable pxy1 equal ${tmp}
variable pxy1 equal -4.01649089759662e-12
variable tmp equal pxz
variable pxz1 equal ${tmp}
variable pxz1 equal -0.316596214453128
variable tmp equal pyz
variable pyz1 equal ${tmp}
variable pyz1 equal -2.11911733295072e-11

# Compute elastic constant from pressure tensor

variable C1pos equal ${d1}
variable C1pos equal -8.47766151834586e-05
variable C2pos equal ${d2}
variable C2pos equal -6.88488251557165e-06
variable C3pos equal ${d3}
variable C3pos equal -0.000119738493340222
variable C4pos equal ${d4}
variable C4pos equal 2.44493423779482e-09
variable C5pos equal ${d5}
variable C5pos equal 31.6596214463797
variable C6pos equal ${d6}
variable C6pos equal -6.52679770859448e-10

# Combine positive and negative

variable C1${dir} equal 0.5*(${C1neg}+${C1pos})
variable C15 equal 0.5*(${C1neg}+${C1pos})
variable C15 equal 0.5*(8.47760775594166e-05+${C1pos})
variable C15 equal 0.5*(8.47760775594166e-05+-8.47766151834586e-05)
variable C2${dir} equal 0.5*(${C2neg}+${C2pos})
variable C25 equal 0.5*(${C2neg}+${C2pos})
variable C25 equal 0.5*(6.88490186585332e-06+${C2pos})
variable C25 equal 0.5*(6.88490186585332e-06+-6.88488251557165e-06)
variable C3${dir} equal 0.5*(${C3neg}+${C3pos})
variable C35 equal 0.5*(${C3neg}+${C3pos})
variable C35 equal 0.5*(0.000119738948333331+${C3pos})
variable C35 equal 0.5*(0.000119738948333331+-0.000119738493340222)
variable C4${dir} equal 0.5*(${C4neg}+${C4pos})
variable C45 equal 0.5*(${C4neg}+${C4pos})
variable C45 equal 0.5*(-1.66046335935798e-09+${C4pos})
variable C45 equal 0.5*(-1.66046335935798e-09+2.44493423779482e-09)
variable C5${dir} equal 0.5*(${C5neg}+${C5pos})
variable C55 equal 0.5*(${C5neg}+${C5pos})
variable C55 equal 0.5*(31.6596214425808+${C5pos})
variable C55 equal 0.5*(31.6596214425808+31.6596214463797)
variable C6${dir} equal 0.5*(${C6neg}+${C6pos})
variable C65 equal 0.5*(${C6neg}+${C6pos})
variable C65 equal 0.5*(1.61914789309363e-09+${C6pos})
variable C65 equal 0.5*(1.61914789309363e-09+-6.52679770859448e-10)

# Delete dir to make sure it is not reused

variable dir delete

# uxy Perturbation

variable dir equal 6
include /users/knc6/displace.mod
# NOTE: This script should not need to be
# modified. See in.elastic for more info.
#
# Find which reference length to use

if "${dir} == 1" then    "variable len0 equal ${lx0}"
if "${dir} == 2" then    "variable len0 equal ${ly0}"
if "${dir} == 3" then    "variable len0 equal ${lz0}"
if "${dir} == 4" then    "variable len0 equal ${lz0}"
if "${dir} == 5" then    "variable len0 equal ${lz0}"
if "${dir} == 6" then    "variable len0 equal ${ly0}"
variable len0 equal ${ly0}
variable len0 equal 16.1999998701343

# Reset box and simulation parameters

clear
box tilt large
read_restart restart.equil
  triclinic box = (-6.72287e-11 -6.71366e-11 -5.67336e-10) to (16.2 16.2 16.2) with tilt (0 0 0)
  1 by 1 by 1 MPI processor grid
  256 atoms
include potential.mod
pair_style eam/alloy
pair_coeff * * /users/knc6/Software/jarvis/jarvis/lammps/examples/Al03.eam.alloy  Al
neighbor 1.0 nsq
neigh_modify once no every 1 delay 0 check yes
min_style  cg
min_modify           dmax ${dmax} line quadratic
min_modify           dmax 0.01 line quadratic
thermo          1
thermo_style custom step temp press cpu pxx pyy pzz pxy pxz pyz ke pe etotal vol lx ly lz atoms
thermo_modify norm no
# Negative deformation

variable delta equal -${up}*${len0}
variable delta equal -1e-06*${len0}
variable delta equal -1e-06*16.1999998701343
if "${dir} == 1" then    "change_box all x delta 0 ${delta} remap units box"
if "${dir} == 2" then    "change_box all y delta 0 ${delta} remap units box"
if "${dir} == 3" then    "change_box all z delta 0 ${delta} remap units box"
if "${dir} == 4" then    "change_box all yz delta ${delta} remap units box"
if "${dir} == 5" then    "change_box all xz delta ${delta} remap units box"
if "${dir} == 6" then    "change_box all xy delta ${delta} remap units box"
change_box all xy delta ${delta} remap units box
change_box all xy delta -1.61999998701343e-05 remap units box
  triclinic box = (-6.72287e-11 -6.71366e-11 -5.67336e-10) to (16.2 16.2 16.2) with tilt (-1.62e-05 0 0)

# Relax atoms positions

minimize ${etol} ${ftol} ${maxiter} ${maxeval}
minimize 0 ${ftol} ${maxiter} ${maxeval}
minimize 0 1e-10 ${maxiter} ${maxeval}
minimize 0 1e-10 1000 ${maxeval}
minimize 0 1e-10 1000 10000
Neighbor list info ...
  1 neighbor list requests
  update every 1 steps, delay 0 steps, check yes
  max neighbors/atom: 2000, page size: 100000
  master list distance cutoff = 7.72488
  ghost atom cutoff = 7.72488
Memory usage per processor = 3.36043 Mbytes
Step Temp Press CPU Pxx Pyy Pzz Pxy Pxz Pyz KinEng PotEng TotEng Volume Lx Ly Lz Atoms 
      14            0 6.8597138e-07            0 8.2925718e-07 1.1856852e-06 4.2971751e-08   0.31659621 1.9915101e-11 -2.0030156e-12            0   -860.16001   -860.16001    4251.5279         16.2         16.2         16.2      256 
      15            0 6.8593477e-07 0.0030100346 8.2925381e-07 1.1856868e-06 4.2863677e-08   0.31659621 1.1296381e-11 -2.6802755e-11            0   -860.16001   -860.16001    4251.5279         16.2         16.2         16.2      256 
Loop time of 0.00302696 on 1 procs for 1 steps with 256 atoms

0.0% CPU use with 1 MPI tasks x no OpenMP threads

Minimization stats:
  Stopping criterion = force tolerance
  Energy initial, next-to-last, final = 
        -860.160005863     -860.160005863     -860.160005863
  Force two-norm initial, final = 1.6726e-11 9.73156e-12
  Force max component initial, final = 1.12505e-12 7.79946e-13
  Final line search alpha, max atom move = 1 7.79946e-13
  Iterations, force evaluations = 1 2

MPI task timing breakdown:
Section |  min time  |  avg time  |  max time  |%varavg| %total
---------------------------------------------------------------
Pair    | 0.002954   | 0.002954   | 0.002954   |   0.0 | 97.59
Neigh   | 0          | 0          | 0          |   0.0 |  0.00
Comm    | 2.9087e-05 | 2.9087e-05 | 2.9087e-05 |   0.0 |  0.96
Output  | 0          | 0          | 0          |   0.0 |  0.00
Modify  | 0          | 0          | 0          |   0.0 |  0.00
Other   |            | 4.387e-05  |            |       |  1.45

Nlocal:    256 ave 256 max 256 min
Histogram: 1 0 0 0 0 0 0 0 0 0
Nghost:    1431 ave 1431 max 1431 min
Histogram: 1 0 0 0 0 0 0 0 0 0
Neighs:    17152 ave 17152 max 17152 min
Histogram: 1 0 0 0 0 0 0 0 0 0

Total # of neighbors = 17152
Ave neighs/atom = 67
Neighbor list builds = 0
Dangerous builds = 0

# Obtain new stress tensor

variable tmp equal pxx
variable pxx1 equal ${tmp}
variable pxx1 equal 8.29253810579988e-07
variable tmp equal pyy
variable pyy1 equal ${tmp}
variable pyy1 equal 1.18568681475626e-06
variable tmp equal pzz
variable pzz1 equal ${tmp}
variable pzz1 equal 4.28636770707998e-08
variable tmp equal pxy
variable pxy1 equal ${tmp}
variable pxy1 equal 0.316596214442083
variable tmp equal pxz
variable pxz1 equal ${tmp}
variable pxz1 equal 1.12963806494905e-11
variable tmp equal pyz
variable pyz1 equal ${tmp}
variable pyz1 equal -2.68027550132587e-11

# Compute elastic constant from pressure tensor

variable C1neg equal ${d1}
variable C1neg equal 8.47800020057311e-05
variable C2neg equal ${d2}
variable C2neg equal 0.000119749884380356
variable C3neg equal ${d3}
variable C3neg equal 6.88431194375273e-06
variable C4neg equal ${d4}
variable C4neg equal -3.00609240616997e-09
variable C5neg equal ${d5}
variable C5neg equal 6.27576702749501e-11
variable C6neg equal ${d6}
variable C6neg equal 31.6596214452626

# Reset box and simulation parameters

clear
box tilt large
read_restart restart.equil
  triclinic box = (-6.72287e-11 -6.71366e-11 -5.67336e-10) to (16.2 16.2 16.2) with tilt (0 0 0)
  1 by 1 by 1 MPI processor grid
  256 atoms
include potential.mod
pair_style eam/alloy
pair_coeff * * /users/knc6/Software/jarvis/jarvis/lammps/examples/Al03.eam.alloy  Al
neighbor 1.0 nsq
neigh_modify once no every 1 delay 0 check yes
min_style  cg
min_modify           dmax ${dmax} line quadratic
min_modify           dmax 0.01 line quadratic
thermo          1
thermo_style custom step temp press cpu pxx pyy pzz pxy pxz pyz ke pe etotal vol lx ly lz atoms
thermo_modify norm no

# Positive deformation

variable delta equal ${up}*${len0}
variable delta equal 1e-06*${len0}
variable delta equal 1e-06*16.1999998701343
if "${dir} == 1" then    "change_box all x delta 0 ${delta} remap units box"
if "${dir} == 2" then    "change_box all y delta 0 ${delta} remap units box"
if "${dir} == 3" then    "change_box all z delta 0 ${delta} remap units box"
if "${dir} == 4" then    "change_box all yz delta ${delta} remap units box"
if "${dir} == 5" then    "change_box all xz delta ${delta} remap units box"
if "${dir} == 6" then    "change_box all xy delta ${delta} remap units box"
change_box all xy delta ${delta} remap units box
change_box all xy delta 1.61999998701343e-05 remap units box
  triclinic box = (-6.72287e-11 -6.71366e-11 -5.67336e-10) to (16.2 16.2 16.2) with tilt (1.62e-05 0 0)

# Relax atoms positions

minimize ${etol} ${ftol} ${maxiter} ${maxeval}
minimize 0 ${ftol} ${maxiter} ${maxeval}
minimize 0 1e-10 ${maxiter} ${maxeval}
minimize 0 1e-10 1000 ${maxeval}
minimize 0 1e-10 1000 10000
Neighbor list info ...
  1 neighbor list requests
  update every 1 steps, delay 0 steps, check yes
  max neighbors/atom: 2000, page size: 100000
  master list distance cutoff = 7.72488
  ghost atom cutoff = 7.72488
Memory usage per processor = 3.36043 Mbytes
Step Temp Press CPU Pxx Pyy Pzz Pxy Pxz Pyz KinEng PotEng TotEng Volume Lx Ly Lz Atoms 
      14            0 6.8595695e-07            0 8.2924339e-07 1.185658e-06 4.2969424e-08  -0.31659621 -2.7362344e-11 -1.158925e-11            0   -860.16001   -860.16001    4251.5279         16.2         16.2         16.2      256 
      15            0 6.8592111e-07 0.0030040741 8.2925592e-07 1.1856578e-06 4.2849546e-08  -0.31659621 -3.179722e-12 -1.911494e-11            0   -860.16001   -860.16001    4251.5279         16.2         16.2         16.2      256 
Loop time of 0.003021 on 1 procs for 1 steps with 256 atoms

132.4% CPU use with 1 MPI tasks x no OpenMP threads

Minimization stats:
  Stopping criterion = force tolerance
  Energy initial, next-to-last, final = 
        -860.160005863     -860.160005863     -860.160005863
  Force two-norm initial, final = 1.67265e-11 9.73673e-12
  Force max component initial, final = 1.12604e-12 7.81774e-13
  Final line search alpha, max atom move = 1 7.81774e-13
  Iterations, force evaluations = 1 2

MPI task timing breakdown:
Section |  min time  |  avg time  |  max time  |%varavg| %total
---------------------------------------------------------------
Pair    | 0.0029488  | 0.0029488  | 0.0029488  |   0.0 | 97.61
Neigh   | 0          | 0          | 0          |   0.0 |  0.00
Comm    | 2.7418e-05 | 2.7418e-05 | 2.7418e-05 |   0.0 |  0.91
Output  | 0          | 0          | 0          |   0.0 |  0.00
Modify  | 0          | 0          | 0          |   0.0 |  0.00
Other   |            | 4.482e-05  |            |       |  1.48

Nlocal:    256 ave 256 max 256 min
Histogram: 1 0 0 0 0 0 0 0 0 0
Nghost:    1431 ave 1431 max 1431 min
Histogram: 1 0 0 0 0 0 0 0 0 0
Neighs:    17152 ave 17152 max 17152 min
Histogram: 1 0 0 0 0 0 0 0 0 0

Total # of neighbors = 17152
Ave neighs/atom = 67
Neighbor list builds = 0
Dangerous builds = 0

# Obtain new stress tensor

variable tmp equal pe
variable e1 equal ${tmp}
variable e1 equal -860.160005863273
variable tmp equal press
variable p1 equal ${tmp}
variable p1 equal 6.85921105472853e-07
variable tmp equal pxx
variable pxx1 equal ${tmp}
variable pxx1 equal 8.29255923421554e-07
variable tmp equal pyy
variable pyy1 equal ${tmp}
variable pyy1 equal 1.18565784686163e-06
variable tmp equal pzz
variable pzz1 equal ${tmp}
variable pzz1 equal 4.28495461353762e-08
variable tmp equal pxy
variable pxy1 equal ${tmp}
variable pxy1 equal -0.316596214453254
variable tmp equal pxz
variable pxz1 equal ${tmp}
variable pxz1 equal -3.17972196059733e-12
variable tmp equal pyz
variable pyz1 equal ${tmp}
variable pyz1 equal -1.91149404045777e-11

# Compute elastic constant from pressure tensor

variable C1pos equal ${d1}
variable C1pos equal -8.47802132898877e-05
variable C2pos equal ${d2}
variable C2pos equal -0.000119746987590893
variable C3pos equal ${d3}
variable C3pos equal -6.88289885021037e-06
variable C4pos equal ${d4}
variable C4pos equal 2.23731094530187e-09
variable C5pos equal ${d5}
variable C5pos equal 1.38485259073383e-09
variable C6pos equal ${d6}
variable C6pos equal 31.6596214442711

# Combine positive and negative

variable C1${dir} equal 0.5*(${C1neg}+${C1pos})
variable C16 equal 0.5*(${C1neg}+${C1pos})
variable C16 equal 0.5*(8.47800020057311e-05+${C1pos})
variable C16 equal 0.5*(8.47800020057311e-05+-8.47802132898877e-05)
variable C2${dir} equal 0.5*(${C2neg}+${C2pos})
variable C26 equal 0.5*(${C2neg}+${C2pos})
variable C26 equal 0.5*(0.000119749884380356+${C2pos})
variable C26 equal 0.5*(0.000119749884380356+-0.000119746987590893)
variable C3${dir} equal 0.5*(${C3neg}+${C3pos})
variable C36 equal 0.5*(${C3neg}+${C3pos})
variable C36 equal 0.5*(6.88431194375273e-06+${C3pos})
variable C36 equal 0.5*(6.88431194375273e-06+-6.88289885021037e-06)
variable C4${dir} equal 0.5*(${C4neg}+${C4pos})
variable C46 equal 0.5*(${C4neg}+${C4pos})
variable C46 equal 0.5*(-3.00609240616997e-09+${C4pos})
variable C46 equal 0.5*(-3.00609240616997e-09+2.23731094530187e-09)
variable C5${dir} equal 0.5*(${C5neg}+${C5pos})
variable C56 equal 0.5*(${C5neg}+${C5pos})
variable C56 equal 0.5*(6.27576702749501e-11+${C5pos})
variable C56 equal 0.5*(6.27576702749501e-11+1.38485259073383e-09)
variable C6${dir} equal 0.5*(${C6neg}+${C6pos})
variable C66 equal 0.5*(${C6neg}+${C6pos})
variable C66 equal 0.5*(31.6596214452626+${C6pos})
variable C66 equal 0.5*(31.6596214452626+31.6596214442711)

# Delete dir to make sure it is not reused

variable dir delete

# Output final values

variable C11all equal ${C11}
variable C11all equal 116.815477500248
variable C22all equal ${C22}
variable C22all equal 116.81547750169
variable C33all equal ${C33}
variable C33all equal 116.815477508963

variable C12all equal 0.5*(${C12}+${C21})
variable C12all equal 0.5*(60.117224468317+${C21})
variable C12all equal 0.5*(60.117224468317+60.1172244678946)
variable C13all equal 0.5*(${C13}+${C31})
variable C13all equal 0.5*(60.1172244757558+${C31})
variable C13all equal 0.5*(60.1172244757558+60.117224469817)
variable C23all equal 0.5*(${C23}+${C32})
variable C23all equal 0.5*(60.1172244745658+${C32})
variable C23all equal 0.5*(60.1172244745658+60.1172244707102)

variable C44all equal ${C44}
variable C44all equal 31.6596214461371
variable C55all equal ${C55}
variable C55all equal 31.6596214444803
variable C66all equal ${C66}
variable C66all equal 31.6596214447668

variable C14all equal 0.5*(${C14}+${C41})
variable C14all equal 0.5*(-1.50513812543003e-09+${C41})
variable C14all equal 0.5*(-1.50513812543003e-09+-1.63695854606835e-10)
variable C15all equal 0.5*(${C15}+${C51})
variable C15all equal 0.5*(-2.68812020996008e-10+${C51})
variable C15all equal 0.5*(-2.68812020996008e-10+-5.7737083011231e-10)
variable C16all equal 0.5*(${C16}+${C61})
variable C16all equal 0.5*(-1.05642078303259e-10+${C61})
variable C16all equal 0.5*(-1.05642078303259e-10+5.52266791350336e-10)

variable C24all equal 0.5*(${C24}+${C42})
variable C24all equal 0.5*(-1.27894902215422e-09+${C42})
variable C24all equal 0.5*(-1.27894902215422e-09+-7.93100514400998e-10)
variable C25all equal 0.5*(${C25}+${C52})
variable C25all equal 0.5*(9.6751408349476e-12+${C52})
variable C25all equal 0.5*(9.6751408349476e-12+2.4056932263238e-10)
variable C26all equal 0.5*(${C26}+${C62})
variable C26all equal 0.5*(1.44839473149649e-09+${C62})
variable C26all equal 0.5*(1.44839473149649e-09+-6.90334247509771e-10)

variable C34all equal 0.5*(${C34}+${C43})
variable C34all equal 0.5*(-5.666494644994e-10+${C43})
variable C34all equal 0.5*(-5.666494644994e-10+8.23431398426125e-10)
variable C35all equal 0.5*(${C35}+${C53})
variable C35all equal 0.5*(2.27496554499338e-10+${C53})
variable C35all equal 0.5*(2.27496554499338e-10+-2.05008155269729e-10)
variable C36all equal 0.5*(${C36}+${C63})
variable C36all equal 0.5*(7.06546771180381e-10+${C63})
variable C36all equal 0.5*(7.06546771180381e-10+-3.55616275855649e-11)

variable C45all equal 0.5*(${C45}+${C54})
variable C45all equal 0.5*(3.9223543921842e-10+${C54})
variable C45all equal 0.5*(3.9223543921842e-10+-2.00824544879835e-10)
variable C46all equal 0.5*(${C46}+${C64})
variable C46all equal 0.5*(-3.8439073043405e-10+${C64})
variable C46all equal 0.5*(-3.8439073043405e-10+-1.6735378739985e-11)
variable C56all equal 0.5*(${C56}+${C65})
variable C56all equal 0.5*(7.2380513050439e-10+${C65})
variable C56all equal 0.5*(7.2380513050439e-10+4.83234061117091e-10)

# For Stillinger-Weber silicon, the analytical results
# are known to be (E. R. Cowley, 1988):
#               C11 = 151.4 GPa
#               C12 = 76.4 GPa
#               C44 = 56.4 GPa

print "Elastic Constant C11all = ${C11all} ${cunits}"
Elastic Constant C11all = 116.815477500248 GPa
print "Elastic Constant C22all = ${C22all} ${cunits}"
Elastic Constant C22all = 116.81547750169 GPa
print "Elastic Constant C33all = ${C33all} ${cunits}"
Elastic Constant C33all = 116.815477508963 GPa

print "Elastic Constant C12all = ${C12all} ${cunits}"
Elastic Constant C12all = 60.1172244681058 GPa
print "Elastic Constant C13all = ${C13all} ${cunits}"
Elastic Constant C13all = 60.1172244727864 GPa
print "Elastic Constant C23all = ${C23all} ${cunits}"
Elastic Constant C23all = 60.117224472638 GPa

print "Elastic Constant C44all = ${C44all} ${cunits}"
Elastic Constant C44all = 31.6596214461371 GPa
print "Elastic Constant C55all = ${C55all} ${cunits}"
Elastic Constant C55all = 31.6596214444803 GPa
print "Elastic Constant C66all = ${C66all} ${cunits}"
Elastic Constant C66all = 31.6596214447668 GPa

print "Elastic Constant C14all = ${C14all} ${cunits}"
Elastic Constant C14all = -8.34416990018433e-10 GPa
print "Elastic Constant C15all = ${C15all} ${cunits}"
Elastic Constant C15all = -4.23091425554159e-10 GPa
print "Elastic Constant C16all = ${C16all} ${cunits}"
Elastic Constant C16all = 2.23312356523538e-10 GPa

print "Elastic Constant C24all = ${C24all} ${cunits}"
Elastic Constant C24all = -1.03602476827761e-09 GPa
print "Elastic Constant C25all = ${C25all} ${cunits}"
Elastic Constant C25all = 1.25122231733664e-10 GPa
print "Elastic Constant C26all = ${C26all} ${cunits}"
Elastic Constant C26all = 3.7903024199336e-10 GPa

print "Elastic Constant C34all = ${C34all} ${cunits}"
Elastic Constant C34all = 1.28390966963362e-10 GPa
print "Elastic Constant C35all = ${C35all} ${cunits}"
Elastic Constant C35all = 1.12441996148045e-11 GPa
print "Elastic Constant C36all = ${C36all} ${cunits}"
Elastic Constant C36all = 3.35492571797408e-10 GPa

print "Elastic Constant C45all = ${C45all} ${cunits}"
Elastic Constant C45all = 9.57054471692925e-11 GPa
print "Elastic Constant C46all = ${C46all} ${cunits}"
Elastic Constant C46all = -2.00563054587018e-10 GPa
print "Elastic Constant C56all = ${C56all} ${cunits}"
Elastic Constant C56all = 6.03519595810741e-10 GPa

Total wall time: 0:00:00
