LAMMPS (13 Jan 2016)
Reading data file ...
  triclinic box = (0 0 0) to (16.2 16.2 16.2) with tilt (0 0 0)
  1 by 1 by 1 MPI processor grid
  reading atoms ...
  256 atoms
Neighbor list info ...
  1 neighbor list requests
  update every 1 steps, delay 0 steps, check yes
  max neighbors/atom: 2000, page size: 100000
  master list distance cutoff = 7.72488
  ghost atom cutoff = 7.72488
Setting up cg style minimization ...
  Unit style: metal
Memory usage per processor = 3.36043 Mbytes
Step Temp Press CPU Pxx Pyy Pzz Pxy Pxz Pyz KinEng PotEng TotEng Volume Lx Ly Lz Atoms 
       0            0 6.8433446e-05            0 5.6767127e-05 5.6767129e-05 9.1766081e-05 1.2551534e-12 4.0164909e-12 9.5339361e-12            0   -860.16001   -860.16001    4251.5279         16.2         16.2         16.2      256 
       1            0 -4.5503508e-06 0.0020611286 -1.3240656e-05 -1.3240663e-05 1.2830267e-05 2.3847915e-12 1.5856771e-11 1.0726332e-11            0   -860.16001   -860.16001    4251.5279         16.2         16.2         16.2      256 
       2            0 4.921718e-07 0.0041251183 6.5494434e-06 6.549437e-06 -1.1622365e-05 -8.5768816e-12 1.644251e-11  1.02295e-11            0   -860.16001   -860.16001    4251.5279         16.2         16.2         16.2      256 
       3            0 -9.0316753e-08 0.0062010288 -9.3469119e-08 -9.2244336e-08 -8.5236804e-08 -1.0543289e-11 1.184028e-11 2.1327148e-11            0   -860.16001   -860.16001    4251.5279         16.2         16.2         16.2      256 
       4            0 6.7256611e-05 0.0082650185 6.6756651e-05 6.6539289e-05 6.8473893e-05 8.8697507e-12 2.0542677e-11 -8.7442354e-12            0   -860.16001   -860.16001    4251.5279         16.2         16.2         16.2      256 
       5            0 -2.2120018e-08  0.010332108 -5.7237483e-07 -8.1266104e-07 1.3186758e-06 -1.2551534e-12 -5.2298059e-12 9.1521602e-13            0   -860.16001   -860.16001    4251.5279         16.2         16.2         16.2      256 
       6            0 3.6081128e-09  0.012396097 5.7124427e-07 8.1914382e-07 -1.3795637e-06 -2.7613375e-12 -6.2339286e-12 8.2264846e-12            0   -860.16001   -860.16001    4251.5279         16.2         16.2         16.2      256 
       7            0 -3.0158999e-07   0.01446414 -3.0616237e-07 -3.118173e-07 -2.867903e-07 -7.6145973e-12 2.3596884e-11 -1.7258359e-12            0   -860.16001   -860.16001    4251.5279         16.2         16.2         16.2      256 
       8            0 1.4685407e-06  0.016527176 1.4687882e-06 1.470425e-06 1.4664089e-06 6.9033437e-12 1.2467857e-11 -9.4711784e-12            0   -860.16001   -860.16001    4251.5279         16.2         16.2         16.2      256 
       9            0 -2.5515689e-08  0.018596172 1.5227724e-06 3.7187933e-06 -5.3181128e-06 1.1631088e-11 8.3676894e-14 -8.08005e-12            0   -860.16001   -860.16001    4251.5279         16.2         16.2         16.2      256 
      10            0 -8.7380398e-09  0.020658016 -8.7670583e-09 -9.0411106e-09 -8.4059506e-09 6.1502517e-12 -4.1838447e-12 -9.2358371e-12            0   -860.16001   -860.16001    4251.5279         16.2         16.2         16.2      256 
      11            0 4.9726572e-08  0.022734165 4.9640334e-08 4.9760311e-08 4.977907e-08 1.0877996e-11 7.5309204e-13 5.5802028e-12            0   -860.16001   -860.16001    4251.5279         16.2         16.2         16.2      256 
      12            0 8.4315244e-09  0.024801016 9.244163e-09 3.8246804e-08 -2.2196394e-08 2.9286913e-12 7.5727589e-12 6.8876543e-12            0   -860.16001   -860.16001    4251.5279         16.2         16.2         16.2      256 
      13            0 -1.8779227e-08  0.027848005 -1.8546209e-08 -1.1812029e-08 -2.5979442e-08 -1.0543289e-11 1.0668804e-11 3.258169e-12            0   -860.16001   -860.16001    4251.5279         16.2         16.2         16.2      256 
Loop time of 0.027864 on 1 procs for 13 steps with 256 atoms

100.5% CPU use with 1 MPI tasks x no OpenMP threads

Minimization stats:
  Stopping criterion = force tolerance
  Energy initial, next-to-last, final = 
        -860.160005864     -860.160005864     -860.160005864
  Force two-norm initial, final = 3.27075e-07 9.21091e-11
  Force max component initial, final = 2.4351e-07 6.89389e-11
  Final line search alpha, max atom move = 1 6.89389e-11
  Iterations, force evaluations = 13 26

MPI task timing breakdown:
Section |  min time  |  avg time  |  max time  |%varavg| %total
---------------------------------------------------------------
Pair    | 0.026249   | 0.026249   | 0.026249   |   0.0 | 94.20
Neigh   | 0          | 0          | 0          |   0.0 |  0.00
Comm    | 0.0002389  | 0.0002389  | 0.0002389  |   0.0 |  0.86
Output  | 0.00027275 | 0.00027275 | 0.00027275 |   0.0 |  0.98
Modify  | 0          | 0          | 0          |   0.0 |  0.00
Other   |            | 0.001103   |            |       |  3.96

Nlocal:    256 ave 256 max 256 min
Histogram: 1 0 0 0 0 0 0 0 0 0
Nghost:    1431 ave 1431 max 1431 min
Histogram: 1 0 0 0 0 0 0 0 0 0
Neighs:    17152 ave 17152 max 17152 min
Histogram: 1 0 0 0 0 0 0 0 0 0

Total # of neighbors = 17152
Ave neighs/atom = 67
Neighbor list builds = 0
Dangerous builds = 0
Setting up cg style minimization ...
  Unit style: metal
Memory usage per processor = 3.36043 Mbytes
Step Temp Press CPU Pxx Pyy Pzz Pxy Pxz Pyz KinEng PotEng TotEng Volume Lx Ly Lz Atoms 
      13            0 -1.8863746e-08            0 -1.8620012e-08 -1.1950012e-08 -2.6021213e-08 -7.489082e-12 7.6564358e-12 -2.667201e-12            0   -860.16001   -860.16001    4251.5279         16.2         16.2         16.2      256 
      14            0 -1.8823248e-08  0.002956152 -1.8568928e-08 -1.1842341e-08 -2.6058475e-08 3.9746525e-12 1.1714765e-11 -6.6418534e-13            0   -860.16001   -860.16001    4251.5279         16.2         16.2         16.2      256 
Loop time of 0.00297308 on 1 procs for 1 steps with 256 atoms

0.0% CPU use with 1 MPI tasks x no OpenMP threads

Minimization stats:
  Stopping criterion = force tolerance
  Energy initial, next-to-last, final = 
        -860.160005864     -860.160005864     -860.160005864
  Force two-norm initial, final = 1.80637e-11 1.63628e-11
  Force max component initial, final = 1.50435e-12 1.07334e-12
  Final line search alpha, max atom move = 1 1.07334e-12
  Iterations, force evaluations = 1 2

MPI task timing breakdown:
Section |  min time  |  avg time  |  max time  |%varavg| %total
---------------------------------------------------------------
Pair    | 0.0029037  | 0.0029037  | 0.0029037  |   0.0 | 97.67
Neigh   | 0          | 0          | 0          |   0.0 |  0.00
Comm    | 2.6941e-05 | 2.6941e-05 | 2.6941e-05 |   0.0 |  0.91
Output  | 0          | 0          | 0          |   0.0 |  0.00
Modify  | 0          | 0          | 0          |   0.0 |  0.00
Other   |            | 4.244e-05  |            |       |  1.43

Nlocal:    256 ave 256 max 256 min
Histogram: 1 0 0 0 0 0 0 0 0 0
Nghost:    1431 ave 1431 max 1431 min
Histogram: 1 0 0 0 0 0 0 0 0 0
Neighs:    17152 ave 17152 max 17152 min
Histogram: 1 0 0 0 0 0 0 0 0 0

Total # of neighbors = 17152
Ave neighs/atom = 67
Neighbor list builds = 0
Dangerous builds = 0
System init for write_restart ...
System init for write_data ...
Reading restart file ...
  restart file = 13 Jan 2016, LAMMPS = 13 Jan 2016
  triclinic box = (-6.72287e-11 -6.71366e-11 -5.67336e-10) to (16.2 16.2 16.2) with tilt (0 0 0)
  1 by 1 by 1 MPI processor grid
  256 atoms
Changing box ...
  triclinic box = (-6.72287e-11 -6.71366e-11 -5.67336e-10) to (16.2 16.2 16.2) with tilt (0 0 0)
Neighbor list info ...
  1 neighbor list requests
  update every 1 steps, delay 0 steps, check yes
  max neighbors/atom: 2000, page size: 100000
  master list distance cutoff = 7.72488
  ghost atom cutoff = 7.72488
Setting up cg style minimization ...
  Unit style: metal
Memory usage per processor = 3.36043 Mbytes
Step Temp Press CPU Pxx Pyy Pzz Pxy Pxz Pyz KinEng PotEng TotEng Volume Lx Ly Lz Atoms 
      14            0   0.79016911            0    1.1681595   0.60117392   0.60117391 -2.4684708e-12 9.078952e-12 8.9638962e-12            0   -860.16001   -860.16001    4251.5236    16.199984         16.2         16.2      256 
      15            0   0.79016911 0.0029358864    1.1681595   0.60117392   0.60117391 -1.5480241e-12 -8.4095362e-12 -3.0950022e-11            0   -860.16001   -860.16001    4251.5236    16.199984         16.2         16.2      256 
Loop time of 0.00295401 on 1 procs for 1 steps with 256 atoms

135.4% CPU use with 1 MPI tasks x no OpenMP threads

Minimization stats:
  Stopping criterion = force tolerance
  Energy initial, next-to-last, final = 
        -860.160005862     -860.160005862     -860.160005862
  Force two-norm initial, final = 1.67696e-11 9.72073e-12
  Force max component initial, final = 1.12763e-12 7.81153e-13
  Final line search alpha, max atom move = 1 7.81153e-13
  Iterations, force evaluations = 1 2

MPI task timing breakdown:
Section |  min time  |  avg time  |  max time  |%varavg| %total
---------------------------------------------------------------
Pair    | 0.002883   | 0.002883   | 0.002883   |   0.0 | 97.59
Neigh   | 0          | 0          | 0          |   0.0 |  0.00
Comm    | 2.8849e-05 | 2.8849e-05 | 2.8849e-05 |   0.0 |  0.98
Output  | 0          | 0          | 0          |   0.0 |  0.00
Modify  | 0          | 0          | 0          |   0.0 |  0.00
Other   |            | 4.22e-05   |            |       |  1.43

Nlocal:    256 ave 256 max 256 min
Histogram: 1 0 0 0 0 0 0 0 0 0
Nghost:    1431 ave 1431 max 1431 min
Histogram: 1 0 0 0 0 0 0 0 0 0
Neighs:    17152 ave 17152 max 17152 min
Histogram: 1 0 0 0 0 0 0 0 0 0

Total # of neighbors = 17152
Ave neighs/atom = 67
Neighbor list builds = 0
Dangerous builds = 0
Reading restart file ...
  restart file = 13 Jan 2016, LAMMPS = 13 Jan 2016
  triclinic box = (-6.72287e-11 -6.71366e-11 -5.67336e-10) to (16.2 16.2 16.2) with tilt (0 0 0)
  1 by 1 by 1 MPI processor grid
  256 atoms
Changing box ...
  triclinic box = (-6.72287e-11 -6.71366e-11 -5.67336e-10) to (16.2 16.2 16.2) with tilt (0 0 0)
Neighbor list info ...
  1 neighbor list requests
  update every 1 steps, delay 0 steps, check yes
  max neighbors/atom: 2000, page size: 100000
  master list distance cutoff = 7.72488
  ghost atom cutoff = 7.72488
Setting up cg style minimization ...
  Unit style: metal
Memory usage per processor = 3.36043 Mbytes
Step Temp Press CPU Pxx Pyy Pzz Pxy Pxz Pyz KinEng PotEng TotEng Volume Lx Ly Lz Atoms 
      14            0  -0.79016374            0   -1.1681501  -0.60117056  -0.60117058 -9.915702e-12 -7.9074585e-12 1.4408101e-11            0   -860.16001   -860.16001    4251.5321    16.200016         16.2         16.2      256 
      15            0  -0.79016374 0.0029439926   -1.1681501  -0.60117056  -0.60117058 -1.259336e-11 3.1378804e-12 -2.7676105e-11            0   -860.16001   -860.16001    4251.5321    16.200016         16.2         16.2      256 
Loop time of 0.00296092 on 1 procs for 1 steps with 256 atoms

135.1% CPU use with 1 MPI tasks x no OpenMP threads

Minimization stats:
  Stopping criterion = force tolerance
  Energy initial, next-to-last, final = 
        -860.160005862     -860.160005862     -860.160005862
  Force two-norm initial, final = 1.67879e-11 9.72644e-12
  Force max component initial, final = 1.12661e-12 7.81555e-13
  Final line search alpha, max atom move = 1 7.81555e-13
  Iterations, force evaluations = 1 2

MPI task timing breakdown:
Section |  min time  |  avg time  |  max time  |%varavg| %total
---------------------------------------------------------------
Pair    | 0.0028892  | 0.0028892  | 0.0028892  |   0.0 | 97.58
Neigh   | 0          | 0          | 0          |   0.0 |  0.00
Comm    | 2.8133e-05 | 2.8133e-05 | 2.8133e-05 |   0.0 |  0.95
Output  | 0          | 0          | 0          |   0.0 |  0.00
Modify  | 0          | 0          | 0          |   0.0 |  0.00
Other   |            | 4.363e-05  |            |       |  1.47

Nlocal:    256 ave 256 max 256 min
Histogram: 1 0 0 0 0 0 0 0 0 0
Nghost:    1431 ave 1431 max 1431 min
Histogram: 1 0 0 0 0 0 0 0 0 0
Neighs:    17152 ave 17152 max 17152 min
Histogram: 1 0 0 0 0 0 0 0 0 0

Total # of neighbors = 17152
Ave neighs/atom = 67
Neighbor list builds = 0
Dangerous builds = 0
Reading restart file ...
  restart file = 13 Jan 2016, LAMMPS = 13 Jan 2016
  triclinic box = (-6.72287e-11 -6.71366e-11 -5.67336e-10) to (16.2 16.2 16.2) with tilt (0 0 0)
  1 by 1 by 1 MPI processor grid
  256 atoms
Changing box ...
  triclinic box = (-6.72287e-11 -6.71366e-11 -5.67336e-10) to (16.2 16.2 16.2) with tilt (0 0 0)
Neighbor list info ...
  1 neighbor list requests
  update every 1 steps, delay 0 steps, check yes
  max neighbors/atom: 2000, page size: 100000
  master list distance cutoff = 7.72488
  ghost atom cutoff = 7.72488
Setting up cg style minimization ...
  Unit style: metal
Memory usage per processor = 3.36043 Mbytes
Step Temp Press CPU Pxx Pyy Pzz Pxy Pxz Pyz KinEng PotEng TotEng Volume Lx Ly Lz Atoms 
      14            0   0.79016911            0   0.60117392    1.1681595   0.60117391 1.1463746e-11 -1.966409e-11 -1.9350301e-12            0   -860.16001   -860.16001    4251.5236         16.2    16.199984         16.2      256 
      15            0   0.79016911 0.0029449463   0.60117392    1.1681595   0.60117391 -5.648196e-12 -1.5061856e-11 -1.2494019e-11            0   -860.16001   -860.16001    4251.5236         16.2    16.199984         16.2      256 
Loop time of 0.00296187 on 1 procs for 1 steps with 256 atoms

135.0% CPU use with 1 MPI tasks x no OpenMP threads

Minimization stats:
  Stopping criterion = force tolerance
  Energy initial, next-to-last, final = 
        -860.160005862     -860.160005862     -860.160005862
  Force two-norm initial, final = 1.66326e-11 9.75327e-12
  Force max component initial, final = 1.12648e-12 7.81841e-13
  Final line search alpha, max atom move = 1 7.81841e-13
  Iterations, force evaluations = 1 2

MPI task timing breakdown:
Section |  min time  |  avg time  |  max time  |%varavg| %total
---------------------------------------------------------------
Pair    | 0.0028911  | 0.0028911  | 0.0028911  |   0.0 | 97.61
Neigh   | 0          | 0          | 0          |   0.0 |  0.00
Comm    | 2.7895e-05 | 2.7895e-05 | 2.7895e-05 |   0.0 |  0.94
Output  | 0          | 0          | 0          |   0.0 |  0.00
Modify  | 0          | 0          | 0          |   0.0 |  0.00
Other   |            | 4.292e-05  |            |       |  1.45

Nlocal:    256 ave 256 max 256 min
Histogram: 1 0 0 0 0 0 0 0 0 0
Nghost:    1431 ave 1431 max 1431 min
Histogram: 1 0 0 0 0 0 0 0 0 0
Neighs:    17152 ave 17152 max 17152 min
Histogram: 1 0 0 0 0 0 0 0 0 0

Total # of neighbors = 17152
Ave neighs/atom = 67
Neighbor list builds = 0
Dangerous builds = 0
Reading restart file ...
  restart file = 13 Jan 2016, LAMMPS = 13 Jan 2016
  triclinic box = (-6.72287e-11 -6.71366e-11 -5.67336e-10) to (16.2 16.2 16.2) with tilt (0 0 0)
  1 by 1 by 1 MPI processor grid
  256 atoms
Changing box ...
  triclinic box = (-6.72287e-11 -6.71366e-11 -5.67336e-10) to (16.2 16.2 16.2) with tilt (0 0 0)
Neighbor list info ...
  1 neighbor list requests
  update every 1 steps, delay 0 steps, check yes
  max neighbors/atom: 2000, page size: 100000
  master list distance cutoff = 7.72488
  ghost atom cutoff = 7.72488
Setting up cg style minimization ...
  Unit style: metal
Memory usage per processor = 3.36043 Mbytes
Step Temp Press CPU Pxx Pyy Pzz Pxy Pxz Pyz KinEng PotEng TotEng Volume Lx Ly Lz Atoms 
      14            0  -0.79016374            0  -0.60117057   -1.1681501  -0.60117058 -4.1838405e-13 -7.8237817e-12 5.5697377e-12            0   -860.16001   -860.16001    4251.5321         16.2    16.200016         16.2      256 
      15            0  -0.79016374 0.0029361248  -0.60117057   -1.1681501  -0.60117058 8.158489e-12 -1.9873242e-11 3.3679916e-12            0   -860.16001   -860.16001    4251.5321         16.2    16.200016         16.2      256 
Loop time of 0.00295305 on 1 procs for 1 steps with 256 atoms

135.5% CPU use with 1 MPI tasks x no OpenMP threads

Minimization stats:
  Stopping criterion = force tolerance
  Energy initial, next-to-last, final = 
        -860.160005862     -860.160005862     -860.160005862
  Force two-norm initial, final = 1.65813e-11 9.76839e-12
  Force max component initial, final = 1.12676e-12 7.83148e-13
  Final line search alpha, max atom move = 1 7.83148e-13
  Iterations, force evaluations = 1 2

MPI task timing breakdown:
Section |  min time  |  avg time  |  max time  |%varavg| %total
---------------------------------------------------------------
Pair    | 0.002883   | 0.002883   | 0.002883   |   0.0 | 97.63
Neigh   | 0          | 0          | 0          |   0.0 |  0.00
Comm    | 2.5988e-05 | 2.5988e-05 | 2.5988e-05 |   0.0 |  0.88
Output  | 0          | 0          | 0          |   0.0 |  0.00
Modify  | 0          | 0          | 0          |   0.0 |  0.00
Other   |            | 4.411e-05  |            |       |  1.49

Nlocal:    256 ave 256 max 256 min
Histogram: 1 0 0 0 0 0 0 0 0 0
Nghost:    1431 ave 1431 max 1431 min
Histogram: 1 0 0 0 0 0 0 0 0 0
Neighs:    17152 ave 17152 max 17152 min
Histogram: 1 0 0 0 0 0 0 0 0 0

Total # of neighbors = 17152
Ave neighs/atom = 67
Neighbor list builds = 0
Dangerous builds = 0
Reading restart file ...
  restart file = 13 Jan 2016, LAMMPS = 13 Jan 2016
  triclinic box = (-6.72287e-11 -6.71366e-11 -5.67336e-10) to (16.2 16.2 16.2) with tilt (0 0 0)
  1 by 1 by 1 MPI processor grid
  256 atoms
Changing box ...
  triclinic box = (-6.72287e-11 -6.71366e-11 -5.67336e-10) to (16.2 16.2 16.2) with tilt (0 0 0)
Neighbor list info ...
  1 neighbor list requests
  update every 1 steps, delay 0 steps, check yes
  max neighbors/atom: 2000, page size: 100000
  master list distance cutoff = 7.72488
  ghost atom cutoff = 7.72488
Setting up cg style minimization ...
  Unit style: metal
Memory usage per processor = 3.36043 Mbytes
Step Temp Press CPU Pxx Pyy Pzz Pxy Pxz Pyz KinEng PotEng TotEng Volume Lx Ly Lz Atoms 
      14            0   0.79016911            0   0.60117392   0.60117392    1.1681595 -3.9328179e-12 -9.4973369e-12 -4.4662587e-12            0   -860.16001   -860.16001    4251.5236         16.2         16.2    16.199984      256 
      15            0   0.79016911 0.0029819012   0.60117392   0.60117392    1.1681595 1.0166753e-11 2.9286942e-13 -7.1020835e-12            0   -860.16001   -860.16001    4251.5236         16.2         16.2    16.199984      256 
Loop time of 0.00299883 on 1 procs for 1 steps with 256 atoms

133.4% CPU use with 1 MPI tasks x no OpenMP threads

Minimization stats:
  Stopping criterion = force tolerance
  Energy initial, next-to-last, final = 
        -860.160005862     -860.160005862     -860.160005862
  Force two-norm initial, final = 1.67908e-11 9.69754e-12
  Force max component initial, final = 1.09558e-12 7.78922e-13
  Final line search alpha, max atom move = 1 7.78922e-13
  Iterations, force evaluations = 1 2

MPI task timing breakdown:
Section |  min time  |  avg time  |  max time  |%varavg| %total
---------------------------------------------------------------
Pair    | 0.0029271  | 0.0029271  | 0.0029271  |   0.0 | 97.61
Neigh   | 0          | 0          | 0          |   0.0 |  0.00
Comm    | 2.9087e-05 | 2.9087e-05 | 2.9087e-05 |   0.0 |  0.97
Output  | 0          | 0          | 0          |   0.0 |  0.00
Modify  | 0          | 0          | 0          |   0.0 |  0.00
Other   |            | 4.268e-05  |            |       |  1.42

Nlocal:    256 ave 256 max 256 min
Histogram: 1 0 0 0 0 0 0 0 0 0
Nghost:    1431 ave 1431 max 1431 min
Histogram: 1 0 0 0 0 0 0 0 0 0
Neighs:    17152 ave 17152 max 17152 min
Histogram: 1 0 0 0 0 0 0 0 0 0

Total # of neighbors = 17152
Ave neighs/atom = 67
Neighbor list builds = 0
Dangerous builds = 0
Reading restart file ...
  restart file = 13 Jan 2016, LAMMPS = 13 Jan 2016
  triclinic box = (-6.72287e-11 -6.71366e-11 -5.67336e-10) to (16.2 16.2 16.2) with tilt (0 0 0)
  1 by 1 by 1 MPI processor grid
  256 atoms
Changing box ...
  triclinic box = (-6.72287e-11 -6.71366e-11 -5.67336e-10) to (16.2 16.2 16.2) with tilt (0 0 0)
Neighbor list info ...
  1 neighbor list requests
  update every 1 steps, delay 0 steps, check yes
  max neighbors/atom: 2000, page size: 100000
  master list distance cutoff = 7.72488
  ghost atom cutoff = 7.72488
Setting up cg style minimization ...
  Unit style: metal
Memory usage per processor = 3.36043 Mbytes
Step Temp Press CPU Pxx Pyy Pzz Pxy Pxz Pyz KinEng PotEng TotEng Volume Lx Ly Lz Atoms 
      14            0  -0.79016374            0  -0.60117057  -0.60117056   -1.1681501 1.0334086e-11 -9.70651e-12 5.9933515e-12            0   -860.16001   -860.16001    4251.5321         16.2         16.2    16.200016      256 
      15            0  -0.79016374 0.0029809475  -0.60117057  -0.60117056   -1.1681501 1.0877985e-11 4.3930325e-12 -2.3570711e-11            0   -860.16001   -860.16001    4251.5321         16.2         16.2    16.200016      256 
Loop time of 0.00299788 on 1 procs for 1 steps with 256 atoms

133.4% CPU use with 1 MPI tasks x no OpenMP threads

Minimization stats:
  Stopping criterion = force tolerance
  Energy initial, next-to-last, final = 
        -860.160005862     -860.160005862     -860.160005862
  Force two-norm initial, final = 1.67872e-11 9.69381e-12
  Force max component initial, final = 1.09576e-12 7.80324e-13
  Final line search alpha, max atom move = 1 7.80324e-13
  Iterations, force evaluations = 1 2

MPI task timing breakdown:
Section |  min time  |  avg time  |  max time  |%varavg| %total
---------------------------------------------------------------
Pair    | 0.0029278  | 0.0029278  | 0.0029278  |   0.0 | 97.66
Neigh   | 0          | 0          | 0          |   0.0 |  0.00
Comm    | 2.9087e-05 | 2.9087e-05 | 2.9087e-05 |   0.0 |  0.97
Output  | 0          | 0          | 0          |   0.0 |  0.00
Modify  | 0          | 0          | 0          |   0.0 |  0.00
Other   |            | 4.101e-05  |            |       |  1.37

Nlocal:    256 ave 256 max 256 min
Histogram: 1 0 0 0 0 0 0 0 0 0
Nghost:    1431 ave 1431 max 1431 min
Histogram: 1 0 0 0 0 0 0 0 0 0
Neighs:    17152 ave 17152 max 17152 min
Histogram: 1 0 0 0 0 0 0 0 0 0

Total # of neighbors = 17152
Ave neighs/atom = 67
Neighbor list builds = 0
Dangerous builds = 0
Reading restart file ...
  restart file = 13 Jan 2016, LAMMPS = 13 Jan 2016
  triclinic box = (-6.72287e-11 -6.71366e-11 -5.67336e-10) to (16.2 16.2 16.2) with tilt (0 0 0)
  1 by 1 by 1 MPI processor grid
  256 atoms
Changing box ...
  triclinic box = (-6.72287e-11 -6.71366e-11 -5.67336e-10) to (16.2 16.2 16.2) with tilt (0 0 -1.62e-05)
Neighbor list info ...
  1 neighbor list requests
  update every 1 steps, delay 0 steps, check yes
  max neighbors/atom: 2000, page size: 100000
  master list distance cutoff = 7.72488
  ghost atom cutoff = 7.72488
Setting up cg style minimization ...
  Unit style: metal
Memory usage per processor = 3.36043 Mbytes
Step Temp Press CPU Pxx Pyy Pzz Pxy Pxz Pyz KinEng PotEng TotEng Volume Lx Ly Lz Atoms 
      14            0 6.8593974e-07            0 5.0345835e-08 8.3597973e-07 1.1714937e-06 -7.1962129e-12 -8.4095278e-12   0.31659621            0   -860.16001   -860.16001    4251.5279         16.2         16.2         16.2      256 
      15            0 6.8585604e-07 0.0030009747 5.0280881e-08 8.3589704e-07 1.1713902e-06 2.3847915e-12 -4.685906e-12   0.31659621            0   -860.16001   -860.16001    4251.5279         16.2         16.2         16.2      256 
Loop time of 0.00301695 on 1 procs for 1 steps with 256 atoms

0.0% CPU use with 1 MPI tasks x no OpenMP threads

Minimization stats:
  Stopping criterion = force tolerance
  Energy initial, next-to-last, final = 
        -860.160005863     -860.160005863     -860.160005863
  Force two-norm initial, final = 1.6769e-11 9.74133e-12
  Force max component initial, final = 1.1287e-12 7.80967e-13
  Final line search alpha, max atom move = 1 7.80967e-13
  Iterations, force evaluations = 1 2

MPI task timing breakdown:
Section |  min time  |  avg time  |  max time  |%varavg| %total
---------------------------------------------------------------
Pair    | 0.0029461  | 0.0029461  | 0.0029461  |   0.0 | 97.65
Neigh   | 0          | 0          | 0          |   0.0 |  0.00
Comm    | 2.7657e-05 | 2.7657e-05 | 2.7657e-05 |   0.0 |  0.92
Output  | 0          | 0          | 0          |   0.0 |  0.00
Modify  | 0          | 0          | 0          |   0.0 |  0.00
Other   |            | 4.315e-05  |            |       |  1.43

Nlocal:    256 ave 256 max 256 min
Histogram: 1 0 0 0 0 0 0 0 0 0
Nghost:    1431 ave 1431 max 1431 min
Histogram: 1 0 0 0 0 0 0 0 0 0
Neighs:    17152 ave 17152 max 17152 min
Histogram: 1 0 0 0 0 0 0 0 0 0

Total # of neighbors = 17152
Ave neighs/atom = 67
Neighbor list builds = 0
Dangerous builds = 0
Reading restart file ...
  restart file = 13 Jan 2016, LAMMPS = 13 Jan 2016
  triclinic box = (-6.72287e-11 -6.71366e-11 -5.67336e-10) to (16.2 16.2 16.2) with tilt (0 0 0)
  1 by 1 by 1 MPI processor grid
  256 atoms
Changing box ...
  triclinic box = (-6.72287e-11 -6.71366e-11 -5.67336e-10) to (16.2 16.2 16.2) with tilt (0 0 1.62e-05)
Neighbor list info ...
  1 neighbor list requests
  update every 1 steps, delay 0 steps, check yes
  max neighbors/atom: 2000, page size: 100000
  master list distance cutoff = 7.72488
  ghost atom cutoff = 7.72488
Setting up cg style minimization ...
  Unit style: metal
Memory usage per processor = 3.36043 Mbytes
Step Temp Press CPU Pxx Pyy Pzz Pxy Pxz Pyz KinEng PotEng TotEng Volume Lx Ly Lz Atoms 
      14            0 6.859415e-07            0 5.0350332e-08 8.3597606e-07 1.1714981e-06 1.6065964e-11 1.1714765e-12  -0.31659621            0   -860.16001   -860.16001    4251.5279         16.2         16.2         16.2      256 
      15            0 6.8587838e-07 0.0030069351 5.0310983e-08 8.3592262e-07 1.1714015e-06 2.719499e-12 -6.6941515e-13  -0.31659621            0   -860.16001   -860.16001    4251.5279         16.2         16.2         16.2      256 
Loop time of 0.00302386 on 1 procs for 1 steps with 256 atoms

132.3% CPU use with 1 MPI tasks x no OpenMP threads

Minimization stats:
  Stopping criterion = force tolerance
  Energy initial, next-to-last, final = 
        -860.160005863     -860.160005863     -860.160005863
  Force two-norm initial, final = 1.6774e-11 9.73273e-12
  Force max component initial, final = 1.12256e-12 7.7887e-13
  Final line search alpha, max atom move = 1 7.7887e-13
  Iterations, force evaluations = 1 2

MPI task timing breakdown:
Section |  min time  |  avg time  |  max time  |%varavg| %total
---------------------------------------------------------------
Pair    | 0.0029521  | 0.0029521  | 0.0029521  |   0.0 | 97.63
Neigh   | 0          | 0          | 0          |   0.0 |  0.00
Comm    | 2.8133e-05 | 2.8133e-05 | 2.8133e-05 |   0.0 |  0.93
Output  | 0          | 0          | 0          |   0.0 |  0.00
Modify  | 0          | 0          | 0          |   0.0 |  0.00
Other   |            | 4.363e-05  |            |       |  1.44

Nlocal:    256 ave 256 max 256 min
Histogram: 1 0 0 0 0 0 0 0 0 0
Nghost:    1431 ave 1431 max 1431 min
Histogram: 1 0 0 0 0 0 0 0 0 0
Neighs:    17152 ave 17152 max 17152 min
Histogram: 1 0 0 0 0 0 0 0 0 0

Total # of neighbors = 17152
Ave neighs/atom = 67
Neighbor list builds = 0
Dangerous builds = 0
Reading restart file ...
  restart file = 13 Jan 2016, LAMMPS = 13 Jan 2016
  triclinic box = (-6.72287e-11 -6.71366e-11 -5.67336e-10) to (16.2 16.2 16.2) with tilt (0 0 0)
  1 by 1 by 1 MPI processor grid
  256 atoms
Changing box ...
  triclinic box = (-6.72287e-11 -6.71366e-11 -5.67336e-10) to (16.2 16.2 16.2) with tilt (0 -1.62e-05 0)
Neighbor list info ...
  1 neighbor list requests
  update every 1 steps, delay 0 steps, check yes
  max neighbors/atom: 2000, page size: 100000
  master list distance cutoff = 7.72488
  ghost atom cutoff = 7.72488
Setting up cg style minimization ...
  Unit style: metal
Memory usage per processor = 3.36043 Mbytes
Step Temp Press CPU Pxx Pyy Pzz Pxy Pxz Pyz KinEng PotEng TotEng Volume Lx Ly Lz Atoms 
      14            0 6.8594027e-07            0 8.2922555e-07 5.707227e-08 1.171523e-06 -5.146129e-12   0.31659621 -9.2515266e-12            0   -860.16001   -860.16001    4251.5279         16.2         16.2         16.2      256 
      15            0 6.858872e-07 0.0029709339 8.2921457e-07 5.703699e-08  1.17141e-06 5.6481903e-12   0.31659621 -1.3346465e-11            0   -860.16001   -860.16001    4251.5279         16.2         16.2         16.2      256 
Loop time of 0.00298905 on 1 procs for 1 steps with 256 atoms

0.0% CPU use with 1 MPI tasks x no OpenMP threads

Minimization stats:
  Stopping criterion = force tolerance
  Energy initial, next-to-last, final = 
        -860.160005863     -860.160005863     -860.160005863
  Force two-norm initial, final = 1.67166e-11 9.7401e-12
  Force max component initial, final = 1.13017e-12 7.85566e-13
  Final line search alpha, max atom move = 1 7.85566e-13
  Iterations, force evaluations = 1 2

MPI task timing breakdown:
Section |  min time  |  avg time  |  max time  |%varavg| %total
---------------------------------------------------------------
Pair    | 0.0029171  | 0.0029171  | 0.0029171  |   0.0 | 97.59
Neigh   | 0          | 0          | 0          |   0.0 |  0.00
Comm    | 2.8849e-05 | 2.8849e-05 | 2.8849e-05 |   0.0 |  0.97
Output  | 0          | 0          | 0          |   0.0 |  0.00
Modify  | 0          | 0          | 0          |   0.0 |  0.00
Other   |            | 4.315e-05  |            |       |  1.44

Nlocal:    256 ave 256 max 256 min
Histogram: 1 0 0 0 0 0 0 0 0 0
Nghost:    1431 ave 1431 max 1431 min
Histogram: 1 0 0 0 0 0 0 0 0 0
Neighs:    17152 ave 17152 max 17152 min
Histogram: 1 0 0 0 0 0 0 0 0 0

Total # of neighbors = 17152
Ave neighs/atom = 67
Neighbor list builds = 0
Dangerous builds = 0
Reading restart file ...
  restart file = 13 Jan 2016, LAMMPS = 13 Jan 2016
  triclinic box = (-6.72287e-11 -6.71366e-11 -5.67336e-10) to (16.2 16.2 16.2) with tilt (0 0 0)
  1 by 1 by 1 MPI processor grid
  256 atoms
Changing box ...
  triclinic box = (-6.72287e-11 -6.71366e-11 -5.67336e-10) to (16.2 16.2 16.2) with tilt (0 1.62e-05 0)
Neighbor list info ...
  1 neighbor list requests
  update every 1 steps, delay 0 steps, check yes
  max neighbors/atom: 2000, page size: 100000
  master list distance cutoff = 7.72488
  ghost atom cutoff = 7.72488
Setting up cg style minimization ...
  Unit style: metal
Memory usage per processor = 3.36043 Mbytes
Step Temp Press CPU Pxx Pyy Pzz Pxy Pxz Pyz KinEng PotEng TotEng Volume Lx Ly Lz Atoms 
      14            0 6.8593719e-07            0 8.2922729e-07 5.7081992e-08 1.1715023e-06 -6.652313e-12  -0.31659621 -1.0344556e-11            0   -860.16001   -860.16001    4251.5279         16.2         16.2         16.2      256 
      15            0 6.8588741e-07 0.0029640198 8.2921994e-07 5.7036796e-08 1.1714055e-06 -4.0164909e-12  -0.31659621 -2.1191173e-11            0   -860.16001   -860.16001    4251.5279         16.2         16.2         16.2      256 
Loop time of 0.00297999 on 1 procs for 1 steps with 256 atoms

134.2% CPU use with 1 MPI tasks x no OpenMP threads

Minimization stats:
  Stopping criterion = force tolerance
  Energy initial, next-to-last, final = 
        -860.160005863     -860.160005863     -860.160005863
  Force two-norm initial, final = 1.67186e-11 9.74038e-12
  Force max component initial, final = 1.12621e-12 7.81781e-13
  Final line search alpha, max atom move = 1 7.81781e-13
  Iterations, force evaluations = 1 2

MPI task timing breakdown:
Section |  min time  |  avg time  |  max time  |%varavg| %total
---------------------------------------------------------------
Pair    | 0.0029089  | 0.0029089  | 0.0029089  |   0.0 | 97.62
Neigh   | 0          | 0          | 0          |   0.0 |  0.00
Comm    | 2.7895e-05 | 2.7895e-05 | 2.7895e-05 |   0.0 |  0.94
Output  | 0          | 0          | 0          |   0.0 |  0.00
Modify  | 0          | 0          | 0          |   0.0 |  0.00
Other   |            | 4.315e-05  |            |       |  1.45

Nlocal:    256 ave 256 max 256 min
Histogram: 1 0 0 0 0 0 0 0 0 0
Nghost:    1431 ave 1431 max 1431 min
Histogram: 1 0 0 0 0 0 0 0 0 0
Neighs:    17152 ave 17152 max 17152 min
Histogram: 1 0 0 0 0 0 0 0 0 0

Total # of neighbors = 17152
Ave neighs/atom = 67
Neighbor list builds = 0
Dangerous builds = 0
Reading restart file ...
  restart file = 13 Jan 2016, LAMMPS = 13 Jan 2016
  triclinic box = (-6.72287e-11 -6.71366e-11 -5.67336e-10) to (16.2 16.2 16.2) with tilt (0 0 0)
  1 by 1 by 1 MPI processor grid
  256 atoms
Changing box ...
  triclinic box = (-6.72287e-11 -6.71366e-11 -5.67336e-10) to (16.2 16.2 16.2) with tilt (-1.62e-05 0 0)
Neighbor list info ...
  1 neighbor list requests
  update every 1 steps, delay 0 steps, check yes
  max neighbors/atom: 2000, page size: 100000
  master list distance cutoff = 7.72488
  ghost atom cutoff = 7.72488
Setting up cg style minimization ...
  Unit style: metal
Memory usage per processor = 3.36043 Mbytes
Step Temp Press CPU Pxx Pyy Pzz Pxy Pxz Pyz KinEng PotEng TotEng Volume Lx Ly Lz Atoms 
      14            0 6.8597138e-07            0 8.2925718e-07 1.1856852e-06 4.2971751e-08   0.31659621 1.9915101e-11 -2.0030156e-12            0   -860.16001   -860.16001    4251.5279         16.2         16.2         16.2      256 
      15            0 6.8593477e-07 0.0030100346 8.2925381e-07 1.1856868e-06 4.2863677e-08   0.31659621 1.1296381e-11 -2.6802755e-11            0   -860.16001   -860.16001    4251.5279         16.2         16.2         16.2      256 
Loop time of 0.00302696 on 1 procs for 1 steps with 256 atoms

0.0% CPU use with 1 MPI tasks x no OpenMP threads

Minimization stats:
  Stopping criterion = force tolerance
  Energy initial, next-to-last, final = 
        -860.160005863     -860.160005863     -860.160005863
  Force two-norm initial, final = 1.6726e-11 9.73156e-12
  Force max component initial, final = 1.12505e-12 7.79946e-13
  Final line search alpha, max atom move = 1 7.79946e-13
  Iterations, force evaluations = 1 2

MPI task timing breakdown:
Section |  min time  |  avg time  |  max time  |%varavg| %total
---------------------------------------------------------------
Pair    | 0.002954   | 0.002954   | 0.002954   |   0.0 | 97.59
Neigh   | 0          | 0          | 0          |   0.0 |  0.00
Comm    | 2.9087e-05 | 2.9087e-05 | 2.9087e-05 |   0.0 |  0.96
Output  | 0          | 0          | 0          |   0.0 |  0.00
Modify  | 0          | 0          | 0          |   0.0 |  0.00
Other   |            | 4.387e-05  |            |       |  1.45

Nlocal:    256 ave 256 max 256 min
Histogram: 1 0 0 0 0 0 0 0 0 0
Nghost:    1431 ave 1431 max 1431 min
Histogram: 1 0 0 0 0 0 0 0 0 0
Neighs:    17152 ave 17152 max 17152 min
Histogram: 1 0 0 0 0 0 0 0 0 0

Total # of neighbors = 17152
Ave neighs/atom = 67
Neighbor list builds = 0
Dangerous builds = 0
Reading restart file ...
  restart file = 13 Jan 2016, LAMMPS = 13 Jan 2016
  triclinic box = (-6.72287e-11 -6.71366e-11 -5.67336e-10) to (16.2 16.2 16.2) with tilt (0 0 0)
  1 by 1 by 1 MPI processor grid
  256 atoms
Changing box ...
  triclinic box = (-6.72287e-11 -6.71366e-11 -5.67336e-10) to (16.2 16.2 16.2) with tilt (1.62e-05 0 0)
Neighbor list info ...
  1 neighbor list requests
  update every 1 steps, delay 0 steps, check yes
  max neighbors/atom: 2000, page size: 100000
  master list distance cutoff = 7.72488
  ghost atom cutoff = 7.72488
Setting up cg style minimization ...
  Unit style: metal
Memory usage per processor = 3.36043 Mbytes
Step Temp Press CPU Pxx Pyy Pzz Pxy Pxz Pyz KinEng PotEng TotEng Volume Lx Ly Lz Atoms 
      14            0 6.8595695e-07            0 8.2924339e-07 1.185658e-06 4.2969424e-08  -0.31659621 -2.7362344e-11 -1.158925e-11            0   -860.16001   -860.16001    4251.5279         16.2         16.2         16.2      256 
      15            0 6.8592111e-07 0.0030040741 8.2925592e-07 1.1856578e-06 4.2849546e-08  -0.31659621 -3.179722e-12 -1.911494e-11            0   -860.16001   -860.16001    4251.5279         16.2         16.2         16.2      256 
Loop time of 0.003021 on 1 procs for 1 steps with 256 atoms

132.4% CPU use with 1 MPI tasks x no OpenMP threads

Minimization stats:
  Stopping criterion = force tolerance
  Energy initial, next-to-last, final = 
        -860.160005863     -860.160005863     -860.160005863
  Force two-norm initial, final = 1.67265e-11 9.73673e-12
  Force max component initial, final = 1.12604e-12 7.81774e-13
  Final line search alpha, max atom move = 1 7.81774e-13
  Iterations, force evaluations = 1 2

MPI task timing breakdown:
Section |  min time  |  avg time  |  max time  |%varavg| %total
---------------------------------------------------------------
Pair    | 0.0029488  | 0.0029488  | 0.0029488  |   0.0 | 97.61
Neigh   | 0          | 0          | 0          |   0.0 |  0.00
Comm    | 2.7418e-05 | 2.7418e-05 | 2.7418e-05 |   0.0 |  0.91
Output  | 0          | 0          | 0          |   0.0 |  0.00
Modify  | 0          | 0          | 0          |   0.0 |  0.00
Other   |            | 4.482e-05  |            |       |  1.48

Nlocal:    256 ave 256 max 256 min
Histogram: 1 0 0 0 0 0 0 0 0 0
Nghost:    1431 ave 1431 max 1431 min
Histogram: 1 0 0 0 0 0 0 0 0 0
Neighs:    17152 ave 17152 max 17152 min
Histogram: 1 0 0 0 0 0 0 0 0 0

Total # of neighbors = 17152
Ave neighs/atom = 67
Neighbor list builds = 0
Dangerous builds = 0
Elastic Constant C11all = 116.815477500248 GPa
Elastic Constant C22all = 116.81547750169 GPa
Elastic Constant C33all = 116.815477508963 GPa
Elastic Constant C12all = 60.1172244681058 GPa
Elastic Constant C13all = 60.1172244727864 GPa
Elastic Constant C23all = 60.117224472638 GPa
Elastic Constant C44all = 31.6596214461371 GPa
Elastic Constant C55all = 31.6596214444803 GPa
Elastic Constant C66all = 31.6596214447668 GPa
Elastic Constant C14all = -8.34416990018433e-10 GPa
Elastic Constant C15all = -4.23091425554159e-10 GPa
Elastic Constant C16all = 2.23312356523538e-10 GPa
Elastic Constant C24all = -1.03602476827761e-09 GPa
Elastic Constant C25all = 1.25122231733664e-10 GPa
Elastic Constant C26all = 3.7903024199336e-10 GPa
Elastic Constant C34all = 1.28390966963362e-10 GPa
Elastic Constant C35all = 1.12441996148045e-11 GPa
Elastic Constant C36all = 3.35492571797408e-10 GPa
Elastic Constant C45all = 9.57054471692925e-11 GPa
Elastic Constant C46all = -2.00563054587018e-10 GPa
Elastic Constant C56all = 6.03519595810741e-10 GPa
Total wall time: 0:00:00
