   2   2   1   0
  0.2072484E+02  0.3884592E-09  0.3884592E-09  0.3884592E-09  0.5000000E-15
   1.0000000000000000E-004
  CAR 
 unknown system                          
     30.16623590     -8.19184612 5000      5.80674815      1.00000000
     -8.192  0.0000E+00  0.0000E+00  0.0000E+00  0.0000E+00
     -8.184  0.0000E+00  0.0000E+00  0.0000E+00  0.0000E+00
     -8.176  0.0000E+00  0.0000E+00  0.0000E+00  0.0000E+00
     -8.169  0.0000E+00  0.0000E+00  0.0000E+00  0.0000E+00
     -8.161  0.0000E+00  0.0000E+00  0.0000E+00  0.0000E+00
     -8.153  0.0000E+00  0.0000E+00  0.0000E+00  0.0000E+00
     -8.146  0.0000E+00  0.0000E+00  0.0000E+00  0.0000E+00
     -8.138  0.0000E+00  0.0000E+00  0.0000E+00  0.0000E+00
     -8.130  0.0000E+00  0.0000E+00  0.0000E+00  0.0000E+00
     -8.123  0.0000E+00  0.0000E+00  0.0000E+00  0.0000E+00
     -8.115  0.0000E+00  0.0000E+00  0.0000E+00  0.0000E+00
     -8.107  0.0000E+00  0.0000E+00  0.0000E+00  0.0000E+00
     -8.100  0.0000E+00  0.0000E+00  0.0000E+00  0.0000E+00
     -8.092  0.0000E+00  0.0000E+00  0.0000E+00  0.0000E+00
     -8.084  0.0000E+00  0.0000E+00  0.0000E+00  0.0000E+00
     -8.077  0.0000E+00  0.0000E+00  0.0000E+00  0.0000E+00
     -8.069  0.0000E+00  0.0000E+00  0.0000E+00  0.0000E+00
     -8.061  0.0000E+00  0.0000E+00  0.0000E+00  0.0000E+00
     -8.054  0.0000E+00  0.0000E+00  0.0000E+00  0.0000E+00
     -8.046  0.0000E+00  0.0000E+00  0.0000E+00  0.0000E+00
     -8.038  0.0000E+00  0.0000E+00  0.0000E+00  0.0000E+00
     -8.031  0.0000E+00  0.0000E+00  0.0000E+00  0.0000E+00
     -8.023  0.0000E+00  0.0000E+00  0.0000E+00  0.0000E+00
     -8.015  0.0000E+00  0.0000E+00  0.0000E+00  0.0000E+00
     -8.008  0.0000E+00  0.0000E+00  0.0000E+00  0.0000E+00
     -8.000  0.0000E+00  0.0000E+00  0.0000E+00  0.0000E+00
     -7.992  0.0000E+00  0.0000E+00  0.0000E+00  0.0000E+00
     -7.985  0.0000E+00  0.0000E+00  0.0000E+00  0.0000E+00
     -7.977  0.0000E+00  0.0000E+00  0.0000E+00  0.0000E+00
     -7.969  0.0000E+00  0.0000E+00  0.0000E+00  0.0000E+00
     -7.962  0.0000E+00  0.0000E+00  0.0000E+00  0.0000E+00
     -7.954  0.0000E+00  0.0000E+00  0.0000E+00  0.0000E+00
     -7.946  0.0000E+00  0.0000E+00  0.0000E+00  0.0000E+00
     -7.939  0.0000E+00  0.0000E+00  0.0000E+00  0.0000E+00
     -7.931  0.0000E+00  0.0000E+00  0.0000E+00  0.0000E+00
     -7.923  0.0000E+00  0.0000E+00  0.0000E+00  0.0000E+00
     -7.916  0.0000E+00  0.0000E+00  0.0000E+00  0.0000E+00
     -7.908  0.0000E+00  0.0000E+00  0.0000E+00  0.0000E+00
     -7.900  0.0000E+00  0.0000E+00  0.0000E+00  0.0000E+00
     -7.893  0.0000E+00  0.0000E+00  0.0000E+00  0.0000E+00
     -7.885  0.0000E+00  0.0000E+00  0.0000E+00  0.0000E+00
     -7.877  0.0000E+00  0.0000E+00  0.0000E+00  0.0000E+00
     -7.870  0.0000E+00  0.0000E+00  0.0000E+00  0.0000E+00
     -7.862  0.0000E+00  0.0000E+00  0.0000E+00  0.0000E+00
     -7.854  0.0000E+00  0.0000E+00  0.0000E+00  0.0000E+00
     -7.847  0.0000E+00  0.0000E+00  0.0000E+00  0.0000E+00
     -7.839  0.0000E+00  0.0000E+00  0.0000E+00  0.0000E+00
     -7.831  0.0000E+00  0.0000E+00  0.0000E+00  0.0000E+00
     -7.824  0.0000E+00  0.0000E+00  0.0000E+00  0.0000E+00
     -7.816  0.0000E+00  0.0000E+00  0.0000E+00  0.0000E+00
     -7.808  0.0000E+00  0.0000E+00  0.0000E+00  0.0000E+00
     -7.801  0.0000E+00  0.0000E+00  0.0000E+00  0.0000E+00
     -7.793  0.0000E+00  0.0000E+00  0.0000E+00  0.0000E+00
     -7.785  0.0000E+00  0.0000E+00  0.0000E+00  0.0000E+00
     -7.777  0.0000E+00  0.0000E+00  0.0000E+00  0.0000E+00
     -7.770  0.0000E+00  0.0000E+00  0.0000E+00  0.0000E+00
     -7.762  0.0000E+00  0.0000E+00  0.0000E+00  0.0000E+00
     -7.754  0.0000E+00  0.0000E+00  0.0000E+00  0.0000E+00
     -7.747  0.0000E+00  0.0000E+00  0.0000E+00  0.0000E+00
     -7.739  0.0000E+00  0.0000E+00  0.0000E+00  0.0000E+00
     -7.731  0.0000E+00  0.0000E+00  0.0000E+00  0.0000E+00
     -7.724  0.0000E+00  0.0000E+00  0.0000E+00  0.0000E+00
     -7.716  0.0000E+00  0.0000E+00  0.0000E+00  0.0000E+00
     -7.708  0.0000E+00  0.0000E+00  0.0000E+00  0.0000E+00
     -7.701  0.0000E+00  0.0000E+00  0.0000E+00  0.0000E+00
     -7.693  0.0000E+00  0.0000E+00  0.0000E+00  0.0000E+00
     -7.685  0.0000E+00  0.0000E+00  0.0000E+00  0.0000E+00
     -7.678  0.0000E+00  0.0000E+00  0.0000E+00  0.0000E+00
     -7.670  0.0000E+00  0.0000E+00  0.0000E+00  0.0000E+00
     -7.662  0.0000E+00  0.0000E+00  0.0000E+00  0.0000E+00
     -7.655  0.0000E+00  0.0000E+00  0.0000E+00  0.0000E+00
     -7.647  0.0000E+00  0.0000E+00  0.0000E+00  0.0000E+00
     -7.639  0.0000E+00  0.0000E+00  0.0000E+00  0.0000E+00
     -7.632  0.0000E+00  0.0000E+00  0.0000E+00  0.0000E+00
     -7.624  0.0000E+00  0.0000E+00  0.0000E+00  0.0000E+00
     -7.616  0.0000E+00  0.0000E+00  0.0000E+00  0.0000E+00
     -7.609  0.0000E+00  0.0000E+00  0.0000E+00  0.0000E+00
     -7.601  0.0000E+00  0.0000E+00  0.0000E+00  0.0000E+00
     -7.593  0.0000E+00  0.0000E+00  0.0000E+00  0.0000E+00
     -7.586  0.0000E+00  0.0000E+00  0.0000E+00  0.0000E+00
     -7.578  0.0000E+00  0.0000E+00  0.0000E+00  0.0000E+00
     -7.570  0.0000E+00  0.0000E+00  0.0000E+00  0.0000E+00
     -7.563  0.0000E+00  0.0000E+00  0.0000E+00  0.0000E+00
     -7.555  0.0000E+00  0.0000E+00  0.0000E+00  0.0000E+00
     -7.547  0.0000E+00  0.0000E+00  0.0000E+00  0.0000E+00
     -7.540  0.0000E+00  0.0000E+00  0.0000E+00  0.0000E+00
     -7.532  0.0000E+00  0.0000E+00  0.0000E+00  0.0000E+00
     -7.524  0.0000E+00  0.0000E+00  0.0000E+00  0.0000E+00
     -7.517  0.0000E+00  0.0000E+00  0.0000E+00  0.0000E+00
     -7.509  0.0000E+00  0.0000E+00  0.0000E+00  0.0000E+00
     -7.501  0.0000E+00  0.0000E+00  0.0000E+00  0.0000E+00
     -7.494  0.0000E+00  0.0000E+00  0.0000E+00  0.0000E+00
     -7.486  0.0000E+00  0.0000E+00  0.0000E+00  0.0000E+00
     -7.478  0.0000E+00  0.0000E+00  0.0000E+00  0.0000E+00
     -7.471  0.0000E+00  0.0000E+00  0.0000E+00  0.0000E+00
     -7.463  0.0000E+00  0.0000E+00  0.0000E+00  0.0000E+00
     -7.455  0.0000E+00  0.0000E+00  0.0000E+00  0.0000E+00
     -7.448  0.0000E+00  0.0000E+00  0.0000E+00  0.0000E+00
     -7.440  0.0000E+00  0.0000E+00  0.0000E+00  0.0000E+00
     -7.432  0.0000E+00  0.0000E+00  0.0000E+00  0.0000E+00
     -7.425  0.0000E+00  0.0000E+00  0.0000E+00  0.0000E+00
     -7.417  0.0000E+00  0.0000E+00  0.0000E+00  0.0000E+00
     -7.409  0.0000E+00  0.0000E+00  0.0000E+00  0.0000E+00
     -7.402  0.0000E+00  0.0000E+00  0.0000E+00  0.0000E+00
     -7.394  0.0000E+00  0.0000E+00  0.0000E+00  0.0000E+00
     -7.386  0.0000E+00  0.0000E+00  0.0000E+00  0.0000E+00
     -7.378  0.0000E+00  0.0000E+00  0.0000E+00  0.0000E+00
     -7.371  0.6586E-20  0.6586E-20  0.5053E-22  0.5053E-22
     -7.363  0.0000E+00  0.0000E+00  0.5053E-22  0.5053E-22
     -7.355  0.6586E-20  0.6586E-20  0.1011E-21  0.1011E-21
     -7.348  0.6586E-20  0.6586E-20  0.1516E-21  0.1516E-21
     -7.340  0.6586E-20  0.6586E-20  0.2021E-21  0.2021E-21
     -7.332  0.1976E-19  0.1976E-19  0.3537E-21  0.3537E-21
     -7.325  0.1976E-19  0.1976E-19  0.5053E-21  0.5053E-21
     -7.317  0.3951E-19  0.3951E-19  0.8085E-21  0.8085E-21
     -7.309  0.5927E-19  0.5927E-19  0.1263E-20  0.1263E-20
     -7.302  0.8561E-19  0.8561E-19  0.1920E-20  0.1920E-20
     -7.294  0.1844E-18  0.1844E-18  0.3335E-20  0.3335E-20
     -7.286  0.2107E-18  0.2107E-18  0.4952E-20  0.4952E-20
     -7.279  0.3622E-18  0.3622E-18  0.7732E-20  0.7732E-20
     -7.271  0.5664E-18  0.5664E-18  0.1208E-19  0.1208E-19
     -7.263  0.8298E-18  0.8298E-18  0.1844E-19  0.1844E-19
     -7.256  0.1225E-17  0.1225E-17  0.2784E-19  0.2784E-19
     -7.248  0.1884E-17  0.1884E-17  0.4230E-19  0.4230E-19
     -7.240  0.2799E-17  0.2799E-17  0.6377E-19  0.6377E-19
     -7.233  0.4261E-17  0.4261E-17  0.9647E-19  0.9647E-19
     -7.225  0.6395E-17  0.6395E-17  0.1455E-18  0.1455E-18
     -7.217  0.9457E-17  0.9457E-17  0.2181E-18  0.2181E-18
     -7.210  0.1415E-16  0.1415E-16  0.3266E-18  0.3266E-18
     -7.202  0.2099E-16  0.2099E-16  0.4877E-18  0.4877E-18
     -7.194  0.3107E-16  0.3108E-16  0.7261E-18  0.7262E-18
     -7.187  0.4578E-16  0.4578E-16  0.1077E-17  0.1077E-17
     -7.179  0.6750E-16  0.6750E-16  0.1595E-17  0.1595E-17
     -7.171  0.9909E-16  0.9909E-16  0.2356E-17  0.2356E-17
     -7.164  0.1450E-15  0.1450E-15  0.3468E-17  0.3468E-17
     -7.156  0.2116E-15  0.2116E-15  0.5092E-17  0.5092E-17
     -7.148  0.3081E-15  0.3081E-15  0.7456E-17  0.7456E-17
     -7.141  0.4470E-15  0.4471E-15  0.1089E-16  0.1089E-16
     -7.133  0.6471E-15  0.6471E-15  0.1585E-16  0.1585E-16
     -7.125  0.9340E-15  0.9341E-15  0.2302E-16  0.2302E-16
     -7.118  0.1344E-14  0.1344E-14  0.3333E-16  0.3333E-16
     -7.110  0.1930E-14  0.1930E-14  0.4814E-16  0.4814E-16
     -7.102  0.2762E-14  0.2762E-14  0.6933E-16  0.6933E-16
     -7.095  0.3942E-14  0.3942E-14  0.9958E-16  0.9959E-16
     -7.087  0.5612E-14  0.5612E-14  0.1426E-15  0.1426E-15
     -7.079  0.7965E-14  0.7966E-14  0.2038E-15  0.2038E-15
     -7.072  0.1128E-13  0.1128E-13  0.2903E-15  0.2903E-15
     -7.064  0.1592E-13  0.1592E-13  0.4124E-15  0.4124E-15
     -7.056  0.2241E-13  0.2241E-13  0.5843E-15  0.5843E-15
     -7.049  0.3145E-13  0.3145E-13  0.8257E-15  0.8257E-15
     -7.041  0.4403E-13  0.4403E-13  0.1164E-14  0.1164E-14
     -7.033  0.6148E-13  0.6148E-13  0.1635E-14  0.1635E-14
     -7.026  0.8559E-13  0.8559E-13  0.2292E-14  0.2292E-14
     -7.018  0.1188E-12  0.1188E-12  0.3204E-14  0.3204E-14
     -7.010  0.1645E-12  0.1646E-12  0.4467E-14  0.4467E-14
     -7.003  0.2272E-12  0.2272E-12  0.6210E-14  0.6210E-14
     -6.995  0.3129E-12  0.3129E-12  0.8611E-14  0.8611E-14
     -6.987  0.4297E-12  0.4297E-12  0.1191E-13  0.1191E-13
     -6.979  0.5885E-12  0.5885E-12  0.1642E-13  0.1642E-13
     -6.972  0.8037E-12  0.8038E-12  0.2259E-13  0.2259E-13
     -6.964  0.1095E-11  0.1095E-11  0.3099E-13  0.3099E-13
     -6.956  0.1487E-11  0.1487E-11  0.4240E-13  0.4240E-13
     -6.949  0.2015E-11  0.2015E-11  0.5786E-13  0.5786E-13
     -6.941  0.2722E-11  0.2722E-11  0.7874E-13  0.7874E-13
     -6.933  0.3667E-11  0.3667E-11  0.1069E-12  0.1069E-12
     -6.926  0.4927E-11  0.4927E-11  0.1447E-12  0.1447E-12
     -6.918  0.6603E-11  0.6603E-11  0.1954E-12  0.1954E-12
     -6.910  0.8824E-11  0.8824E-11  0.2631E-12  0.2631E-12
     -6.903  0.1176E-10  0.1176E-10  0.3533E-12  0.3533E-12
     -6.895  0.1563E-10  0.1563E-10  0.4733E-12  0.4733E-12
     -6.887  0.2072E-10  0.2072E-10  0.6323E-12  0.6323E-12
     -6.880  0.2740E-10  0.2740E-10  0.8425E-12  0.8425E-12
     -6.872  0.3612E-10  0.3612E-10  0.1120E-11  0.1120E-11
     -6.864  0.4750E-10  0.4750E-10  0.1484E-11  0.1484E-11
     -6.857  0.6229E-10  0.6229E-10  0.1962E-11  0.1962E-11
     -6.849  0.8147E-10  0.8147E-10  0.2587E-11  0.2587E-11
     -6.841  0.1063E-09  0.1063E-09  0.3403E-11  0.3403E-11
     -6.834  0.1382E-09  0.1382E-09  0.4463E-11  0.4464E-11
     -6.826  0.1794E-09  0.1794E-09  0.5840E-11  0.5840E-11
     -6.818  0.2321E-09  0.2321E-09  0.7621E-11  0.7621E-11
     -6.811  0.2995E-09  0.2995E-09  0.9919E-11  0.9919E-11
     -6.803  0.3855E-09  0.3855E-09  0.1288E-10  0.1288E-10
     -6.795  0.4948E-09  0.4948E-09  0.1667E-10  0.1667E-10
     -6.788  0.6334E-09  0.6334E-09  0.2153E-10  0.2153E-10
     -6.780  0.8087E-09  0.8087E-09  0.2774E-10  0.2774E-10
     -6.772  0.1030E-08  0.1030E-08  0.3564E-10  0.3564E-10
     -6.765  0.1308E-08  0.1308E-08  0.4567E-10  0.4568E-10
     -6.757  0.1656E-08  0.1656E-08  0.5838E-10  0.5839E-10
     -6.749  0.2092E-08  0.2092E-08  0.7444E-10  0.7444E-10
     -6.742  0.2636E-08  0.2636E-08  0.9467E-10  0.9467E-10
     -6.734  0.3313E-08  0.3313E-08  0.1201E-09  0.1201E-09
     -6.726  0.4151E-08  0.4151E-08  0.1519E-09  0.1519E-09
     -6.719  0.5189E-08  0.5189E-08  0.1918E-09  0.1918E-09
     -6.711  0.6468E-08  0.6468E-08  0.2414E-09  0.2414E-09
     -6.703  0.8041E-08  0.8041E-08  0.3031E-09  0.3031E-09
     -6.696  0.9971E-08  0.9971E-08  0.3796E-09  0.3796E-09
     -6.688  0.1233E-07  0.1233E-07  0.4742E-09  0.4742E-09
     -6.680  0.1521E-07  0.1521E-07  0.5909E-09  0.5909E-09
     -6.673  0.1871E-07  0.1871E-07  0.7345E-09  0.7345E-09
     -6.665  0.2296E-07  0.2296E-07  0.9106E-09  0.9107E-09
     -6.657  0.2809E-07  0.2809E-07  0.1126E-08  0.1126E-08
     -6.650  0.3429E-07  0.3429E-07  0.1389E-08  0.1389E-08
     -6.642  0.4174E-07  0.4174E-07  0.1710E-08  0.1710E-08
     -6.634  0.5067E-07  0.5067E-07  0.2098E-08  0.2098E-08
     -6.627  0.6136E-07  0.6136E-07  0.2569E-08  0.2569E-08
     -6.619  0.7410E-07  0.7410E-07  0.3138E-08  0.3138E-08
     -6.611  0.8926E-07  0.8926E-07  0.3823E-08  0.3823E-08
     -6.604  0.1072E-06  0.1072E-06  0.4645E-08  0.4646E-08
     -6.596  0.1285E-06  0.1285E-06  0.5631E-08  0.5632E-08
     -6.588  0.1536E-06  0.1536E-06  0.6810E-08  0.6810E-08
     -6.580  0.1831E-06  0.1831E-06  0.8214E-08  0.8214E-08
     -6.573  0.2176E-06  0.2176E-06  0.9884E-08  0.9884E-08
     -6.565  0.2581E-06  0.2581E-06  0.1186E-07  0.1186E-07
     -6.557  0.3052E-06  0.3052E-06  0.1421E-07  0.1421E-07
     -6.550  0.3601E-06  0.3601E-06  0.1697E-07  0.1697E-07
     -6.542  0.4237E-06  0.4237E-06  0.2022E-07  0.2022E-07
     -6.534  0.4972E-06  0.4972E-06  0.2404E-07  0.2404E-07
     -6.527  0.5820E-06  0.5820E-06  0.2850E-07  0.2850E-07
     -6.519  0.6795E-06  0.6795E-06  0.3372E-07  0.3372E-07
     -6.511  0.7913E-06  0.7913E-06  0.3979E-07  0.3979E-07
     -6.504  0.9192E-06  0.9192E-06  0.4684E-07  0.4684E-07
     -6.496  0.1065E-05  0.1065E-05  0.5501E-07  0.5501E-07
     -6.488  0.1231E-05  0.1231E-05  0.6446E-07  0.6446E-07
     -6.481  0.1419E-05  0.1419E-05  0.7534E-07  0.7534E-07
     -6.473  0.1631E-05  0.1631E-05  0.8786E-07  0.8786E-07
     -6.465  0.1871E-05  0.1871E-05  0.1022E-06  0.1022E-06
     -6.458  0.2140E-05  0.2141E-05  0.1186E-06  0.1186E-06
     -6.450  0.2443E-05  0.2443E-05  0.1374E-06  0.1374E-06
     -6.442  0.2781E-05  0.2781E-05  0.1587E-06  0.1587E-06
     -6.435  0.3158E-05  0.3158E-05  0.1829E-06  0.1829E-06
     -6.427  0.3577E-05  0.3577E-05  0.2104E-06  0.2104E-06
     -6.419  0.4042E-05  0.4042E-05  0.2414E-06  0.2414E-06
     -6.412  0.4556E-05  0.4556E-05  0.2764E-06  0.2764E-06
     -6.404  0.5123E-05  0.5123E-05  0.3157E-06  0.3157E-06
     -6.396  0.5747E-05  0.5747E-05  0.3598E-06  0.3598E-06
     -6.389  0.6431E-05  0.6431E-05  0.4091E-06  0.4091E-06
     -6.381  0.7180E-05  0.7180E-05  0.4642E-06  0.4642E-06
     -6.373  0.7997E-05  0.7997E-05  0.5256E-06  0.5256E-06
     -6.366  0.8887E-05  0.8887E-05  0.5938E-06  0.5938E-06
     -6.358  0.9852E-05  0.9852E-05  0.6694E-06  0.6694E-06
     -6.350  0.1090E-04  0.1090E-04  0.7530E-06  0.7530E-06
     -6.343  0.1203E-04  0.1203E-04  0.8452E-06  0.8453E-06
     -6.335  0.1324E-04  0.1324E-04  0.9468E-06  0.9469E-06
     -6.327  0.1455E-04  0.1455E-04  0.1058E-05  0.1058E-05
     -6.320  0.1595E-04  0.1595E-04  0.1181E-05  0.1181E-05
     -6.312  0.1744E-04  0.1744E-04  0.1315E-05  0.1315E-05
     -6.304  0.1903E-04  0.1904E-04  0.1461E-05  0.1461E-05
     -6.297  0.2073E-04  0.2073E-04  0.1620E-05  0.1620E-05
     -6.289  0.2253E-04  0.2253E-04  0.1793E-05  0.1793E-05
     -6.281  0.2443E-04  0.2443E-04  0.1980E-05  0.1980E-05
     -6.274  0.2644E-04  0.2644E-04  0.2183E-05  0.2183E-05
     -6.266  0.2856E-04  0.2856E-04  0.2402E-05  0.2402E-05
     -6.258  0.3078E-04  0.3078E-04  0.2638E-05  0.2638E-05
     -6.251  0.3312E-04  0.3312E-04  0.2892E-05  0.2892E-05
     -6.243  0.3556E-04  0.3556E-04  0.3165E-05  0.3165E-05
     -6.235  0.3810E-04  0.3810E-04  0.3458E-05  0.3458E-05
     -6.228  0.4075E-04  0.4075E-04  0.3770E-05  0.3770E-05
     -6.220  0.4351E-04  0.4351E-04  0.4104E-05  0.4104E-05
     -6.212  0.4636E-04  0.4636E-04  0.4460E-05  0.4460E-05
     -6.205  0.4932E-04  0.4932E-04  0.4838E-05  0.4838E-05
     -6.197  0.5237E-04  0.5237E-04  0.5240E-05  0.5240E-05
     -6.189  0.5551E-04  0.5551E-04  0.5666E-05  0.5666E-05
     -6.181  0.5874E-04  0.5874E-04  0.6117E-05  0.6117E-05
     -6.174  0.6205E-04  0.6205E-04  0.6593E-05  0.6593E-05
     -6.166  0.6544E-04  0.6544E-04  0.7095E-05  0.7095E-05
     -6.158  0.6891E-04  0.6891E-04  0.7624E-05  0.7624E-05
     -6.151  0.7244E-04  0.7244E-04  0.8180E-05  0.8180E-05
     -6.143  0.7603E-04  0.7603E-04  0.8763E-05  0.8763E-05
     -6.135  0.7968E-04  0.7968E-04  0.9375E-05  0.9375E-05
     -6.128  0.8338E-04  0.8338E-04  0.1001E-04  0.1001E-04
     -6.120  0.8712E-04  0.8712E-04  0.1068E-04  0.1068E-04
     -6.112  0.9090E-04  0.9090E-04  0.1138E-04  0.1138E-04
     -6.105  0.9471E-04  0.9471E-04  0.1211E-04  0.1211E-04
     -6.097  0.9853E-04  0.9853E-04  0.1286E-04  0.1286E-04
     -6.089  0.1024E-03  0.1024E-03  0.1365E-04  0.1365E-04
     -6.082  0.1062E-03  0.1062E-03  0.1446E-04  0.1446E-04
     -6.074  0.1101E-03  0.1101E-03  0.1531E-04  0.1531E-04
     -6.066  0.1139E-03  0.1139E-03  0.1618E-04  0.1618E-04
     -6.059  0.1177E-03  0.1177E-03  0.1709E-04  0.1709E-04
     -6.051  0.1216E-03  0.1216E-03  0.1802E-04  0.1802E-04
     -6.043  0.1253E-03  0.1253E-03  0.1898E-04  0.1898E-04
     -6.036  0.1291E-03  0.1291E-03  0.1997E-04  0.1997E-04
     -6.028  0.1328E-03  0.1328E-03  0.2099E-04  0.2099E-04
     -6.020  0.1365E-03  0.1365E-03  0.2204E-04  0.2204E-04
     -6.013  0.1401E-03  0.1401E-03  0.2311E-04  0.2311E-04
     -6.005  0.1437E-03  0.1437E-03  0.2421E-04  0.2421E-04
     -5.997  0.1472E-03  0.1472E-03  0.2534E-04  0.2534E-04
     -5.990  0.1507E-03  0.1507E-03  0.2650E-04  0.2650E-04
     -5.982  0.1541E-03  0.1541E-03  0.2768E-04  0.2768E-04
     -5.974  0.1575E-03  0.1575E-03  0.2889E-04  0.2889E-04
     -5.967  0.1608E-03  0.1608E-03  0.3013E-04  0.3013E-04
     -5.959  0.1641E-03  0.1641E-03  0.3138E-04  0.3138E-04
     -5.951  0.1673E-03  0.1673E-03  0.3267E-04  0.3267E-04
     -5.944  0.1704E-03  0.1704E-03  0.3398E-04  0.3398E-04
     -5.936  0.1735E-03  0.1735E-03  0.3531E-04  0.3531E-04
     -5.928  0.1766E-03  0.1766E-03  0.3666E-04  0.3666E-04
     -5.921  0.1796E-03  0.1796E-03  0.3804E-04  0.3804E-04
     -5.913  0.1826E-03  0.1826E-03  0.3944E-04  0.3944E-04
     -5.905  0.1856E-03  0.1856E-03  0.4087E-04  0.4087E-04
     -5.898  0.1885E-03  0.1885E-03  0.4231E-04  0.4231E-04
     -5.890  0.1915E-03  0.1915E-03  0.4378E-04  0.4378E-04
     -5.882  0.1944E-03  0.1944E-03  0.4527E-04  0.4527E-04
     -5.875  0.1973E-03  0.1973E-03  0.4679E-04  0.4679E-04
     -5.867  0.2002E-03  0.2002E-03  0.4832E-04  0.4832E-04
     -5.859  0.2031E-03  0.2031E-03  0.4988E-04  0.4988E-04
     -5.852  0.2060E-03  0.2060E-03  0.5146E-04  0.5146E-04
     -5.844  0.2089E-03  0.2089E-03  0.5306E-04  0.5306E-04
     -5.836  0.2118E-03  0.2118E-03  0.5469E-04  0.5469E-04
     -5.829  0.2147E-03  0.2147E-03  0.5634E-04  0.5634E-04
     -5.821  0.2176E-03  0.2176E-03  0.5801E-04  0.5801E-04
     -5.813  0.2205E-03  0.2205E-03  0.5970E-04  0.5970E-04
     -5.805  0.2234E-03  0.2234E-03  0.6141E-04  0.6141E-04
     -5.798  0.2263E-03  0.2263E-03  0.6315E-04  0.6315E-04
     -5.790  0.2292E-03  0.2292E-03  0.6491E-04  0.6491E-04
     -5.782  0.2321E-03  0.2321E-03  0.6669E-04  0.6669E-04
     -5.775  0.2349E-03  0.2349E-03  0.6849E-04  0.6849E-04
     -5.767  0.2378E-03  0.2378E-03  0.7031E-04  0.7031E-04
     -5.759  0.2406E-03  0.2406E-03  0.7216E-04  0.7216E-04
     -5.752  0.2433E-03  0.2433E-03  0.7403E-04  0.7403E-04
     -5.744  0.2460E-03  0.2460E-03  0.7591E-04  0.7591E-04
     -5.736  0.2487E-03  0.2487E-03  0.7782E-04  0.7782E-04
     -5.729  0.2513E-03  0.2513E-03  0.7975E-04  0.7975E-04
     -5.721  0.2538E-03  0.2538E-03  0.8170E-04  0.8170E-04
     -5.713  0.2562E-03  0.2562E-03  0.8366E-04  0.8366E-04
     -5.706  0.2586E-03  0.2586E-03  0.8565E-04  0.8565E-04
     -5.698  0.2608E-03  0.2608E-03  0.8765E-04  0.8765E-04
     -5.690  0.2630E-03  0.2630E-03  0.8967E-04  0.8967E-04
     -5.683  0.2651E-03  0.2651E-03  0.9170E-04  0.9170E-04
     -5.675  0.2671E-03  0.2671E-03  0.9375E-04  0.9375E-04
     -5.667  0.2690E-03  0.2690E-03  0.9581E-04  0.9582E-04
     -5.660  0.2708E-03  0.2708E-03  0.9789E-04  0.9789E-04
     -5.652  0.2724E-03  0.2724E-03  0.9998E-04  0.9998E-04
     -5.644  0.2741E-03  0.2741E-03  0.1021E-03  0.1021E-03
     -5.637  0.2756E-03  0.2756E-03  0.1042E-03  0.1042E-03
     -5.629  0.2770E-03  0.2770E-03  0.1063E-03  0.1063E-03
     -5.621  0.2784E-03  0.2784E-03  0.1085E-03  0.1085E-03
     -5.614  0.2798E-03  0.2798E-03  0.1106E-03  0.1106E-03
     -5.606  0.2811E-03  0.2811E-03  0.1128E-03  0.1128E-03
     -5.598  0.2823E-03  0.2823E-03  0.1149E-03  0.1149E-03
     -5.591  0.2836E-03  0.2836E-03  0.1171E-03  0.1171E-03
     -5.583  0.2848E-03  0.2848E-03  0.1193E-03  0.1193E-03
     -5.575  0.2861E-03  0.2861E-03  0.1215E-03  0.1215E-03
     -5.568  0.2874E-03  0.2874E-03  0.1237E-03  0.1237E-03
     -5.560  0.2887E-03  0.2887E-03  0.1259E-03  0.1259E-03
     -5.552  0.2901E-03  0.2901E-03  0.1281E-03  0.1281E-03
     -5.545  0.2916E-03  0.2916E-03  0.1304E-03  0.1304E-03
     -5.537  0.2932E-03  0.2932E-03  0.1326E-03  0.1326E-03
     -5.529  0.2948E-03  0.2948E-03  0.1349E-03  0.1349E-03
     -5.522  0.2966E-03  0.2966E-03  0.1372E-03  0.1372E-03
     -5.514  0.2985E-03  0.2985E-03  0.1395E-03  0.1395E-03
     -5.506  0.3005E-03  0.3005E-03  0.1418E-03  0.1418E-03
     -5.499  0.3027E-03  0.3027E-03  0.1441E-03  0.1441E-03
     -5.491  0.3050E-03  0.3050E-03  0.1464E-03  0.1464E-03
     -5.483  0.3074E-03  0.3074E-03  0.1488E-03  0.1488E-03
     -5.476  0.3099E-03  0.3099E-03  0.1512E-03  0.1512E-03
     -5.468  0.3126E-03  0.3126E-03  0.1536E-03  0.1536E-03
     -5.460  0.3154E-03  0.3154E-03  0.1560E-03  0.1560E-03
     -5.453  0.3184E-03  0.3184E-03  0.1584E-03  0.1584E-03
     -5.445  0.3214E-03  0.3214E-03  0.1609E-03  0.1609E-03
     -5.437  0.3245E-03  0.3245E-03  0.1634E-03  0.1634E-03
     -5.430  0.3277E-03  0.3277E-03  0.1659E-03  0.1659E-03
     -5.422  0.3310E-03  0.3310E-03  0.1684E-03  0.1684E-03
     -5.414  0.3343E-03  0.3343E-03  0.1710E-03  0.1710E-03
     -5.406  0.3376E-03  0.3376E-03  0.1736E-03  0.1736E-03
     -5.399  0.3409E-03  0.3409E-03  0.1762E-03  0.1762E-03
     -5.391  0.3442E-03  0.3442E-03  0.1788E-03  0.1788E-03
     -5.383  0.3475E-03  0.3475E-03  0.1815E-03  0.1815E-03
     -5.376  0.3507E-03  0.3507E-03  0.1842E-03  0.1842E-03
     -5.368  0.3538E-03  0.3538E-03  0.1869E-03  0.1869E-03
     -5.360  0.3568E-03  0.3568E-03  0.1897E-03  0.1897E-03
     -5.353  0.3597E-03  0.3597E-03  0.1924E-03  0.1924E-03
     -5.345  0.3625E-03  0.3625E-03  0.1952E-03  0.1952E-03
     -5.337  0.3651E-03  0.3651E-03  0.1980E-03  0.1980E-03
     -5.330  0.3675E-03  0.3675E-03  0.2008E-03  0.2008E-03
     -5.322  0.3697E-03  0.3697E-03  0.2037E-03  0.2037E-03
     -5.314  0.3717E-03  0.3717E-03  0.2065E-03  0.2065E-03
     -5.307  0.3735E-03  0.3735E-03  0.2094E-03  0.2094E-03
     -5.299  0.3752E-03  0.3752E-03  0.2122E-03  0.2123E-03
     -5.291  0.3766E-03  0.3766E-03  0.2151E-03  0.2151E-03
     -5.284  0.3777E-03  0.3777E-03  0.2180E-03  0.2180E-03
     -5.276  0.3787E-03  0.3787E-03  0.2209E-03  0.2209E-03
     -5.268  0.3795E-03  0.3795E-03  0.2239E-03  0.2239E-03
     -5.261  0.3801E-03  0.3801E-03  0.2268E-03  0.2268E-03
     -5.253  0.3805E-03  0.3805E-03  0.2297E-03  0.2297E-03
     -5.245  0.3807E-03  0.3807E-03  0.2326E-03  0.2326E-03
     -5.238  0.3808E-03  0.3808E-03  0.2355E-03  0.2355E-03
     -5.230  0.3807E-03  0.3807E-03  0.2385E-03  0.2385E-03
     -5.222  0.3806E-03  0.3806E-03  0.2414E-03  0.2414E-03
     -5.215  0.3803E-03  0.3803E-03  0.2443E-03  0.2443E-03
     -5.207  0.3800E-03  0.3800E-03  0.2472E-03  0.2472E-03
     -5.199  0.3797E-03  0.3797E-03  0.2501E-03  0.2501E-03
     -5.192  0.3793E-03  0.3793E-03  0.2530E-03  0.2530E-03
     -5.184  0.3790E-03  0.3790E-03  0.2559E-03  0.2559E-03
     -5.176  0.3786E-03  0.3786E-03  0.2588E-03  0.2588E-03
     -5.169  0.3784E-03  0.3784E-03  0.2618E-03  0.2618E-03
     -5.161  0.3783E-03  0.3783E-03  0.2647E-03  0.2647E-03
     -5.153  0.3782E-03  0.3782E-03  0.2676E-03  0.2676E-03
     -5.146  0.3784E-03  0.3784E-03  0.2705E-03  0.2705E-03
     -5.138  0.3786E-03  0.3786E-03  0.2734E-03  0.2734E-03
     -5.130  0.3791E-03  0.3791E-03  0.2763E-03  0.2763E-03
     -5.123  0.3798E-03  0.3798E-03  0.2792E-03  0.2792E-03
     -5.115  0.3808E-03  0.3808E-03  0.2821E-03  0.2821E-03
     -5.107  0.3820E-03  0.3820E-03  0.2850E-03  0.2850E-03
     -5.100  0.3834E-03  0.3834E-03  0.2880E-03  0.2880E-03
     -5.092  0.3851E-03  0.3851E-03  0.2909E-03  0.2909E-03
     -5.084  0.3871E-03  0.3871E-03  0.2939E-03  0.2939E-03
     -5.077  0.3894E-03  0.3894E-03  0.2969E-03  0.2969E-03
     -5.069  0.3920E-03  0.3920E-03  0.2999E-03  0.2999E-03
     -5.061  0.3948E-03  0.3948E-03  0.3029E-03  0.3029E-03
     -5.054  0.3980E-03  0.3980E-03  0.3060E-03  0.3060E-03
     -5.046  0.4014E-03  0.4014E-03  0.3091E-03  0.3091E-03
     -5.038  0.4050E-03  0.4050E-03  0.3122E-03  0.3122E-03
     -5.031  0.4089E-03  0.4089E-03  0.3153E-03  0.3153E-03
     -5.023  0.4130E-03  0.4130E-03  0.3185E-03  0.3185E-03
     -5.015  0.4174E-03  0.4174E-03  0.3217E-03  0.3217E-03
     -5.007  0.4219E-03  0.4219E-03  0.3249E-03  0.3249E-03
     -5.000  0.4265E-03  0.4265E-03  0.3282E-03  0.3282E-03
     -4.992  0.4312E-03  0.4312E-03  0.3315E-03  0.3315E-03
     -4.984  0.4361E-03  0.4361E-03  0.3348E-03  0.3348E-03
     -4.977  0.4410E-03  0.4410E-03  0.3382E-03  0.3382E-03
     -4.969  0.4459E-03  0.4459E-03  0.3417E-03  0.3417E-03
     -4.961  0.4508E-03  0.4508E-03  0.3451E-03  0.3451E-03
     -4.954  0.4556E-03  0.4556E-03  0.3486E-03  0.3486E-03
     -4.946  0.4603E-03  0.4603E-03  0.3521E-03  0.3521E-03
     -4.938  0.4649E-03  0.4649E-03  0.3557E-03  0.3557E-03
     -4.931  0.4694E-03  0.4694E-03  0.3593E-03  0.3593E-03
     -4.923  0.4736E-03  0.4736E-03  0.3629E-03  0.3629E-03
     -4.915  0.4776E-03  0.4776E-03  0.3666E-03  0.3666E-03
     -4.908  0.4814E-03  0.4814E-03  0.3703E-03  0.3703E-03
     -4.900  0.4848E-03  0.4848E-03  0.3740E-03  0.3740E-03
     -4.892  0.4880E-03  0.4880E-03  0.3778E-03  0.3778E-03
     -4.885  0.4908E-03  0.4908E-03  0.3815E-03  0.3815E-03
     -4.877  0.4933E-03  0.4933E-03  0.3853E-03  0.3853E-03
     -4.869  0.4954E-03  0.4954E-03  0.3891E-03  0.3891E-03
     -4.862  0.4972E-03  0.4972E-03  0.3929E-03  0.3929E-03
     -4.854  0.4986E-03  0.4986E-03  0.3968E-03  0.3968E-03
     -4.846  0.4996E-03  0.4996E-03  0.4006E-03  0.4006E-03
     -4.839  0.5003E-03  0.5003E-03  0.4044E-03  0.4044E-03
     -4.831  0.5006E-03  0.5006E-03  0.4083E-03  0.4083E-03
     -4.823  0.5006E-03  0.5006E-03  0.4121E-03  0.4121E-03
     -4.816  0.5002E-03  0.5002E-03  0.4160E-03  0.4160E-03
     -4.808  0.4996E-03  0.4996E-03  0.4198E-03  0.4198E-03
     -4.800  0.4986E-03  0.4986E-03  0.4236E-03  0.4236E-03
     -4.793  0.4975E-03  0.4975E-03  0.4274E-03  0.4274E-03
     -4.785  0.4961E-03  0.4961E-03  0.4312E-03  0.4312E-03
     -4.777  0.4946E-03  0.4946E-03  0.4350E-03  0.4350E-03
     -4.770  0.4929E-03  0.4929E-03  0.4388E-03  0.4388E-03
     -4.762  0.4911E-03  0.4911E-03  0.4426E-03  0.4426E-03
     -4.754  0.4893E-03  0.4893E-03  0.4463E-03  0.4463E-03
     -4.747  0.4874E-03  0.4874E-03  0.4501E-03  0.4501E-03
     -4.739  0.4856E-03  0.4856E-03  0.4538E-03  0.4538E-03
     -4.731  0.4838E-03  0.4838E-03  0.4575E-03  0.4575E-03
     -4.724  0.4822E-03  0.4822E-03  0.4612E-03  0.4612E-03
     -4.716  0.4807E-03  0.4807E-03  0.4649E-03  0.4649E-03
     -4.708  0.4793E-03  0.4793E-03  0.4686E-03  0.4686E-03
     -4.701  0.4782E-03  0.4782E-03  0.4722E-03  0.4722E-03
     -4.693  0.4774E-03  0.4774E-03  0.4759E-03  0.4759E-03
     -4.685  0.4768E-03  0.4768E-03  0.4796E-03  0.4796E-03
     -4.678  0.4766E-03  0.4766E-03  0.4832E-03  0.4832E-03
     -4.670  0.4766E-03  0.4766E-03  0.4869E-03  0.4869E-03
     -4.662  0.4771E-03  0.4771E-03  0.4905E-03  0.4905E-03
     -4.655  0.4778E-03  0.4778E-03  0.4942E-03  0.4942E-03
     -4.647  0.4790E-03  0.4790E-03  0.4979E-03  0.4979E-03
     -4.639  0.4806E-03  0.4806E-03  0.5016E-03  0.5016E-03
     -4.632  0.4825E-03  0.4825E-03  0.5053E-03  0.5053E-03
     -4.624  0.4848E-03  0.4848E-03  0.5090E-03  0.5090E-03
     -4.616  0.4875E-03  0.4875E-03  0.5127E-03  0.5127E-03
     -4.608  0.4906E-03  0.4906E-03  0.5165E-03  0.5165E-03
     -4.601  0.4940E-03  0.4940E-03  0.5203E-03  0.5203E-03
     -4.593  0.4978E-03  0.4978E-03  0.5241E-03  0.5241E-03
     -4.585  0.5019E-03  0.5019E-03  0.5280E-03  0.5280E-03
     -4.578  0.5063E-03  0.5063E-03  0.5318E-03  0.5318E-03
     -4.570  0.5110E-03  0.5110E-03  0.5358E-03  0.5358E-03
     -4.562  0.5159E-03  0.5159E-03  0.5397E-03  0.5397E-03
     -4.555  0.5211E-03  0.5211E-03  0.5437E-03  0.5437E-03
     -4.547  0.5264E-03  0.5264E-03  0.5478E-03  0.5478E-03
     -4.539  0.5320E-03  0.5320E-03  0.5518E-03  0.5518E-03
     -4.532  0.5376E-03  0.5376E-03  0.5560E-03  0.5560E-03
     -4.524  0.5434E-03  0.5434E-03  0.5601E-03  0.5601E-03
     -4.516  0.5493E-03  0.5493E-03  0.5644E-03  0.5644E-03
     -4.509  0.5552E-03  0.5552E-03  0.5686E-03  0.5686E-03
     -4.501  0.5611E-03  0.5611E-03  0.5729E-03  0.5729E-03
     -4.493  0.5671E-03  0.5671E-03  0.5773E-03  0.5773E-03
     -4.486  0.5730E-03  0.5730E-03  0.5817E-03  0.5817E-03
     -4.478  0.5788E-03  0.5788E-03  0.5861E-03  0.5861E-03
     -4.470  0.5846E-03  0.5846E-03  0.5906E-03  0.5906E-03
     -4.463  0.5903E-03  0.5903E-03  0.5951E-03  0.5951E-03
     -4.455  0.5958E-03  0.5958E-03  0.5997E-03  0.5997E-03
     -4.447  0.6012E-03  0.6012E-03  0.6043E-03  0.6043E-03
     -4.440  0.6064E-03  0.6064E-03  0.6090E-03  0.6090E-03
     -4.432  0.6115E-03  0.6115E-03  0.6137E-03  0.6137E-03
     -4.424  0.6163E-03  0.6163E-03  0.6184E-03  0.6184E-03
     -4.417  0.6210E-03  0.6210E-03  0.6232E-03  0.6232E-03
     -4.409  0.6254E-03  0.6254E-03  0.6280E-03  0.6280E-03
     -4.401  0.6296E-03  0.6296E-03  0.6328E-03  0.6328E-03
     -4.394  0.6336E-03  0.6336E-03  0.6376E-03  0.6376E-03