    2    2  500    2
  0.2072484E+02  0.3884592E-09  0.3884592E-09  0.3884592E-09  0.5000000E-15
   1.0000000000000000E-004
  CAR 
 unknown system                          
      8     84     16

  0.3742002E-15  0.3742002E-15  0.3742002E-15  0.4551661E-03
    1       -6.191846     -6.191846   1.000000   1.000000
    2        5.458921      5.458920   0.993044   0.993044
    3        5.458921      5.458920   0.993044   0.993044
    4        5.458921      5.458920   0.993044   0.993044
    5        8.074171      8.074172   0.000000   0.000000
    6        8.074171      8.074172   0.000000   0.000000
    7        8.074171      8.074172   0.000000   0.000000
    8        8.529768      8.529768   0.000000   0.000000
    9       13.214030     13.214031   0.000000   0.000000
   10       13.214030     13.214031   0.000000   0.000000
   11       13.348511     13.348510   0.000000   0.000000
   12       16.655525     16.655526   0.000000   0.000000
   13       16.655525     16.655526   0.000000   0.000000
   14       16.655525     16.655526   0.000000   0.000000
   15       20.750610     20.750606   0.000000   0.000000
   16       28.166235     28.166236   0.000000   0.000000

  0.7692308E-01  0.3747003E-15  0.3747003E-15  0.3641329E-02
    1       -6.116712     -6.116712   1.000000   1.000000
    2        4.723360      4.723359   1.000000   1.000000
    3        5.342965      5.342964   0.999480   0.999480
    4        5.342965      5.342964   0.999480   0.999480
    5        8.071169      8.071170   0.000000   0.000000
    6        8.246897      8.246897   0.000000   0.000000
    7        8.246897      8.246897   0.000000   0.000000
    8        9.143469      9.143468   0.000000   0.000000
    9       12.985932     12.985933   0.000000   0.000000
   10       12.985932     12.985933   0.000000   0.000000
   11       13.670182     13.670181   0.000000   0.000000
   12       16.384066     16.384067   0.000000   0.000000
   13       17.130275     17.130277   0.000000   0.000000
   14       17.130275     17.130277   0.000000   0.000000
   15       21.254342     21.254339   0.000000   0.000000
   16       27.302005     27.302396   0.000000   0.000000

  0.1538462E+00  0.3747003E-15  0.3747003E-15  0.3641329E-02
    1       -5.893369     -5.893370   1.000000   1.000000
    2        3.377011      3.377011   1.000000   1.000000
    3        5.082038      5.082036   1.000000   1.000000
    4        5.082038      5.082036   1.000000   1.000000
    5        7.820424      7.820424   0.000000   0.000000
    6        8.628869      8.628869   0.000000   0.000000
    7        8.628869      8.628869   0.000000   0.000000
    8       10.442581     10.442580   0.000000   0.000000
    9       12.633225     12.633226   0.000000   0.000000
   10       12.633225     12.633226   0.000000   0.000000
   11       14.377500     14.377499   0.000000   0.000000
   12       16.040528     16.040528   0.000000   0.000000
   13       18.256855     18.256857   0.000000   0.000000
   14       18.256855     18.256857   0.000000   0.000000
   15       22.422068     22.422065   0.000000   0.000000
   16       25.416075     25.416076   0.000000   0.000000

  0.2307692E+00  0.3747003E-15  0.3747003E-15  0.3641329E-02
    1       -5.529401     -5.529401   1.000000   1.000000
    2        1.980977      1.980976   1.000000   1.000000
    3        4.801559      4.801558   1.000000   1.000000
    4        4.801559      4.801558   1.000000   1.000000
    5        7.515010      7.515011   0.000000   0.000000
    6        8.949659      8.949660   0.000000   0.000000
    7        8.949659      8.949660   0.000000   0.000000
    8       11.808849     11.808848   0.000000   0.000000
    9       12.610041     12.610042   0.000000   0.000000
   10       12.610041     12.610042   0.000000   0.000000
   11       14.484894     14.484894   0.000000   0.000000
   12       16.785464     16.785463   0.000000   0.000000
   13       19.626924     19.626925   0.000000   0.000000
   14       19.626924     19.626925   0.000000   0.000000
   15       23.239959     23.239958   0.000000   0.000000
   16       23.463542     23.463543   0.000000   0.000000

  0.3076923E+00  0.3330669E-15  0.3330669E-15  0.3641329E-02
    1       -5.043802     -5.043802   1.000000   1.000000
    2        0.679540      0.679539   1.000000   1.000000
    3        4.567023      4.567022   1.000000   1.000000
    4        4.567023      4.567022   1.000000   1.000000
    5        7.248882      7.248882   0.000000   0.000000
    6        9.033384      9.033385   0.000000   0.000000
    7        9.033384      9.033385   0.000000   0.000000
    8       13.000316     13.000315   0.000000   0.000000
    9       13.142187     13.142187   0.000000   0.000000
   10       13.142187     13.142187   0.000000   0.000000
   11       14.297078     14.297078   0.000000   0.000000
   12       18.336923     18.336923   0.000000   0.000000
   13       20.213468     20.213469   0.000000   0.000000
   14       20.213468     20.213469   0.000000   0.000000
   15       22.218816     22.218815   0.000000   0.000000
   16       22.590431     22.590433   0.000000   0.000000

  0.3846154E+00  0.3885781E-15  0.3885781E-15  0.3641329E-02
    1       -4.488595     -4.488596   1.000000   1.000000
    2       -0.433760     -0.433761   1.000000   1.000000
    3        4.404085      4.404083   1.000000   1.000000
    4        4.404085      4.404084   1.000000   1.000000
    5        7.059930      7.059930   0.000000   0.000000
    6        8.960654      8.960655   0.000000   0.000000
    7        8.960654      8.960655   0.000000   0.000000
    8       13.322093     13.322092   0.000000   0.000000
    9       14.155168     14.155169   0.000000   0.000000
   10       14.155168     14.155169   0.000000   0.000000
   11       15.039791     15.039790   0.000000   0.000000
   12       18.816415     18.816416   0.000000   0.000000
   13       18.816415     18.816416   0.000000   0.000000
   14       19.203795     19.203794   0.000000   0.000000
   15       21.873559     21.873559   0.000000   0.000000
   16       23.995582     23.995584   0.000000   0.000000

  0.4615385E+00  0.3608225E-15  0.3608225E-15  0.3641329E-02
    1       -4.029092     -4.029093   1.000000   1.000000
    2       -1.175870     -1.175871   1.000000   1.000000
    3        4.321446      4.321445   1.000000   1.000000
    4        4.321446      4.321445   1.000000   1.000000
    5        6.962958      6.962958   0.000000   0.000000
    6        8.886104      8.886105   0.000000   0.000000
    7        8.886104      8.886105   0.000000   0.000000
    8       13.230351     13.230350   0.000000   0.000000
    9       15.452496     15.452496   0.000000   0.000000
   10       15.452496     15.452496   0.000000   0.000000
   11       16.243555     16.243554   0.000000   0.000000
   12       17.178916     17.178917   0.000000   0.000000
   13       17.178916     17.178917   0.000000   0.000000
   14       18.339469     18.339469   0.000000   0.000000
   15       23.593627     23.593626   0.000000   0.000000
   16       25.913458     25.913459   0.000000   0.000000

  0.7692308E-01  0.7692308E-01  0.3742002E-15  0.2730997E-02
    1       -6.091552     -6.091553   1.000000   1.000000
    2        4.844613      4.844612   1.000000   1.000000
    3        5.109275      5.109274   1.000000   1.000000
    4        5.109275      5.109274   1.000000   1.000000
    5        7.845269      7.845270   0.000000   0.000000
    6        8.547085      8.547085   0.000000   0.000000
    7        8.547085      8.547085   0.000000   0.000000
    8        9.109335      9.109335   0.000000   0.000000
    9       12.553502     12.553503   0.000000   0.000000
   10       13.325944     13.325945   0.000000   0.000000
   11       13.777088     13.777087   0.000000   0.000000
   12       16.831446     16.831447   0.000000   0.000000
   13       16.831446     16.831447   0.000000   0.000000
   14       17.115456     17.115457   0.000000   0.000000
   15       21.457662     21.457659   0.000000   0.000000
   16       26.911866     26.911866   0.000000   0.000000

  0.1538462E+00  0.7692308E-01  0.3747003E-15  0.1092399E-01
    1       -5.917246     -5.917246   1.000000   1.000000
    2        3.765828      3.765827   1.000000   1.000000
    3        4.794071      4.794070   1.000000   1.000000
    4        4.961306      4.961305   1.000000   1.000000
    5        7.846896      7.846896   0.000000   0.000000
    6        8.575075      8.575075   0.000000   0.000000
    7        9.013907      9.013907   0.000000   0.000000
    8       10.052301     10.052301   0.000000   0.000000
    9       12.141557     12.141558   0.000000   0.000000
   10       13.263899     13.263900   0.000000   0.000000
   11       14.408286     14.408285   0.000000   0.000000
   12       16.473411     16.473412   0.000000   0.000000
   13       17.448322     17.448323   0.000000   0.000000
   14       18.177514     18.177515   0.000000   0.000000
   15       22.452767     22.452765   0.000000   0.000000
   16       25.296129     25.296129   0.000000   0.000000

  0.2307692E+00  0.7692308E-01  0.3747003E-15  0.1092399E-01
    1       -5.599119     -5.599120   1.000000   1.000000
    2        2.420232      2.420231   1.000000   1.000000
    3        4.503817      4.503816   1.000000   1.000000
    4        4.690523      4.690522   1.000000   1.000000
    5        7.912675      7.912675   0.000000   0.000000
    6        8.594835      8.594835   0.000000   0.000000
    7        9.406948      9.406948   0.000000   0.000000
    8       10.830270     10.830270   0.000000   0.000000
    9       12.446587     12.446587   0.000000   0.000000
   10       13.232021     13.232022   0.000000   0.000000
   11       14.903836     14.903835   0.000000   0.000000
   12       16.591410     16.591410   0.000000   0.000000
   13       18.626538     18.626539   0.000000   0.000000
   14       19.614844     19.614845   0.000000   0.000000
   15       23.294615     23.294616   0.000000   0.000000
   16       23.393961     23.393960   0.000000   0.000000

  0.3076923E+00  0.7692308E-01  0.3885781E-15  0.1092399E-01
    1       -5.151083     -5.151083   1.000000   1.000000
    2        1.105742      1.105741   1.000000   1.000000
    3        4.288324      4.288323   1.000000   1.000000
    4        4.377804      4.377803   1.000000   1.000000
    5        7.743640      7.743640   0.000000   0.000000
    6        8.762601      8.762602   0.000000   0.000000
    7        9.527815      9.527815   0.000000   0.000000
    8       11.325218     11.325218   0.000000   0.000000
    9       13.541616     13.541615   0.000000   0.000000
   10       13.656296     13.656297   0.000000   0.000000
   11       14.677994     14.677994   0.000000   0.000000
   12       17.876234     17.876234   0.000000   0.000000
   13       19.606788     19.606789   0.000000   0.000000
   14       20.720398     20.720398   0.000000   0.000000
   15       21.859948     21.859949   0.000000   0.000000
   16       22.400726     22.400727   0.000000   0.000000

  0.3846154E+00  0.7692308E-01  0.3608225E-15  0.1092399E-01
    1       -4.609303     -4.609303   1.000000   1.000000
    2       -0.068205     -0.068205   1.000000   1.000000
    3        4.100610      4.100609   1.000000   1.000000
    4        4.166718      4.166717   1.000000   1.000000
    5        7.557292      7.557292   0.000000   0.000000
    6        8.788834      8.788835   0.000000   0.000000
    7        9.414315      9.414315   0.000000   0.000000
    8       12.158778     12.158778   0.000000   0.000000
    9       14.148291     14.148291   0.000000   0.000000
   10       14.576590     14.576590   0.000000   0.000000
   11       15.110203     15.110202   0.000000   0.000000
   12       18.595415     18.595415   0.000000   0.000000
   13       18.803564     18.803564   0.000000   0.000000
   14       20.293744     20.293744   0.000000   0.000000
   15       22.029951     22.029950   0.000000   0.000000
   16       22.762901     22.762902   0.000000   0.000000

  0.4615385E+00  0.7692308E-01  0.3885781E-15  0.1092399E-01
    1       -4.085053     -4.085054   1.000000   1.000000
    2       -0.960907     -0.960907   1.000000   1.000000
    3        3.891702      3.891701   1.000000   1.000000
    4        4.143486      4.143485   1.000000   1.000000
    5        7.438685      7.438685   0.000000   0.000000
    6        8.775990      8.775991   0.000000   0.000000
    7        9.238533      9.238533   0.000000   0.000000
    8       13.110564     13.110563   0.000000   0.000000
    9       14.208363     14.208363   0.000000   0.000000
   10       15.782106     15.782106   0.000000   0.000000
   11       16.402933     16.402932   0.000000   0.000000
   12       16.986002     16.986003   0.000000   0.000000
   13       17.717731     17.717731   0.000000   0.000000
   14       19.629228     19.629228   0.000000   0.000000
   15       22.889337     22.889337   0.000000   0.000000
   16       24.628968     24.628969   0.000000   0.000000

 -0.4615385E+00  0.7692308E-01  0.3885781E-15  0.1092399E-01
    1       -3.894293     -3.894294   1.000000   1.000000
    2       -1.244114     -1.244114   1.000000   1.000000
    3        3.767420      3.767419   1.000000   1.000000
    4        4.215257      4.215256   1.000000   1.000000
    5        7.408977      7.408977   0.000000   0.000000
    6        8.831487      8.831488   0.000000   0.000000
    7        9.109154      9.109155   0.000000   0.000000
    8       13.454095     13.454094   0.000000   0.000000
    9       14.910688     14.910688   0.000000   0.000000
   10       15.210358     15.210359   0.000000   0.000000
   11       16.349230     16.349231   0.000000   0.000000
   12       17.468250     17.468250   0.000000   0.000000
   13       17.694133     17.694132   0.000000   0.000000
   14       18.551611     18.551611   0.000000   0.000000
   15       24.151650     24.151649   0.000000   0.000000
   16       25.116031     25.116030   0.000000   0.000000

 -0.3846154E+00  0.7692308E-01  0.3608225E-15  0.1092399E-01
    1       -4.244945     -4.244945   1.000000   1.000000
    2       -0.707331     -0.707332   1.000000   1.000000
    3        3.738383      3.738382   1.000000   1.000000
    4        4.373455      4.373454   1.000000   1.000000
    5        7.472384      7.472384   0.000000   0.000000
    6        8.975416      8.975416   0.000000   0.000000
    7        9.054531      9.054532   0.000000   0.000000
    8       13.319950     13.319950   0.000000   0.000000
    9       13.831324     13.831324   0.000000   0.000000
   10       14.636603     14.636603   0.000000   0.000000
   11       16.514986     16.514986   0.000000   0.000000
   12       17.108094     17.108095   0.000000   0.000000
   13       19.105567     19.105568   0.000000   0.000000
   14       19.490344     19.490344   0.000000   0.000000
   15       22.208822     22.208822   0.000000   0.000000
   16       23.916016     23.916017   0.000000   0.000000

 -0.3076923E+00  0.7692308E-01  0.3885781E-15  0.1092399E-01
    1       -4.797156     -4.797157   1.000000   1.000000
    2        0.303524      0.303523   1.000000   1.000000
    3        3.812291      3.812290   1.000000   1.000000
    4        4.604304      4.604303   1.000000   1.000000
    5        7.624984      7.624984   0.000000   0.000000
    6        9.028790      9.028790   0.000000   0.000000
    7        9.152935      9.152935   0.000000   0.000000
    8       12.579196     12.579195   0.000000   0.000000
    9       12.731326     12.731327   0.000000   0.000000
   10       14.526185     14.526185   0.000000   0.000000
   11       15.140942     15.140942   0.000000   0.000000
   12       18.335865     18.335865   0.000000   0.000000
   13       19.425318     19.425318   0.000000   0.000000
   14       20.695581     20.695581   0.000000   0.000000
   15       21.699851     21.699852   0.000000   0.000000
   16       22.443391     22.443392   0.000000   0.000000

 -0.2307692E+00  0.7692308E-01  0.3608225E-15  0.1092399E-01
    1       -5.314204     -5.314204   1.000000   1.000000
    2        1.532871      1.532870   1.000000   1.000000
    3        3.994422      3.994421   1.000000   1.000000
    4        4.884625      4.884624   1.000000   1.000000
    5        7.853821      7.853821   0.000000   0.000000
    6        8.902138      8.902139   0.000000   0.000000
    7        9.199458      9.199458   0.000000   0.000000
    8       11.695609     11.695609   0.000000   0.000000
    9       12.093751     12.093752   0.000000   0.000000
   10       13.931314     13.931314   0.000000   0.000000
   11       14.823544     14.823544   0.000000   0.000000
   12       17.323415     17.323415   0.000000   0.000000
   13       19.284908     19.284908   0.000000   0.000000
   14       20.813484     20.813485   0.000000   0.000000
   15       21.642409     21.642410   0.000000   0.000000
   16       23.369105     23.369104   0.000000   0.000000

 -0.1538462E+00  0.7692308E-01  0.3747003E-15  0.1092399E-01
    1       -5.721092     -5.721092   1.000000   1.000000
    2        2.855120      2.855119   1.000000   1.000000
    3        4.291497      4.291496   1.000000   1.000000
    4        5.168513      5.168512   0.999997   0.999997
    5        8.125420      8.125420   0.000000   0.000000
    6        8.590996      8.590996   0.000000   0.000000
    7        8.901219      8.901219   0.000000   0.000000
    8       10.885093     10.885092   0.000000   0.000000
    9       12.039744     12.039745   0.000000   0.000000
   10       13.181580     13.181581   0.000000   0.000000
   11       14.849700     14.849699   0.000000   0.000000
   12       16.391898     16.391898   0.000000   0.000000
   13       18.003732     18.003733   0.000000   0.000000
   14       19.464987     19.464988   0.000000   0.000000
   15       23.141809     23.141807   0.000000   0.000000
   16       23.429544     23.429544   0.000000   0.000000

 -0.7692308E-01  0.7692308E-01  0.3885781E-15  0.5461994E-02
    1       -5.992022     -5.992022   1.000000   1.000000
    2        4.062837      4.062836   1.000000   1.000000
    3        4.755061      4.755060   1.000000   1.000000
    4        5.362339      5.362337   0.999162   0.999162
    5        8.281308      8.281308   0.000000   0.000000
    6        8.327531      8.327532   0.000000   0.000000
    7        8.390162      8.390162   0.000000   0.000000
    8        9.901232      9.901232   0.000000   0.000000
    9       12.431750     12.431751   0.000000   0.000000
   10       13.058774     13.058775   0.000000   0.000000
   11       14.149558     14.149557   0.000000   0.000000
   12       16.498425     16.498426   0.000000   0.000000
   13       17.029261     17.029262   0.000000   0.000000
   14       18.125128     18.125129   0.000000   0.000000
   15       21.989660     21.989658   0.000000   0.000000
   16       25.429572     25.429573   0.000000   0.000000

  0.1538462E+00  0.1538462E+00  0.3742002E-15  0.2730997E-02
    1       -5.792019     -5.792020   1.000000   1.000000
    2        3.643334      3.643333   1.000000   1.000000
    3        4.446298      4.446297   1.000000   1.000000
    4        4.446298      4.446297   1.000000   1.000000
    5        7.337097      7.337097   0.000000   0.000000
    6        9.574987      9.574987   0.000000   0.000000
    7        9.574987      9.574987   0.000000   0.000000
    8        9.718368      9.718368   0.000000   0.000000
    9       11.896902     11.896902   0.000000   0.000000
   10       13.661449     13.661450   0.000000   0.000000
   11       14.873984     14.873984   0.000000   0.000000
   12       17.350306     17.350307   0.000000   0.000000
   13       17.350306     17.350307   0.000000   0.000000
   14       17.905735     17.905735   0.000000   0.000000
   15       23.286964     23.286963   0.000000   0.000000
   16       24.903242     24.903242   0.000000   0.000000

  0.2307692E+00  0.1538462E+00  0.3677614E-15  0.1092399E-01
    1       -5.521220     -5.521221   1.000000   1.000000
    2        2.668276      2.668275   1.000000   1.000000
    3        4.137531      4.137530   1.000000   1.000000
    4        4.156009      4.156009   1.000000   1.000000
    5        7.327854      7.327854   0.000000   0.000000
    6        9.382615      9.382615   0.000000   0.000000
    7       10.057736     10.057736   0.000000   0.000000
    8       10.094972     10.094972   0.000000   0.000000
    9       12.520769     12.520769   0.000000   0.000000
   10       13.817198     13.817199   0.000000   0.000000
   11       15.590197     15.590196   0.000000   0.000000
   12       17.157412     17.157413   0.000000   0.000000
   13       18.055329     18.055331   0.000000   0.000000
   14       19.143453     19.143454   0.000000   0.000000
   15       23.242637     23.242638   0.000000   0.000000
   16       23.525466     23.525466   0.000000   0.000000

  0.3076923E+00  0.1538462E+00  0.3885781E-15  0.1092399E-01
    1       -5.114825     -5.114826   1.000000   1.000000
    2        1.474720      1.474719   1.000000   1.000000
    3        3.780140      3.780139   1.000000   1.000000
    4        3.914767      3.914766   1.000000   1.000000
    5        7.546581      7.546581   0.000000   0.000000
    6        9.399496      9.399496   0.000000   0.000000
    7        9.998602      9.998602   0.000000   0.000000
    8       10.340598     10.340598   0.000000   0.000000
    9       13.821339     13.821338   0.000000   0.000000
   10       14.193686     14.193687   0.000000   0.000000
   11       15.705485     15.705485   0.000000   0.000000
   12       17.775311     17.775310   0.000000   0.000000
   13       19.012845     19.012846   0.000000   0.000000
   14       20.483660     20.483660   0.000000   0.000000
   15       21.566857     21.566858   0.000000   0.000000
   16       22.269141     22.269142   0.000000   0.000000

  0.3846154E+00  0.1538462E+00  0.3885781E-15  0.1092399E-01
    1       -4.598113     -4.598113   1.000000   1.000000
    2        0.318348      0.318347   1.000000   1.000000
    3        3.392555      3.392555   1.000000   1.000000
    4        3.797624      3.797623   1.000000   1.000000
    5        7.607892      7.607892   0.000000   0.000000
    6        9.485177      9.485177   0.000000   0.000000
    7       10.267589     10.267589   0.000000   0.000000
    8       10.402446     10.402446   0.000000   0.000000
    9       15.039058     15.039059   0.000000   0.000000
   10       15.115752     15.115752   0.000000   0.000000
   11       15.496445     15.496444   0.000000   0.000000
   12       18.438889     18.438889   0.000000   0.000000
   13       18.675114     18.675113   0.000000   0.000000
   14       20.389851     20.389851   0.000000   0.000000
   15       21.831610     21.831612   0.000000   0.000000
   16       23.025968     23.025969   0.000000   0.000000

  0.4615385E+00  0.1538462E+00  0.3885781E-15  0.1092399E-01
    1       -4.044901     -4.044901   1.000000   1.000000
    2       -0.653875     -0.653876   1.000000   1.000000
    3        3.066726      3.066726   1.000000   1.000000
    4        3.791935      3.791935   1.000000   1.000000
    5        7.598288      7.598288   0.000000   0.000000
    6        9.376861      9.376861   0.000000   0.000000
    7       10.051497     10.051498   0.000000   0.000000
    8       11.481543     11.481543   0.000000   0.000000
    9       14.898859     14.898859   0.000000   0.000000
   10       16.153787     16.153787   0.000000   0.000000
   11       16.748142     16.748141   0.000000   0.000000
   12       16.902996     16.902997   0.000000   0.000000
   13       17.822427     17.822427   0.000000   0.000000
   14       21.304565     21.304564   0.000000   0.000000
   15       22.603649     22.603649   0.000000   0.000000
   16       23.497944     23.497946   0.000000   0.000000

 -0.4615385E+00  0.1538462E+00  0.2775558E-15  0.1092399E-01
    1       -3.694196     -3.694197   1.000000   1.000000
    2       -1.173076     -1.173077   1.000000   1.000000
    3        2.835733      2.835732   1.000000   1.000000
    4        3.895078      3.895077   1.000000   1.000000
    5        7.651967      7.651967   0.000000   0.000000
    6        9.316687      9.316687   0.000000   0.000000
    7        9.837186      9.837187   0.000000   0.000000
    8       12.805885     12.805885   0.000000   0.000000
    9       14.379673     14.379672   0.000000   0.000000
   10       15.078626     15.078626   0.000000   0.000000
   11       16.617272     16.617273   0.000000   0.000000
   12       17.818062     17.818062   0.000000   0.000000
   13       18.417863     18.417863   0.000000   0.000000
   14       20.228301     20.228301   0.000000   0.000000
   15       24.101536     24.101535   0.000000   0.000000
   16       24.345045     24.345045   0.000000   0.000000

 -0.3846154E+00  0.1538462E+00  0.3885781E-15  0.1092399E-01
    1       -3.893169     -3.893170   1.000000   1.000000
    2       -0.883341     -0.883342   1.000000   1.000000
    3        2.719570      2.719569   1.000000   1.000000
    4        4.097094      4.097093   1.000000   1.000000
    5        7.801921      7.801921   0.000000   0.000000
    6        9.348504      9.348504   0.000000   0.000000
    7        9.676743      9.676744   0.000000   0.000000
    8       13.414520     13.414520   0.000000   0.000000
    9       13.632612     13.632613   0.000000   0.000000
   10       14.156688     14.156687   0.000000   0.000000
   11       16.432507     16.432507   0.000000   0.000000
   12       18.653084     18.653083   0.000000   0.000000
   13       19.446325     19.446325   0.000000   0.000000
   14       19.821287     19.821286   0.000000   0.000000
   15       22.190247     22.190247   0.000000   0.000000
   16       24.308887     24.308887   0.000000   0.000000

 -0.3076923E+00  0.1538462E+00  0.3885781E-15  0.1092399E-01
    1       -4.420707     -4.420707   1.000000   1.000000
    2       -0.015276     -0.015277   1.000000   1.000000
    3        2.737820      2.737819   1.000000   1.000000
    4        4.378666      4.378665   1.000000   1.000000
    5        8.032045      8.032045   0.000000   0.000000
    6        9.452354      9.452353   0.000000   0.000000
    7        9.539481      9.539481   0.000000   0.000000
    8       12.281712     12.281711   0.000000   0.000000
    9       12.467757     12.467758   0.000000   0.000000
   10       15.116995     15.116995   0.000000   0.000000
   11       17.070093     17.070093   0.000000   0.000000
   12       17.204471     17.204471   0.000000   0.000000
   13       19.756358     19.756358   0.000000   0.000000
   14       21.101861     21.101861   0.000000   0.000000
   15       21.457637     21.457638   0.000000   0.000000
   16       22.643418     22.643418   0.000000   0.000000

 -0.2307692E+00  0.1538462E+00  0.3885781E-15  0.1092399E-01
    1       -4.960680     -4.960681   1.000000   1.000000
    2        1.071036      1.071036   1.000000   1.000000
    3        2.927446      2.927446   1.000000   1.000000
    4        4.704348      4.704347   1.000000   1.000000
    5        8.296855      8.296855   0.000000   0.000000
    6        9.299742      9.299743   0.000000   0.000000
    7        9.475293      9.475292   0.000000   0.000000
    8       11.355490     11.355490   0.000000   0.000000
    9       11.776028     11.776029   0.000000   0.000000
   10       15.531586     15.531585   0.000000   0.000000
   11       15.767812     15.767812   0.000000   0.000000
   12       17.473924     17.473923   0.000000   0.000000
   13       19.170275     19.170275   0.000000   0.000000
   14       20.383291     20.383292   0.000000   0.000000
   15       21.899569     21.899570   0.000000   0.000000
   16       23.316409     23.316409   0.000000   0.000000

 -0.1538462E+00  0.1538462E+00  0.3330669E-15  0.5461994E-02
    1       -5.405727     -5.405727   1.000000   1.000000
    2        2.118837      2.118836   1.000000   1.000000
    3        3.403002      3.403002   1.000000   1.000000
    4        5.006658      5.006656   1.000000   1.000000
    5        8.474342      8.474343   0.000000   0.000000
    6        8.900471      8.900471   0.000000   0.000000
    7        9.119450      9.119449   0.000000   0.000000
    8       11.022454     11.022454   0.000000   0.000000
    9       11.684175     11.684176   0.000000   0.000000
   10       14.217909     14.217909   0.000000   0.000000
   11       15.628516     15.628515   0.000000   0.000000
   12       16.793486     16.793486   0.000000   0.000000
   13       18.382637     18.382638   0.000000   0.000000
   14       20.845411     20.845412   0.000000   0.000000
   15       21.409630     21.409631   0.000000   0.000000
   16       23.848774     23.848772   0.000000   0.000000

  0.2307692E+00  0.2307692E+00  0.3742002E-15  0.2730997E-02
    1       -5.297492     -5.297492   1.000000   1.000000
    2        2.317520      2.317519   1.000000   1.000000
    3        3.806845      3.806844   1.000000   1.000000
    4        3.806845      3.806844   1.000000   1.000000
    5        6.808061      6.808061   0.000000   0.000000
    6        8.935742      8.935742   0.000000   0.000000
    7       10.809803     10.809803   0.000000   0.000000
    8       10.809803     10.809803   0.000000   0.000000
    9       12.872912     12.872912   0.000000   0.000000
   10       14.219808     14.219809   0.000000   0.000000
   11       16.336693     16.336692   0.000000   0.000000
   12       18.149198     18.149199   0.000000   0.000000
   13       18.149198     18.149199   0.000000   0.000000
   14       18.831389     18.831388   0.000000   0.000000
   15       22.980167     22.980167   0.000000   0.000000
   16       22.980167     22.980167   0.000000   0.000000

  0.3076923E+00  0.2307692E+00  0.3677614E-15  0.1092399E-01