       N       E                     dE             d eps       ncg     rms          rms(c)
DAV:   1     0.350737525557E+01    0.35074E+01   -0.34667E+03  5376   0.395E+02
DAV:   2    -0.782053038795E+01   -0.11328E+02   -0.11211E+02  7968   0.398E+01
DAV:   3    -0.789879008620E+01   -0.78260E-01   -0.78248E-01  5840   0.425E+00
DAV:   4    -0.789902816907E+01   -0.23808E-03   -0.23808E-03 10096   0.262E-01
DAV:   5    -0.789902818212E+01   -0.13055E-07   -0.13292E-07  5856   0.160E-03    0.513E+00
DAV:   6    -0.832579326385E+01   -0.42677E+00   -0.11437E-01  7872   0.116E+00    0.253E+00
DAV:   7    -0.832300630794E+01    0.27870E-02   -0.78146E-02  7888   0.952E-01    0.157E+00
DAV:   8    -0.834857039617E+01   -0.25564E-01   -0.36261E-02  8032   0.622E-01    0.663E-01
DAV:   9    -0.834603299836E+01    0.25374E-02   -0.58931E-04  6800   0.111E-01    0.116E-01
DAV:  10    -0.833856029060E+01    0.74727E-02   -0.10256E-03  6704   0.109E-01    0.585E-02
DAV:  11    -0.833821351978E+01    0.34677E-03   -0.11454E-04  7040   0.442E-02    0.286E-02
DAV:  12    -0.833848927050E+01   -0.27575E-03   -0.16197E-05  8736   0.122E-02    0.153E-02
DAV:  13    -0.833837458450E+01    0.11469E-03   -0.49416E-06  6432   0.872E-03    0.385E-03
DAV:  14    -0.833839279193E+01   -0.18207E-04   -0.69724E-07  6768   0.342E-03    0.905E-04
DAV:  15    -0.833840333977E+01   -0.10548E-04   -0.21554E-08  8080   0.635E-04    0.479E-04
DAV:  16    -0.833841047570E+01   -0.71359E-05   -0.17532E-08  5104   0.543E-04    0.141E-04
DAV:  17    -0.833840920688E+01    0.12688E-05   -0.29052E-09  3344   0.212E-04    0.288E-05
DAV:  18    -0.833840916651E+01    0.40367E-07   -0.64593E-11  3040   0.487E-05
   1 F= -.83384092E+01 E0= -.83383935E+01  d E =-.833841E+01  mag=    -0.0000
