 vasp.5.4.1 24Jun15 (build Feb  9 2019 14:16:27) complex                         
 executed on           IFC91_ompi date 2020.09.26  22:38:31
 running on   16 total cores
 distrk:  each k-point on   16 cores,    1 groups
 distr:  one band on NCORES_PER_BAND=   1 cores,   16 groups


--------------------------------------------------------------------------------------------------------


 INCAR:
 POTCAR:    PAW_PBE Si 05Jan2001                  

 ----------------------------------------------------------------------------- 
|                                                                             |
|           W    W    AA    RRRRR   N    N  II  N    N   GGGG   !!!           |
|           W    W   A  A   R    R  NN   N  II  NN   N  G    G  !!!           |
|           W    W  A    A  R    R  N N  N  II  N N  N  G       !!!           |
|           W WW W  AAAAAA  RRRRR   N  N N  II  N  N N  G  GGG   !            |
|           WW  WW  A    A  R   R   N   NN  II  N   NN  G    G                |
|           W    W  A    A  R    R  N    N  II  N    N   GGGG   !!!           |
|                                                                             |
|      For optimal performance we recommend to set                            |
|        NCORE= 4 - approx SQRT( number of cores)                             |
|      NCORE specifies how many cores store one orbital (NPAR=cpu/NCORE).     |
|      This setting can  greatly improve the performance of VASP for DFT.     |
|      The default, NPAR=number of cores might be grossly inefficient         |
|      on modern multi-core architectures or massively parallel machines.     |
|      Do your own testing !!!!                                               |
|      Unfortunately you need to use the default for GW and RPA calculations. |
|      (for HF NCORE is supported but not extensively tested yet)             |
|                                                                             |
 ----------------------------------------------------------------------------- 


 ----------------------------------------------------------------------------- 
|                                                                             |
|  ADVICE TO THIS USER RUNNING 'VASP/VAMP'   (HEAR YOUR MASTER'S VOICE ...):  |
|                                                                             |
|      You have switched on vdW-DFT.                                          |
|      This routine was written and supplied by Jiri Klimes.                  |
|      We recommed that you carefully read and cite the following             |
|      publication                                                            |
|      J. Klimes, D.R. Bowler, A. Michelides                                  |
|        J. Phys.: Cond Matt. 22 022201 (2010)                                |
|      J. Klimes, D.R. Bowler, A. Michelides                                  |
|        Phys. Rev. B. 83, 195131 (2011)                                      |
|      and references therein.                                                |
|                                                                             |
 ----------------------------------------------------------------------------- 

 POTCAR:    PAW_PBE Si 05Jan2001                  
   VRHFIN =Si: s2p2                                                             
   LEXCH  = PE                                                                  
   EATOM  =   103.0669 eV,    7.5752 Ry                                         
                                                                                
   TITEL  = PAW_PBE Si 05Jan2001                                                
   LULTRA =        F    use ultrasoft PP ?                                      
   IUNSCR =        1    unscreen: 0-lin 1-nonlin 2-no                           
   RPACOR =    1.500    partial core radius                                     
   POMASS =   28.085; ZVAL   =    4.000    mass and valenz                      
   RCORE  =    1.900    outmost cutoff radius                                   
   RWIGS  =    2.480; RWIGS  =    1.312    wigner-seitz radius (au A)           
   ENMAX  =  245.345; ENMIN  =  184.009 eV                                      
   ICORE  =        2    local potential                                         
   LCOR   =        T    correct aug charges                                     
   LPAW   =        T    paw PP                                                  
   EAUG   =  322.069                                                            
   DEXC   =    0.000                                                            
   RMAX   =    1.950    core radius for proj-oper                               
   RAUG   =    1.300    factor for augmentation sphere                          
   RDEP   =    1.993    radius for radial grids                                 
   RDEPT  =    1.837    core radius for aug-charge                              
                                                                                
   Atomic configuration                                                         
    6 entries                                                                   
     n  l   j            E        occ.                                          
     1  0  0.50     -1785.8828   2.0000                                         
     2  0  0.50      -139.4969   2.0000                                         
     2  1  1.50       -95.5546   6.0000                                         
     3  0  0.50       -10.8127   2.0000                                         
     3  1  0.50        -4.0811   2.0000                                         
     3  2  1.50        -4.0817   0.0000                                         
   Description                                                                  
     l       E           TYP  RCUT    TYP  RCUT                                 
     0    -10.8127223     23  1.900                                             
     0     -7.6451159     23  1.900                                             
     1     -4.0811372     23  1.900                                             
     1      2.4879257     23  1.900                                             
     2     -4.0817478      7  1.900                                             
  local pseudopotential read in
  partial core-charges read in
  partial kinetic energy density read in
  atomic valenz-charges read in
  non local Contribution for L=           0  read in
    real space projection operators read in
  non local Contribution for L=           0  read in
    real space projection operators read in
  non local Contribution for L=           1  read in
    real space projection operators read in
  non local Contribution for L=           1  read in
    real space projection operators read in
    PAW grid and wavefunctions read in

   number of l-projection  operators is LMAX  =           4
   number of lm-projection operators is LMMAX =           8


 ----------------------------------------------------------------------------- 
|                                                                             |
|  ADVICE TO THIS USER RUNNING 'VASP/VAMP'   (HEAR YOUR MASTER'S VOICE ...):  |
|                                                                             |
|      You enforced a specific xc-type in the INCAR file,                     |
|      a different type was found on the POTCAR file                          |
|          I HOPE YOU KNOW, WHAT YOU ARE  DOING                               |
|                                                                             |
 ----------------------------------------------------------------------------- 

  PAW_PBE Si 05Jan2001                  :
 energy of atom  1       EATOM= -103.0669
 kinetic energy error for atom=    0.0006 (will be added to EATOM!!)


 POSCAR: bulk@JVASP-1002                         
  positions in direct lattice
  No initial velocities read in
 exchange correlation table for  LEXCH =       42
   RHO(1)=    0.500       N(1)  =     2000
   RHO(2)=  100.500       N(2)  =     4000



--------------------------------------------------------------------------------------------------------


 ion  position               nearest neighbor table
   1  0.750  0.750  0.750-   2 2.38   2 2.38   2 2.38   2 2.38
   2  0.500  0.500  0.500-   1 2.38   1 2.38   1 2.38   1 2.38

  LATTYP: Found a face centered cubic cell.
 ALAT       =     5.4936422752
  
  Lattice vectors:
  
 A1 = (   0.0000000000,   2.7468211376,   2.7468211376)
 A2 = (   2.7468211376,   0.0000000000,   2.7468211376)
 A3 = (   2.7468211376,   2.7468211376,   0.0000000000)


Analysis of symmetry for initial positions (statically):
=====================================================================
 Subroutine PRICEL returns:
 Original cell was already a primitive cell.
 

 Routine SETGRP: Setting up the symmetry group for a 
 face centered cubic supercell.


 Subroutine GETGRP returns: Found 48 space group operations
 (whereof 24 operations were pure point group operations)
 out of a pool of 48 trial point group operations.


The static configuration has the point symmetry T_d .
 The point group associated with its full space group is O_h .


Analysis of symmetry for dynamics (positions and initial velocities):
=====================================================================
 Subroutine PRICEL returns:
 Original cell was already a primitive cell.
 

 Routine SETGRP: Setting up the symmetry group for a 
 face centered cubic supercell.


 Subroutine GETGRP returns: Found 48 space group operations
 (whereof 24 operations were pure point group operations)
 out of a pool of 48 trial point group operations.


The dynamic configuration has the point symmetry T_d .
 The point group associated with its full space group is O_h .


Analysis of magnetic symmetry:
=====================================================================
 Subroutine PRICEL returns:
 Original cell was already a primitive cell.
 

 Subroutine MAGSYM returns: Found 48 space group operations
 (whereof 24 operations were pure point group operations)
 out of a pool of 48 trial space group operations
 (whereof 24 operations were pure point group operations)
 and found also     1 'primitive' translations


The magnetic configuration has the point symmetry T_d .
 The point group associated with its full space group is O_h .


 KPOINTS: Automatic kpoint scheme                 

Automatic generation of k-mesh.
Space group operators:
 irot       det(A)        alpha          n_x          n_y          n_z        tau_x        tau_y        tau_z
    1     1.000000     0.000000     1.000000     0.000000     0.000000     0.000000     0.000000     0.000000
    2     1.000000   120.000000    -0.577350    -0.577350    -0.577350     0.000000     0.000000     0.000000
    3     1.000000   120.000000     0.577350     0.577350     0.577350     0.000000     0.000000     0.000000
    4    -1.000000    90.000000     0.000000     0.000000    -1.000000     0.000000     0.000000     0.000000
    5    -1.000000   180.000000     0.000000     0.707107     0.707107     0.000000     0.000000     0.000000
    6    -1.000000    90.000000     0.000000     1.000000     0.000000     0.000000     0.000000     0.000000
    7     1.000000   180.000000     0.000000     0.000000     1.000000     0.000000     0.000000     0.000000
    8     1.000000   120.000000    -0.577350     0.577350     0.577350     0.000000     0.000000     0.000000
    9     1.000000   120.000000    -0.577350     0.577350    -0.577350     0.000000     0.000000     0.000000
   10    -1.000000    90.000000     0.000000     0.000000     1.000000     0.000000     0.000000     0.000000
   11    -1.000000    90.000000    -1.000000     0.000000     0.000000     0.000000     0.000000     0.000000
   12    -1.000000   180.000000     0.707107     0.000000     0.707107     0.000000     0.000000     0.000000
   13     1.000000   120.000000     0.577350    -0.577350     0.577350     0.000000     0.000000     0.000000
   14     1.000000   120.000000    -0.577350    -0.577350     0.577350     0.000000     0.000000     0.000000
   15     1.000000   180.000000     1.000000     0.000000     0.000000     0.000000     0.000000     0.000000
   16    -1.000000    90.000000     0.000000    -1.000000     0.000000     0.000000     0.000000     0.000000
   17    -1.000000   180.000000     0.707107     0.707107     0.000000     0.000000     0.000000     0.000000
   18    -1.000000    90.000000     1.000000     0.000000     0.000000     0.000000     0.000000     0.000000
   19     1.000000   120.000000     0.577350    -0.577350    -0.577350     0.000000     0.000000     0.000000
   20     1.000000   180.000000     0.000000     1.000000     0.000000     0.000000     0.000000     0.000000
   21     1.000000   120.000000     0.577350     0.577350    -0.577350     0.000000     0.000000     0.000000
   22    -1.000000   180.000000     0.000000    -0.707107     0.707107     0.000000     0.000000     0.000000
   23    -1.000000   180.000000     0.707107    -0.707107     0.000000     0.000000     0.000000     0.000000
   24    -1.000000   180.000000     0.707107     0.000000    -0.707107     0.000000     0.000000     0.000000
   25    -1.000000     0.000000     1.000000     0.000000     0.000000     0.250000     0.250000     0.250000
   26    -1.000000   120.000000    -0.577350    -0.577350    -0.577350     0.250000     0.250000     0.250000
   27    -1.000000   120.000000     0.577350     0.577350     0.577350     0.250000     0.250000     0.250000
   28     1.000000    90.000000     0.000000     0.000000    -1.000000     0.250000     0.250000     0.250000
   29     1.000000   180.000000     0.000000     0.707107     0.707107     0.250000     0.250000     0.250000
   30     1.000000    90.000000     0.000000     1.000000     0.000000     0.250000     0.250000     0.250000
   31    -1.000000   180.000000     0.000000     0.000000     1.000000     0.250000     0.250000     0.250000
   32    -1.000000   120.000000    -0.577350     0.577350     0.577350     0.250000     0.250000     0.250000
   33    -1.000000   120.000000    -0.577350     0.577350    -0.577350     0.250000     0.250000     0.250000
   34     1.000000    90.000000     0.000000     0.000000     1.000000     0.250000     0.250000     0.250000
   35     1.000000    90.000000    -1.000000     0.000000     0.000000     0.250000     0.250000     0.250000
   36     1.000000   180.000000     0.707107     0.000000     0.707107     0.250000     0.250000     0.250000
   37    -1.000000   120.000000     0.577350    -0.577350     0.577350     0.250000     0.250000     0.250000
   38    -1.000000   120.000000    -0.577350    -0.577350     0.577350     0.250000     0.250000     0.250000
   39    -1.000000   180.000000     1.000000     0.000000     0.000000     0.250000     0.250000     0.250000
   40     1.000000    90.000000     0.000000    -1.000000     0.000000     0.250000     0.250000     0.250000
   41     1.000000   180.000000     0.707107     0.707107     0.000000     0.250000     0.250000     0.250000
   42     1.000000    90.000000     1.000000     0.000000     0.000000     0.250000     0.250000     0.250000
   43    -1.000000   120.000000     0.577350    -0.577350    -0.577350     0.250000     0.250000     0.250000
   44    -1.000000   180.000000     0.000000     1.000000     0.000000     0.250000     0.250000     0.250000
   45    -1.000000   120.000000     0.577350     0.577350    -0.577350     0.250000     0.250000     0.250000
   46     1.000000   180.000000     0.000000    -0.707107     0.707107     0.250000     0.250000     0.250000
   47     1.000000   180.000000     0.707107    -0.707107     0.000000     0.250000     0.250000     0.250000
   48     1.000000   180.000000     0.707107     0.000000    -0.707107     0.250000     0.250000     0.250000
 
 Subroutine IBZKPT returns following result:
 ===========================================
 
 Found     84 irreducible k-points:
 
 Following reciprocal coordinates:
            Coordinates               Weight
  0.000000  0.000000  0.000000      1.000000
  0.076923  0.000000  0.000000      8.000000
  0.153846  0.000000  0.000000      8.000000
  0.230769  0.000000  0.000000      8.000000
  0.307692  0.000000  0.000000      8.000000
  0.384615  0.000000  0.000000      8.000000
  0.461538  0.000000  0.000000      8.000000
  0.076923  0.076923  0.000000      6.000000
  0.153846  0.076923  0.000000     24.000000
  0.230769  0.076923  0.000000     24.000000
  0.307692  0.076923  0.000000     24.000000
  0.384615  0.076923  0.000000     24.000000
  0.461538  0.076923  0.000000     24.000000
 -0.461538  0.076923  0.000000     24.000000
 -0.384615  0.076923  0.000000     24.000000
 -0.307692  0.076923  0.000000     24.000000
 -0.230769  0.076923  0.000000     24.000000
 -0.153846  0.076923  0.000000     24.000000
 -0.076923  0.076923  0.000000     12.000000
  0.153846  0.153846  0.000000      6.000000
  0.230769  0.153846  0.000000     24.000000
  0.307692  0.153846  0.000000     24.000000
  0.384615  0.153846  0.000000     24.000000
  0.461538  0.153846  0.000000     24.000000
 -0.461538  0.153846  0.000000     24.000000
 -0.384615  0.153846  0.000000     24.000000
 -0.307692  0.153846  0.000000     24.000000
 -0.230769  0.153846  0.000000     24.000000
 -0.153846  0.153846  0.000000     12.000000
  0.230769  0.230769  0.000000      6.000000
  0.307692  0.230769  0.000000     24.000000
  0.384615  0.230769  0.000000     24.000000
  0.461538  0.230769  0.000000     24.000000
 -0.461538  0.230769  0.000000     24.000000
 -0.384615  0.230769  0.000000     24.000000
 -0.307692  0.230769  0.000000     24.000000
 -0.230769  0.230769  0.000000     12.000000
  0.307692  0.307692  0.000000      6.000000
  0.384615  0.307692  0.000000     24.000000
  0.461538  0.307692  0.000000     24.000000
 -0.461538  0.307692  0.000000     24.000000
 -0.384615  0.307692  0.000000     24.000000
 -0.307692  0.307692  0.000000     12.000000
  0.384615  0.384615  0.000000      6.000000
  0.461538  0.384615  0.000000     24.000000
 -0.461538  0.384615  0.000000     24.000000
 -0.384615  0.384615  0.000000     12.000000
  0.461538  0.461538  0.000000      6.000000
 -0.461538  0.461538  0.000000     12.000000
  0.230769  0.153846  0.076923     24.000000
  0.307692  0.153846  0.076923     48.000000
  0.384615  0.153846  0.076923     48.000000
  0.461538  0.153846  0.076923     48.000000
 -0.461538  0.153846  0.076923     48.000000
  0.307692  0.230769  0.076923     24.000000
  0.384615  0.230769  0.076923     48.000000
  0.461538  0.230769  0.076923     48.000000
 -0.461538  0.230769  0.076923     48.000000
 -0.384615  0.230769  0.076923     48.000000
 -0.307692  0.230769  0.076923     48.000000
 -0.230769  0.230769  0.076923     48.000000
 -0.153846  0.230769  0.076923     24.000000
  0.384615  0.307692  0.076923     24.000000
  0.461538  0.307692  0.076923     48.000000
 -0.461538  0.307692  0.076923     48.000000
 -0.384615  0.307692  0.076923     48.000000
 -0.307692  0.307692  0.076923     48.000000
 -0.230769  0.307692  0.076923     24.000000
  0.461538  0.384615  0.076923     24.000000
 -0.461538  0.384615  0.076923     48.000000
 -0.384615  0.384615  0.076923     48.000000
 -0.307692  0.384615  0.076923     24.000000
 -0.461538  0.461538  0.076923     24.000000
 -0.384615  0.461538  0.076923     24.000000
  0.461538  0.307692  0.153846     24.000000
 -0.461538  0.307692  0.153846     48.000000
 -0.384615  0.307692  0.153846     48.000000
 -0.461538  0.384615  0.153846     24.000000
 -0.384615  0.384615  0.153846     48.000000
 -0.307692  0.384615  0.153846     48.000000
 -0.230769  0.384615  0.153846     24.000000
 -0.384615  0.461538  0.153846     24.000000
 -0.307692  0.461538  0.153846     24.000000
 -0.307692  0.461538  0.230769     24.000000
 
 Following cartesian coordinates:
            Coordinates               Weight
  0.000000  0.000000  0.000000      1.000000
 -0.014002  0.014002  0.014002      8.000000
 -0.028004  0.028004  0.028004      8.000000
 -0.042007  0.042007  0.042007      8.000000
 -0.056009  0.056009  0.056009      8.000000
 -0.070011  0.070011  0.070011      8.000000
 -0.084013  0.084013  0.084013      8.000000
  0.000000  0.000000  0.028004      6.000000
 -0.014002  0.014002  0.042007     24.000000
 -0.028004  0.028004  0.056009     24.000000
 -0.042007  0.042007  0.070011     24.000000
 -0.056009  0.056009  0.084013     24.000000
 -0.070011  0.070011  0.098015     24.000000
  0.098015 -0.098015 -0.070011     24.000000
  0.084013 -0.084013 -0.056009     24.000000
  0.070011 -0.070011 -0.042007     24.000000
  0.056009 -0.056009 -0.028004     24.000000
  0.042007 -0.042007 -0.014002     24.000000
  0.028004 -0.028004  0.000000     12.000000
  0.000000  0.000000  0.056009      6.000000
 -0.014002  0.014002  0.070011     24.000000
 -0.028004  0.028004  0.084013     24.000000
 -0.042007  0.042007  0.098015     24.000000
 -0.056009  0.056009  0.112018     24.000000
  0.112018 -0.112018 -0.056009     24.000000
  0.098015 -0.098015 -0.042007     24.000000
  0.084013 -0.084013 -0.028004     24.000000
  0.070011 -0.070011 -0.014002     24.000000
  0.056009 -0.056009  0.000000     12.000000
  0.000000  0.000000  0.084013      6.000000
 -0.014002  0.014002  0.098015     24.000000
 -0.028004  0.028004  0.112018     24.000000
 -0.042007  0.042007  0.126020     24.000000
  0.126020 -0.126020 -0.042007     24.000000
  0.112018 -0.112018 -0.028004     24.000000
  0.098015 -0.098015 -0.014002     24.000000
  0.084013 -0.084013  0.000000     12.000000
  0.000000  0.000000  0.112018      6.000000
 -0.014002  0.014002  0.126020     24.000000
 -0.028004  0.028004  0.140022     24.000000
  0.140022 -0.140022 -0.028004     24.000000
  0.126020 -0.126020 -0.014002     24.000000
  0.112018 -0.112018  0.000000     12.000000
  0.000000  0.000000  0.140022      6.000000
 -0.014002  0.014002  0.154024     24.000000
  0.154024 -0.154024 -0.014002     24.000000
  0.140022 -0.140022  0.000000     12.000000
  0.000000  0.000000  0.168026      6.000000
  0.168026 -0.168026  0.000000     12.000000
  0.000000  0.028004  0.056009     24.000000
 -0.014002  0.042007  0.070011     48.000000
 -0.028004  0.056009  0.084013     48.000000
 -0.042007  0.070011  0.098015     48.000000
  0.126020 -0.098015 -0.070011     48.000000
  0.000000  0.028004  0.084013     24.000000
 -0.014002  0.042007  0.098015     48.000000
 -0.028004  0.056009  0.112018     48.000000
  0.140022 -0.112018 -0.056009     48.000000
  0.126020 -0.098015 -0.042007     48.000000
  0.112018 -0.084013 -0.028004     48.000000
  0.098015 -0.070011 -0.014002     48.000000
  0.084013 -0.056009  0.000000     24.000000
 -0.000000  0.028004  0.112018     24.000000
 -0.014002  0.042007  0.126020     48.000000
  0.154024 -0.126020 -0.042007     48.000000
  0.140022 -0.112018 -0.028004     48.000000
  0.126020 -0.098015 -0.014002     48.000000
  0.112018 -0.084013  0.000000     24.000000
  0.000000  0.028004  0.140022     24.000000
  0.168026 -0.140022 -0.028004     48.000000
  0.154024 -0.126020 -0.014002     48.000000
  0.140022 -0.112018  0.000000     24.000000
  0.182029 -0.154024 -0.014002     24.000000
  0.168026 -0.140022  0.000000     24.000000
  0.000000  0.056009  0.112018     24.000000
  0.168026 -0.112018 -0.056009     48.000000
  0.154024 -0.098015 -0.042007     48.000000
  0.182029 -0.126020 -0.042007     24.000000
  0.168026 -0.112018 -0.028004     48.000000
  0.154024 -0.098015 -0.014002     48.000000
  0.140022 -0.084013  0.000000     24.000000
  0.182029 -0.126020 -0.014002     24.000000
  0.168026 -0.112018  0.000000     24.000000
  0.182029 -0.098015 -0.014002     24.000000
 


--------------------------------------------------------------------------------------------------------




 Dimension of arrays:
   k-points           NKPTS =       84   k-points in BZ     NKDIM =       84   number of bands    NBANDS=     16
   number of dos      NEDOS =   5000   number of ions     NIONS =      2
   non local maximal  LDIM  =      4   non local SUM 2l+1 LMDIM =      8
   total plane-waves  NPLWV =  21952
   max r-space proj   IRMAX =      1   max aug-charges    IRDMAX=  17905
   dimension x,y,z NGX =    28 NGY =   28 NGZ =   28
   dimension x,y,z NGXF=    56 NGYF=   56 NGZF=   56
   support grid    NGXF=    56 NGYF=   56 NGZF=   56
   ions per type =               2
 NGX,Y,Z   is equivalent  to a cutoff of  11.98, 11.98, 11.98 a.u.
 NGXF,Y,Z  is equivalent  to a cutoff of  23.97, 23.97, 23.97 a.u.


 I would recommend the setting:
   dimension x,y,z NGX =    28 NGY =   28 NGZ =   28
 SYSTEM =  unknown system                          
 POSCAR =  bulk@JVASP-1002                         

 Startparameter for this run:
   NWRITE =      2    write-flag & timer
   PREC   = accura    normal or accurate (medium, high low for compatibility)
   ISTART =      0    job   : 0-new  1-cont  2-samecut
   ICHARG =      2    charge: 1-file 2-atom 10-const
   ISPIN  =      2    spin polarized calculation?
   LNONCOLLINEAR =      F non collinear calculations
   LSORBIT =      F    spin-orbit coupling
   INIWAV =      1    electr: 0-lowe 1-rand  2-diag
   LASPH  =      F    aspherical Exc in radial PAW
   METAGGA=      F    non-selfconsistent MetaGGA calc.

 Electronic Relaxation 1
   ENCUT  =  500.0 eV  36.75 Ry    6.06 a.u.   7.08  7.08  7.08*2*pi/ulx,y,z
   ENINI  =  500.0     initial cutoff
   ENAUG  =  322.1 eV  augmentation charge cutoff
   NELM   =    500;   NELMIN=  2; NELMDL= -5     # of ELM steps 
   EDIFF  = 0.1E-06   stopping-criterion for ELM
   LREAL  =      F    real-space projection
   NLSPLINE    = F    spline interpolate recip. space projectors
   LCOMPAT=      F    compatible to vasp.4.4
   GGA_COMPAT  = T    GGA compatible to vasp.4.4-vasp.4.6
   LMAXPAW     = -100 max onsite density
   LMAXMIX     =    2 max onsite mixed and CHGCAR
   VOSKOWN=      0    Vosko Wilk Nusair interpolation
   ROPT   =    0.00000
 Ionic relaxation
   EDIFFG = -.1E-02   stopping-criterion for IOM
   NSW    =    500    number of steps for IOM
   NBLOCK =      1;   KBLOCK =    500    inner block; outer block 
   IBRION =      2    ionic relax: 0-MD 1-quasi-New 2-CG
   NFREE  =      1    steps in history (QN), initial steepest desc. (CG)
   ISIF   =      3    stress and relaxation
   IWAVPR =     11    prediction:  0-non 1-charg 2-wave 3-comb
   ISYM   =      2    0-nonsym 1-usesym 2-fastsym
   LCORR  =      T    Harris-Foulkes like correction to forces

   POTIM  = 0.5000    time-step for ionic-motion
   TEIN   =    0.0    initial temperature
   TEBEG  =    0.0;   TEEND  =   0.0 temperature during run
   SMASS  =  -3.00    Nose mass-parameter (am)
   estimated Nose-frequenzy (Omega)   =  0.10E-29 period in steps =****** mass=  -0.345E-27a.u.
   SCALEE = 1.0000    scale energy and forces
   NPACO  =    256;   APACO  = 16.0  distance and # of slots for P.C.
   PSTRESS=    0.0 pullay stress

  Mass of Ions in am
   POMASS =  28.09
  Ionic Valenz
   ZVAL   =   4.00
  Atomic Wigner-Seitz radii
   RWIGS  =  -1.00
  virtual crystal weights 
   VCA    =   1.00
   NELECT =       8.0000    total number of electrons
   NUPDOWN=      -1.0000    fix difference up-down

 DOS related values:
   EMIN   =  10.00;   EMAX   =-10.00  energy-range for DOS
   EFERMI =   0.00
   ISMEAR =     0;   SIGMA  =   0.20  broadening in eV -4-tet -1-fermi 0-gaus

 Electronic relaxation 2 (details)
   IALGO  =     38    algorithm
   LDIAG  =      T    sub-space diagonalisation (order eigenvalues)
   LSUBROT=      F    optimize rotation matrix (better conditioning)
   TURBO    =      0    0=normal 1=particle mesh
   IRESTART =      0    0=no restart 2=restart with 2 vectors
   NREBOOT  =      0    no. of reboots
   NMIN     =      0    reboot dimension
   EREF     =   0.00    reference energy to select bands
   IMIX   =      4    mixing-type and parameters
     AMIX     =   0.40;   BMIX     =  1.00
     AMIX_MAG =   1.60;   BMIX_MAG =  1.00
     AMIN     =   0.10
     WC   =   100.;   INIMIX=   1;  MIXPRE=   1;  MAXMIX= -45

 Intra band minimization:
   WEIMIN = 0.0010     energy-eigenvalue tresh-hold
   EBREAK =  0.16E-08  absolut break condition
   DEPER  =   0.30     relativ break condition  

   TIME   =   0.40     timestep for ELM

  volume/ion in A,a.u.               =      20.72       139.86
  Fermi-wavevector in a.u.,A,eV,Ry     =   0.946087  1.787845 12.178313  0.895081
  Thomas-Fermi vector in A             =   2.074051

 Write flags
   LWAVE  =      F    write WAVECAR
   LCHARG =      T    write CHGCAR
   LVTOT  =      F    write LOCPOT, total local potential
   LVHAR  =      T    write LOCPOT, Hartree potential only
   LELF   =      F    write electronic localiz. function (ELF)
   LORBIT =     11    0 simple, 1 ext, 2 COOP (PROOUT)


 Dipole corrections
   LMONO  =      F    monopole corrections only (constant potential shift)
   LDIPOL =      F    correct potential (dipole corrections)
   IDIPOL =      0    1-x, 2-y, 3-z, 4-all directions 
   EPSILON=  1.0000000 bulk dielectric constant

 Exchange correlation treatment:
   GGA     =    BO    GGA type
   LEXCH   =    42    internal setting for exchange type
   VOSKOWN=      0    Vosko Wilk Nusair interpolation
   LHFCALC =     F    Hartree Fock is set to
   LHFONE  =     F    Hartree Fock one center treatment
   AEXX    =    0.0000 exact exchange contribution

 vdW DFT:
   LUSE_VDW   =     T    switch on vdW DFT
   Zab_VDW    =-.8491    correlation parameter
   PARAM1     =0.1833
   PARAM2     =0.2200
   PARAM3     =0.0000

 Linear response parameters
   LEPSILON=     F    determine dielectric tensor
   LRPA    =     F    only Hartree local field effects (RPA)
   LNABLA  =     F    use nabla operator in PAW spheres
   LVEL    =     F    velocity operator in full k-point grid
   LINTERFAST=   F  fast interpolation
   KINTER  =     0    interpolate to denser k-point grid
   CSHIFT  =0.1000    complex shift for real part using Kramers Kronig
   OMEGAMAX=  -1.0    maximum frequency
   DEG_THRESHOLD= 0.2000000E-02 threshold for treating states as degnerate
   RTIME   =    0.100 relaxation time in fs

 Orbital magnetization related:
   ORBITALMAG=     F  switch on orbital magnetization
   LCHIMAG   =     F  perturbation theory with respect to B field
   DQ        =  0.001000  dq finite difference perturbation B field



--------------------------------------------------------------------------------------------------------


 conjugate gradient relaxation of ions
 charge density and potential will be updated during run
 spin polarized calculation
 Variant of blocked Davidson
 Davidson routine will perform the subspace rotation
 perform sub-space diagonalisation
    after iterative eigenvector-optimisation
 modified Broyden-mixing scheme, WC =      100.0
 initial mixing is a Kerker type mixing with AMIX =  0.4000 and BMIX =      1.0000
 Hartree-type preconditioning will be used
 using additional bands           12
 reciprocal scheme for non local part
 use partial core corrections
 calculate Harris-corrections to forces   (improved forces if not selfconsistent)
 use gradient corrections 
 use of overlap-Matrix (Vanderbilt PP)
 Gauss-broadening in eV      SIGMA  =   0.20


--------------------------------------------------------------------------------------------------------


  energy-cutoff  :      500.00
  volume of cell :       41.45
      direct lattice vectors                 reciprocal lattice vectors
     0.000000000  2.746821138  2.746821138    -0.182028598  0.182028598  0.182028598
     2.746821138  0.000000000  2.746821138     0.182028598 -0.182028598  0.182028598
     2.746821138  2.746821138  0.000000000     0.182028598  0.182028598 -0.182028598

  length of vectors
     3.884591706  3.884591706  3.884591706     0.315282780  0.315282780  0.315282780



 k-points in units of 2pi/SCALE and weight: Automatic kpoint scheme                 
   0.00000000  0.00000000  0.00000000       0.000
  -0.01400220  0.01400220  0.01400220       0.004
  -0.02800440  0.02800440  0.02800440       0.004
  -0.04200660  0.04200660  0.04200660       0.004
  -0.05600880  0.05600880  0.05600880       0.004
  -0.07001100  0.07001100  0.07001100       0.004
  -0.08401320  0.08401320  0.08401320       0.004
   0.00000000  0.00000000  0.02800440       0.003
  -0.01400220  0.01400220  0.04200660       0.011
  -0.02800440  0.02800440  0.05600880       0.011
  -0.04200660  0.04200660  0.07001100       0.011
  -0.05600880  0.05600880  0.08401320       0.011
  -0.07001100  0.07001100  0.09801540       0.011
   0.09801540 -0.09801540 -0.07001100       0.011
   0.08401320 -0.08401320 -0.05600880       0.011
   0.07001100 -0.07001100 -0.04200660       0.011
   0.05600880 -0.05600880 -0.02800440       0.011
   0.04200660 -0.04200660 -0.01400220       0.011
   0.02800440 -0.02800440  0.00000000       0.005
   0.00000000  0.00000000  0.05600880       0.003
  -0.01400220  0.01400220  0.07001100       0.011
  -0.02800440  0.02800440  0.08401320       0.011
  -0.04200660  0.04200660  0.09801540       0.011
  -0.05600880  0.05600880  0.11201760       0.011
   0.11201760 -0.11201760 -0.05600880       0.011
   0.09801540 -0.09801540 -0.04200660       0.011
   0.08401320 -0.08401320 -0.02800440       0.011
   0.07001100 -0.07001100 -0.01400220       0.011
   0.05600880 -0.05600880  0.00000000       0.005
   0.00000000  0.00000000  0.08401320       0.003
  -0.01400220  0.01400220  0.09801540       0.011
  -0.02800440  0.02800440  0.11201760       0.011
  -0.04200660  0.04200660  0.12601980       0.011
   0.12601980 -0.12601980 -0.04200660       0.011
   0.11201760 -0.11201760 -0.02800440       0.011
   0.09801540 -0.09801540 -0.01400220       0.011
   0.08401320 -0.08401320  0.00000000       0.005
   0.00000000  0.00000000  0.11201760       0.003
  -0.01400220  0.01400220  0.12601980       0.011
  -0.02800440  0.02800440  0.14002200       0.011
   0.14002200 -0.14002200 -0.02800440       0.011
   0.12601980 -0.12601980 -0.01400220       0.011
   0.11201760 -0.11201760  0.00000000       0.005
   0.00000000  0.00000000  0.14002200       0.003
  -0.01400220  0.01400220  0.15402420       0.011
   0.15402420 -0.15402420 -0.01400220       0.011
   0.14002200 -0.14002200  0.00000000       0.005
   0.00000000  0.00000000  0.16802640       0.003
   0.16802640 -0.16802640  0.00000000       0.005
   0.00000000  0.02800440  0.05600880       0.011
  -0.01400220  0.04200660  0.07001100       0.022
  -0.02800440  0.05600880  0.08401320       0.022
  -0.04200660  0.07001100  0.09801540       0.022
   0.12601980 -0.09801540 -0.07001100       0.022
   0.00000000  0.02800440  0.08401320       0.011
  -0.01400220  0.04200660  0.09801540       0.022
  -0.02800440  0.05600880  0.11201760       0.022
   0.14002200 -0.11201760 -0.05600880       0.022
   0.12601980 -0.09801540 -0.04200660       0.022
   0.11201760 -0.08401320 -0.02800440       0.022
   0.09801540 -0.07001100 -0.01400220       0.022
   0.08401320 -0.05600880  0.00000000       0.011
  -0.00000000  0.02800440  0.11201760       0.011
  -0.01400220  0.04200660  0.12601980       0.022
   0.15402420 -0.12601980 -0.04200660       0.022
   0.14002200 -0.11201760 -0.02800440       0.022
   0.12601980 -0.09801540 -0.01400220       0.022
   0.11201760 -0.08401320  0.00000000       0.011
   0.00000000  0.02800440  0.14002200       0.011
   0.16802640 -0.14002200 -0.02800440       0.022
   0.15402420 -0.12601980 -0.01400220       0.022
   0.14002200 -0.11201760  0.00000000       0.011
   0.18202860 -0.15402420 -0.01400220       0.011
   0.16802640 -0.14002200  0.00000000       0.011
   0.00000000  0.05600880  0.11201760       0.011
   0.16802640 -0.11201760 -0.05600880       0.022
   0.15402420 -0.09801540 -0.04200660       0.022
   0.18202860 -0.12601980 -0.04200660       0.011
   0.16802640 -0.11201760 -0.02800440       0.022
   0.15402420 -0.09801540 -0.01400220       0.022
   0.14002200 -0.08401320  0.00000000       0.011
   0.18202860 -0.12601980 -0.01400220       0.011
   0.16802640 -0.11201760  0.00000000       0.011
   0.18202860 -0.09801540 -0.01400220       0.011

 k-points in reciprocal lattice and weights: Automatic kpoint scheme                 
   0.00000000  0.00000000  0.00000000       0.000
   0.07692308  0.00000000  0.00000000       0.004
   0.15384615  0.00000000  0.00000000       0.004
   0.23076923  0.00000000  0.00000000       0.004
   0.30769231  0.00000000  0.00000000       0.004
   0.38461538  0.00000000  0.00000000       0.004
   0.46153846  0.00000000  0.00000000       0.004
   0.07692308  0.07692308  0.00000000       0.003
   0.15384615  0.07692308  0.00000000       0.011
   0.23076923  0.07692308  0.00000000       0.011
   0.30769231  0.07692308  0.00000000       0.011
   0.38461538  0.07692308  0.00000000       0.011
   0.46153846  0.07692308  0.00000000       0.011
  -0.46153846  0.07692308  0.00000000       0.011
  -0.38461538  0.07692308  0.00000000       0.011
  -0.30769231  0.07692308  0.00000000       0.011
  -0.23076923  0.07692308  0.00000000       0.011
  -0.15384615  0.07692308  0.00000000       0.011
  -0.07692308  0.07692308  0.00000000       0.005
   0.15384615  0.15384615  0.00000000       0.003
   0.23076923  0.15384615  0.00000000       0.011
   0.30769231  0.15384615  0.00000000       0.011
   0.38461538  0.15384615  0.00000000       0.011
   0.46153846  0.15384615  0.00000000       0.011
  -0.46153846  0.15384615  0.00000000       0.011
  -0.38461538  0.15384615  0.00000000       0.011
  -0.30769231  0.15384615  0.00000000       0.011
  -0.23076923  0.15384615  0.00000000       0.011
  -0.15384615  0.15384615  0.00000000       0.005
   0.23076923  0.23076923  0.00000000       0.003
   0.30769231  0.23076923  0.00000000       0.011
   0.38461538  0.23076923  0.00000000       0.011
   0.46153846  0.23076923  0.00000000       0.011
  -0.46153846  0.23076923  0.00000000       0.011
  -0.38461538  0.23076923  0.00000000       0.011
  -0.30769231  0.23076923  0.00000000       0.011
  -0.23076923  0.23076923  0.00000000       0.005
   0.30769231  0.30769231  0.00000000       0.003
   0.38461538  0.30769231  0.00000000       0.011
   0.46153846  0.30769231  0.00000000       0.011
  -0.46153846  0.30769231  0.00000000       0.011
  -0.38461538  0.30769231  0.00000000       0.011
  -0.30769231  0.30769231  0.00000000       0.005
   0.38461538  0.38461538  0.00000000       0.003
   0.46153846  0.38461538  0.00000000       0.011
  -0.46153846  0.38461538  0.00000000       0.011
  -0.38461538  0.38461538  0.00000000       0.005
   0.46153846  0.46153846  0.00000000       0.003
  -0.46153846  0.46153846  0.00000000       0.005
   0.23076923  0.15384615  0.07692308       0.011
   0.30769231  0.15384615  0.07692308       0.022
   0.38461538  0.15384615  0.07692308       0.022
   0.46153846  0.15384615  0.07692308       0.022
  -0.46153846  0.15384615  0.07692308       0.022
   0.30769231  0.23076923  0.07692308       0.011
   0.38461538  0.23076923  0.07692308       0.022
   0.46153846  0.23076923  0.07692308       0.022
  -0.46153846  0.23076923  0.07692308       0.022
  -0.38461538  0.23076923  0.07692308       0.022
  -0.30769231  0.23076923  0.07692308       0.022
  -0.23076923  0.23076923  0.07692308       0.022
  -0.15384615  0.23076923  0.07692308       0.011
   0.38461538  0.30769231  0.07692308       0.011
   0.46153846  0.30769231  0.07692308       0.022
  -0.46153846  0.30769231  0.07692308       0.022
  -0.38461538  0.30769231  0.07692308       0.022
  -0.30769231  0.30769231  0.07692308       0.022
  -0.23076923  0.30769231  0.07692308       0.011
   0.46153846  0.38461538  0.07692308       0.011
  -0.46153846  0.38461538  0.07692308       0.022
  -0.38461538  0.38461538  0.07692308       0.022
  -0.30769231  0.38461538  0.07692308       0.011
  -0.46153846  0.46153846  0.07692308       0.011
  -0.38461538  0.46153846  0.07692308       0.011
   0.46153846  0.30769231  0.15384615       0.011
  -0.46153846  0.30769231  0.15384615       0.022
  -0.38461538  0.30769231  0.15384615       0.022
  -0.46153846  0.38461538  0.15384615       0.011
  -0.38461538  0.38461538  0.15384615       0.022
  -0.30769231  0.38461538  0.15384615       0.022
  -0.23076923  0.38461538  0.15384615       0.011
  -0.38461538  0.46153846  0.15384615       0.011
  -0.30769231  0.46153846  0.15384615       0.011
  -0.30769231  0.46153846  0.23076923       0.011

 position of ions in fractional coordinates (direct lattice) 
   0.75000000  0.75000000  0.75000000
   0.50000000  0.50000000  0.50000000

 position of ions in cartesian coordinates  (Angst):
   4.12023171  4.12023171  4.12023171
   2.74682114  2.74682114  2.74682114



--------------------------------------------------------------------------------------------------------


 k-point  1 :   0.0000 0.0000 0.0000  plane waves:    1067
 k-point  2 :   0.0769 0.0000 0.0000  plane waves:    1034
 k-point  3 :   0.1538 0.0000 0.0000  plane waves:    1031
 k-point  4 :   0.2308 0.0000 0.0000  plane waves:    1047
 k-point  5 :   0.3077 0.0000 0.0000  plane waves:    1056
 k-point  6 :   0.3846 0.0000 0.0000  plane waves:    1050
 k-point  7 :   0.4615 0.0000 0.0000  plane waves:    1056
 k-point  8 :   0.0769 0.0769 0.0000  plane waves:    1034
 k-point  9 :   0.1538 0.0769 0.0000  plane waves:    1033
 k-point 10 :   0.2308 0.0769 0.0000  plane waves:    1037
 k-point 11 :   0.3077 0.0769 0.0000  plane waves:    1053
 k-point 12 :   0.3846 0.0769 0.0000  plane waves:    1053
 k-point 13 :   0.4615 0.0769 0.0000  plane waves:    1051
 k-point 14 :  -0.4615 0.0769 0.0000  plane waves:    1055
 k-point 15 :  -0.3846 0.0769 0.0000  plane waves:    1049
 k-point 16 :  -0.3077 0.0769 0.0000  plane waves:    1055
 k-point 17 :  -0.2308 0.0769 0.0000  plane waves:    1053
 k-point 18 :  -0.1538 0.0769 0.0000  plane waves:    1032
 k-point 19 :  -0.0769 0.0769 0.0000  plane waves:    1031
 k-point 20 :   0.1538 0.1538 0.0000  plane waves:    1034
 k-point 21 :   0.2308 0.1538 0.0000  plane waves:    1037
 k-point 22 :   0.3077 0.1538 0.0000  plane waves:    1054
 k-point 23 :   0.3846 0.1538 0.0000  plane waves:    1054
 k-point 24 :   0.4615 0.1538 0.0000  plane waves:    1055
 k-point 25 :  -0.4615 0.1538 0.0000  plane waves:    1057
 k-point 26 :  -0.3846 0.1538 0.0000  plane waves:    1058
 k-point 27 :  -0.3077 0.1538 0.0000  plane waves:    1053
 k-point 28 :  -0.2308 0.1538 0.0000  plane waves:    1050
 k-point 29 :  -0.1538 0.1538 0.0000  plane waves:    1043
 k-point 30 :   0.2308 0.2308 0.0000  plane waves:    1054
 k-point 31 :   0.3077 0.2308 0.0000  plane waves:    1039
 k-point 32 :   0.3846 0.2308 0.0000  plane waves:    1050
 k-point 33 :   0.4615 0.2308 0.0000  plane waves:    1052
 k-point 34 :  -0.4615 0.2308 0.0000  plane waves:    1055
 k-point 35 :  -0.3846 0.2308 0.0000  plane waves:    1064
 k-point 36 :  -0.3077 0.2308 0.0000  plane waves:    1056
 k-point 37 :  -0.2308 0.2308 0.0000  plane waves:    1055
 k-point 38 :   0.3077 0.3077 0.0000  plane waves:    1030
 k-point 39 :   0.3846 0.3077 0.0000  plane waves:    1050
 k-point 40 :   0.4615 0.3077 0.0000  plane waves:    1052
 k-point 41 :  -0.4615 0.3077 0.0000  plane waves:    1055
 k-point 42 :  -0.3846 0.3077 0.0000  plane waves:    1054
 k-point 43 :  -0.3077 0.3077 0.0000  plane waves:    1059
 k-point 44 :   0.3846 0.3846 0.0000  plane waves:    1042
 k-point 45 :   0.4615 0.3846 0.0000  plane waves:    1050
 k-point 46 :  -0.4615 0.3846 0.0000  plane waves:    1049
 k-point 47 :  -0.3846 0.3846 0.0000  plane waves:    1059
 k-point 48 :   0.4615 0.4615 0.0000  plane waves:    1050
 k-point 49 :  -0.4615 0.4615 0.0000  plane waves:    1052
 k-point 50 :   0.2308 0.1538 0.0769  plane waves:    1036
 k-point 51 :   0.3077 0.1538 0.0769  plane waves:    1046
 k-point 52 :   0.3846 0.1538 0.0769  plane waves:    1053
 k-point 53 :   0.4615 0.1538 0.0769  plane waves:    1052
 k-point 54 :  -0.4615 0.1538 0.0769  plane waves:    1047
 k-point 55 :   0.3077 0.2308 0.0769  plane waves:    1046
 k-point 56 :   0.3846 0.2308 0.0769  plane waves:    1052
 k-point 57 :   0.4615 0.2308 0.0769  plane waves:    1049
 k-point 58 :  -0.4615 0.2308 0.0769  plane waves:    1056
 k-point 59 :  -0.3846 0.2308 0.0769  plane waves:    1056
 k-point 60 :  -0.3077 0.2308 0.0769  plane waves:    1057
 k-point 61 :  -0.2308 0.2308 0.0769  plane waves:    1055
 k-point 62 :  -0.1538 0.2308 0.0769  plane waves:    1057
 k-point 63 :   0.3846 0.3077 0.0769  plane waves:    1046
 k-point 64 :   0.4615 0.3077 0.0769  plane waves:    1056
 k-point 65 :  -0.4615 0.3077 0.0769  plane waves:    1055
 k-point 66 :  -0.3846 0.3077 0.0769  plane waves:    1054
 k-point 67 :  -0.3077 0.3077 0.0769  plane waves:    1056
 k-point 68 :  -0.2308 0.3077 0.0769  plane waves:    1050
 k-point 69 :   0.4615 0.3846 0.0769  plane waves:    1055
 k-point 70 :  -0.4615 0.3846 0.0769  plane waves:    1055
 k-point 71 :  -0.3846 0.3846 0.0769  plane waves:    1061
 k-point 72 :  -0.3077 0.3846 0.0769  plane waves:    1056
 k-point 73 :  -0.4615 0.4615 0.0769  plane waves:    1058
 k-point 74 :  -0.3846 0.4615 0.0769  plane waves:    1057
 k-point 75 :   0.4615 0.3077 0.1538  plane waves:    1046
 k-point 76 :  -0.4615 0.3077 0.1538  plane waves:    1053
 k-point 77 :  -0.3846 0.3077 0.1538  plane waves:    1062
 k-point 78 :  -0.4615 0.3846 0.1538  plane waves:    1049
 k-point 79 :  -0.3846 0.3846 0.1538  plane waves:    1056
 k-point 80 :  -0.3077 0.3846 0.1538  plane waves:    1058
 k-point 81 :  -0.2308 0.3846 0.1538  plane waves:    1054
 k-point 82 :  -0.3846 0.4615 0.1538  plane waves:    1059
 k-point 83 :  -0.3077 0.4615 0.1538  plane waves:    1060
 k-point 84 :  -0.3077 0.4615 0.2308  plane waves:    1054

 maximum and minimum number of plane-waves per node :      1067     1030

 maximum number of plane-waves:      1067
 maximum index in each direction: 
   IXMAX=    7   IYMAX=    7   IZMAX=    7
   IXMIN=   -7   IYMIN=   -7   IZMIN=   -7

 WARNING: aliasing errors must be expected set NGX to  30 to avoid them
 WARNING: aliasing errors must be expected set NGY to  30 to avoid them
 WARNING: aliasing errors must be expected set NGZ to  30 to avoid them
 aliasing errors are usually negligible using standard VASP settings
 and one can safely disregard these warnings

 serial   3D FFT for wavefunctions
 parallel 3D FFT for charge:
    minimum data exchange during FFTs selected (reduces bandwidth)


 total amount of memory used by VASP on root node    41959. kBytes
========================================================================

   base      :      30000. kBytes
   nonl-proj :       5797. kBytes
   fftplans  :        517. kBytes
   grid      :       2709. kBytes
   one-center:         12. kBytes
   wavefun   :       2924. kBytes

     INWAV:  cpu time    0.0000: real time    0.0000
 Broyden mixing: mesh for mixing (old mesh)
   NGX = 15   NGY = 15   NGZ = 15
  (NGX  = 56   NGY  = 56   NGZ  = 56)
  gives a total of   3375 points

 initial charge density was supplied:
 charge density of overlapping atoms calculated
 number of electron       8.0000000 magnetization       2.0000000
 keeping initial charge density in first step


--------------------------------------------------------------------------------------------------------


 Maximum index for augmentation-charges         1417 (set IRDMAX)


--------------------------------------------------------------------------------------------------------


 First call to EWALD:  gamma=   0.512
 Maximum number of real-space cells 3x 3x 3
 Maximum number of reciprocal cells 3x 3x 3

 FEWALD executed in parallel
    FEWALD:  cpu time    0.0000: real time    0.0009


----------------------------------------- Iteration    1(   1)  ---------------------------------------


vdW kernel read from vdw_kernel.bindat
  0.0000  0.2424  0.5071  0.7962  1.1119  1.4567  1.8333  2.2446  2.6937  3.1842
  3.7199  4.3049  4.9438  5.6415  6.4036  7.2358  8.1446  9.1372 10.2212 11.4050
 12.6979 14.1099 15.6519 17.3360 19.1751 21.1837 23.3773 25.7729 28.3892 31.2465
 34.3669 37.7748 41.4965 45.5611 50.0000

    POTLOK:  cpu time    2.0880: real time    2.0845
    SETDIJ:  cpu time    0.0080: real time    0.0101
     EDDAV:  cpu time    2.0760: real time    2.0729
       DOS:  cpu time    0.0080: real time    0.0069
    --------------------------------------------
      LOOP:  cpu time    4.1800: real time    4.1763

 eigenvalue-minimisations  :  5376
 total energy-change (2. order) : 0.3507375E+01  (-0.3466725E+03)
 number of electron       8.0000000 magnetization       2.0000000
 augmentation part        8.0000000 magnetization       2.0000000

 Free energy of the ion-electron system (eV)
  ---------------------------------------------------
  alpha Z        PSCENC =         3.24857844
  Ewald energy   TEWEN  =      -225.91568183
  -Hartree energ DENC   =       -11.53197166
  -exchange      EXHF   =         0.00000000
  -V(xc)+E(xc)   XCENC  =       -20.06771024
  PAW double counting   =       189.18569288     -152.40348104
  entropy T*S    EENTRO =        -0.00754678
  eigenvalues    EBANDS =        12.40575720
  atomic energy  EATOM  =       208.59373829
  Solvation  Ediel_sol  =         0.00000000
  ---------------------------------------------------
  free energy    TOTEN  =         3.50737526 eV

  energy without entropy =        3.51492203  energy(sigma->0) =        3.51114864


--------------------------------------------------------------------------------------------------------




----------------------------------------- Iteration    1(   2)  ---------------------------------------


     EDDAV:  cpu time    3.0920: real time    3.0937
       DOS:  cpu time    0.0080: real time    0.0085
    --------------------------------------------
      LOOP:  cpu time    3.1000: real time    3.1805

 eigenvalue-minimisations  :  7968
 total energy-change (2. order) :-0.1132791E+02  (-0.1121136E+02)
 number of electron       8.0000000 magnetization       2.0000000
 augmentation part        8.0000000 magnetization       2.0000000

 Free energy of the ion-electron system (eV)
  ---------------------------------------------------
  alpha Z        PSCENC =         3.24857844
  Ewald energy   TEWEN  =      -225.91568183
  -Hartree energ DENC   =       -11.53197166
  -exchange      EXHF   =         0.00000000
  -V(xc)+E(xc)   XCENC  =       -20.06771024
  PAW double counting   =       189.18569288     -152.40348104
  entropy T*S    EENTRO =        -0.00174891
  eigenvalues    EBANDS =         1.07205368
  atomic energy  EATOM  =       208.59373829
  Solvation  Ediel_sol  =         0.00000000
  ---------------------------------------------------
  free energy    TOTEN  =        -7.82053039 eV

  energy without entropy =       -7.81878148  energy(sigma->0) =       -7.81965594


--------------------------------------------------------------------------------------------------------




----------------------------------------- Iteration    1(   3)  ---------------------------------------


     EDDAV:  cpu time    2.2960: real time    2.2941
       DOS:  cpu time    0.0080: real time    0.0087
    --------------------------------------------
      LOOP:  cpu time    2.3040: real time    2.3547

 eigenvalue-minimisations  :  5840
 total energy-change (2. order) :-0.7825970E-01  (-0.7824768E-01)
 number of electron       8.0000000 magnetization       2.0000000
 augmentation part        8.0000000 magnetization       2.0000000

 Free energy of the ion-electron system (eV)
  ---------------------------------------------------
  alpha Z        PSCENC =         3.24857844
  Ewald energy   TEWEN  =      -225.91568183
  -Hartree energ DENC   =       -11.53197166
  -exchange      EXHF   =         0.00000000
  -V(xc)+E(xc)   XCENC  =       -20.06771024
  PAW double counting   =       189.18569288     -152.40348104
  entropy T*S    EENTRO =        -0.00164697
  eigenvalues    EBANDS =         0.99369205
  atomic energy  EATOM  =       208.59373829
  Solvation  Ediel_sol  =         0.00000000
  ---------------------------------------------------
  free energy    TOTEN  =        -7.89879009 eV

  energy without entropy =       -7.89714312  energy(sigma->0) =       -7.89796660


--------------------------------------------------------------------------------------------------------




----------------------------------------- Iteration    1(   4)  ---------------------------------------


     EDDAV:  cpu time    4.8960: real time    4.8950
       DOS:  cpu time    0.0120: real time    0.0088
    --------------------------------------------
      LOOP:  cpu time    4.9080: real time    4.9513

 eigenvalue-minimisations  : 10096
 total energy-change (2. order) :-0.2380829E-03  (-0.2380829E-03)
 number of electron       8.0000000 magnetization       2.0000000
 augmentation part        8.0000000 magnetization       2.0000000

 Free energy of the ion-electron system (eV)
  ---------------------------------------------------
  alpha Z        PSCENC =         3.24857844
  Ewald energy   TEWEN  =      -225.91568183
  -Hartree energ DENC   =       -11.53197166
  -exchange      EXHF   =         0.00000000
  -V(xc)+E(xc)   XCENC  =       -20.06771024
  PAW double counting   =       189.18569288     -152.40348104
  entropy T*S    EENTRO =        -0.00164692
  eigenvalues    EBANDS =         0.99345392
  atomic energy  EATOM  =       208.59373829
  Solvation  Ediel_sol  =         0.00000000
  ---------------------------------------------------
  free energy    TOTEN  =        -7.89902817 eV

  energy without entropy =       -7.89738124  energy(sigma->0) =       -7.89820471


--------------------------------------------------------------------------------------------------------




----------------------------------------- Iteration    1(   5)  ---------------------------------------


     EDDAV:  cpu time    2.4480: real time    2.4469
       DOS:  cpu time    0.0080: real time    0.0086
    CHARGE:  cpu time    0.1520: real time    0.1521
    MIXING:  cpu time    0.0000: real time    0.0005
    --------------------------------------------
      LOOP:  cpu time    2.6080: real time    2.8511

 eigenvalue-minimisations  :  5856
 total energy-change (2. order) :-0.1305486E-07  (-0.1329225E-07)
 number of electron       7.9999999 magnetization      -0.5388673
 augmentation part       -0.4830372 magnetization      -0.5451250

 Broyden mixing:
  rms(total) = 0.51339E+00    rms(broyden)= 0.51339E+00
  rms(prec ) = 0.94949E+00
  weight for this iteration     100.00

 Free energy of the ion-electron system (eV)
  ---------------------------------------------------
  alpha Z        PSCENC =         3.24857844
  Ewald energy   TEWEN  =      -225.91568183
  -Hartree energ DENC   =       -11.53197166
  -exchange      EXHF   =         0.00000000
  -V(xc)+E(xc)   XCENC  =       -20.06771024
  PAW double counting   =       189.18569288     -152.40348104
  entropy T*S    EENTRO =        -0.00164692
  eigenvalues    EBANDS =         0.99345391
  atomic energy  EATOM  =       208.59373829
  Solvation  Ediel_sol  =         0.00000000
  ---------------------------------------------------
  free energy    TOTEN  =        -7.89902818 eV

  energy without entropy =       -7.89738126  energy(sigma->0) =       -7.89820472


--------------------------------------------------------------------------------------------------------




----------------------------------------- Iteration    1(   6)  ---------------------------------------


    POTLOK:  cpu time    1.5920: real time    1.5897
    SETDIJ:  cpu time    0.0080: real time    0.0098
     EDDAV:  cpu time    3.5640: real time    3.5649
       DOS:  cpu time    0.0080: real time    0.0093
    CHARGE:  cpu time    0.1480: real time    0.1481
    MIXING:  cpu time    0.0000: real time    0.0006
    --------------------------------------------
      LOOP:  cpu time    5.3200: real time    5.3778

 eigenvalue-minimisations  :  7872
 total energy-change (2. order) :-0.4267651E+00  (-0.1143727E-01)
 number of electron       7.9999999 magnetization       0.4216174
 augmentation part       -0.4758492 magnetization       0.4213832

 Broyden mixing:
  rms(total) = 0.25312E+00    rms(broyden)= 0.25312E+00
  rms(prec ) = 0.54810E+00
  weight for this iteration     100.00

 eigenvalues of (default mixing * dielectric matrix)
  average eigenvalue GAMMA=   0.8145
  0.8145

 Free energy of the ion-electron system (eV)
  ---------------------------------------------------
  alpha Z        PSCENC =         3.24857844
  Ewald energy   TEWEN  =      -225.91568183
  -Hartree energ DENC   =       -13.04609131
  -exchange      EXHF   =         0.00000000
  -V(xc)+E(xc)   XCENC  =       -20.04423125
  PAW double counting   =       303.69782143     -267.03956478
  entropy T*S    EENTRO =        -0.00004162
  eigenvalues    EBANDS =         2.17967937
  atomic energy  EATOM  =       208.59373829
  Solvation  Ediel_sol  =         0.00000000
  ---------------------------------------------------
  free energy    TOTEN  =        -8.32579326 eV

  energy without entropy =       -8.32575164  energy(sigma->0) =       -8.32577245


--------------------------------------------------------------------------------------------------------




----------------------------------------- Iteration    1(   7)  ---------------------------------------


    POTLOK:  cpu time    1.6440: real time    1.6480
    SETDIJ:  cpu time    0.0080: real time    0.0074
     EDDAV:  cpu time    3.8080: real time    3.8070
       DOS:  cpu time    0.0120: real time    0.0096
    CHARGE:  cpu time    0.1040: real time    0.1055
    MIXING:  cpu time    0.0000: real time    0.0006
    --------------------------------------------
      LOOP:  cpu time    5.5800: real time    5.6049

 eigenvalue-minimisations  :  7888
 total energy-change (2. order) : 0.2786956E-02  (-0.7814571E-02)
 number of electron       7.9999999 magnetization       0.0572847
 augmentation part       -0.4708316 magnetization       0.0572713

 Broyden mixing:
  rms(total) = 0.15664E+00    rms(broyden)= 0.15664E+00
  rms(prec ) = 0.26509E+00
  weight for this iteration     100.00

 eigenvalues of (default mixing * dielectric matrix)
  average eigenvalue GAMMA=   1.0696
  1.4116  0.7276

 Free energy of the ion-electron system (eV)
  ---------------------------------------------------
  alpha Z        PSCENC =         3.24857844
  Ewald energy   TEWEN  =      -225.91568183
  -Hartree energ DENC   =       -14.44007377
  -exchange      EXHF   =         0.00000000
  -V(xc)+E(xc)   XCENC  =       -19.82364688
  PAW double counting   =       428.05800547     -391.49107369
  entropy T*S    EENTRO =        -0.00006423
  eigenvalues    EBANDS =         3.44721189
  atomic energy  EATOM  =       208.59373829
  Solvation  Ediel_sol  =         0.00000000
  ---------------------------------------------------
  free energy    TOTEN  =        -8.32300631 eV

  energy without entropy =       -8.32294208  energy(sigma->0) =       -8.32297419


--------------------------------------------------------------------------------------------------------




----------------------------------------- Iteration    1(   8)  ---------------------------------------


    POTLOK:  cpu time    1.6880: real time    1.6858
    SETDIJ:  cpu time    0.0080: real time    0.0073
     EDDAV:  cpu time    3.4840: real time    3.4842
       DOS:  cpu time    0.0080: real time    0.0090
    CHARGE:  cpu time    0.1200: real time    0.1195
    MIXING:  cpu time    0.0000: real time    0.0007
    --------------------------------------------
      LOOP:  cpu time    5.3080: real time    5.3686

 eigenvalue-minimisations  :  8032
 total energy-change (2. order) :-0.2556409E-01  (-0.3626069E-02)
 number of electron       7.9999999 magnetization      -0.0048383
 augmentation part       -0.4674791 magnetization      -0.0049695

 Broyden mixing:
  rms(total) = 0.66320E-01    rms(broyden)= 0.66320E-01
  rms(prec ) = 0.73859E-01
  weight for this iteration     100.00

 eigenvalues of (default mixing * dielectric matrix)
  average eigenvalue GAMMA=   1.2951
  2.4982  0.7869  0.6002

 Free energy of the ion-electron system (eV)
  ---------------------------------------------------
  alpha Z        PSCENC =         3.24857844
  Ewald energy   TEWEN  =      -225.91568183
  -Hartree energ DENC   =       -15.50695116
  -exchange      EXHF   =         0.00000000
  -V(xc)+E(xc)   XCENC  =       -19.65575037
  PAW double counting   =       530.64545293     -494.12870435
  entropy T*S    EENTRO =        -0.00003766
  eigenvalues    EBANDS =         4.37078532
  atomic energy  EATOM  =       208.59373829
  Solvation  Ediel_sol  =         0.00000000
  ---------------------------------------------------
  free energy    TOTEN  =        -8.34857040 eV

  energy without entropy =       -8.34853274  energy(sigma->0) =       -8.34855157


--------------------------------------------------------------------------------------------------------




----------------------------------------- Iteration    1(   9)  ---------------------------------------


    POTLOK:  cpu time    1.6560: real time    1.6557
    SETDIJ:  cpu time    0.0120: real time    0.0097
     EDDAV:  cpu time    2.5960: real time    2.5955
       DOS:  cpu time    0.0080: real time    0.0094
    CHARGE:  cpu time    0.0960: real time    0.0949
    MIXING:  cpu time    0.0000: real time    0.0007
    --------------------------------------------
      LOOP:  cpu time    4.3680: real time    4.5779

 eigenvalue-minimisations  :  6800
 total energy-change (2. order) : 0.2537398E-02  (-0.5893109E-04)
 number of electron       7.9999999 magnetization      -0.0014214
 augmentation part       -0.4673675 magnetization      -0.0013656

 Broyden mixing:
  rms(total) = 0.11639E-01    rms(broyden)= 0.11639E-01
  rms(prec ) = 0.25591E-01
  weight for this iteration     100.00

 eigenvalues of (default mixing * dielectric matrix)
  average eigenvalue GAMMA=   1.2418
  2.4960  1.0965  0.7758  0.5989

 Free energy of the ion-electron system (eV)
  ---------------------------------------------------
  alpha Z        PSCENC =         3.24857844
  Ewald energy   TEWEN  =      -225.91568183
  -Hartree energ DENC   =       -15.55789998
  -exchange      EXHF   =         0.00000000
  -V(xc)+E(xc)   XCENC  =       -19.64322288
  PAW double counting   =       535.35770894     -498.83326530
  entropy T*S    EENTRO =        -0.00003613
  eigenvalues    EBANDS =         4.40404746
  atomic energy  EATOM  =       208.59373829
  Solvation  Ediel_sol  =         0.00000000
  ---------------------------------------------------
  free energy    TOTEN  =        -8.34603300 eV

  energy without entropy =       -8.34599687  energy(sigma->0) =       -8.34601494


--------------------------------------------------------------------------------------------------------




----------------------------------------- Iteration    1(  10)  ---------------------------------------


    POTLOK:  cpu time    1.6320: real time    1.6288
    SETDIJ:  cpu time    0.0040: real time    0.0069
     EDDAV:  cpu time    2.9080: real time    2.9055
       DOS:  cpu time    0.0120: real time    0.0097
    CHARGE:  cpu time    0.1480: real time    0.1481
    MIXING:  cpu time    0.0000: real time    0.0007
    --------------------------------------------
      LOOP:  cpu time    4.7040: real time    4.7959

 eigenvalue-minimisations  :  6704
 total energy-change (2. order) : 0.7472708E-02  (-0.1025584E-03)
 number of electron       7.9999999 magnetization       0.0012129
 augmentation part       -0.4679488 magnetization       0.0011474

 Broyden mixing:
  rms(total) = 0.58534E-02    rms(broyden)= 0.58534E-02
  rms(prec ) = 0.76499E-02
  weight for this iteration     100.00

 eigenvalues of (default mixing * dielectric matrix)
  average eigenvalue GAMMA=   1.3498
  2.3256  2.3256  0.7966  0.6976  0.6036

 Free energy of the ion-electron system (eV)
  ---------------------------------------------------
  alpha Z        PSCENC =         3.24857844
  Ewald energy   TEWEN  =      -225.91568183
  -Hartree energ DENC   =       -15.50476443
  -exchange      EXHF   =         0.00000000
  -V(xc)+E(xc)   XCENC  =       -19.64077797
  PAW double counting   =       528.70363907     -492.15145367
  entropy T*S    EENTRO =        -0.00003126
  eigenvalues    EBANDS =         4.32819307
  atomic energy  EATOM  =       208.59373829
  Solvation  Ediel_sol  =         0.00000000
  ---------------------------------------------------
  free energy    TOTEN  =        -8.33856029 eV

  energy without entropy =       -8.33852903  energy(sigma->0) =       -8.33854466


--------------------------------------------------------------------------------------------------------




----------------------------------------- Iteration    1(  11)  ---------------------------------------


    POTLOK:  cpu time    1.6320: real time    1.6314
    SETDIJ:  cpu time    0.0080: real time    0.0068
     EDDAV:  cpu time    3.0200: real time    3.0190
       DOS:  cpu time    0.0080: real time    0.0092
    CHARGE:  cpu time    0.1440: real time    0.1452
    MIXING:  cpu time    0.0000: real time    0.0007
    --------------------------------------------
      LOOP:  cpu time    4.8120: real time    5.0108

 eigenvalue-minimisations  :  7040
 total energy-change (2. order) : 0.3467708E-03  (-0.1145373E-04)
 number of electron       7.9999999 magnetization      -0.0001483
 augmentation part       -0.4679577 magnetization      -0.0001677

 Broyden mixing:
  rms(total) = 0.28629E-02    rms(broyden)= 0.28629E-02
  rms(prec ) = 0.35200E-02
  weight for this iteration     100.00

 eigenvalues of (default mixing * dielectric matrix)
  average eigenvalue GAMMA=   1.3882
  2.5293  2.5293  1.1999  0.6094  0.6789  0.7827

 Free energy of the ion-electron system (eV)
  ---------------------------------------------------
  alpha Z        PSCENC =         3.24857844
  Ewald energy   TEWEN  =      -225.91568183
  -Hartree energ DENC   =       -15.51923407
  -exchange      EXHF   =         0.00000000
  -V(xc)+E(xc)   XCENC  =       -19.63778905
  PAW double counting   =       527.75359085     -491.20034202
  entropy T*S    EENTRO =        -0.00003123
  eigenvalues    EBANDS =         4.33895711
  atomic energy  EATOM  =       208.59373829
  Solvation  Ediel_sol  =         0.00000000
  ---------------------------------------------------
  free energy    TOTEN  =        -8.33821352 eV

  energy without entropy =       -8.33818229  energy(sigma->0) =       -8.33819791


--------------------------------------------------------------------------------------------------------




----------------------------------------- Iteration    1(  12)  ---------------------------------------


    POTLOK:  cpu time    1.6280: real time    1.6290
    SETDIJ:  cpu time    0.0080: real time    0.0095
     EDDAV:  cpu time    4.2040: real time    4.2033
       DOS:  cpu time    0.0120: real time    0.0089
    CHARGE:  cpu time    0.1000: real time    0.0999
    MIXING:  cpu time    0.0000: real time    0.0007
    --------------------------------------------
      LOOP:  cpu time    5.9560: real time    9.0090

 eigenvalue-minimisations  :  8736
 total energy-change (2. order) :-0.2757507E-03  (-0.1619670E-05)
 number of electron       7.9999999 magnetization      -0.0002460
 augmentation part       -0.4679054 magnetization      -0.0002373

 Broyden mixing:
  rms(total) = 0.15344E-02    rms(broyden)= 0.15344E-02
  rms(prec ) = 0.17088E-02
  weight for this iteration     100.00

 eigenvalues of (default mixing * dielectric matrix)
  average eigenvalue GAMMA=   1.3795
  2.6636  2.6636  1.1359  1.1359  0.7822  0.6125  0.6631

 Free energy of the ion-electron system (eV)
  ---------------------------------------------------
  alpha Z        PSCENC =         3.24857844
  Ewald energy   TEWEN  =      -225.91568183
  -Hartree energ DENC   =       -15.53123675
  -exchange      EXHF   =         0.00000000
  -V(xc)+E(xc)   XCENC  =       -19.63645237
  PAW double counting   =       525.72124429     -489.16930535
  entropy T*S    EENTRO =        -0.00003148
  eigenvalues    EBANDS =         4.35065749
  atomic energy  EATOM  =       208.59373829
  Solvation  Ediel_sol  =         0.00000000
  ---------------------------------------------------
  free energy    TOTEN  =        -8.33848927 eV

  energy without entropy =       -8.33845779  energy(sigma->0) =       -8.33847353


--------------------------------------------------------------------------------------------------------




----------------------------------------- Iteration    1(  13)  ---------------------------------------


    POTLOK:  cpu time    1.6480: real time    1.6529
    SETDIJ:  cpu time    0.0120: real time    0.0095
     EDDAV:  cpu time    2.6600: real time    2.6598
       DOS:  cpu time    0.0080: real time    0.0093
    CHARGE:  cpu time    0.1480: real time    0.1474
    MIXING:  cpu time    0.0000: real time    0.0008
    --------------------------------------------
      LOOP:  cpu time    4.4760: real time    4.5520

 eigenvalue-minimisations  :  6432
 total energy-change (2. order) : 0.1146860E-03  (-0.4941641E-06)
 number of electron       7.9999999 magnetization      -0.0000598
 augmentation part       -0.4679040 magnetization      -0.0000636

 Broyden mixing:
  rms(total) = 0.38469E-03    rms(broyden)= 0.38469E-03
  rms(prec ) = 0.46656E-03
  weight for this iteration     100.00

 eigenvalues of (default mixing * dielectric matrix)
  average eigenvalue GAMMA=   1.3970
  2.6816  2.6816  1.9154  1.1181  0.7724  0.7522  0.6179  0.6367

 Free energy of the ion-electron system (eV)
  ---------------------------------------------------
  alpha Z        PSCENC =         3.24857844
  Ewald energy   TEWEN  =      -225.91568183
  -Hartree energ DENC   =       -15.53016192
  -exchange      EXHF   =         0.00000000
  -V(xc)+E(xc)   XCENC  =       -19.63677493
  PAW double counting   =       523.41020180     -486.85791228
  entropy T*S    EENTRO =        -0.00003135
  eigenvalues    EBANDS =         4.34966920
  atomic energy  EATOM  =       208.59373829
  Solvation  Ediel_sol  =         0.00000000
  ---------------------------------------------------
  free energy    TOTEN  =        -8.33837458 eV

  energy without entropy =       -8.33834323  energy(sigma->0) =       -8.33835891


--------------------------------------------------------------------------------------------------------




----------------------------------------- Iteration    1(  14)  ---------------------------------------


    POTLOK:  cpu time    1.6360: real time    1.6349
    SETDIJ:  cpu time    0.0120: real time    0.0094
     EDDAV:  cpu time    2.7000: real time    2.7012
       DOS:  cpu time    0.0120: real time    0.0096
    CHARGE:  cpu time    0.1480: real time    0.1484
    MIXING:  cpu time    0.0000: real time    0.0008
    --------------------------------------------
      LOOP:  cpu time    4.5080: real time    4.7950

 eigenvalue-minimisations  :  6768
 total energy-change (2. order) :-0.1820744E-04  (-0.6972386E-07)
 number of electron       7.9999999 magnetization       0.0000066
 augmentation part       -0.4678995 magnetization       0.0000064

 Broyden mixing:
  rms(total) = 0.90451E-04    rms(broyden)= 0.90451E-04
  rms(prec ) = 0.13469E-03
  weight for this iteration     100.00

 eigenvalues of (default mixing * dielectric matrix)
  average eigenvalue GAMMA=   1.3367
  2.7767  2.5286  2.0573  1.1055  0.8253  0.7942  0.6895  0.6125  0.6405

 Free energy of the ion-electron system (eV)
  ---------------------------------------------------
  alpha Z        PSCENC =         3.24857844
  Ewald energy   TEWEN  =      -225.91568183
  -Hartree energ DENC   =       -15.53118851
  -exchange      EXHF   =         0.00000000
  -V(xc)+E(xc)   XCENC  =       -19.63667930
  PAW double counting   =       523.12328118     -486.57108425
  entropy T*S    EENTRO =        -0.00003136
  eigenvalues    EBANDS =         4.35067455
  atomic energy  EATOM  =       208.59373829
  Solvation  Ediel_sol  =         0.00000000
  ---------------------------------------------------
  free energy    TOTEN  =        -8.33839279 eV

  energy without entropy =       -8.33836143  energy(sigma->0) =       -8.33837711


--------------------------------------------------------------------------------------------------------




----------------------------------------- Iteration    1(  15)  ---------------------------------------


    POTLOK:  cpu time    1.6360: real time    1.6354
    SETDIJ:  cpu time    0.0080: real time    0.0094
     EDDAV:  cpu time    3.3840: real time    3.3810
       DOS:  cpu time    0.0080: real time    0.0089
    CHARGE:  cpu time    0.0960: real time    0.0947
    MIXING:  cpu time    0.0000: real time    0.0008
    --------------------------------------------
      LOOP:  cpu time    5.1320: real time    5.1596

 eigenvalue-minimisations  :  8080
 total energy-change (2. order) :-0.1054783E-04  (-0.2155378E-08)
 number of electron       7.9999999 magnetization       0.0000171
 augmentation part       -0.4678977 magnetization       0.0000172

 Broyden mixing:
  rms(total) = 0.47867E-04    rms(broyden)= 0.47867E-04
  rms(prec ) = 0.77657E-04
  weight for this iteration     100.00

 eigenvalues of (default mixing * dielectric matrix)
  average eigenvalue GAMMA=   1.3277
  2.7908  2.4892  2.0674  1.3091  1.0715  0.8400  0.7917  0.6717  0.6123  0.6334

 Free energy of the ion-electron system (eV)
  ---------------------------------------------------
  alpha Z        PSCENC =         3.24857844
  Ewald energy   TEWEN  =      -225.91568183
  -Hartree energ DENC   =       -15.53155037
  -exchange      EXHF   =         0.00000000
  -V(xc)+E(xc)   XCENC  =       -19.63663757
  PAW double counting   =       523.17416241     -486.62200558
  entropy T*S    EENTRO =        -0.00003137
  eigenvalues    EBANDS =         4.35102425
  atomic energy  EATOM  =       208.59373829
  Solvation  Ediel_sol  =         0.00000000
  ---------------------------------------------------
  free energy    TOTEN  =        -8.33840334 eV

  energy without entropy =       -8.33837197  energy(sigma->0) =       -8.33838766


--------------------------------------------------------------------------------------------------------




----------------------------------------- Iteration    1(  16)  ---------------------------------------


    POTLOK:  cpu time    1.6280: real time    1.6272
    SETDIJ:  cpu time    0.0080: real time    0.0096
     EDDAV:  cpu time    1.9240: real time    1.9216
       DOS:  cpu time    0.0080: real time    0.0098
    CHARGE:  cpu time    0.1360: real time    0.1330
    MIXING:  cpu time    0.0000: real time    0.0009
    --------------------------------------------
      LOOP:  cpu time    3.7040: real time    3.7832

 eigenvalue-minimisations  :  5104
 total energy-change (2. order) :-0.7135932E-05  (-0.1753185E-08)
 number of electron       7.9999999 magnetization       0.0000005
 augmentation part       -0.4678970 magnetization       0.0000004

 Broyden mixing:
  rms(total) = 0.14122E-04    rms(broyden)= 0.14122E-04
  rms(prec ) = 0.23856E-04
  weight for this iteration     100.00

 eigenvalues of (default mixing * dielectric matrix)
  average eigenvalue GAMMA=   1.4210
  2.9434  2.4754  2.4754  2.2524  1.0062  1.0062  0.7905  0.7732  0.6665  0.6120
  0.6296

 Free energy of the ion-electron system (eV)
  ---------------------------------------------------
  alpha Z        PSCENC =         3.24857844
  Ewald energy   TEWEN  =      -225.91568183
  -Hartree energ DENC   =       -15.53173694
  -exchange      EXHF   =         0.00000000
  -V(xc)+E(xc)   XCENC  =       -19.63662538
  PAW double counting   =       523.23270682     -486.68057082
  entropy T*S    EENTRO =        -0.00003136
  eigenvalues    EBANDS =         4.35121232
  atomic energy  EATOM  =       208.59373829
  Solvation  Ediel_sol  =         0.00000000
  ---------------------------------------------------
  free energy    TOTEN  =        -8.33841048 eV

  energy without entropy =       -8.33837911  energy(sigma->0) =       -8.33839479


--------------------------------------------------------------------------------------------------------




----------------------------------------- Iteration    1(  17)  ---------------------------------------


    POTLOK:  cpu time    1.6400: real time    1.6400
    SETDIJ:  cpu time    0.0080: real time    0.0094
     EDDAV:  cpu time    1.6160: real time    1.6138
       DOS:  cpu time    0.0080: real time    0.0096
    CHARGE:  cpu time    0.1520: real time    0.1490
    MIXING:  cpu time    0.0000: real time    0.0010
    --------------------------------------------
      LOOP:  cpu time    3.4240: real time    3.6914

 eigenvalue-minimisations  :  3344
 total energy-change (2. order) : 0.1268819E-05  (-0.2905214E-09)
 number of electron       7.9999999 magnetization      -0.0000005
 augmentation part       -0.4678971 magnetization      -0.0000004

 Broyden mixing:
  rms(total) = 0.28755E-05    rms(broyden)= 0.28755E-05
  rms(prec ) = 0.34627E-05
  weight for this iteration     100.00

 eigenvalues of (default mixing * dielectric matrix)
  average eigenvalue GAMMA=   1.3748
  2.9877  2.5932  2.4571  2.1962  1.0521  0.9456  0.8249  0.7884  0.7453  0.6121
  0.6645  0.6306

 Free energy of the ion-electron system (eV)
  ---------------------------------------------------
  alpha Z        PSCENC =         3.24857844
  Ewald energy   TEWEN  =      -225.91568183
  -Hartree energ DENC   =       -15.53168046
  -exchange      EXHF   =         0.00000000
  -V(xc)+E(xc)   XCENC  =       -19.63663664
  PAW double counting   =       523.22557132     -486.67342875
  entropy T*S    EENTRO =        -0.00003136
  eigenvalues    EBANDS =         4.35116179
  atomic energy  EATOM  =       208.59373829
  Solvation  Ediel_sol  =         0.00000000
  ---------------------------------------------------
  free energy    TOTEN  =        -8.33840921 eV

  energy without entropy =       -8.33837785  energy(sigma->0) =       -8.33839353


--------------------------------------------------------------------------------------------------------




----------------------------------------- Iteration    1(  18)  ---------------------------------------


    POTLOK:  cpu time    1.6320: real time    1.6309
    SETDIJ:  cpu time    0.0080: real time    0.0068
     EDDAV:  cpu time    1.2520: real time    1.2527
       DOS:  cpu time    0.0080: real time    0.0092
    --------------------------------------------
      LOOP:  cpu time    2.9000: real time    3.1719

 eigenvalue-minimisations  :  3040
 total energy-change (2. order) : 0.4036679E-07  (-0.6459311E-11)
 number of electron       7.9999999 magnetization      -0.0000005
 augmentation part       -0.4678971 magnetization      -0.0000004

 Free energy of the ion-electron system (eV)
  ---------------------------------------------------
  alpha Z        PSCENC =         3.24857844
  Ewald energy   TEWEN  =      -225.91568183
  -Hartree energ DENC   =       -15.53168024
  -exchange      EXHF   =         0.00000000
  -V(xc)+E(xc)   XCENC  =       -19.63663706
  PAW double counting   =       523.22288684     -486.67074424
  entropy T*S    EENTRO =        -0.00003136
  eigenvalues    EBANDS =         4.35116200
  atomic energy  EATOM  =       208.59373829
  Solvation  Ediel_sol  =         0.00000000
  ---------------------------------------------------
  free energy    TOTEN  =        -8.33840917 eV

  energy without entropy =       -8.33837781  energy(sigma->0) =       -8.33839349


[...]
      8      11.7079      0.00000
      9      13.1933      0.00000
     10      14.2369      0.00000
     11      18.4468      0.00000
     12      19.1042      0.00000
     13      19.2294      0.00000
     14      20.9473      0.00000
     15      22.4293      0.00000
     16      23.3001      0.00000

 k-point    69 :       0.4615    0.3846    0.0769
  band No.  band energies     occupation 
      1      -3.6872      1.00000
      2      -0.4087      1.00000
      3       2.6106      1.00000
      4       2.8440      1.00000
      5       6.7295      0.00000
      6       7.4726      0.00000
      7      12.3949      0.00000
      8      13.5166      0.00000
      9      15.8696      0.00000
     10      16.5966      0.00000
     11      17.1398      0.00000
     12      18.2390      0.00000
     13      19.3976      0.00000
     14      20.5489      0.00000
     15      21.2140      0.00000
     16      22.0733      0.00000

 k-point    70 :      -0.4615    0.3846    0.0769
  band No.  band energies     occupation 
      1      -3.1289      1.00000
      2      -1.0549      1.00000
      3       2.0632      1.00000
      4       2.7379      1.00000
      5       7.0267      0.00000
      6       8.0593      0.00000
      7      12.1325      0.00000
      8      13.8453      0.00000
      9      14.9551      0.00000
     10      16.6415      0.00000
     11      17.2549      0.00000
     12      18.8424      0.00000
     13      19.8444      0.00000
     14      20.5702      0.00000
     15      21.7134      0.00000
     16      22.8873      0.00000

 k-point    71 :      -0.3846    0.3846    0.0769
  band No.  band energies     occupation 
      1      -2.6740      1.00000
      2      -1.5162      1.00000
      3       1.5429      1.00000
      4       2.8330      1.00000
      5       7.1913      0.00000
      6       9.3034      0.00000
      7      11.8544      0.00000
      8      13.2102      0.00000
      9      13.8702      0.00000
     10      15.5327      0.00000
     11      18.3028      0.00000
     12      19.9127      0.00000
     13      20.6085      0.00000
     14      20.7405      0.00000
     15      22.4180      0.00000
     16      22.6851      0.00000

 k-point    72 :      -0.3077    0.3846    0.0769
  band No.  band energies     occupation 
      1      -2.8382      1.00000
      2      -1.3383      1.00000
      3       1.3031      1.00000
      4       3.0662      1.00000
      5       7.4595      0.00000
      6      10.7259      0.00000
      7      11.5061      0.00000
      8      11.9472      0.00000
      9      13.3641      0.00000
     10      14.3945      0.00000
     11      19.4411      0.00000
     12      20.1135      0.00000
     13      20.3532      0.00000
     14      21.3823      0.00000
     15      21.8672      0.00000
     16      23.2924      0.00000

 k-point    73 :      -0.4615    0.4615    0.0769
  band No.  band energies     occupation 
      1      -2.6950      1.00000
      2      -1.5869      1.00000
      3       2.4770      1.00000
      4       2.5514      1.00000
      5       6.7238      0.00000
      6       6.9639      0.00000
      7      13.7051      0.00000
      8      14.7645      0.00000
      9      15.4507      0.00000
     10      16.5615      0.00000
     11      17.4017      0.00000
     12      18.6917      0.00000
     13      18.7406      0.00000
     14      20.1006      0.00000
     15      22.2689      0.00000
     16      23.4667      0.00000

 k-point    74 :      -0.3846    0.4615    0.0769
  band No.  band energies     occupation 
      1      -2.2480      1.00000
      2      -1.9894      1.00000
      3       1.9344      1.00000
      4       2.6077      1.00000
      5       6.9457      0.00000
      6       7.8948      0.00000
      7      13.3454      0.00000
      8      13.5443      0.00000
      9      15.2052      0.00000
     10      15.7082      0.00000
     11      18.1781      0.00000
     12      18.7983      0.00000
     13      20.2381      0.00000
     14      20.7072      0.00000
     15      22.2896      0.00000
     16      22.6861      0.00000

 k-point    75 :       0.4615    0.3077    0.1538
  band No.  band energies     occupation 
      1      -4.2834      1.00000
      2       0.3094      1.00000
      3       2.2842      1.00000
      4       3.5411      1.00000
      5       8.1961      0.00000
      6       9.2744      0.00000
      7       9.6083      0.00000
      8      11.9245      0.00000
      9      13.9384      0.00000
     10      15.8873      0.00000
     11      17.3390      0.00000
     12      18.2209      0.00000
     13      19.0333      0.00000
     14      20.5363      0.00000
     15      21.2934      0.00000
     16      23.3179      0.00000

 k-point    76 :      -0.4615    0.3077    0.1538
  band No.  band energies     occupation 
      1      -3.7306      1.00000
      2      -0.4524      1.00000
      3       1.9152      1.00000
      4       3.2313      1.00000
      5       8.5565      0.00000
      6       9.2467      0.00000
      7       9.9758      0.00000
      8      12.3234      0.00000
      9      14.3870      0.00000
     10      14.7075      0.00000
     11      18.1048      0.00000
     12      18.9922      0.00000
     13      19.5637      0.00000
     14      20.1543      0.00000
     15      22.4889      0.00000
     16      23.2476      0.00000

 k-point    77 :      -0.3846    0.3077    0.1538
  band No.  band energies     occupation 
      1      -3.2527      1.00000
      2      -1.0723      1.00000
      3       1.7701      1.00000
      4       3.0446      1.00000
      5       8.7177      0.00000
      6       8.9455      0.00000
      7      11.2348      0.00000
      8      12.3947      0.00000
      9      12.7873      0.00000
     10      15.9086      0.00000
     11      17.4574      0.00000
     12      18.5228      0.00000
     13      20.7391      0.00000
     14      21.7796      0.00000
     15      22.2343      0.00000
     16      23.2885      0.00000

 k-point    78 :      -0.4615    0.3846    0.1538
  band No.  band energies     occupation 
      1      -3.4846      1.00000
      2      -0.6201      1.00000
      3       2.0094      1.00000
      4       2.7473      1.00000
      5       7.9809      0.00000
      6       8.5849      0.00000
      7      10.6172      0.00000
      8      13.4757      0.00000
      9      14.6161      0.00000
     10      15.4844      0.00000
     11      18.4536      0.00000
     12      19.0649      0.00000
     13      19.5433      0.00000
     14      19.9480      0.00000
     15      21.8539      0.00000
     16      22.8955      0.00000

 k-point    79 :      -0.3846    0.3846    0.1538
  band No.  band energies     occupation 
      1      -2.9444      1.00000
      2      -1.2008      1.00000
      3       1.6765      1.00000
      4       2.5305      1.00000
      5       8.3168      0.00000
      6       9.4974      0.00000
      7      10.3325      0.00000
      8      12.9182      0.00000
      9      13.8933      0.00000
     10      16.3076      0.00000
     11      17.5798      0.00000
     12      19.6191      0.00000
     13      20.3444      0.00000
     14      20.9693      0.00000
     15      22.2981      0.00000
     16      23.7472      0.00000

 k-point    80 :      -0.3077    0.3846    0.1538
  band No.  band energies     occupation 
      1      -2.7625      1.00000
      2      -1.3853      1.00000
      3       1.4735      1.00000
      4       2.5828      1.00000
      5       8.5371      0.00000
      6       9.9357      0.00000
      7      10.9878      0.00000
      8      11.4377      0.00000
      9      13.8594      0.00000
     10      15.9008      0.00000
     11      17.9618      0.00000
     12      19.6557      0.00000
     13      20.5501      0.00000
     14      22.0112      0.00000
     15      22.6290      0.00000
     16      23.2317      0.00000

 k-point    81 :      -0.2308    0.3846    0.1538
  band No.  band energies     occupation 
      1      -3.1823      1.00000
      2      -0.9563      1.00000
      3       1.5190      1.00000
      4       2.8436      1.00000
      5       8.8526      0.00000
      6       9.5594      0.00000
      7      10.1709      0.00000
      8      12.6938      0.00000
      9      13.4136      0.00000
     10      14.9416      0.00000
     11      18.9981      0.00000
     12      19.6328      0.00000
     13      19.8195      0.00000
     14      21.1618      0.00000
     15      21.6766      0.00000
     16      24.0076      0.00000

 k-point    82 :      -0.3846    0.4615    0.1538
  band No.  band energies     occupation 
      1      -2.5699      1.00000
      2      -1.5934      1.00000
      3       1.9742      1.00000
      4       2.2125      1.00000
      5       7.9555      0.00000
      6       8.1490      0.00000
      7      11.8083      0.00000
      8      13.1484      0.00000
      9      15.0806      0.00000
     10      16.4143      0.00000
     11      17.6240      0.00000
     12      18.8278      0.00000
     13      20.6843      0.00000
     14      21.4978      0.00000
     15      22.0169      0.00000
     16      22.9775      0.00000

 k-point    83 :      -0.3077    0.4615    0.1538
  band No.  band energies     occupation 
      1      -2.3040      1.00000
      2      -1.8150      1.00000
      3       1.6113      1.00000
      4       2.2564      1.00000
      5       8.2326      0.00000
      6       9.3840      0.00000
      7      11.4560      0.00000
      8      11.6120      0.00000
      9      15.1207      0.00000
     10      15.9605      0.00000
     11      18.0200      0.00000
     12      18.9881      0.00000
     13      21.2560      0.00000
     14      22.0926      0.00000
     15      22.5502      0.00000
     16      22.7841      0.00000

 k-point    84 :      -0.3077    0.4615    0.2308
  band No.  band energies     occupation 
      1      -2.4183      1.00000
      2      -1.6653      1.00000
      3       1.6303      1.00000
      4       2.0823      1.00000
      5       9.5162      0.00000
      6       9.5350      0.00000
      7      10.1469      0.00000
      8      11.2715      0.00000
      9      15.0870      0.00000
     10      16.2159      0.00000
     11      17.8483      0.00000
     12      18.9752      0.00000
     13      21.0199      0.00000
     14      22.0946      0.00000
     15      22.8838      0.00000
     16      23.4679      0.00000


--------------------------------------------------------------------------------------------------------


 soft charge-density along one line, spin component           1
         0         1         2         3         4         5         6         7         8         9
 total charge-density along one line

 soft charge-density along one line, spin component           2
         0         1         2         3         4         5         6         7         8         9
 total charge-density along one line

 pseudopotential strength for first ion, spin component:           1
 18.546  25.870  -0.000  -0.000  -0.000  -0.000  -0.000  -0.000
 25.870  36.092  -0.000  -0.000  -0.000  -0.000  -0.000  -0.000
 -0.000  -0.000   4.200  -0.000  -0.000   7.819  -0.000  -0.000
 -0.000  -0.000  -0.000   4.200  -0.000  -0.000   7.819  -0.000
 -0.000  -0.000  -0.000  -0.000   4.200  -0.000  -0.000   7.819
 -0.000  -0.000   7.819  -0.000  -0.000  14.567  -0.000  -0.000
 -0.000  -0.000  -0.000   7.819  -0.000  -0.000  14.567  -0.000
 -0.000  -0.000  -0.000  -0.000   7.819  -0.000  -0.000  14.567
 pseudopotential strength for first ion, spin component:           2
 18.546  25.870  -0.000  -0.000  -0.000  -0.000  -0.000  -0.000
 25.870  36.092  -0.000  -0.000  -0.000  -0.000  -0.000  -0.000
 -0.000  -0.000   4.200  -0.000  -0.000   7.819  -0.000  -0.000
 -0.000  -0.000  -0.000   4.200  -0.000  -0.000   7.819  -0.000
 -0.000  -0.000  -0.000  -0.000   4.200  -0.000  -0.000   7.819
 -0.000  -0.000   7.819  -0.000  -0.000  14.567  -0.000  -0.000
 -0.000  -0.000  -0.000   7.819  -0.000  -0.000  14.567  -0.000
 -0.000  -0.000  -0.000  -0.000   7.819  -0.000  -0.000  14.567
 total augmentation occupancy for first ion, spin component:           1
  3.174  -0.925   0.000  -0.000  -0.000   0.000   0.000   0.000
 -0.925   0.476  -0.000   0.000  -0.000  -0.000   0.000   0.000
 -0.000   0.000   2.219   0.000   0.000  -0.395  -0.000  -0.000
 -0.000   0.000   0.000   2.219   0.000   0.000  -0.395   0.000
 -0.000   0.000   0.000   0.000   2.219   0.000   0.000  -0.395
 -0.000  -0.000  -0.395  -0.000   0.000   0.081   0.000   0.000
  0.000   0.000   0.000  -0.395   0.000  -0.000   0.081  -0.000
 -0.000   0.000  -0.000   0.000  -0.395  -0.000   0.000   0.081
 total augmentation occupancy for first ion, spin component:           2
 -0.000   0.000   0.000   0.000   0.000   0.000   0.000   0.000
  0.000   0.000   0.000   0.000   0.000   0.000   0.000   0.000
  0.000   0.000   0.000   0.000   0.000  -0.000   0.000   0.000
  0.000   0.000   0.000   0.000   0.000   0.000  -0.000   0.000
  0.000   0.000   0.000   0.000   0.000   0.000   0.000  -0.000
  0.000   0.000  -0.000   0.000   0.000   0.000   0.000   0.000
  0.000   0.000   0.000  -0.000   0.000   0.000   0.000   0.000
  0.000   0.000   0.000   0.000  -0.000   0.000   0.000   0.000


------------------------ aborting loop because EDIFF is reached ----------------------------------------





 total charge     

# of ion     s       p       d       tot
----------------------------------------
  1        0.733   0.909   0.000   1.642
  2        0.733   0.909   0.000   1.642
------------------------------------------------
tot        1.466   1.818   0.000   3.284



 magnetization (x)

# of ion     s       p       d       tot
----------------------------------------
  1       -0.000  -0.000   0.000  -0.000
  2       -0.000  -0.000   0.000  -0.000
------------------------------------------------
tot       -0.000  -0.000   0.000  -0.000

    CHARGE:  cpu time    0.1480: real time    0.1466
    FORLOC:  cpu time    0.0000: real time    0.0006
    FORNL :  cpu time    0.1480: real time    0.1483
    STRESS:  cpu time    1.2200: real time    1.2181
    FORCOR:  cpu time    1.6200: real time    1.6206
    FORHAR:  cpu time    0.0040: real time    0.0040
    MIXING:  cpu time    0.0000: real time    0.0010
    OFIELD:  cpu time    0.0000: real time    0.0000

  FORCE on cell =-STRESS in cart. coord.  units (eV):
  Direction    XX          YY          ZZ          XY          YZ          ZX
  --------------------------------------------------------------------------------------
  Alpha Z     3.24858     3.24858     3.24858
  Ewald     -75.30526   -75.30526   -75.30526     0.00000    -0.00000    -0.00000
  Hartree     5.17722     5.17722     5.17722     0.00000     0.00000     0.00000
  E(xc)     -25.30725   -25.30725   -25.30725    -0.00000    -0.00000    -0.00000
  Local     -29.74895   -29.74895   -29.74895     0.00001     0.00001     0.00001
  n-local    78.56147    80.04142    74.27833     2.16584    -1.29706     0.51936
  augment   -11.97739   -11.97739   -11.97739    -0.00001    -0.00001    -0.00001
  Kinetic    58.46344    55.96010    54.43476     3.56609    -0.71016     1.04499
  Fock        0.00000     0.00000     0.00000     0.00000     0.00000     0.00000
  -------------------------------------------------------------------------------------
  Total       0.00013     0.00013     0.00013     0.00000    -0.00000     0.00000
  in kB       0.00501     0.00501     0.00501     0.00000    -0.00000     0.00000
  external pressure =        0.01 kB  Pullay stress =        0.00 kB


 VOLUME and BASIS-vectors are now :
 -----------------------------------------------------------------------------
  energy-cutoff  :      500.00
  volume of cell :       41.45
      direct lattice vectors                 reciprocal lattice vectors
     0.000000000  2.746821138  2.746821138    -0.182028598  0.182028598  0.182028598
     2.746821138  0.000000000  2.746821138     0.182028598 -0.182028598  0.182028598
     2.746821138  2.746821138  0.000000000     0.182028598  0.182028598 -0.182028598

  length of vectors
     3.884591706  3.884591706  3.884591706     0.315282780  0.315282780  0.315282780


 FORCES acting on ions
    electron-ion (+dipol)            ewald-force                    non-local-force                 convergence-correction
 -----------------------------------------------------------------------------------------------
   0.983E-08 0.983E-08 0.107E-07   -.313E-14 -.268E-14 -.153E-14   -.139E-15 -.416E-16 -.101E-15   -.528E-11 -.528E-11 -.529E-11
   -.983E-08 -.983E-08 -.107E-07   0.307E-14 0.301E-14 0.222E-14   0.902E-16 0.555E-16 0.763E-16   0.528E-11 0.528E-11 0.528E-11
 -----------------------------------------------------------------------------------------------
   0.332E-13 0.960E-13 -.134E-12   -.615E-16 0.330E-15 0.690E-15   -.486E-16 0.139E-16 -.243E-16   0.102E-14 -.155E-15 -.370E-14


 POSITION                                       TOTAL-FORCE (eV/Angst)
 -----------------------------------------------------------------------------------
      4.12023      4.12023      4.12023         0.000000      0.000000      0.000000
      2.74682      2.74682      2.74682        -0.000000     -0.000000     -0.000000
 -----------------------------------------------------------------------------------
    total drift:                                0.000000      0.000000     -0.000000


--------------------------------------------------------------------------------------------------------



  FREE ENERGIE OF THE ION-ELECTRON SYSTEM (eV)
  ---------------------------------------------------
  free  energy   TOTEN  =        -8.33840917 eV

  energy  without entropy=       -8.33837781  energy(sigma->0) =       -8.33839349



--------------------------------------------------------------------------------------------------------


    POTLOK:  cpu time    1.6560: real time    1.6526


--------------------------------------------------------------------------------------------------------




--------------------------------------------------------------------------------------------------------


  
 reached required accuracy - stopping structural energy minimisation
     LOOP+:  cpu time   82.5520: real time   88.0278
    4ORBIT:  cpu time    0.0000: real time    0.0000



 total charge     

# of ion     s       p       d       tot
----------------------------------------
  1        0.733   0.909   0.000   1.642
  2        0.733   0.909   0.000   1.642
------------------------------------------------
tot        1.466   1.818   0.000   3.284



 magnetization (x)

# of ion     s       p       d       tot
----------------------------------------
  1       -0.000  -0.000   0.000  -0.000
  2       -0.000  -0.000   0.000  -0.000
------------------------------------------------
tot       -0.000  -0.000   0.000  -0.000


 total amount of memory used by VASP on root node    41959. kBytes
========================================================================

   base      :      30000. kBytes
   nonl-proj :       5797. kBytes
   fftplans  :        517. kBytes
   grid      :       2709. kBytes
   one-center:         12. kBytes
   wavefun   :       2924. kBytes

  
  
 General timing and accounting informations for this job:
 ========================================================
  
                  Total CPU time used (sec):       85.096
                            User time (sec):       83.856
                          System time (sec):        1.240
                         Elapsed time (sec):       92.306
  
                   Maximum memory used (kb):      124656.
                   Average memory used (kb):           0.
  
                          Minor page faults:       986010
                          Major page faults:            5
                 Voluntary context switches:         2305
