PROCAR lm decomposed
# of k-points:   84         # of bands:  16         # of ions:   2

 k-point    1 :    0.00000000 0.00000000 0.00000000     weight = 0.00045517

band   1 # energy   -6.19184573 # occ.  1.00000000

ion      s     py     pz     px    dxy    dyz    dz2    dxz    dx2    tot
  1  0.207  0.000  0.000  0.000  0.000  0.000  0.000  0.000  0.000  0.207
  2  0.207  0.000  0.000  0.000  0.000  0.000  0.000  0.000  0.000  0.207
tot  0.413  0.000  0.000  0.000  0.000  0.000  0.000  0.000  0.000  0.413

band   2 # energy    5.45892117 # occ.  0.99304362

ion      s     py     pz     px    dxy    dyz    dz2    dxz    dx2    tot
  1  0.000  0.070  0.070  0.070  0.000  0.000  0.000  0.000  0.000  0.209
  2  0.000  0.070  0.070  0.070  0.000  0.000  0.000  0.000  0.000  0.209
tot  0.000  0.139  0.139  0.139  0.000  0.000  0.000  0.000  0.000  0.418

band   3 # energy    5.45892122 # occ.  0.99304362

ion      s     py     pz     px    dxy    dyz    dz2    dxz    dx2    tot
  1  0.000  0.106  0.000  0.104  0.000  0.000  0.000  0.000  0.000  0.209
  2  0.000  0.106  0.000  0.104  0.000  0.000  0.000  0.000  0.000  0.209
tot  0.000  0.211  0.000  0.207  0.000  0.000  0.000  0.000  0.000  0.418

band   4 # energy    5.45892122 # occ.  0.99304362

ion      s     py     pz     px    dxy    dyz    dz2    dxz    dx2    tot
  1  0.000  0.034  0.139  0.036  0.000  0.000  0.000  0.000  0.000  0.209
  2  0.000  0.034  0.139  0.036  0.000  0.000  0.000  0.000  0.000  0.209
tot  0.000  0.068  0.279  0.072  0.000  0.000  0.000  0.000  0.000  0.418

band   5 # energy    8.07417144 # occ.  0.00000000

ion      s     py     pz     px    dxy    dyz    dz2    dxz    dx2    tot
  1  0.000  0.049  0.049  0.049  0.000  0.000  0.000  0.000  0.000  0.148
  2  0.000  0.049  0.049  0.049  0.000  0.000  0.000  0.000  0.000  0.148
tot  0.000  0.099  0.099  0.099  0.000  0.000  0.000  0.000  0.000  0.296

band   6 # energy    8.07417148 # occ.  0.00000000

ion      s     py     pz     px    dxy    dyz    dz2    dxz    dx2    tot
  1  0.000  0.075  0.000  0.074  0.000  0.000  0.000  0.000  0.000  0.148
  2  0.000  0.075  0.000  0.074  0.000  0.000  0.000  0.000  0.000  0.148
tot  0.000  0.149  0.000  0.147  0.000  0.000  0.000  0.000  0.000  0.296

band   7 # energy    8.07417148 # occ.  0.00000000

ion      s     py     pz     px    dxy    dyz    dz2    dxz    dx2    tot
  1  0.000  0.024  0.099  0.025  0.000  0.000  0.000  0.000  0.000  0.148
  2  0.000  0.024  0.099  0.025  0.000  0.000  0.000  0.000  0.000  0.148
tot  0.000  0.048  0.197  0.051  0.000  0.000  0.000  0.000  0.000  0.296

band   8 # energy    8.52976809 # occ.  0.00000000

ion      s     py     pz     px    dxy    dyz    dz2    dxz    dx2    tot
  1  0.351  0.000  0.000  0.000  0.000  0.000  0.000  0.000  0.000  0.351
  2  0.351  0.000  0.000  0.000  0.000  0.000  0.000  0.000  0.000  0.351
tot  0.702  0.000  0.000  0.000  0.000  0.000  0.000  0.000  0.000  0.702

band   9 # energy   13.21403031 # occ.  0.00000000

ion      s     py     pz     px    dxy    dyz    dz2    dxz    dx2    tot
  1  0.000  0.000  0.000  0.000  0.000  0.000  0.000  0.000  0.000  0.000
  2  0.000  0.000  0.000  0.000  0.000  0.000  0.000  0.000  0.000  0.000
tot  0.000  0.000  0.000  0.000  0.000  0.000  0.000  0.000  0.000  0.000

band  10 # energy   13.21403031 # occ.  0.00000000

ion      s     py     pz     px    dxy    dyz    dz2    dxz    dx2    tot
  1  0.000  0.000  0.000  0.000  0.000  0.000  0.000  0.000  0.000  0.000
  2  0.000  0.000  0.000  0.000  0.000  0.000  0.000  0.000  0.000  0.000
tot  0.000  0.000  0.000  0.000  0.000  0.000  0.000  0.000  0.000  0.000

band  11 # energy   13.34851073 # occ.  0.00000000

ion      s     py     pz     px    dxy    dyz    dz2    dxz    dx2    tot
  1  0.098  0.000  0.000  0.000  0.000  0.000  0.000  0.000  0.000  0.098
  2  0.098  0.000  0.000  0.000  0.000  0.000  0.000  0.000  0.000  0.098
tot  0.195  0.000  0.000  0.000  0.000  0.000  0.000  0.000  0.000  0.195

band  12 # energy   16.65552485 # occ.  0.00000000

ion      s     py     pz     px    dxy    dyz    dz2    dxz    dx2    tot
  1  0.000  0.013  0.013  0.013  0.000  0.000  0.000  0.000  0.000  0.038
  2  0.000  0.013  0.013  0.013  0.000  0.000  0.000  0.000  0.000  0.038
tot  0.000  0.025  0.025  0.025  0.000  0.000  0.000  0.000  0.000  0.076

band  13 # energy   16.65552486 # occ.  0.00000000

ion      s     py     pz     px    dxy    dyz    dz2    dxz    dx2    tot
  1  0.000  0.017  0.000  0.021  0.000  0.000  0.000  0.000  0.000  0.038
  2  0.000  0.017  0.000  0.021  0.000  0.000  0.000  0.000  0.000  0.038
tot  0.000  0.034  0.000  0.042  0.000  0.000  0.000  0.000  0.000  0.076

band  14 # energy   16.65552486 # occ.  0.00000000

ion      s     py     pz     px    dxy    dyz    dz2    dxz    dx2    tot
  1  0.000  0.008  0.025  0.005  0.000  0.000  0.000  0.000  0.000  0.038
  2  0.000  0.008  0.025  0.005  0.000  0.000  0.000  0.000  0.000  0.038
tot  0.000  0.017  0.051  0.009  0.000  0.000  0.000  0.000  0.000  0.076

band  15 # energy   20.75060954 # occ.  0.00000000

ion      s     py     pz     px    dxy    dyz    dz2    dxz    dx2    tot
  1  0.036  0.000  0.000  0.000  0.000  0.000  0.000  0.000  0.000  0.036
  2  0.036  0.000  0.000  0.000  0.000  0.000  0.000  0.000  0.000  0.036
tot  0.071  0.000  0.000  0.000  0.000  0.000  0.000  0.000  0.000  0.071

band  16 # energy   28.16623486 # occ.  0.00000000

ion      s     py     pz     px    dxy    dyz    dz2    dxz    dx2    tot
  1  0.000  0.004  0.001  0.005  0.000  0.000  0.000  0.000  0.000  0.010
  2  0.000  0.004  0.001  0.005  0.000  0.000  0.000  0.000  0.000  0.010
tot  0.000  0.009  0.002  0.009  0.000  0.000  0.000  0.000  0.000  0.021


 k-point    2 :    0.07692308 0.00000000 0.00000000     weight = 0.00364133

band   1 # energy   -6.11671193 # occ.  1.00000000

ion      s     py     pz     px    dxy    dyz    dz2    dxz    dx2    tot
  1  0.206  0.000  0.000  0.000  0.000  0.000  0.000  0.000  0.000  0.207
  2  0.206  0.000  0.000  0.000  0.000  0.000  0.000  0.000  0.000  0.207
tot  0.413  0.001  0.001  0.001  0.000  0.000  0.000  0.000  0.000  0.414

band   2 # energy    4.72336027 # occ.  1.00000000

ion      s     py     pz     px    dxy    dyz    dz2    dxz    dx2    tot
  1  0.040  0.058  0.058  0.058  0.000  0.000  0.000  0.000  0.000  0.214
  2  0.040  0.058  0.058  0.058  0.000  0.000  0.000  0.000  0.000  0.214
tot  0.080  0.116  0.116  0.116  0.000  0.000  0.000  0.000  0.000  0.428

band   3 # energy    5.34296508 # occ.  0.99947994

ion      s     py     pz     px    dxy    dyz    dz2    dxz    dx2    tot
  1  0.000  0.035  0.035  0.139  0.000  0.000  0.000  0.000  0.000  0.208
  2  0.000  0.035  0.035  0.139  0.000  0.000  0.000  0.000  0.000  0.208
tot  0.000  0.069  0.069  0.277  0.000  0.000  0.000  0.000  0.000  0.416

band   4 # energy    5.34296512 # occ.  0.99947994

ion      s     py     pz     px    dxy    dyz    dz2    dxz    dx2    tot
  1  0.000  0.104  0.104  0.000  0.000  0.000  0.000  0.000  0.000  0.208
  2  0.000  0.104  0.104  0.000  0.000  0.000  0.000  0.000  0.000  0.208
tot  0.000  0.208  0.208  0.000  0.000  0.000  0.000  0.000  0.000  0.416

band   5 # energy    8.07116944 # occ.  0.00000000

ion      s     py     pz     px    dxy    dyz    dz2    dxz    dx2    tot
  1  0.073  0.037  0.037  0.037  0.000  0.000  0.000  0.000  0.000  0.183
  2  0.073  0.037  0.037  0.037  0.000  0.000  0.000  0.000  0.000  0.183
tot  0.147  0.073  0.073  0.073  0.000  0.000  0.000  0.000  0.000  0.367

band   6 # energy    8.24689655 # occ.  0.00000000

ion      s     py     pz     px    dxy    dyz    dz2    dxz    dx2    tot
  1  0.000  0.025  0.025  0.100  0.000  0.000  0.000  0.000  0.000  0.150
  2  0.000  0.025  0.025  0.100  0.000  0.000  0.000  0.000  0.000  0.150
tot  0.000  0.050  0.050  0.200  0.000  0.000  0.000  0.000  0.000  0.300

band   7 # energy    8.24689659 # occ.  0.00000000

ion      s     py     pz     px    dxy    dyz    dz2    dxz    dx2    tot
  1  0.000  0.075  0.075  0.000  0.000  0.000  0.000  0.000  0.000  0.150
  2  0.000  0.075  0.075  0.000  0.000  0.000  0.000  0.000  0.000  0.150
tot  0.000  0.150  0.150  0.000  0.000  0.000  0.000  0.000  0.000  0.300

band   8 # energy    9.14346853 # occ.  0.00000000

ion      s     py     pz     px    dxy    dyz    dz2    dxz    dx2    tot
  1  0.243  0.021  0.021  0.021  0.000  0.000  0.000  0.000  0.000  0.306
  2  0.243  0.021  0.021  0.021  0.000  0.000  0.000  0.000  0.000  0.306
tot  0.486  0.042  0.042  0.042  0.000  0.000  0.000  0.000  0.000  0.613

band   9 # energy   12.98593245 # occ.  0.00000000

ion      s     py     pz     px    dxy    dyz    dz2    dxz    dx2    tot
  1  0.000  0.000  0.000  0.000  0.000  0.000  0.000  0.000  0.000  0.001
  2  0.000  0.000  0.000  0.000  0.000  0.000  0.000  0.000  0.000  0.001
tot  0.000  0.001  0.001  0.000  0.000  0.000  0.000  0.000  0.000  0.002

band  10 # energy   12.98593245 # occ.  0.00000000

ion      s     py     pz     px    dxy    dyz    dz2    dxz    dx2    tot
  1  0.000  0.000  0.000  0.001  0.000  0.000  0.000  0.000  0.000  0.001
  2  0.000  0.000  0.000  0.001  0.000  0.000  0.000  0.000  0.000  0.001
tot  0.000  0.000  0.000  0.001  0.000  0.000  0.000  0.000  0.000  0.002

band  11 # energy   13.67018153 # occ.  0.00000000

ion      s     py     pz     px    dxy    dyz    dz2    dxz    dx2    tot
  1  0.089  0.004  0.004  0.004  0.000  0.000  0.000  0.000  0.000  0.102
  2  0.089  0.004  0.004  0.004  0.000  0.000  0.000  0.000  0.000  0.102
tot  0.178  0.009  0.009  0.009  0.000  0.000  0.000  0.000  0.000  0.204

band  12 # energy   16.38406586 # occ.  0.00000000

ion      s     py     pz     px    dxy    dyz    dz2    dxz    dx2    tot
  1  0.006  0.010  0.010  0.010  0.000  0.000  0.000  0.000  0.000  0.036
  2  0.006  0.010  0.010  0.010  0.000  0.000  0.000  0.000  0.000  0.036
tot  0.012  0.020  0.020  0.020  0.000  0.000  0.000  0.000  0.000  0.072

band  13 # energy   17.13027537 # occ.  0.00000000

ion      s     py     pz     px    dxy    dyz    dz2    dxz    dx2    tot
  1  0.000  0.006  0.006  0.024  0.000  0.000  0.000  0.000  0.000  0.036
  2  0.000  0.006  0.006  0.024  0.000  0.000  0.000  0.000  0.000  0.036
tot  0.000  0.012  0.012  0.048  0.000  0.000  0.000  0.000  0.000  0.072

band  14 # energy   17.13027538 # occ.  0.00000000

ion      s     py     pz     px    dxy    dyz    dz2    dxz    dx2    tot
  1  0.000  0.018  0.018  0.000  0.000  0.000  0.000  0.000  0.000  0.036
  2  0.000  0.018  0.018  0.000  0.000  0.000  0.000  0.000  0.000  0.036
tot  0.000  0.036  0.036  0.000  0.000  0.000  0.000  0.000  0.000  0.072

band  15 # energy   21.25434185 # occ.  0.00000000

ion      s     py     pz     px    dxy    dyz    dz2    dxz    dx2    tot
  1  0.030  0.002  0.002  0.002  0.000  0.000  0.000  0.000  0.000  0.037
  2  0.030  0.002  0.002  0.002  0.000  0.000  0.000  0.000  0.000  0.037
tot  0.060  0.005  0.005  0.005  0.000  0.000  0.000  0.000  0.000  0.074

band  16 # energy   27.30200452 # occ.  0.00000000

ion      s     py     pz     px    dxy    dyz    dz2    dxz    dx2    tot
  1  0.002  0.019  0.032  0.019  0.000  0.000  0.000  0.000  0.000  0.071
  2  0.002  0.017  0.028  0.025  0.000  0.000  0.000  0.000  0.000  0.071
tot  0.004  0.035  0.060  0.044  0.000  0.000  0.000  0.000  0.000  0.143


 k-point    3 :    0.15384615 0.00000000 0.00000000     weight = 0.00364133

band   1 # energy   -5.89336910 # occ.  1.00000000

ion      s     py     pz     px    dxy    dyz    dz2    dxz    dx2    tot
  1  0.205  0.001  0.001  0.001  0.000  0.000  0.000  0.000  0.000  0.208
  2  0.205  0.001  0.001  0.001  0.000  0.000  0.000  0.000  0.000  0.208
tot  0.411  0.002  0.002  0.002  0.000  0.000  0.000  0.000  0.000  0.417

band   2 # energy    3.37701148 # occ.  1.00000000

ion      s     py     pz     px    dxy    dyz    dz2    dxz    dx2    tot
  1  0.074  0.047  0.047  0.047  0.000  0.000  0.000  0.000  0.000  0.215
  2  0.074  0.047  0.047  0.047  0.000  0.000  0.000  0.000  0.000  0.215
tot  0.148  0.094  0.094  0.094  0.000  0.000  0.000  0.000  0.000  0.429

band   3 # energy    5.08203771 # occ.  0.99999985

ion      s     py     pz     px    dxy    dyz    dz2    dxz    dx2    tot
  1  0.000  0.034  0.034  0.138  0.000  0.000  0.000  0.000  0.000  0.206
  2  0.000  0.034  0.034  0.138  0.000  0.000  0.000  0.000  0.000  0.206
tot  0.000  0.069  0.069  0.275  0.000  0.000  0.000  0.000  0.000  0.413

band   4 # energy    5.08203775 # occ.  0.99999985

ion      s     py     pz     px    dxy    dyz    dz2    dxz    dx2    tot
  1  0.000  0.103  0.103  0.000  0.000  0.000  0.000  0.000  0.000  0.206
  2  0.000  0.103  0.103  0.000  0.000  0.000  0.000  0.000  0.000  0.206
tot  0.000  0.206  0.206  0.000  0.000  0.000  0.000  0.000  0.000  0.413

band   5 # energy    7.82042416 # occ.  0.00000000

ion      s     py     pz     px    dxy    dyz    dz2    dxz    dx2    tot
  1  0.124  0.025  0.025  0.025  0.000  0.000  0.000  0.000  0.000  0.199
  2  0.124  0.025  0.025  0.025  0.000  0.000  0.000  0.000  0.000  0.199
tot  0.247  0.050  0.050  0.050  0.000  0.000  0.000  0.000  0.000  0.397

band   6 # energy    8.62886909 # occ.  0.00000000

ion      s     py     pz     px    dxy    dyz    dz2    dxz    dx2    tot
  1  0.000  0.025  0.025  0.101  0.000  0.000  0.000  0.000  0.000  0.151
  2  0.000  0.025  0.025  0.101  0.000  0.000  0.000  0.000  0.000  0.151
tot  0.000  0.050  0.050  0.201  0.000  0.000  0.000  0.000  0.000  0.302

band   7 # energy    8.62886912 # occ.  0.00000000

ion      s     py     pz     px    dxy    dyz    dz2    dxz    dx2    tot
  1  0.000  0.076  0.076  0.000  0.000  0.000  0.000  0.000  0.000  0.151
  2  0.000  0.076  0.076  0.000  0.000  0.000  0.000  0.000  0.000  0.151
tot  0.000  0.151  0.151  0.000  0.000  0.000  0.000  0.000  0.000  0.302

band   8 # energy   10.44258098 # occ.  0.00000000

ion      s     py     pz     px    dxy    dyz    dz2    dxz    dx2    tot
  1  0.167  0.037  0.037  0.037  0.000  0.000  0.000  0.000  0.000  0.279
  2  0.167  0.037  0.037  0.037  0.000  0.000  0.000  0.000  0.000  0.279
tot  0.334  0.075  0.075  0.075  0.000  0.000  0.000  0.000  0.000  0.559

band   9 # energy   12.63322488 # occ.  0.00000000

ion      s     py     pz     px    dxy    dyz    dz2    dxz    dx2    tot
  1  0.000  0.001  0.001  0.000  0.000  0.000  0.000  0.000  0.000  0.003
  2  0.000  0.001  0.001  0.000  0.000  0.000  0.000  0.000  0.000  0.003
tot  0.000  0.003  0.003  0.000  0.000  0.000  0.000  0.000  0.000  0.005

band  10 # energy   12.63322488 # occ.  0.00000000

ion      s     py     pz     px    dxy    dyz    dz2    dxz    dx2    tot
  1  0.000  0.000  0.000  0.002  0.000  0.000  0.000  0.000  0.000  0.003
  2  0.000  0.000  0.000  0.002  0.000  0.000  0.000  0.000  0.000  0.003
tot  0.000  0.001  0.001  0.004  0.000  0.000  0.000  0.000  0.000  0.005

band  11 # energy   14.37749972 # occ.  0.00000000

ion      s     py     pz     px    dxy    dyz    dz2    dxz    dx2    tot
  1  0.064  0.014  0.014  0.014  0.000  0.000  0.000  0.000  0.000  0.105
  2  0.064  0.014  0.014  0.014  0.000  0.000  0.000  0.000  0.000  0.105
tot  0.129  0.027  0.027  0.027  0.000  0.000  0.000  0.000  0.000  0.210

band  12 # energy   16.04052771 # occ.  0.00000000

ion      s     py     pz     px    dxy    dyz    dz2    dxz    dx2    tot
  1  0.022  0.007  0.007  0.007  0.000  0.000  0.000  0.000  0.000  0.042
  2  0.022  0.007  0.007  0.007  0.000  0.000  0.000  0.000  0.000  0.042
tot  0.044  0.013  0.013  0.013  0.000  0.000  0.000  0.000  0.000  0.083

band  13 # energy   18.25685522 # occ.  0.00000000

ion      s     py     pz     px    dxy    dyz    dz2    dxz    dx2    tot
  1  0.000  0.006  0.006  0.022  0.000  0.000  0.000  0.000  0.000  0.033
  2  0.000  0.006  0.006  0.022  0.000  0.000  0.000  0.000  0.000  0.033
tot  0.000  0.011  0.011  0.045  0.000  0.000  0.000  0.000  0.000  0.067

band  14 # energy   18.25685522 # occ.  0.00000000

ion      s     py     pz     px    dxy    dyz    dz2    dxz    dx2    tot
  1  0.000  0.017  0.017  0.000  0.000  0.000  0.000  0.000  0.000  0.033
  2  0.000  0.017  0.017  0.000  0.000  0.000  0.000  0.000  0.000  0.033
tot  0.000  0.033  0.033  0.000  0.000  0.000  0.000  0.000  0.000  0.067

band  15 # energy   22.42206779 # occ.  0.00000000

ion      s     py     pz     px    dxy    dyz    dz2    dxz    dx2    tot
  1  0.020  0.007  0.007  0.007  0.000  0.000  0.000  0.000  0.000  0.041
  2  0.020  0.007  0.007  0.007  0.000  0.000  0.000  0.000  0.000  0.041
tot  0.039  0.014  0.014  0.014  0.000  0.000  0.000  0.000  0.000  0.082

band  16 # energy   25.41607540 # occ.  0.00000000

ion      s     py     pz     px    dxy    dyz    dz2    dxz    dx2    tot
  1  0.000  0.001  0.027  0.019  0.000  0.000  0.000  0.000  0.000  0.047
  2  0.000  0.001  0.027  0.019  0.000  0.000  0.000  0.000  0.000  0.047
tot  0.000  0.001  0.054  0.038  0.000  0.000  0.000  0.000  0.000  0.094


 k-point    4 :    0.23076923 0.00000000 0.00000000     weight = 0.00364133

band   1 # energy   -5.52940075 # occ.  1.00000000

ion      s     py     pz     px    dxy    dyz    dz2    dxz    dx2    tot
  1  0.204  0.002  0.002  0.002  0.000  0.000  0.000  0.000  0.000  0.211
  2  0.204  0.002  0.002  0.002  0.000  0.000  0.000  0.000  0.000  0.211
tot  0.409  0.004  0.004  0.004  0.000  0.000  0.000  0.000  0.000  0.422

band   2 # energy    1.98097672 # occ.  1.00000000

ion      s     py     pz     px    dxy    dyz    dz2    dxz    dx2    tot
  1  0.093  0.040  0.040  0.040  0.000  0.000  0.000  0.000  0.000  0.211
  2  0.093  0.040  0.040  0.040  0.000  0.000  0.000  0.000  0.000  0.211
tot  0.185  0.079  0.079  0.079  0.000  0.000  0.000  0.000  0.000  0.422

band   3 # energy    4.80155921 # occ.  1.00000000

ion      s     py     pz     px    dxy    dyz    dz2    dxz    dx2    tot
  1  0.000  0.034  0.034  0.138  0.000  0.000  0.000  0.000  0.000  0.207
  2  0.000  0.034  0.034  0.138  0.000  0.000  0.000  0.000  0.000  0.207
tot  0.000  0.069  0.069  0.275  0.000  0.000  0.000  0.000  0.000  0.413

band   4 # energy    4.80155925 # occ.  1.00000000

ion      s     py     pz     px    dxy    dyz    dz2    dxz    dx2    tot
  1  0.000  0.103  0.103  0.000  0.000  0.000  0.000  0.000  0.000  0.207
  2  0.000  0.103  0.103  0.000  0.000  0.000  0.000  0.000  0.000  0.207
tot  0.000  0.207  0.207  0.000  0.000  0.000  0.000  0.000  0.000  0.413

band   5 # energy    7.51501050 # occ.  0.00000000

ion      s     py     pz     px    dxy    dyz    dz2    dxz    dx2    tot
  1  0.148  0.018  0.018  0.018  0.000  0.000  0.000  0.000  0.000  0.200
  2  0.148  0.018  0.018  0.018  0.000  0.000  0.000  0.000  0.000  0.200
tot  0.295  0.035  0.035  0.035  0.000  0.000  0.000  0.000  0.000  0.401

band   6 # energy    8.94965933 # occ.  0.00000000

ion      s     py     pz     px    dxy    dyz    dz2    dxz    dx2    tot
  1  0.000  0.024  0.024  0.094  0.000  0.000  0.000  0.000  0.000  0.141
  2  0.000  0.024  0.024  0.094  0.000  0.000  0.000  0.000  0.000  0.141
tot  0.000  0.047  0.047  0.189  0.000  0.000  0.000  0.000  0.000  0.283

band   7 # energy    8.94965936 # occ.  0.00000000

ion      s     py     pz     px    dxy    dyz    dz2    dxz    dx2    tot
  1  0.000  0.071  0.071  0.000  0.000  0.000  0.000  0.000  0.000  0.141
  2  0.000  0.071  0.071  0.000  0.000  0.000  0.000  0.000  0.000  0.141
tot  0.000  0.141  0.141  0.000  0.000  0.000  0.000  0.000  0.000  0.283

band   8 # energy   11.80884923 # occ.  0.00000000

ion      s     py     pz     px    dxy    dyz    dz2    dxz    dx2    tot
  1  0.122  0.047  0.047  0.047  0.000  0.000  0.000  0.000  0.000  0.263
  2  0.122  0.047  0.047  0.047  0.000  0.000  0.000  0.000  0.000  0.263
tot  0.244  0.094  0.094  0.094  0.000  0.000  0.000  0.000  0.000  0.527

band   9 # energy   12.61004091 # occ.  0.00000000

ion      s     py     pz     px    dxy    dyz    dz2    dxz    dx2    tot
  1  0.000  0.006  0.006  0.000  0.000  0.000  0.000  0.000  0.000  0.011
  2  0.000  0.006  0.006  0.000  0.000  0.000  0.000  0.000  0.000  0.011
tot  0.000  0.011  0.011  0.000  0.000  0.000  0.000  0.000  0.000  0.023

band  10 # energy   12.61004091 # occ.  0.00000000

ion      s     py     pz     px    dxy    dyz    dz2    dxz    dx2    tot
  1  0.000  0.002  0.002  0.008  0.000  0.000  0.000  0.000  0.000  0.011
  2  0.000  0.002  0.002  0.008  0.000  0.000  0.000  0.000  0.000  0.011
tot  0.000  0.004  0.004  0.015  0.000  0.000  0.000  0.000  0.000  0.023

band  11 # energy   14.48489396 # occ.  0.00000000

ion      s     py     pz     px    dxy    dyz    dz2    dxz    dx2    tot
  1  0.043  0.009  0.009  0.009  0.000  0.000  0.000  0.000  0.000  0.071
  2  0.043  0.009  0.009  0.009  0.000  0.000  0.000  0.000  0.000  0.071
tot  0.085  0.019  0.019  0.019  0.000  0.000  0.000  0.000  0.000  0.141

band  12 # energy   16.78546380 # occ.  0.00000000

ion      s     py     pz     px    dxy    dyz    dz2    dxz    dx2    tot
  1  0.037  0.019  0.019  0.019  0.000  0.000  0.000  0.000  0.000  0.094
  2  0.037  0.019  0.019  0.019  0.000  0.000  0.000  0.000  0.000  0.094
tot  0.073  0.038  0.038  0.038  0.000  0.000  0.000  0.000  0.000  0.188

band  13 # energy   19.62692388 # occ.  0.00000000

ion      s     py     pz     px    dxy    dyz    dz2    dxz    dx2    tot
  1  0.000  0.006  0.006  0.022  0.000  0.000  0.000  0.000  0.000  0.033
  2  0.000  0.006  0.006  0.022  0.000  0.000  0.000  0.000  0.000  0.033
tot  0.000  0.011  0.011  0.044  0.000  0.000  0.000  0.000  0.000  0.067

band  14 # energy   19.62692389 # occ.  0.00000000

ion      s     py     pz     px    dxy    dyz    dz2    dxz    dx2    tot
  1  0.000  0.017  0.017  0.000  0.000  0.000  0.000  0.000  0.000  0.033
  2  0.000  0.017  0.017  0.000  0.000  0.000  0.000  0.000  0.000  0.033
tot  0.000  0.033  0.033  0.000  0.000  0.000  0.000  0.000  0.000  0.067

band  15 # energy   23.23995893 # occ.  0.00000000

ion      s     py     pz     px    dxy    dyz    dz2    dxz    dx2    tot
  1  0.016  0.027  0.027  0.027  0.000  0.000  0.000  0.000  0.000  0.098
  2  0.016  0.027  0.027  0.027  0.000  0.000  0.000  0.000  0.000  0.098
tot  0.033  0.054  0.054  0.054  0.000  0.000  0.000  0.000  0.000  0.195

band  16 # energy   23.46354171 # occ.  0.00000000

ion      s     py     pz     px    dxy    dyz    dz2    dxz    dx2    tot
  1  0.000  0.031  0.011  0.008  0.000  0.000  0.000  0.000  0.000  0.051
  2  0.000  0.031  0.011  0.008  0.000  0.000  0.000  0.000  0.000  0.051
tot  0.000  0.062  0.022  0.017  0.000  0.000  0.000  0.000  0.000  0.101


 k-point    5 :    0.30769231 0.00000000 0.00000000     weight = 0.00364133

band   1 # energy   -5.04380192 # occ.  1.00000000

ion      s     py     pz     px    dxy    dyz    dz2    dxz    dx2    tot
  1  0.204  0.004  0.004  0.004  0.000  0.000  0.000  0.000  0.000  0.215
  2  0.204  0.004  0.004  0.004  0.000  0.000  0.000  0.000  0.000  0.215
tot  0.408  0.007  0.007  0.007  0.000  0.000  0.000  0.000  0.000  0.430

band   2 # energy    0.67953964 # occ.  1.00000000

ion      s     py     pz     px    dxy    dyz    dz2    dxz    dx2    tot
  1  0.103  0.034  0.034  0.034  0.000  0.000  0.000  0.000  0.000  0.206
  2  0.103  0.034  0.034  0.034  0.000  0.000  0.000  0.000  0.000  0.206
tot  0.206  0.069  0.069  0.069  0.000  0.000  0.000  0.000  0.000  0.412

band   3 # energy    4.56702333 # occ.  1.00000000

ion      s     py     pz     px    dxy    dyz    dz2    dxz    dx2    tot
  1  0.000  0.035  0.035  0.139  0.000  0.000  0.000  0.000  0.000  0.208
  2  0.000  0.035  0.035  0.139  0.000  0.000  0.000  0.000  0.000  0.208
tot  0.000  0.069  0.069  0.277  0.000  0.000  0.000  0.000  0.000  0.416

band   4 # energy    4.56702336 # occ.  1.00000000

ion      s     py     pz     px    dxy    dyz    dz2    dxz    dx2    tot
  1  0.000  0.104  0.104  0.000  0.000  0.000  0.000  0.000  0.000  0.208
  2  0.000  0.104  0.104  0.000  0.000  0.000  0.000  0.000  0.000  0.208
tot  0.000  0.208  0.208  0.000  0.000  0.000  0.000  0.000  0.000  0.416

band   5 # energy    7.24888207 # occ.  0.00000000

ion      s     py     pz     px    dxy    dyz    dz2    dxz    dx2    tot
  1  0.163  0.012  0.012  0.012  0.000  0.000  0.000  0.000  0.000  0.201
  2  0.163  0.012  0.012  0.012  0.000  0.000  0.000  0.000  0.000  0.201
tot  0.327  0.025  0.025  0.025  0.000  0.000  0.000  0.000  0.000  0.401

band   6 # energy    9.03338441 # occ.  0.00000000

ion      s     py     pz     px    dxy    dyz    dz2    dxz    dx2    tot
  1  0.000  0.020  0.020  0.081  0.000  0.000  0.000  0.000  0.000  0.121
  2  0.000  0.020  0.020  0.081  0.000  0.000  0.000  0.000  0.000  0.121
tot  0.000  0.040  0.040  0.161  0.000  0.000  0.000  0.000  0.000  0.242

band   7 # energy    9.03338444 # occ.  0.00000000

ion      s     py     pz     px    dxy    dyz    dz2    dxz    dx2    tot
  1  0.000  0.060  0.060  0.000  0.000  0.000  0.000  0.000  0.000  0.121
  2  0.000  0.060  0.060  0.000  0.000  0.000  0.000  0.000  0.000  0.121
tot  0.000  0.121  0.121  0.000  0.000  0.000  0.000  0.000  0.000  0.242

band   8 # energy   13.00031565 # occ.  0.00000000

ion      s     py     pz     px    dxy    dyz    dz2    dxz    dx2    tot
  1  0.056  0.052  0.052  0.052  0.000  0.000  0.000  0.000  0.000  0.213
  2  0.056  0.052  0.052  0.052  0.000  0.000  0.000  0.000  0.000  0.213
tot  0.112  0.105  0.105  0.105  0.000  0.000  0.000  0.000  0.000  0.427

band   9 # energy   13.14218653 # occ.  0.00000000

ion      s     py     pz     px    dxy    dyz    dz2    dxz    dx2    tot
  1  0.000  0.005  0.005  0.019  0.000  0.000  0.000  0.000  0.000  0.028
  2  0.000  0.005  0.005  0.019  0.000  0.000  0.000  0.000  0.000  0.028
tot  0.000  0.009  0.009  0.038  0.000  0.000  0.000  0.000  0.000  0.057

band  10 # energy   13.14218653 # occ.  0.00000000

ion      s     py     pz     px    dxy    dyz    dz2    dxz    dx2    tot
  1  0.000  0.014  0.014  0.000  0.000  0.000  0.000  0.000  0.000  0.028
  2  0.000  0.014  0.014  0.000  0.000  0.000  0.000  0.000  0.000  0.028
tot  0.000  0.028  0.028  0.000  0.000  0.000  0.000  0.000  0.000  0.057

band  11 # energy   14.29707813 # occ.  0.00000000

ion      s     py     pz     px    dxy    dyz    dz2    dxz    dx2    tot
  1  0.074  0.006  0.006  0.006  0.000  0.000  0.000  0.000  0.000  0.092
  2  0.074  0.006  0.006  0.006  0.000  0.000  0.000  0.000  0.000  0.092
tot  0.147  0.012  0.012  0.012  0.000  0.000  0.000  0.000  0.000  0.184

band  12 # energy   18.33692312 # occ.  0.00000000

ion      s     py     pz     px    dxy    dyz    dz2    dxz    dx2    tot
  1  0.023  0.041  0.041  0.041  0.000  0.000  0.000  0.000  0.000  0.145
  2  0.023  0.041  0.041  0.041  0.000  0.000  0.000  0.000  0.000  0.145
tot  0.045  0.081  0.081  0.081  0.000  0.000  0.000  0.000  0.000  0.289

band  13 # energy   20.21346834 # occ.  0.00000000

ion      s     py     pz     px    dxy    dyz    dz2    dxz    dx2    tot
  1  0.000  0.008  0.008  0.033  0.000  0.000  0.000  0.000  0.000  0.050
  2  0.000  0.008  0.008  0.033  0.000  0.000  0.000  0.000  0.000  0.050
tot  0.000  0.017  0.017  0.067  0.000  0.000  0.000  0.000  0.000  0.100

band  14 # energy   20.21346836 # occ.  0.00000000

ion      s     py     pz     px    dxy    dyz    dz2    dxz    dx2    tot
  1  0.000  0.025  0.025  0.000  0.000  0.000  0.000  0.000  0.000  0.050
  2  0.000  0.025  0.025  0.000  0.000  0.000  0.000  0.000  0.000  0.050
tot  0.000  0.050  0.050  0.000  0.000  0.000  0.000  0.000  0.000  0.100

band  15 # energy   22.21881604 # occ.  0.00000000

ion      s     py     pz     px    dxy    dyz    dz2    dxz    dx2    tot
  1  0.046  0.028  0.028  0.028  0.000  0.000  0.000  0.000  0.000  0.131
  2  0.046  0.028  0.028  0.028  0.000  0.000  0.000  0.000  0.000  0.131
tot  0.091  0.057  0.057  0.057  0.000  0.000  0.000  0.000  0.000  0.261

band  16 # energy   22.59043132 # occ.  0.00000000

ion      s     py     pz     px    dxy    dyz    dz2    dxz    dx2    tot
  1  0.000  0.018  0.016  0.003  0.000  0.000  0.000  0.000  0.000  0.037
  2  0.000  0.018  0.016  0.003  0.000  0.000  0.000  0.000  0.000  0.037
tot  0.000  0.036  0.031  0.006  0.000  0.000  0.000  0.000  0.000  0.073


 k-point    6 :    0.38461538 0.00000000 0.00000000     weight = 0.00364133

band   1 # energy   -4.48859513 # occ.  1.00000000

ion      s     py     pz     px    dxy    dyz    dz2    dxz    dx2    tot
  1  0.207  0.005  0.005  0.005  0.000  0.000  0.000  0.000  0.000  0.221
  2  0.207  0.005  0.005  0.005  0.000  0.000  0.000  0.000  0.000  0.221
tot  0.415  0.009  0.009  0.009  0.000  0.000  0.000  0.000  0.000  0.442

band   2 # energy   -0.43376046 # occ.  1.00000000

ion      s     py     pz     px    dxy    dyz    dz2    dxz    dx2    tot
  1  0.106  0.031  0.031  0.031  0.000  0.000  0.000  0.000  0.000  0.199
  2  0.106  0.031  0.031  0.031  0.000  0.000  0.000  0.000  0.000  0.199
tot  0.212  0.062  0.062  0.062  0.000  0.000  0.000  0.000  0.000  0.397

band   3 # energy    4.40408461 # occ.  1.00000000

ion      s     py     pz     px    dxy    dyz    dz2    dxz    dx2    tot
  1  0.000  0.035  0.035  0.140  0.000  0.000  0.000  0.000  0.000  0.210
  2  0.000  0.035  0.035  0.140  0.000  0.000  0.000  0.000  0.000  0.210
tot  0.000  0.070  0.070  0.279  0.000  0.000  0.000  0.000  0.000  0.419

band   4 # energy    4.40408465 # occ.  1.00000000

ion      s     py     pz     px    dxy    dyz    dz2    dxz    dx2    tot
  1  0.000  0.105  0.105  0.000  0.000  0.000  0.000  0.000  0.000  0.210
  2  0.000  0.105  0.105  0.000  0.000  0.000  0.000  0.000  0.000  0.210
tot  0.000  0.210  0.209  0.000  0.000  0.000  0.000  0.000  0.000  0.419

band   5 # energy    7.05992999 # occ.  0.00000000

ion      s     py     pz     px    dxy    dyz    dz2    dxz    dx2    tot