<?xml version="1.0" encoding="ISO-8859-1"?>
<modeling>
 <generator>
  <i name="program" type="string">vasp </i>
  <i name="version" type="string">5.4.1  </i>
  <i name="subversion" type="string">24Jun15 (build Feb  9 2019 14:16:27) complex                          parallel </i>
  <i name="platform" type="string">IFC91_ompi </i>
  <i name="date" type="string">2020 09 26 </i>
  <i name="time" type="string">22:38:31 </i>
 </generator>
 <incar>
  <i type="string" name="PREC">accurate</i>
  <i type="int" name="ISPIN">     2</i>
  <i type="int" name="NELM">   500</i>
  <i type="int" name="IBRION">     2</i>
  <i name="EDIFF">      0.00000010</i>
  <i name="EDIFFG">     -0.00100000</i>
  <i type="int" name="NSW">   500</i>
  <i type="int" name="ISIF">     3</i>
  <i name="ENCUT">    500.00000000</i>
  <i type="int" name="NEDOS">  5000</i>
  <i type="int" name="ISMEAR">     0</i>
  <i type="logical" name="LWAVE"> F  </i>
  <i type="logical" name="LCHARG"> T  </i>
  <i type="logical" name="LVTOT"> T  </i>
  <i type="logical" name="LVHAR"> T  </i>
  <i type="logical" name="LORBIT"> F  </i>
  <v type="int" name="KPOINT_BSE">    -1     0     0     0</v>
  <i type="int" name="NELM">   500</i>
  <i type="string" name="GGA">BO</i>
  <i name="PARAM1">      0.18333333</i>
  <i name="PARAM2">      0.22000000</i>
  <i type="logical" name="LUSE_VDW"> T  </i>
  <i name="AGGAC">      0.00000000</i>
 </incar>
 <kpoints>
  <generation param="Gamma">
   <v type="int" name="divisions">      13       13       13 </v>
   <v name="usershift">      0.00000000       0.00000000       0.00000000 </v>
   <v name="genvec1">      0.07692308       0.00000000       0.00000000 </v>
   <v name="genvec2">      0.00000000       0.07692308       0.00000000 </v>
   <v name="genvec3">      0.00000000       0.00000000       0.07692308 </v>
   <v name="shift">      0.00000000       0.00000000       0.00000000 </v>
  </generation>
  <varray name="kpointlist" >
   <v>       0.00000000       0.00000000       0.00000000 </v>
   <v>       0.07692308       0.00000000       0.00000000 </v>
   <v>       0.15384615       0.00000000       0.00000000 </v>
   <v>       0.23076923       0.00000000       0.00000000 </v>
   <v>       0.30769231       0.00000000       0.00000000 </v>
   <v>       0.38461538       0.00000000       0.00000000 </v>
   <v>       0.46153846       0.00000000       0.00000000 </v>
   <v>       0.07692308       0.07692308       0.00000000 </v>
   <v>       0.15384615       0.07692308       0.00000000 </v>
   <v>       0.23076923       0.07692308       0.00000000 </v>
   <v>       0.30769231       0.07692308       0.00000000 </v>
   <v>       0.38461538       0.07692308       0.00000000 </v>
   <v>       0.46153846       0.07692308       0.00000000 </v>
   <v>      -0.46153846       0.07692308       0.00000000 </v>
   <v>      -0.38461538       0.07692308       0.00000000 </v>
   <v>      -0.30769231       0.07692308       0.00000000 </v>
   <v>      -0.23076923       0.07692308       0.00000000 </v>
   <v>      -0.15384615       0.07692308       0.00000000 </v>
   <v>      -0.07692308       0.07692308       0.00000000 </v>
   <v>       0.15384615       0.15384615       0.00000000 </v>
   <v>       0.23076923       0.15384615       0.00000000 </v>
   <v>       0.30769231       0.15384615       0.00000000 </v>
   <v>       0.38461538       0.15384615       0.00000000 </v>
   <v>       0.46153846       0.15384615       0.00000000 </v>
   <v>      -0.46153846       0.15384615       0.00000000 </v>
   <v>      -0.38461538       0.15384615       0.00000000 </v>
   <v>      -0.30769231       0.15384615       0.00000000 </v>
   <v>      -0.23076923       0.15384615       0.00000000 </v>
   <v>      -0.15384615       0.15384615       0.00000000 </v>
   <v>       0.23076923       0.23076923       0.00000000 </v>
   <v>       0.30769231       0.23076923       0.00000000 </v>
   <v>       0.38461538       0.23076923       0.00000000 </v>
   <v>       0.46153846       0.23076923       0.00000000 </v>
   <v>      -0.46153846       0.23076923       0.00000000 </v>
   <v>      -0.38461538       0.23076923       0.00000000 </v>
   <v>      -0.30769231       0.23076923       0.00000000 </v>
   <v>      -0.23076923       0.23076923       0.00000000 </v>
   <v>       0.30769231       0.30769231       0.00000000 </v>
   <v>       0.38461538       0.30769231       0.00000000 </v>
   <v>       0.46153846       0.30769231       0.00000000 </v>
   <v>      -0.46153846       0.30769231       0.00000000 </v>
   <v>      -0.38461538       0.30769231       0.00000000 </v>
   <v>      -0.30769231       0.30769231       0.00000000 </v>
   <v>       0.38461538       0.38461538       0.00000000 </v>
   <v>       0.46153846       0.38461538       0.00000000 </v>
   <v>      -0.46153846       0.38461538       0.00000000 </v>
   <v>      -0.38461538       0.38461538       0.00000000 </v>
   <v>       0.46153846       0.46153846       0.00000000 </v>
   <v>      -0.46153846       0.46153846       0.00000000 </v>
   <v>       0.23076923       0.15384615       0.07692308 </v>
   <v>       0.30769231       0.15384615       0.07692308 </v>
   <v>       0.38461538       0.15384615       0.07692308 </v>
   <v>       0.46153846       0.15384615       0.07692308 </v>
   <v>      -0.46153846       0.15384615       0.07692308 </v>
   <v>       0.30769231       0.23076923       0.07692308 </v>
   <v>       0.38461538       0.23076923       0.07692308 </v>
   <v>       0.46153846       0.23076923       0.07692308 </v>
   <v>      -0.46153846       0.23076923       0.07692308 </v>
   <v>      -0.38461538       0.23076923       0.07692308 </v>
   <v>      -0.30769231       0.23076923       0.07692308 </v>
   <v>      -0.23076923       0.23076923       0.07692308 </v>
   <v>      -0.15384615       0.23076923       0.07692308 </v>
   <v>       0.38461538       0.30769231       0.07692308 </v>
   <v>       0.46153846       0.30769231       0.07692308 </v>
   <v>      -0.46153846       0.30769231       0.07692308 </v>
   <v>      -0.38461538       0.30769231       0.07692308 </v>
   <v>      -0.30769231       0.30769231       0.07692308 </v>
   <v>      -0.23076923       0.30769231       0.07692308 </v>
   <v>       0.46153846       0.38461538       0.07692308 </v>
   <v>      -0.46153846       0.38461538       0.07692308 </v>
   <v>      -0.38461538       0.38461538       0.07692308 </v>
   <v>      -0.30769231       0.38461538       0.07692308 </v>
   <v>      -0.46153846       0.46153846       0.07692308 </v>
   <v>      -0.38461538       0.46153846       0.07692308 </v>
   <v>       0.46153846       0.30769231       0.15384615 </v>
   <v>      -0.46153846       0.30769231       0.15384615 </v>
   <v>      -0.38461538       0.30769231       0.15384615 </v>
   <v>      -0.46153846       0.38461538       0.15384615 </v>
   <v>      -0.38461538       0.38461538       0.15384615 </v>
   <v>      -0.30769231       0.38461538       0.15384615 </v>
   <v>      -0.23076923       0.38461538       0.15384615 </v>
   <v>      -0.38461538       0.46153846       0.15384615 </v>
   <v>      -0.30769231       0.46153846       0.15384615 </v>
   <v>      -0.30769231       0.46153846       0.23076923 </v>
  </varray>
  <varray name="weights" >
   <v>       0.00045517 </v>
   <v>       0.00364133 </v>
   <v>       0.00364133 </v>
   <v>       0.00364133 </v>
   <v>       0.00364133 </v>
   <v>       0.00364133 </v>
   <v>       0.00364133 </v>
   <v>       0.00273100 </v>
   <v>       0.01092399 </v>
   <v>       0.01092399 </v>
   <v>       0.01092399 </v>
   <v>       0.01092399 </v>
   <v>       0.01092399 </v>
   <v>       0.01092399 </v>
   <v>       0.01092399 </v>
   <v>       0.01092399 </v>
   <v>       0.01092399 </v>
   <v>       0.01092399 </v>
   <v>       0.00546199 </v>
   <v>       0.00273100 </v>
   <v>       0.01092399 </v>
   <v>       0.01092399 </v>
   <v>       0.01092399 </v>
   <v>       0.01092399 </v>
   <v>       0.01092399 </v>
   <v>       0.01092399 </v>
   <v>       0.01092399 </v>
   <v>       0.01092399 </v>
   <v>       0.00546199 </v>
   <v>       0.00273100 </v>
   <v>       0.01092399 </v>
   <v>       0.01092399 </v>
   <v>       0.01092399 </v>
   <v>       0.01092399 </v>
   <v>       0.01092399 </v>
   <v>       0.01092399 </v>
   <v>       0.00546199 </v>
   <v>       0.00273100 </v>
   <v>       0.01092399 </v>
   <v>       0.01092399 </v>
   <v>       0.01092399 </v>
   <v>       0.01092399 </v>
   <v>       0.00546199 </v>
   <v>       0.00273100 </v>
   <v>       0.01092399 </v>
   <v>       0.01092399 </v>
   <v>       0.00546199 </v>
   <v>       0.00273100 </v>
   <v>       0.00546199 </v>
   <v>       0.01092399 </v>
   <v>       0.02184797 </v>
   <v>       0.02184797 </v>
   <v>       0.02184797 </v>
   <v>       0.02184797 </v>
   <v>       0.01092399 </v>
   <v>       0.02184797 </v>
   <v>       0.02184797 </v>
   <v>       0.02184797 </v>
   <v>       0.02184797 </v>
   <v>       0.02184797 </v>
   <v>       0.02184797 </v>
   <v>       0.01092399 </v>
   <v>       0.01092399 </v>
   <v>       0.02184797 </v>
   <v>       0.02184797 </v>
   <v>       0.02184797 </v>
   <v>       0.02184797 </v>
   <v>       0.01092399 </v>
   <v>       0.01092399 </v>
   <v>       0.02184797 </v>
   <v>       0.02184797 </v>
   <v>       0.01092399 </v>
   <v>       0.01092399 </v>
   <v>       0.01092399 </v>
   <v>       0.01092399 </v>
   <v>       0.02184797 </v>
   <v>       0.02184797 </v>
   <v>       0.01092399 </v>
   <v>       0.02184797 </v>
   <v>       0.02184797 </v>
   <v>       0.01092399 </v>
   <v>       0.01092399 </v>
   <v>       0.01092399 </v>
   <v>       0.01092399 </v>
  </varray>
 </kpoints>
 <parameters>
  <separator name="general" >
   <i type="string" name="SYSTEM">unknown system</i>
   <i type="logical" name="LCOMPAT"> F  </i>
  </separator>
  <separator name="electronic" >
   <i type="string" name="PREC">accura</i>
   <i name="ENMAX">    500.00000000</i>
   <i name="ENAUG">    322.06900000</i>
   <i name="EDIFF">      0.00000010</i>
   <i type="int" name="IALGO">    38</i>
   <i type="int" name="IWAVPR">    11</i>
   <i type="int" name="NBANDS">    16</i>
   <i name="NELECT">      8.00000000</i>
   <i type="int" name="TURBO">     0</i>
   <i type="int" name="IRESTART">     0</i>
   <i type="int" name="NREBOOT">     0</i>
   <i type="int" name="NMIN">     0</i>
   <i name="EREF">      0.00000000</i>
   <separator name="electronic smearing" >
    <i type="int" name="ISMEAR">     0</i>
    <i name="SIGMA">      0.20000000</i>
    <i name="KSPACING">      0.50000000</i>
    <i type="logical" name="KGAMMA"> T  </i>
   </separator>
   <separator name="electronic projectors" >
    <i type="logical" name="LREAL"> F  </i>
    <v name="ROPT">      0.00000000</v>
    <i type="int" name="LMAXPAW">  -100</i>
    <i type="int" name="LMAXMIX">     2</i>
    <i type="logical" name="NLSPLINE"> F  </i>
   </separator>
   <separator name="electronic startup" >
    <i type="int" name="ISTART">     0</i>
    <i type="int" name="ICHARG">     2</i>
    <i type="int" name="INIWAV">     1</i>
   </separator>
   <separator name="electronic spin" >
    <i type="int" name="ISPIN">     2</i>
    <i type="logical" name="LNONCOLLINEAR"> F  </i>
    <v name="MAGMOM">      1.00000000      1.00000000</v>
    <i name="NUPDOWN">     -1.00000000</i>
    <i type="logical" name="LSORBIT"> F  </i>
    <v name="SAXIS">      0.00000000      0.00000000      1.00000000</v>
    <i type="logical" name="LSPIRAL"> F  </i>
    <v name="QSPIRAL">      0.00000000      0.00000000      0.00000000</v>
    <i type="logical" name="LZEROZ"> F  </i>
   </separator>
   <separator name="electronic exchange-correlation" >
    <i type="logical" name="LASPH"> F  </i>
    <i type="logical" name="LMETAGGA"> F  </i>
   </separator>
   <separator name="electronic convergence" >
    <i type="int" name="NELM">   500</i>
    <i type="int" name="NELMDL">    -5</i>
    <i type="int" name="NELMIN">     2</i>
    <i name="ENINI">    500.00000000</i>
    <separator name="electronic convergence detail" >
     <i type="logical" name="LDIAG"> T  </i>
     <i type="logical" name="LSUBROT"> F  </i>
     <i name="WEIMIN">      0.00100000</i>
     <i name="EBREAK">      0.00000000</i>
     <i name="DEPER">      0.30000000</i>
     <i type="int" name="NRMM">     4</i>
     <i name="TIME">      0.40000000</i>
    </separator>
   </separator>
   <separator name="electronic mixer" >
    <i name="AMIX">      0.40000000</i>
    <i name="BMIX">      1.00000000</i>
    <i name="AMIN">      0.10000000</i>
    <i name="AMIX_MAG">      1.60000000</i>
    <i name="BMIX_MAG">      1.00000000</i>
    <separator name="electronic mixer details" >
     <i type="int" name="IMIX">     4</i>
     <i type="logical" name="MIXFIRST"> F  </i>
     <i type="int" name="MAXMIX">   -45</i>
     <i name="WC">    100.00000000</i>
     <i type="int" name="INIMIX">     1</i>
     <i type="int" name="MIXPRE">     1</i>
     <i type="int" name="MREMOVE">     5</i>
    </separator>
   </separator>
   <separator name="electronic dipolcorrection" >
    <i type="logical" name="LDIPOL"> F  </i>
    <i type="logical" name="LMONO"> F  </i>
    <i type="int" name="IDIPOL">     0</i>
    <i name="EPSILON">      1.00000000</i>
    <v name="DIPOL">   -100.00000000   -100.00000000   -100.00000000</v>
    <i name="EFIELD">      0.00000000</i>
   </separator>
  </separator>
  <separator name="grids" >
   <i type="int" name="NGX">    28</i>
   <i type="int" name="NGY">    28</i>
   <i type="int" name="NGZ">    28</i>
   <i type="int" name="NGXF">    56</i>
   <i type="int" name="NGYF">    56</i>
   <i type="int" name="NGZF">    56</i>
   <i type="logical" name="ADDGRID"> F  </i>
  </separator>
  <separator name="ionic" >
   <i type="int" name="NSW">   500</i>
   <i type="int" name="IBRION">     2</i>
   <i type="int" name="ISIF">     3</i>
   <i name="PSTRESS">      0.00000000</i>
   <i name="EDIFFG">     -0.00100000</i>
   <i type="int" name="NFREE">     1</i>
   <i name="POTIM">      0.50000000</i>
   <i name="SMASS">     -3.00000000</i>
   <i name="SCALEE">      1.00000000</i>
  </separator>
  <separator name="ionic md" >
   <i name="TEBEG">      0.00010000</i>
   <i name="TEEND">      0.00010000</i>
   <i type="int" name="NBLOCK">     1</i>
   <i type="int" name="KBLOCK">   500</i>
   <i type="int" name="NPACO">   256</i>
   <i name="APACO">     16.00000000</i>
  </separator>
  <separator name="symmetry" >
   <i type="int" name="ISYM">     2</i>
   <i name="SYMPREC">      0.00001000</i>
  </separator>
  <separator name="dos" >
   <i type="logical" name="LORBIT"> T  </i>
   <v name="RWIGS">     -1.00000000</v>
   <i type="int" name="NEDOS">  5000</i>
   <i name="EMIN">     10.00000000</i>
   <i name="EMAX">    -10.00000000</i>
   <i name="EFERMI">      0.00000000</i>
  </separator>
  <separator name="writing" >
   <i type="int" name="NWRITE">     2</i>
   <i type="logical" name="LWAVE"> F  </i>
   <i type="logical" name="LCHARG"> T  </i>
   <i type="logical" name="LPARD"> F  </i>
   <i type="logical" name="LVTOT"> F  </i>
   <i type="logical" name="LVHAR"> T  </i>
   <i type="logical" name="LELF"> F  </i>
   <i type="logical" name="LOPTICS"> F  </i>
   <v name="STM">      0.00000000      0.00000000      0.00000000      0.00000000      0.00000000      0.00000000      0.00000000</v>
  </separator>
  <separator name="performance" >
   <i type="int" name="NPAR">    16</i>
   <i type="int" name="NSIM">     4</i>
   <i type="int" name="NBLK">    -1</i>
   <i type="logical" name="LPLANE"> T  </i>
   <i type="logical" name="LSCALAPACK"> T  </i>
   <i type="logical" name="LSCAAWARE"> F  </i>
   <i type="logical" name="LSCALU"> F  </i>
   <i type="logical" name="LASYNC"> F  </i>
   <i type="logical" name="LORBITALREAL"> F  </i>
  </separator>
  <separator name="miscellaneous" >
   <i type="int" name="IDIOT">     3</i>
   <i type="logical" name="LMUSIC"> F  </i>
   <v name="POMASS">     28.08500000</v>
   <v name="DARWINR">      0.00000000</v>
   <v name="DARWINV">      1.00000000</v>
   <i type="logical" name="LCORR"> T  </i>
  </separator>
  <i type="logical" name="GGA_COMPAT"> T  </i>
  <i type="logical" name="LBERRY"> F  </i>
  <i type="int" name="ICORELEVEL">     0</i>
  <i type="logical" name="LDAU"> F  </i>
  <i type="int" name="I_CONSTRAINED_M">     0</i>
  <separator name="electronic exchange-correlation" >
   <i type="string" name="GGA">BO</i>
   <i type="int" name="VOSKOWN">     0</i>
   <i type="logical" name="LHFCALC"> F  </i>
   <i type="string" name="PRECFOCK"></i>
   <i type="logical" name="LSYMGRAD"> F  </i>
   <i type="logical" name="LHFONE"> F  </i>
   <i type="logical" name="LRHFCALC"> F  </i>
   <i type="logical" name="LTHOMAS"> F  </i>
   <i type="logical" name="LMODELHF"> F  </i>
   <i name="ENCUT4O">     -1.00000000</i>
   <i type="int" name="EXXOEP">     0</i>
   <i type="int" name="FOURORBIT">     0</i>
   <i name="AEXX">      0.00000000</i>
   <i name="HFALPHA">      0.00000000</i>
   <i name="MCALPHA">      0.00000000</i>
   <i name="ALDAX">      1.00000000</i>
   <i name="AGGAX">      1.00000000</i>
   <i name="ALDAC">      1.00000000</i>
   <i name="AGGAC">      0.00000000</i>
   <i type="int" name="NKREDX">     1</i>
   <i type="int" name="NKREDY">     1</i>
   <i type="int" name="NKREDZ">     1</i>
   <i type="logical" name="SHIFTRED"> F  </i>
   <i type="logical" name="ODDONLY"> F  </i>
   <i type="logical" name="EVENONLY"> F  </i>
   <i type="int" name="LMAXFOCK">     0</i>
   <i type="int" name="NMAXFOCKAE">     0</i>
   <i type="logical" name="LFOCKAEDFT"> F  </i>
   <i name="HFSCREEN">      0.00000000</i>
   <i name="HFSCREENC">      0.00000000</i>
   <i type="int" name="NBANDSGWLOW">     0</i>
  </separator>
  <separator name="vdW DFT" >
   <i type="logical" name="LUSE_VDW"> T  </i>
   <i name="Zab_VDW">     -0.84910000</i>
   <i name="PARAM1">      0.18333333</i>
   <i name="PARAM2">      0.22000000</i>
   <i name="PARAM3">      0.00000000</i>
  </separator>
  <separator name="model GW" >
   <i type="int" name="MODEL_GW">     0</i>
   <i name="MODEL_EPS0">     12.43490274</i>
   <i name="MODEL_ALPHA">      1.00000000</i>
  </separator>
  <separator name="linear response parameters" >
   <i type="logical" name="LEPSILON"> F  </i>
   <i type="logical" name="LRPA"> F  </i>
   <i type="logical" name="LNABLA"> F  </i>
   <i type="logical" name="LVEL"> F  </i>
   <i type="int" name="KINTER">     0</i>
   <i name="CSHIFT">      0.10000000</i>
   <i name="OMEGAMAX">     -1.00000000</i>
   <i name="DEG_THRESHOLD">      0.00200000</i>
  </separator>
  <separator name="orbital magnetization" >
   <i type="logical" name="NUCIND"> F  </i>
   <v name="MAGPOS">      0.00000000      0.00000000      0.00000000</v>
   <i type="logical" name="LNICSALL"> T  </i>
   <i type="logical" name="ORBITALMAG"> F  </i>
   <i type="logical" name="LMAGBLOCH"> F  </i>
   <i type="logical" name="LCHIMAG"> F  </i>
   <i type="logical" name="LGAUGE"> T  </i>
   <i type="int" name="MAGATOM">     0</i>
   <v name="MAGDIPOL">      0.00000000      0.00000000      0.00000000</v>
   <v name="AVECCONST">      0.00000000      0.00000000      0.00000000</v>
  </separator>
  <separator name="response functions" >
   <i type="logical" name="LADDER"> F  </i>
   <i type="logical" name="LFXC"> F  </i>
   <i type="logical" name="LHARTREE"> T  </i>
   <i type="int" name="IBSE">     0</i>
   <v type="int" name="KPOINT">    -1     0     0     0</v>
   <i type="logical" name="LTCTE"> F  </i>
   <i type="logical" name="LTETE"> F  </i>
   <i type="logical" name="LTRIPLET"> F  </i>
   <i type="logical" name="LFXCEPS"> F  </i>
   <i type="logical" name="LFXHEG"> F  </i>
   <i type="int" name="NATURALO">     0</i>
   <i type="logical" name="L2ORDER"> F  </i>
   <i type="logical" name="LUSEW"> F  </i>
   <i name="ENCUTGW">     -2.00000000</i>
   <i name="ENCUTGWSOFT">     -2.00000000</i>
   <i name="ENCUTLF">     -1.00000000</i>
   <i type="int" name="LMAXMP2">    -1</i>
   <i name="SCISSOR">      0.00000000</i>
   <i type="int" name="NOMEGA">     0</i>
   <i type="int" name="NOMEGAR">     0</i>
   <i type="int" name="NBANDSGW">    -1</i>
   <i type="int" name="NBANDSO">    -1</i>
   <i type="int" name="NBANDSV">    -1</i>
   <i type="int" name="NELM">   500</i>
   <i type="int" name="NELMHF">     1</i>
   <i type="int" name="DIM">     3</i>
   <i type="int" name="ANTIRES">     0</i>
   <i name="OMEGAMAX">    -30.00000000</i>
   <i name="OMEGAMIN">    -30.00000000</i>
   <i name="OMEGATL">   -200.00000000</i>
   <i type="int" name="OMEGAGRID">     0</i>
   <i name="CSHIFT">     -0.10000000</i>
   <i type="logical" name="SELFENERGY"> F  </i>
   <i type="logical" name="LSPECTRAL"> F  </i>
   <i type="logical" name="LSPECTRALGW"> F  </i>
   <i type="logical" name="LSINGLES"> F  </i>
   <i type="logical" name="LFERMIGW"> F  </i>
   <i type="logical" name="ODDONLYGW"> F  </i>
   <i type="logical" name="EVENONLYGW"> F  </i>
   <i type="int" name="NKREDLFX">     1</i>
   <i type="int" name="NKREDLFY">     1</i>
   <i type="int" name="NKREDLFZ">     1</i>
   <i type="int" name="MAXMEM">  1800</i>
   <i type="int" name="TELESCOPE">     0</i>
   <i type="int" name="TAUPAR">     1</i>
   <i type="int" name="OMEGAPAR">    -1</i>
   <i name="LAMBDA">      1.00000000</i>
  </separator>
  <separator name="External order field" >
   <i name="OFIELD_KAPPA">      0.00000000</i>
   <v name="OFIELD_K">      0.00000000      0.00000000      0.00000000</v>
   <i name="OFIELD_Q6_NEAR">      0.00000000</i>
   <i name="OFIELD_Q6_FAR">      0.00000000</i>
   <i name="OFIELD_A">      0.00000000</i>
  </separator>
 </parameters>
 <atominfo>
  <atoms>       2 </atoms>
  <types>       1 </types>
  <array name="atoms" >
   <dimension dim="1">ion</dimension>
   <field type="string">element</field>
   <field type="int">atomtype</field>
   <set>
    <rc><c>Si</c><c>   1</c></rc>
    <rc><c>Si</c><c>   1</c></rc>
   </set>
  </array>
  <array name="atomtypes" >
   <dimension dim="1">type</dimension>
   <field type="int">atomspertype</field>
   <field type="string">element</field>
   <field>mass</field>
   <field>valence</field>
   <field type="string">pseudopotential</field>
   <set>
    <rc><c>   2</c><c>Si</c><c>     28.08500000</c><c>      4.00000000</c><c>  PAW_PBE Si 05Jan2001                  </c></rc>
   </set>
  </array>
 </atominfo>
 <structure name="initialpos" >
  <crystal>
   <varray name="basis" >
    <v>       0.00000000       2.74682114       2.74682114 </v>
    <v>       2.74682114       0.00000000       2.74682114 </v>
    <v>       2.74682114       2.74682114       0.00000000 </v>
   </varray>
   <i name="volume">     41.44967579 </i>
   <varray name="rec_basis" >
    <v>      -0.18202860       0.18202860       0.18202860 </v>
    <v>       0.18202860      -0.18202860       0.18202860 </v>
    <v>       0.18202860       0.18202860      -0.18202860 </v>
   </varray>
  </crystal>
  <varray name="positions" >
   <v>       0.75000000       0.75000000       0.75000000 </v>
   <v>       0.50000000       0.50000000       0.50000000 </v>
  </varray>
 </structure>
 <calculation>
  <scstep>
   <time name="dav">    2.08    2.07</time>
   <time name="total">    4.18    4.18</time>
   <energy>
    <i name="alphaZ">      3.24857844 </i>
    <i name="ewald">   -225.91568183 </i>
    <i name="hartreedc">    -11.53197166 </i>
    <i name="XCdc">    -20.06771024 </i>
    <i name="pawpsdc">    189.18569288 </i>
    <i name="pawaedc">   -152.40348104 </i>
    <i name="eentropy">     -0.00754678 </i>
    <i name="bandstr">     12.40575720 </i>
    <i name="atom">    208.59373829 </i>
    <i name="e_fr_energy">      3.50737526 </i>
    <i name="e_wo_entrp">      3.51492203 </i>
    <i name="e_0_energy">      3.51114864 </i>
   </energy>
  </scstep>
  <scstep>
   <time name="dav">    3.09    3.09</time>
   <time name="total">    3.10    3.18</time>
   <energy>
    <i name="e_fr_energy">     -7.82053039 </i>
    <i name="e_wo_entrp">     -7.81878148 </i>
    <i name="e_0_energy">     -7.81965594 </i>
   </energy>
  </scstep>
  <scstep>
   <time name="dav">    2.30    2.29</time>
   <time name="total">    2.30    2.35</time>
   <energy>
    <i name="e_fr_energy">     -7.89879009 </i>
    <i name="e_wo_entrp">     -7.89714312 </i>
    <i name="e_0_energy">     -7.89796660 </i>
   </energy>
  </scstep>
  <scstep>
   <time name="dav">    4.90    4.90</time>
   <time name="total">    4.91    4.95</time>
   <energy>
    <i name="e_fr_energy">     -7.89902817 </i>
    <i name="e_wo_entrp">     -7.89738124 </i>
    <i name="e_0_energy">     -7.89820471 </i>
   </energy>
  </scstep>
  <scstep>
   <time name="dav">    2.45    2.45</time>
   <time name="total">    2.61    2.85</time>
   <energy>
    <i name="e_fr_energy">     -7.89902818 </i>
    <i name="e_wo_entrp">     -7.89738126 </i>
    <i name="e_0_energy">     -7.89820472 </i>
   </energy>
  </scstep>
  <scstep>
   <time name="dav">    3.56    3.56</time>
   <time name="total">    5.32    5.38</time>
   <energy>
    <i name="e_fr_energy">     -8.32579326 </i>
    <i name="e_wo_entrp">     -8.32575164 </i>
    <i name="e_0_energy">     -8.32577245 </i>
   </energy>
  </scstep>
  <scstep>
   <time name="dav">    3.81    3.81</time>
   <time name="total">    5.58    5.60</time>
   <energy>
    <i name="e_fr_energy">     -8.32300631 </i>
    <i name="e_wo_entrp">     -8.32294208 </i>
    <i name="e_0_energy">     -8.32297419 </i>
   </energy>
  </scstep>
  <scstep>
   <time name="dav">    3.48    3.48</time>
   <time name="total">    5.31    5.37</time>
   <energy>
    <i name="e_fr_energy">     -8.34857040 </i>
    <i name="e_wo_entrp">     -8.34853274 </i>
    <i name="e_0_energy">     -8.34855157 </i>
   </energy>
  </scstep>
  <scstep>
   <time name="dav">    2.60    2.60</time>
   <time name="total">    4.37    4.58</time>
   <energy>
    <i name="e_fr_energy">     -8.34603300 </i>
    <i name="e_wo_entrp">     -8.34599687 </i>
    <i name="e_0_energy">     -8.34601494 </i>
   </energy>
  </scstep>
  <scstep>
   <time name="dav">    2.91    2.91</time>
   <time name="total">    4.70    4.80</time>
   <energy>
    <i name="e_fr_energy">     -8.33856029 </i>
    <i name="e_wo_entrp">     -8.33852903 </i>
    <i name="e_0_energy">     -8.33854466 </i>
   </energy>
  </scstep>
  <scstep>
   <time name="dav">    3.02    3.02</time>
   <time name="total">    4.81    5.01</time>
   <energy>
    <i name="e_fr_energy">     -8.33821352 </i>
    <i name="e_wo_entrp">     -8.33818229 </i>
    <i name="e_0_energy">     -8.33819791 </i>
   </energy>
  </scstep>
  <scstep>
   <time name="dav">    4.20    4.20</time>
   <time name="total">    5.96    9.01</time>
   <energy>
    <i name="e_fr_energy">     -8.33848927 </i>
    <i name="e_wo_entrp">     -8.33845779 </i>
    <i name="e_0_energy">     -8.33847353 </i>
   </energy>
  </scstep>
  <scstep>
   <time name="dav">    2.66    2.66</time>
   <time name="total">    4.48    4.55</time>
   <energy>
    <i name="e_fr_energy">     -8.33837458 </i>
    <i name="e_wo_entrp">     -8.33834323 </i>
    <i name="e_0_energy">     -8.33835891 </i>
   </energy>
  </scstep>
  <scstep>
   <time name="dav">    2.70    2.70</time>
   <time name="total">    4.51    4.80</time>
   <energy>
    <i name="e_fr_energy">     -8.33839279 </i>
    <i name="e_wo_entrp">     -8.33836143 </i>
    <i name="e_0_energy">     -8.33837711 </i>
   </energy>
  </scstep>
  <scstep>
   <time name="dav">    3.38    3.38</time>
   <time name="total">    5.13    5.16</time>
   <energy>
    <i name="e_fr_energy">     -8.33840334 </i>
    <i name="e_wo_entrp">     -8.33837197 </i>
    <i name="e_0_energy">     -8.33838766 </i>
   </energy>
  </scstep>
  <scstep>
   <time name="dav">    1.92    1.92</time>
   <time name="total">    3.70    3.78</time>
   <energy>
    <i name="e_fr_energy">     -8.33841048 </i>
    <i name="e_wo_entrp">     -8.33837911 </i>
    <i name="e_0_energy">     -8.33839479 </i>
   </energy>
  </scstep>
  <scstep>
   <time name="dav">    1.62    1.61</time>
   <time name="total">    3.42    3.69</time>
   <energy>
    <i name="e_fr_energy">     -8.33840921 </i>
    <i name="e_wo_entrp">     -8.33837785 </i>
    <i name="e_0_energy">     -8.33839353 </i>
   </energy>
  </scstep>
  <scstep>
   <time name="dav">    1.25    1.25</time>
   <time name="total">    2.90    3.17</time>
   <energy>
    <i name="alphaZ">      3.24857844 </i>
    <i name="ewald">   -225.91568183 </i>
    <i name="hartreedc">    -15.53168024 </i>
    <i name="XCdc">    -19.63663706 </i>
    <i name="pawpsdc">    523.22288684 </i>
    <i name="pawaedc">   -486.67074424 </i>
    <i name="eentropy">     -0.00003136 </i>
    <i name="bandstr">      4.35116200 </i>
    <i name="atom">    208.59373829 </i>
    <i name="e_fr_energy">     -8.33840917 </i>
    <i name="e_wo_entrp">     -8.33837781 </i>
    <i name="e_0_energy">     -8.33839349 </i>
   </energy>
  </scstep>
  <structure>
   <crystal>
    <varray name="basis" >
     <v>       0.00000000       2.74682114       2.74682114 </v>
     <v>       2.74682114       0.00000000       2.74682114 </v>
     <v>       2.74682114       2.74682114       0.00000000 </v>
    </varray>
    <i name="volume">     41.44967579 </i>
    <varray name="rec_basis" >
     <v>      -0.18202860       0.18202860       0.18202860 </v>
     <v>       0.18202860      -0.18202860       0.18202860 </v>
     <v>       0.18202860       0.18202860      -0.18202860 </v>
    </varray>
   </crystal>
   <varray name="positions" >
    <v>       0.75000000       0.75000000       0.75000000 </v>
    <v>       0.50000000       0.50000000       0.50000000 </v>
   </varray>
  </structure>
  <varray name="forces" >
   <v>       0.00000000       0.00000000       0.00000000 </v>
   <v>      -0.00000000      -0.00000000      -0.00000000 </v>
  </varray>
  <varray name="stress" >
   <v>       0.00500836       0.00000000       0.00000000 </v>
   <v>       0.00000000       0.00500836      -0.00000000 </v>
   <v>       0.00000000      -0.00000000       0.00500836 </v>
  </varray>
  <energy>
   <i name="e_fr_energy">     -8.33840917 </i>
   <i name="e_wo_entrp">     -8.33839349 </i>
   <i name="e_0_energy">     -0.00003136 </i>
  </energy>
  <time name="totalsc">   82.55   88.03</time>
  <eigenvalues>
   <array>
    <dimension dim="1">band</dimension>
    <dimension dim="2">kpoint</dimension>
    <dimension dim="3">spin</dimension>
    <field>eigene</field>
    <field>occ</field>
    <set>
     <set comment="spin 1">
      <set comment="kpoint 1">
       <r>   -6.1918    1.0000 </r>
       <r>    5.4589    0.9930 </r>
       <r>    5.4589    0.9930 </r>
       <r>    5.4589    0.9930 </r>
       <r>    8.0742    0.0000 </r>
       <r>    8.0742    0.0000 </r>
       <r>    8.0742    0.0000 </r>
       <r>    8.5298    0.0000 </r>
       <r>   13.2140    0.0000 </r>
       <r>   13.2140    0.0000 </r>
       <r>   13.3485    0.0000 </r>
       <r>   16.6555    0.0000 </r>
       <r>   16.6555    0.0000 </r>
       <r>   16.6555    0.0000 </r>
       <r>   20.7506    0.0000 </r>
       <r>   28.1662    0.0000 </r>
      </set>
      <set comment="kpoint 2">
       <r>   -6.1167    1.0000 </r>
       <r>    4.7234    1.0000 </r>
       <r>    5.3430    0.9995 </r>
       <r>    5.3430    0.9995 </r>
       <r>    8.0712    0.0000 </r>
       <r>    8.2469    0.0000 </r>
       <r>    8.2469    0.0000 </r>
       <r>    9.1435    0.0000 </r>
       <r>   12.9859    0.0000 </r>
       <r>   12.9859    0.0000 </r>
       <r>   13.6702    0.0000 </r>
       <r>   16.3841    0.0000 </r>
       <r>   17.1303    0.0000 </r>
       <r>   17.1303    0.0000 </r>
       <r>   21.2543    0.0000 </r>
       <r>   27.3020    0.0000 </r>
      </set>
      <set comment="kpoint 3">
       <r>   -5.8934    1.0000 </r>
       <r>    3.3770    1.0000 </r>
       <r>    5.0820    1.0000 </r>
       <r>    5.0820    1.0000 </r>
       <r>    7.8204    0.0000 </r>
       <r>    8.6289    0.0000 </r>
       <r>    8.6289    0.0000 </r>
       <r>   10.4426    0.0000 </r>
       <r>   12.6332    0.0000 </r>
       <r>   12.6332    0.0000 </r>
       <r>   14.3775    0.0000 </r>
       <r>   16.0405    0.0000 </r>
       <r>   18.2569    0.0000 </r>
       <r>   18.2569    0.0000 </r>
       <r>   22.4221    0.0000 </r>
       <r>   25.4161    0.0000 </r>
      </set>
      <set comment="kpoint 4">
       <r>   -5.5294    1.0000 </r>
       <r>    1.9810    1.0000 </r>
       <r>    4.8016    1.0000 </r>
       <r>    4.8016    1.0000 </r>
       <r>    7.5150    0.0000 </r>
       <r>    8.9497    0.0000 </r>
       <r>    8.9497    0.0000 </r>
       <r>   11.8088    0.0000 </r>
       <r>   12.6100    0.0000 </r>
       <r>   12.6100    0.0000 </r>
       <r>   14.4849    0.0000 </r>
       <r>   16.7855    0.0000 </r>
       <r>   19.6269    0.0000 </r>
       <r>   19.6269    0.0000 </r>
       <r>   23.2400    0.0000 </r>
       <r>   23.4635    0.0000 </r>
      </set>
      <set comment="kpoint 5">
       <r>   -5.0438    1.0000 </r>
       <r>    0.6795    1.0000 </r>
       <r>    4.5670    1.0000 </r>
       <r>    4.5670    1.0000 </r>
       <r>    7.2489    0.0000 </r>
       <r>    9.0334    0.0000 </r>
       <r>    9.0334    0.0000 </r>
       <r>   13.0003    0.0000 </r>
       <r>   13.1422    0.0000 </r>
       <r>   13.1422    0.0000 </r>
       <r>   14.2971    0.0000 </r>
       <r>   18.3369    0.0000 </r>
       <r>   20.2135    0.0000 </r>
       <r>   20.2135    0.0000 </r>
       <r>   22.2188    0.0000 </r>
       <r>   22.5904    0.0000 </r>
      </set>
      <set comment="kpoint 6">
       <r>   -4.4886    1.0000 </r>
       <r>   -0.4338    1.0000 </r>
       <r>    4.4041    1.0000 </r>
       <r>    4.4041    1.0000 </r>
       <r>    7.0599    0.0000 </r>
       <r>    8.9607    0.0000 </r>
       <r>    8.9607    0.0000 </r>
       <r>   13.3221    0.0000 </r>
       <r>   14.1552    0.0000 </r>
       <r>   14.1552    0.0000 </r>
       <r>   15.0398    0.0000 </r>
       <r>   18.8164    0.0000 </r>
       <r>   18.8164    0.0000 </r>
       <r>   19.2038    0.0000 </r>
       <r>   21.8736    0.0000 </r>
       <r>   23.9956    0.0000 </r>
      </set>
      <set comment="kpoint 7">
       <r>   -4.0291    1.0000 </r>
       <r>   -1.1759    1.0000 </r>
       <r>    4.3214    1.0000 </r>
       <r>    4.3214    1.0000 </r>
       <r>    6.9630    0.0000 </r>
       <r>    8.8861    0.0000 </r>
       <r>    8.8861    0.0000 </r>
       <r>   13.2304    0.0000 </r>
       <r>   15.4525    0.0000 </r>
       <r>   15.4525    0.0000 </r>
       <r>   16.2436    0.0000 </r>
       <r>   17.1789    0.0000 </r>
       <r>   17.1789    0.0000 </r>
       <r>   18.3395    0.0000 </r>
       <r>   23.5936    0.0000 </r>
       <r>   25.9135    0.0000 </r>
      </set>
      <set comment="kpoint 8">
       <r>   -6.0916    1.0000 </r>
       <r>    4.8446    1.0000 </r>
       <r>    5.1093    1.0000 </r>
       <r>    5.1093    1.0000 </r>
       <r>    7.8453    0.0000 </r>
       <r>    8.5471    0.0000 </r>
       <r>    8.5471    0.0000 </r>
       <r>    9.1093    0.0000 </r>
       <r>   12.5535    0.0000 </r>
       <r>   13.3259    0.0000 </r>
       <r>   13.7771    0.0000 </r>
       <r>   16.8314    0.0000 </r>
       <r>   16.8314    0.0000 </r>
       <r>   17.1155    0.0000 </r>
       <r>   21.4577    0.0000 </r>
       <r>   26.9119    0.0000 </r>
      </set>
      <set comment="kpoint 9">
       <r>   -5.9172    1.0000 </r>
       <r>    3.7658    1.0000 </r>
       <r>    4.7941    1.0000 </r>
       <r>    4.9613    1.0000 </r>
       <r>    7.8469    0.0000 </r>
       <r>    8.5751    0.0000 </r>
       <r>    9.0139    0.0000 </r>
       <r>   10.0523    0.0000 </r>
       <r>   12.1416    0.0000 </r>
       <r>   13.2639    0.0000 </r>
       <r>   14.4083    0.0000 </r>
       <r>   16.4734    0.0000 </r>
       <r>   17.4483    0.0000 </r>
       <r>   18.1775    0.0000 </r>
       <r>   22.4528    0.0000 </r>
       <r>   25.2961    0.0000 </r>
      </set>
      <set comment="kpoint 10">
       <r>   -5.5991    1.0000 </r>
       <r>    2.4202    1.0000 </r>
       <r>    4.5038    1.0000 </r>
       <r>    4.6905    1.0000 </r>
       <r>    7.9127    0.0000 </r>
       <r>    8.5948    0.0000 </r>
       <r>    9.4069    0.0000 </r>
       <r>   10.8303    0.0000 </r>
       <r>   12.4466    0.0000 </r>
       <r>   13.2320    0.0000 </r>
       <r>   14.9038    0.0000 </r>
       <r>   16.5914    0.0000 </r>
       <r>   18.6265    0.0000 </r>
       <r>   19.6148    0.0000 </r>
       <r>   23.2946    0.0000 </r>
       <r>   23.3940    0.0000 </r>
      </set>
      <set comment="kpoint 11">
       <r>   -5.1511    1.0000 </r>
       <r>    1.1057    1.0000 </r>
       <r>    4.2883    1.0000 </r>
       <r>    4.3778    1.0000 </r>
       <r>    7.7436    0.0000 </r>
       <r>    8.7626    0.0000 </r>
       <r>    9.5278    0.0000 </r>
       <r>   11.3252    0.0000 </r>
       <r>   13.5416    0.0000 </r>
       <r>   13.6563    0.0000 </r>
       <r>   14.6780    0.0000 </r>
       <r>   17.8762    0.0000 </r>
       <r>   19.6068    0.0000 </r>
       <r>   20.7204    0.0000 </r>
       <r>   21.8599    0.0000 </r>
       <r>   22.4007    0.0000 </r>
      </set>
      <set comment="kpoint 12">
       <r>   -4.6093    1.0000 </r>
       <r>   -0.0682    1.0000 </r>
       <r>    4.1006    1.0000 </r>
       <r>    4.1667    1.0000 </r>
       <r>    7.5573    0.0000 </r>
       <r>    8.7888    0.0000 </r>
       <r>    9.4143    0.0000 </r>
       <r>   12.1588    0.0000 </r>
       <r>   14.1483    0.0000 </r>
       <r>   14.5766    0.0000 </r>
       <r>   15.1102    0.0000 </r>
       <r>   18.5954    0.0000 </r>
       <r>   18.8036    0.0000 </r>
       <r>   20.2937    0.0000 </r>
       <r>   22.0300    0.0000 </r>
       <r>   22.7629    0.0000 </r>
      </set>
      <set comment="kpoint 13">
       <r>   -4.0851    1.0000 </r>
       <r>   -0.9609    1.0000 </r>
       <r>    3.8917    1.0000 </r>
       <r>    4.1435    1.0000 </r>
       <r>    7.4387    0.0000 </r>
       <r>    8.7760    0.0000 </r>
       <r>    9.2385    0.0000 </r>
       <r>   13.1106    0.0000 </r>
       <r>   14.2084    0.0000 </r>
       <r>   15.7821    0.0000 </r>
       <r>   16.4029    0.0000 </r>
       <r>   16.9860    0.0000 </r>
       <r>   17.7177    0.0000 </r>
       <r>   19.6292    0.0000 </r>
       <r>   22.8893    0.0000 </r>
       <r>   24.6290    0.0000 </r>
      </set>
      <set comment="kpoint 14">
       <r>   -3.8943    1.0000 </r>
       <r>   -1.2441    1.0000 </r>
       <r>    3.7674    1.0000 </r>
       <r>    4.2153    1.0000 </r>
       <r>    7.4090    0.0000 </r>
       <r>    8.8315    0.0000 </r>
       <r>    9.1092    0.0000 </r>
       <r>   13.4541    0.0000 </r>
       <r>   14.9107    0.0000 </r>
       <r>   15.2104    0.0000 </r>
       <r>   16.3492    0.0000 </r>
       <r>   17.4682    0.0000 </r>
       <r>   17.6941    0.0000 </r>
       <r>   18.5516    0.0000 </r>
       <r>   24.1516    0.0000 </r>
       <r>   25.1160    0.0000 </r>
      </set>
      <set comment="kpoint 15">
       <r>   -4.2449    1.0000 </r>
       <r>   -0.7073    1.0000 </r>
       <r>    3.7384    1.0000 </r>
       <r>    4.3735    1.0000 </r>
       <r>    7.4724    0.0000 </r>
       <r>    8.9754    0.0000 </r>
       <r>    9.0545    0.0000 </r>
       <r>   13.3200    0.0000 </r>
       <r>   13.8313    0.0000 </r>
       <r>   14.6366    0.0000 </r>
       <r>   16.5150    0.0000 </r>
       <r>   17.1081    0.0000 </r>
       <r>   19.1056    0.0000 </r>
       <r>   19.4903    0.0000 </r>
       <r>   22.2088    0.0000 </r>
       <r>   23.9160    0.0000 </r>
      </set>
      <set comment="kpoint 16">
       <r>   -4.7972    1.0000 </r>
       <r>    0.3035    1.0000 </r>
       <r>    3.8123    1.0000 </r>
       <r>    4.6043    1.0000 </r>
       <r>    7.6250    0.0000 </r>
       <r>    9.0288    0.0000 </r>
       <r>    9.1529    0.0000 </r>
       <r>   12.5792    0.0000 </r>
       <r>   12.7313    0.0000 </r>
       <r>   14.5262    0.0000 </r>
       <r>   15.1409    0.0000 </r>
       <r>   18.3359    0.0000 </r>
       <r>   19.4253    0.0000 </r>
       <r>   20.6956    0.0000 </r>
       <r>   21.6999    0.0000 </r>
       <r>   22.4434    0.0000 </r>
      </set>
      <set comment="kpoint 17">
       <r>   -5.3142    1.0000 </r>
       <r>    1.5329    1.0000 </r>
       <r>    3.9944    1.0000 </r>
       <r>    4.8846    1.0000 </r>
       <r>    7.8538    0.0000 </r>
       <r>    8.9021    0.0000 </r>
       <r>    9.1995    0.0000 </r>
       <r>   11.6956    0.0000 </r>
       <r>   12.0938    0.0000 </r>
       <r>   13.9313    0.0000 </r>
       <r>   14.8235    0.0000 </r>
       <r>   17.3234    0.0000 </r>
       <r>   19.2849    0.0000 </r>
       <r>   20.8135    0.0000 </r>
       <r>   21.6424    0.0000 </r>
       <r>   23.3691    0.0000 </r>
      </set>
      <set comment="kpoint 18">
       <r>   -5.7211    1.0000 </r>
       <r>    2.8551    1.0000 </r>
       <r>    4.2915    1.0000 </r>
       <r>    5.1685    1.0000 </r>
       <r>    8.1254    0.0000 </r>
       <r>    8.5910    0.0000 </r>
       <r>    8.9012    0.0000 </r>
       <r>   10.8851    0.0000 </r>
       <r>   12.0397    0.0000 </r>
       <r>   13.1816    0.0000 </r>
       <r>   14.8497    0.0000 </r>
       <r>   16.3919    0.0000 </r>
       <r>   18.0037    0.0000 </r>
       <r>   19.4650    0.0000 </r>
       <r>   23.1418    0.0000 </r>
       <r>   23.4295    0.0000 </r>
      </set>
      <set comment="kpoint 19">
       <r>   -5.9920    1.0000 </r>
       <r>    4.0628    1.0000 </r>
       <r>    4.7551    1.0000 </r>
       <r>    5.3623    0.9992 </r>
       <r>    8.2813    0.0000 </r>
       <r>    8.3275    0.0000 </r>
       <r>    8.3902    0.0000 </r>
       <r>    9.9012    0.0000 </r>
       <r>   12.4317    0.0000 </r>
       <r>   13.0588    0.0000 </r>
       <r>   14.1496    0.0000 </r>
       <r>   16.4984    0.0000 </r>
       <r>   17.0293    0.0000 </r>
       <r>   18.1251    0.0000 </r>
       <r>   21.9897    0.0000 </r>
       <r>   25.4296    0.0000 </r>
      </set>
      <set comment="kpoint 20">
       <r>   -5.7920    1.0000 </r>
       <r>    3.6433    1.0000 </r>
       <r>    4.4463    1.0000 </r>
       <r>    4.4463    1.0000 </r>
       <r>    7.3371    0.0000 </r>
       <r>    9.5750    0.0000 </r>
       <r>    9.5750    0.0000 </r>
       <r>    9.7184    0.0000 </r>
       <r>   11.8969    0.0000 </r>
       <r>   13.6614    0.0000 </r>
       <r>   14.8740    0.0000 </r>
       <r>   17.3503    0.0000 </r>
       <r>   17.3503    0.0000 </r>
       <r>   17.9057    0.0000 </r>
       <r>   23.2870    0.0000 </r>
       <r>   24.9032    0.0000 </r>
      </set>
      <set comment="kpoint 21">
       <r>   -5.5212    1.0000 </r>
       <r>    2.6683    1.0000 </r>
       <r>    4.1375    1.0000 </r>
       <r>    4.1560    1.0000 </r>
       <r>    7.3279    0.0000 </r>
       <r>    9.3826    0.0000 </r>
       <r>   10.0577    0.0000 </r>
       <r>   10.0950    0.0000 </r>
       <r>   12.5208    0.0000 </r>
       <r>   13.8172    0.0000 </r>
       <r>   15.5902    0.0000 </r>
       <r>   17.1574    0.0000 </r>
       <r>   18.0553    0.0000 </r>
       <r>   19.1435    0.0000 </r>
       <r>   23.2426    0.0000 </r>
       <r>   23.5255    0.0000 </r>
      </set>
      <set comment="kpoint 22">
       <r>   -5.1148    1.0000 </r>
       <r>    1.4747    1.0000 </r>
       <r>    3.7801    1.0000 </r>
       <r>    3.9148    1.0000 </r>
       <r>    7.5466    0.0000 </r>
       <r>    9.3995    0.0000 </r>
       <r>    9.9986    0.0000 </r>
       <r>   10.3406    0.0000 </r>
       <r>   13.8213    0.0000 </r>
       <r>   14.1937    0.0000 </r>
       <r>   15.7055    0.0000 </r>
       <r>   17.7753    0.0000 </r>
       <r>   19.0128    0.0000 </r>
       <r>   20.4837    0.0000 </r>
       <r>   21.5669    0.0000 </r>
       <r>   22.2691    0.0000 </r>
      </set>
      <set comment="kpoint 23">
       <r>   -4.5981    1.0000 </r>
       <r>    0.3183    1.0000 </r>
       <r>    3.3926    1.0000 </r>
       <r>    3.7976    1.0000 </r>
       <r>    7.6079    0.0000 </r>
       <r>    9.4852    0.0000 </r>
       <r>   10.2676    0.0000 </r>
       <r>   10.4024    0.0000 </r>
       <r>   15.0391    0.0000 </r>
       <r>   15.1158    0.0000 </r>
       <r>   15.4964    0.0000 </r>
       <r>   18.4389    0.0000 </r>
       <r>   18.6751    0.0000 </r>
       <r>   20.3899    0.0000 </r>
       <r>   21.8316    0.0000 </r>
       <r>   23.0260    0.0000 </r>
      </set>
      <set comment="kpoint 24">
       <r>   -4.0449    1.0000 </r>
       <r>   -0.6539    1.0000 </r>
       <r>    3.0667    1.0000 </r>
       <r>    3.7919    1.0000 </r>
       <r>    7.5983    0.0000 </r>
       <r>    9.3769    0.0000 </r>
       <r>   10.0515    0.0000 </r>
       <r>   11.4815    0.0000 </r>
       <r>   14.8989    0.0000 </r>
       <r>   16.1538    0.0000 </r>
       <r>   16.7481    0.0000 </r>
       <r>   16.9030    0.0000 </r>
       <r>   17.8224    0.0000 </r>
       <r>   21.3046    0.0000 </r>
       <r>   22.6036    0.0000 </r>
       <r>   23.4979    0.0000 </r>
      </set>
      <set comment="kpoint 25">
       <r>   -3.6942    1.0000 </r>
       <r>   -1.1731    1.0000 </r>
       <r>    2.8357    1.0000 </r>
       <r>    3.8951    1.0000 </r>
       <r>    7.6520    0.0000 </r>
       <r>    9.3167    0.0000 </r>
       <r>    9.8372    0.0000 </r>
       <r>   12.8059    0.0000 </r>
       <r>   14.3797    0.0000 </r>
       <r>   15.0786    0.0000 </r>
       <r>   16.6173    0.0000 </r>
       <r>   17.8181    0.0000 </r>
       <r>   18.4179    0.0000 </r>
       <r>   20.2283    0.0000 </r>
       <r>   24.1015    0.0000 </r>
       <r>   24.3450    0.0000 </r>
      </set>
      <set comment="kpoint 26">
       <r>   -3.8932    1.0000 </r>
       <r>   -0.8833    1.0000 </r>
       <r>    2.7196    1.0000 </r>
       <r>    4.0971    1.0000 </r>
       <r>    7.8019    0.0000 </r>
       <r>    9.3485    0.0000 </r>
       <r>    9.6767    0.0000 </r>
       <r>   13.4145    0.0000 </r>
       <r>   13.6326    0.0000 </r>
       <r>   14.1567    0.0000 </r>
       <r>   16.4325    0.0000 </r>
       <r>   18.6531    0.0000 </r>
       <r>   19.4463    0.0000 </r>
       <r>   19.8213    0.0000 </r>
       <r>   22.1902    0.0000 </r>
       <r>   24.3089    0.0000 </r>
      </set>
      <set comment="kpoint 27">
       <r>   -4.4207    1.0000 </r>
       <r>   -0.0153    1.0000 </r>
       <r>    2.7378    1.0000 </r>
       <r>    4.3787    1.0000 </r>
       <r>    8.0320    0.0000 </r>
       <r>    9.4524    0.0000 </r>
       <r>    9.5395    0.0000 </r>
       <r>   12.2817    0.0000 </r>
       <r>   12.4678    0.0000 </r>
       <r>   15.1170    0.0000 </r>
       <r>   17.0701    0.0000 </r>
       <r>   17.2045    0.0000 </r>
       <r>   19.7564    0.0000 </r>
       <r>   21.1019    0.0000 </r>
       <r>   21.4576    0.0000 </r>
       <r>   22.6434    0.0000 </r>
      </set>
      <set comment="kpoint 28">
       <r>   -4.9607    1.0000 </r>
       <r>    1.0710    1.0000 </r>
       <r>    2.9274    1.0000 </r>
       <r>    4.7043    1.0000 </r>
       <r>    8.2969    0.0000 </r>
       <r>    9.2997    0.0000 </r>
       <r>    9.4753    0.0000 </r>
       <r>   11.3555    0.0000 </r>
       <r>   11.7760    0.0000 </r>
       <r>   15.5316    0.0000 </r>
       <r>   15.7678    0.0000 </r>
       <r>   17.4739    0.0000 </r>
       <r>   19.1703    0.0000 </r>
       <r>   20.3833    0.0000 </r>
       <r>   21.8996    0.0000 </r>
       <r>   23.3164    0.0000 </r>
      </set>
      <set comment="kpoint 29">
       <r>   -5.4057    1.0000 </r>
       <r>    2.1188    1.0000 </r>
       <r>    3.4030    1.0000 </r>
       <r>    5.0067    1.0000 </r>
       <r>    8.4743    0.0000 </r>
       <r>    8.9005    0.0000 </r>
       <r>    9.1194    0.0000 </r>
       <r>   11.0225    0.0000 </r>
       <r>   11.6842    0.0000 </r>
       <r>   14.2179    0.0000 </r>
       <r>   15.6285    0.0000 </r>
       <r>   16.7935    0.0000 </r>
       <r>   18.3826    0.0000 </r>
       <r>   20.8454    0.0000 </r>
       <r>   21.4096    0.0000 </r>
       <r>   23.8488    0.0000 </r>
      </set>
      <set comment="kpoint 30">
       <r>   -5.2975    1.0000 </r>
       <r>    2.3175    1.0000 </r>
       <r>    3.8068    1.0000 </r>
       <r>    3.8068    1.0000 </r>
       <r>    6.8081    0.0000 </r>
       <r>    8.9357    0.0000 </r>
       <r>   10.8098    0.0000 </r>
       <r>   10.8098    0.0000 </r>
       <r>   12.8729    0.0000 </r>
       <r>   14.2198    0.0000 </r>
       <r>   16.3367    0.0000 </r>
       <r>   18.1492    0.0000 </r>
       <r>   18.1492    0.0000 </r>
       <r>   18.8314    0.0000 </r>
       <r>   22.9802    0.0000 </r>
       <r>   22.9802    0.0000 </r>
      </set>
      <set comment="kpoint 31">
       <r>   -4.9349    1.0000 </r>
       <r>    1.4834    1.0000 </r>
       <r>    3.4184    1.0000 </r>
       <r>    3.5630    1.0000 </r>
       <r>    6.8487    0.0000 </r>
       <r>    8.5776    0.0000 </r>
       <r>   11.0716    0.0000 </r>
       <r>   11.2903    0.0000 </r>
       <r>   13.9849    0.0000 </r>
       <r>   14.6338    0.0000 </r>
       <r>   16.8965    0.0000 </r>
       <r>   18.2668    0.0000 </r>
       <r>   18.7294    0.0000 </r>
       <r>   19.9865    0.0000 </r>
       <r>   21.5692    0.0000 </r>
       <r>   22.0287    0.0000 </r>
      </set>
      <set comment="kpoint 32">
       <r>   -4.4510    1.0000 </r>
       <r>    0.5141    1.0000 </r>
       <r>    2.8937    1.0000 </r>
       <r>    3.4286    1.0000 </r>
       <r>    7.0754    0.0000 </r>
       <r>    8.8230    0.0000 </r>
       <r>   10.9468    0.0000 </r>
       <r>   11.3609    0.0000 </r>
       <r>   15.4394    0.0000 </r>
       <r>   15.4775    0.0000 </r>
       <r>   16.6076    0.0000 </r>
       <r>   18.3505    0.0000 </r>
       <r>   18.9632    0.0000 </r>
       <r>   20.1275    0.0000 </r>
       <r>   21.3230    0.0000 </r>
       <r>   22.6593    0.0000 </r>
      </set>
      <set comment="kpoint 33">
       <r>   -3.8945    1.0000 </r>
       <r>   -0.4101    1.0000 </r>
       <r>    2.4067    1.0000 </r>
       <r>    3.4119    1.0000 </r>
       <r>    7.1577    0.0000 </r>
       <r>    9.7408    0.0000 </r>
       <r>   10.7730    0.0000 </r>
       <r>   11.1688    0.0000 </r>
       <r>   15.8635    0.0000 </r>
       <r>   16.5002    0.0000 </r>
       <r>   16.9136    0.0000 </r>
       <r>   17.0684    0.0000 </r>
       <r>   18.3301    0.0000 </r>
       <r>   21.3043    0.0000 </r>
       <r>   22.6015    0.0000 </r>
       <r>   23.9515    0.0000 </r>
      </set>
      <set comment="kpoint 34">
       <r>   -3.4311    1.0000 </r>
       <r>   -1.0615    1.0000 </r>
       <r>    2.0404    1.0000 </r>
       <r>    3.5125    1.0000 </r>
       <r>    7.2570    0.0000 </r>
       <r>   10.5694    0.0000 </r>
       <r>   10.9131    0.0000 </r>
       <r>   11.1052    0.0000 </r>
       <r>   14.7849    0.0000 </r>
       <r>   15.0654    0.0000 </r>
       <r>   17.6616    0.0000 </r>
       <r>   18.1608    0.0000 </r>
       <r>   18.6671    0.0000 </r>
       <r>   22.3225    0.0000 </r>
       <r>   23.3269    0.0000 </r>
       <r>   23.7377    0.0000 </r>
      </set>
      <set comment="kpoint 35">
       <r>   -3.4552    1.0000 </r>
       <r>   -1.0231    1.0000 </r>
       <r>    1.8318    1.0000 </r>
       <r>    3.7221    1.0000 </r>
       <r>    7.4637    0.0000 </r>
       <r>   10.5198    0.0000 </r>
       <r>   10.6735    0.0000 </r>
       <r>   12.5647    0.0000 </r>
       <r>   13.4716    0.0000 </r>
       <r>   13.5749    0.0000 </r>
       <r>   17.5380    0.0000 </r>
       <r>   19.7898    0.0000 </r>
       <r>   20.0550    0.0000 </r>
       <r>   20.8554    0.0000 </r>
       <r>   21.9051    0.0000 </r>
       <r>   23.9957    0.0000 </r>
      </set>
      <set comment="kpoint 36">
       <r>   -3.9347    1.0000 </r>
       <r>   -0.3511    1.0000 </r>
       <r>    1.8279    1.0000 </r>
       <r>    4.0219    1.0000 </r>
       <r>    7.7759    0.0000 </r>
       <r>   10.4040    0.0000 </r>
       <r>   10.4862    0.0000 </r>
       <r>   12.1321    0.0000 </r>
       <r>   12.3998    0.0000 </r>
       <r>   14.1867    0.0000 </r>
       <r>   17.7018    0.0000 </r>
       <r>   19.1530    0.0000 </r>
       <r>   19.7147    0.0000 </r>
       <r>   21.4403    0.0000 </r>
       <r>   21.7048    0.0000 </r>
       <r>   23.0409    0.0000 </r>
      </set>
      <set comment="kpoint 37">
       <r>   -4.4859    1.0000 </r>
       <r>    0.4544    1.0000 </r>
       <r>    2.1446    1.0000 </r>
       <r>    4.3741    1.0000 </r>
       <r>    8.1295    0.0000 </r>
       <r>    9.9237    0.0000 </r>
       <r>   10.2004    0.0000 </r>
       <r>   11.3095    0.0000 </r>
       <r>   11.7945    0.0000 </r>
       <r>   15.5797    0.0000 </r>
       <r>   17.3040    0.0000 </r>
       <r>   17.8241    0.0000 </r>
       <r>   18.7025    0.0000 </r>
       <r>   21.1912    0.0000 </r>
       <r>   22.3956    0.0000 </r>
       <r>   22.8413    0.0000 </r>
      </set>
      <set comment="kpoint 38">
       <r>   -4.6155    1.0000 </r>
       <r>    0.9746    1.0000 </r>
       <r>    3.2927    1.0000 </r>
       <r>    3.2927    1.0000 </r>
       <r>    6.4011    0.0000 </r>
       <r>    7.8782    0.0000 </r>
       <r>   12.1409    0.0000 </r>
       <r>   12.1409    0.0000 </r>
       <r>   14.4186    0.0000 </r>
       <r>   14.9997    0.0000 </r>
       <r>   17.8735    0.0000 </r>
       <r>   18.8101    0.0000 </r>
       <r>   18.8101    0.0000 </r>
       <r>   20.0085    0.0000 </r>
       <r>   21.6865    0.0000 </r>
       <r>   21.6865    0.0000 </r>
      </set>
      <set comment="kpoint 39">
       <r>   -4.1687    1.0000 </r>
       <r>    0.2448    1.0000 </r>
       <r>    2.8781    1.0000 </r>
       <r>    3.1310    1.0000 </r>
       <r>    6.5140    0.0000 </r>
       <r>    7.6581    0.0000 </r>
       <r>   12.4307    0.0000 </r>
       <r>   12.5457    0.0000 </r>
       <r>   15.5941    0.0000 </r>
       <r>   15.6870    0.0000 </r>
       <r>   17.6961    0.0000 </r>
       <r>   18.3404    0.0000 </r>
       <r>   19.4057    0.0000 </r>
       <r>   20.1664    0.0000 </r>
       <r>   21.1518    0.0000 </r>
       <r>   22.2643    0.0000 </r>
      </set>
      <set comment="kpoint 40">
       <r>   -3.6260    1.0000 </r>
       <r>   -0.5113    1.0000 </r>
       <r>    2.2534    1.0000 </r>
       <r>    3.0893    1.0000 </r>
       <r>    6.7110    0.0000 </r>
       <r>    8.2009    0.0000 </r>
       <r>   12.3325    0.0000 </r>
       <r>   12.4771    0.0000 </r>
       <r>   16.4566    0.0000 </r>
       <r>   16.7760    0.0000 </r>
       <r>   16.9402    0.0000 </r>
       <r>   17.2132    0.0000 </r>
       <r>   19.6317    0.0000 </r>
       <r>   20.6663    0.0000 </r>
       <r>   21.5576    0.0000 </r>
       <r>   23.2515    0.0000 </r>
      </set>
      <set comment="kpoint 41">
       <r>   -3.0964    1.0000 </r>
       <r>   -1.1464    1.0000 </r>
       <r>    1.6986    1.0000 </r>
       <r>    3.1693    1.0000 </r>
       <r>    6.8288    0.0000 </r>
       <r>    9.3585    0.0000 </r>
       <r>   12.1755    0.0000 </r>
       <r>   12.2193    0.0000 </r>
       <r>   15.0369    0.0000 </r>
       <r>   15.1679    0.0000 </r>
       <r>   18.3952    0.0000 </r>
       <r>   18.7414    0.0000 </r>
       <r>   19.3136    0.0000 </r>
       <r>   21.9521    0.0000 </r>
       <r>   22.0290    0.0000 </r>
       <r>   23.6016    0.0000 </r>
      </set>
      <set comment="kpoint 42">
       <r>   -2.9639    1.0000 </r>
       <r>   -1.2824    1.0000 </r>
       <r>    1.3591    1.0000 </r>
       <r>    3.3651    1.0000 </r>
       <r>    7.0412    0.0000 </r>
       <r>   10.7756    0.0000 </r>
       <r>   11.8935    0.0000 </r>
       <r>   12.0705    0.0000 </r>
       <r>   13.5302    0.0000 </r>
       <r>   13.6852    0.0000 </r>
       <r>   19.2392    0.0000 </r>
       <r>   20.0452    0.0000 </r>
       <r>   20.0989    0.0000 </r>
       <r>   21.5560    0.0000 </r>
       <r>   22.1223    0.0000 </r>
       <r>   22.9988    0.0000 </r>
      </set>
      <set comment="kpoint 43">
       <r>   -3.3894    1.0000 </r>
       <r>   -0.8266    1.0000 </r>
       <r>    1.3540    1.0000 </r>
       <r>    3.6607    1.0000 </r>
       <r>    7.3737    0.0000 </r>
       <r>   11.3312    0.0000 </r>
       <r>   11.5593    0.0000 </r>
       <r>   12.2867    0.0000 </r>
       <r>   12.6180    0.0000 </r>
       <r>   12.6922    0.0000 </r>
       <r>   19.1355    0.0000 </r>
       <r>   19.6846    0.0000 </r>
       <r>   20.8021    0.0000 </r>
       <r>   21.4167    0.0000 </r>
       <r>   21.7675    0.0000 </r>
       <r>   22.4309    0.0000 </r>
      </set>
      <set comment="kpoint 44">
       <r>   -3.7581    1.0000 </r>
       <r>   -0.3418    1.0000 </r>
       <r>    2.9384    1.0000 </r>
       <r>    2.9384    1.0000 </r>
       <r>    6.1858    0.0037 </r>
       <r>    7.0367    0.0000 </r>
       <r>   13.5298    0.0000 </r>
       <r>   13.5298    0.0000 </r>
       <r>   15.9992    0.0000 </r>
       <r>   16.0071    0.0000 </r>
       <r>   18.1084    0.0000 </r>
       <r>   18.1084    0.0000 </r>
       <r>   18.9027    0.0000 </r>
       <r>   20.2737    0.0000 </r>
       <r>   21.5035    0.0000 </r>
       <r>   22.2668    0.0000 </r>
      </set>
      <set comment="kpoint 45">
       <r>   -3.2388    1.0000 </r>
       <r>   -0.9908    1.0000 </r>
       <r>    2.5545    1.0000 </r>
       <r>    2.8653    1.0000 </r>
       <r>    6.3633    0.0000 </r>
       <r>    7.0214    0.0000 </r>
       <r>   13.8474    0.0000 </r>
       <r>   13.8502    0.0000 </r>
       <r>   16.7338    0.0000 </r>
       <r>   16.9199    0.0000 </r>
       <r>   16.9653    0.0000 </r>
       <r>   17.2946    0.0000 </r>
       <r>   19.5282    0.0000 </r>
       <r>   19.9345    0.0000 </r>
       <r>   21.5515    0.0000 </r>
       <r>   23.2836    0.0000 </r>
      </set>
      <set comment="kpoint 46">
       <r>   -2.6794    1.0000 </r>
       <r>   -1.5721    1.0000 </r>
       <r>    1.9327    1.0000 </r>
       <r>    2.9159    1.0000 </r>
       <r>    6.5147    0.0000 </r>
       <r>    7.8900    0.0000 </r>
       <r>   13.6540    0.0000 </r>
       <r>   13.7728    0.0000 </r>
       <r>   15.2377    0.0000 </r>
       <r>   15.3800    0.0000 </r>
       <r>   18.4415    0.0000 </r>
       <r>   18.6519    0.0000 </r>
       <r>   20.0879    0.0000 </r>
       <r>   20.3181    0.0000 </r>
       <r>   21.4271    0.0000 </r>
       <r>   23.5260    0.0000 </r>
      </set>
      <set comment="kpoint 47">
       <r>   -2.5185    1.0000 </r>
       <r>   -1.6922    1.0000 </r>
       <r>    1.4450    1.0000 </r>
       <r>    3.0868    1.0000 </r>
       <r>    6.7126    0.0000 </r>
       <r>    9.2335    0.0000 </r>
       <r>   13.0688    0.0000 </r>
       <r>   13.5694    0.0000 </r>
       <r>   13.6838    0.0000 </r>
       <r>   14.1412    0.0000 </r>
       <r>   19.6767    0.0000 </r>
       <r>   19.9740    0.0000 </r>
       <r>   20.4141    0.0000 </r>
       <r>   21.1708    0.0000 </r>
       <r>   21.1843    0.0000 </r>
       <r>   21.9989    0.0000 </r>
      </set>
      <set comment="kpoint 48">
       <r>   -2.7425    1.0000 </r>
       <r>   -1.5932    1.0000 </r>
       <r>    2.7585    1.0000 </r>
       <r>    2.7585    1.0000 </r>
       <r>    6.2023    0.0026 </r>
       <r>    6.4790    0.0000 </r>
       <r>   14.9144    0.0000 </r>
       <r>   14.9144    0.0000 </r>
       <r>   16.7219    0.0000 </r>
       <r>   16.7219    0.0000 </r>
       <r>   17.2149    0.0000 </r>
       <r>   17.4813    0.0000 </r>
       <r>   18.6382    0.0000 </r>
       <r>   18.6423    0.0000 </r>
       <r>   23.2694    0.0000 </r>
       <r>   24.0590    0.0000 </r>
      </set>
      <set comment="kpoint 49">
       <r>   -2.2075    1.0000 </r>
       <r>   -2.1281    1.0000 </r>
       <r>    2.4470    1.0000 </r>
       <r>    2.7758    1.0000 </r>
       <r>    6.3526    0.0001 </r>
       <r>    6.7663    0.0000 </r>
       <r>   14.8854    0.0000 </r>
       <r>   15.0499    0.0000 </r>
       <r>   15.6501    0.0000 </r>
       <r>   15.8233    0.0000 </r>
       <r>   18.3656    0.0000 </r>
       <r>   18.3813    0.0000 </r>
       <r>   18.3946    0.0000 </r>
       <r>   18.8499    0.0000 </r>
       <r>   23.3360    0.0000 </r>
       <r>   23.6293    0.0000 </r>
      </set>
      <set comment="kpoint 50">
       <r>   -5.6949    1.0000 </r>
       <r>    3.0281    1.0000 </r>
       <r>    4.0841    1.0000 </r>
       <r>    4.8720    1.0000 </r>
       <r>    7.8553    0.0000 </r>
       <r>    8.8569    0.0000 </r>
       <r>    9.4106    0.0000 </r>
       <r>   10.3912    0.0000 </r>
       <r>   12.1145    0.0000 </r>
       <r>   13.4712    0.0000 </r>
       <r>   15.0919    0.0000 </r>
       <r>   16.7618    0.0000 </r>
       <r>   17.6193    0.0000 </r>
       <r>   19.2416    0.0000 </r>
       <r>   23.3785    0.0000 </r>
       <r>   23.4867    0.0000 </r>
      </set>
      <set comment="kpoint 51">
       <r>   -5.3325    1.0000 </r>
       <r>    1.9039    1.0000 </r>
       <r>    3.5970    1.0000 </r>
       <r>    4.6459    1.0000 </r>
       <r>    8.0801    0.0000 </r>
       <r>    8.8562    0.0000 </r>
       <r>    9.8209    0.0000 </r>
       <r>   10.4605    0.0000 </r>
       <r>   12.5440    0.0000 </r>
       <r>   14.1863    0.0000 </r>
       <r>   15.5374    0.0000 </r>
       <r>   17.1011    0.0000 </r>
       <r>   18.6832    0.0000 </r>
       <r>   20.6246    0.0000 </r>
       <r>   21.4965    0.0000 </r>
       <r>   23.5592    0.0000 </r>
      </set>
      <set comment="kpoint 52">
       <r>   -4.8485    1.0000 </r>
       <r>    0.7047    1.0000 </r>
       <r>    3.3228    1.0000 </r>
       <r>    4.3564    1.0000 </r>
       <r>    8.0918    0.0000 </r>
       <r>    8.8689    0.0000 </r>
       <r>    9.9326    0.0000 </r>
       <r>   10.8953    0.0000 </r>
       <r>   13.2456    0.0000 </r>
       <r>   15.2462    0.0000 </r>
       <r>   15.4412    0.0000 </r>
       <r>   18.0158    0.0000 </r>
       <r>   19.2389    0.0000 </r>
       <r>   20.7917    0.0000 </r>
       <r>   21.3043    0.0000 </r>
       <r>   23.0411    0.0000 </r>
      </set>
      <set comment="kpoint 53">
       <r>   -4.2933    1.0000 </r>
       <r>   -0.3649    1.0000 </r>
       <r>    3.1727    1.0000 </r>
       <r>    4.1107    1.0000 </r>
       <r>    7.9947    0.0000 </r>
       <r>    8.7752    0.0000 </r>
       <r>    9.8688    0.0000 </r>
       <r>   11.8467    0.0000 </r>
       <r>   14.1980    0.0000 </r>
       <r>   14.9468    0.0000 </r>
       <r>   16.8498    0.0000 </r>
       <r>   17.0960    0.0000 </r>
       <r>   19.1163    0.0000 </r>
       <r>   20.7061    0.0000 </r>
       <r>   22.0274    0.0000 </r>
       <r>   23.0587    0.0000 </r>
      </set>
      <set comment="kpoint 54">
       <r>   -3.8302    1.0000 </r>
       <r>   -1.0930    1.0000 </r>
       <r>    3.1094    1.0000 </r>
       <r>    3.9703    1.0000 </r>
       <r>    7.9314    0.0000 </r>
       <r>    8.6846    0.0000 </r>
       <r>    9.7974    0.0000 </r>
       <r>   13.0462    0.0000 </r>
       <r>   14.1643    0.0000 </r>
       <r>   15.2575    0.0000 </r>
       <r>   16.4424    0.0000 </r>
       <r>   17.6102    0.0000 </r>
       <r>   18.4155    0.0000 </r>
       <r>   19.9360    0.0000 </r>
       <r>   23.2564    0.0000 </r>
       <r>   24.9395    0.0000 </r>
      </set>
      <set comment="kpoint 55">
       <r>   -5.2051    1.0000 </r>
       <r>    1.9339    1.0000 </r>
       <r>    3.4431    1.0000 </r>
       <r>    4.0752    1.0000 </r>
       <r>    7.3504    0.0000 </r>
       <r>    9.1961    0.0000 </r>
       <r>   10.1090    0.0000 </r>
       <r>   10.6982    0.0000 </r>
       <r>   13.1773    0.0000 </r>
       <r>   14.3957    0.0000 </r>
       <r>   16.2874    0.0000 </r>
       <r>   17.4648    0.0000 </r>
       <r>   18.5358    0.0000 </r>
       <r>   20.1295    0.0000 </r>
       <r>   21.5283    0.0000 </r>
       <r>   23.1759    0.0000 </r>
      </set>
      <set comment="kpoint 56">
       <r>   -4.7596    1.0000 </r>
       <r>    0.9599    1.0000 </r>
       <r>    2.9552    1.0000 </r>
       <r>    3.8303    1.0000 </r>
       <r>    7.6420    0.0000 </r>
       <r>    9.2991    0.0000 </r>
       <r>    9.8987    0.0000 </r>
       <r>   11.0793    0.0000 </r>
       <r>   13.8331    0.0000 </r>
       <r>   15.6333    0.0000 </r>
       <r>   16.3090    0.0000 </r>
       <r>   17.9529    0.0000 </r>
       <r>   19.1611    0.0000 </r>
       <r>   20.4588    0.0000 </r>
       <r>   20.9179    0.0000 </r>
       <r>   22.9427    0.0000 </r>
      </set>
      <set comment="kpoint 57">
       <r>   -4.2189    1.0000 </r>
       <r>   -0.0489    1.0000 </r>
       <r>    2.6270    1.0000 </r>
       <r>    3.6079    1.0000 </r>
       <r>    7.7714    0.0000 </r>
       <r>    9.6044    0.0000 </r>
       <r>   10.0775    0.0000 </r>
       <r>   11.1080    0.0000 </r>
       <r>   14.8253    0.0000 </r>
       <r>   15.6457    0.0000 </r>
       <r>   17.1199    0.0000 </r>
       <r>   17.3962    0.0000 </r>
       <r>   19.1005    0.0000 </r>
       <r>   20.4567    0.0000 </r>
       <r>   22.1454    0.0000 </r>
       <r>   23.7386    0.0000 </r>
      </set>
      <set comment="kpoint 58">
       <r>   -3.6906    1.0000 </r>
       <r>   -0.8699    1.0000 </r>
       <r>    2.3911    1.0000 </r>
       <r>    3.5199    1.0000 </r>
       <r>    7.8423    0.0000 </r>
       <r>    9.3479    0.0000 </r>
       <r>   11.0018    0.0000 </r>
       <r>   11.2962    0.0000 </r>
       <r>   14.4610    0.0000 </r>
       <r>   15.8572    0.0000 </r>
       <r>   16.7856    0.0000 </r>
       <r>   17.8769    0.0000 </r>
       <r>   18.6874    0.0000 </r>
       <r>   21.7740    0.0000 </r>
       <r>   22.5938    0.0000 </r>
       <r>   24.0982    0.0000 </r>
      </set>
      <set comment="kpoint 59">
       <r>   -3.5004    1.0000 </r>
       <r>   -1.1313    1.0000 </r>
       <r>    2.2411    1.0000 </r>
       <r>    3.5896    1.0000 </r>
       <r>    7.9894    0.0000 </r>
       <r>    9.1614    0.0000 </r>
       <r>   10.9198    0.0000 </r>
       <r>   12.6993    0.0000 </r>
       <r>   13.0681    0.0000 </r>
       <r>   15.3098    0.0000 </r>
       <r>   16.9934    0.0000 </r>
       <r>   18.0175    0.0000 </r>
       <r>   20.2313    0.0000 </r>
       <r>   20.5354    0.0000 </r>
       <r>   23.0720    0.0000 </r>
       <r>   24.1069    0.0000 </r>
      </set>
      <set comment="kpoint 60">
       <r>   -3.8646    1.0000 </r>
       <r>   -0.6112    1.0000 </r>
       <r>    2.2068    1.0000 </r>
       <r>    3.7957    1.0000 </r>
       <r>    8.2316    0.0000 </r>
       <r>    9.0548    0.0000 </r>
       <r>   10.8568    0.0000 </r>
       <r>   11.7048    0.0000 </r>
       <r>   14.0981    0.0000 </r>
       <r>   14.2357    0.0000 </r>
       <r>   17.0758    0.0000 </r>
       <r>   18.9455    0.0000 </r>
       <r>   19.4692    0.0000 </r>
       <r>   20.8689    0.0000 </r>
       <r>   21.9929    0.0000 </r>
       <r>   23.5754    0.0000 </r>
      </set>
      <set comment="kpoint 61">
       <r>   -4.4186    1.0000 </r>
       <r>    0.2886    1.0000 </r>
       <r>    2.3424    1.0000 </r>
       <r>    4.0963    1.0000 </r>
       <r>    8.5282    0.0000 </r>
       <r>    8.9505    0.0000 </r>
       <r>   10.5519    0.0000 </r>
       <r>   10.8635    0.0000 </r>
       <r>   13.0388    0.0000 </r>
       <r>   15.5551    0.0000 </r>
       <r>   17.2542    0.0000 </r>
       <r>   17.6034    0.0000 </r>
       <r>   19.2157    0.0000 </r>
       <r>   20.9482    0.0000 </r>
       <r>   21.6399    0.0000 </r>
       <r>   23.4141    0.0000 </r>
      </set>
      <set comment="kpoint 62">
       <r>   -4.9310    1.0000 </r>
       <r>    1.2101    1.0000 </r>
       <r>    2.7647    1.0000 </r>
       <r>    4.4222    1.0000 </r>
       <r>    8.5579    0.0000 </r>
       <r>    8.8151    0.0000 </r>
       <r>   10.2236    0.0000 </r>
       <r>   10.4174    0.0000 </r>
       <r>   12.5274    0.0000 </r>
       <r>   15.6895    0.0000 </r>
       <r>   16.1751    0.0000 </r>
       <r>   17.3357    0.0000 </r>
       <r>   19.1410    0.0000 </r>
       <r>   20.2214    0.0000 </r>
       <r>   21.5987    0.0000 </r>
       <r>   23.6123    0.0000 </r>
      </set>
      <set comment="kpoint 63">
       <r>   -4.5311    1.0000 </r>
       <r>    0.7821    1.0000 </r>
       <r>    2.9390    1.0000 </r>
       <r>    3.3598    1.0000 </r>
       <r>    6.9519    0.0000 </r>
       <r>    8.2560    0.0000 </r>
       <r>   11.1679    0.0000 </r>
       <r>   12.0833    0.0000 </r>
       <r>   14.5129    0.0000 </r>
       <r>   15.6836    0.0000 </r>
       <r>   17.2023    0.0000 </r>
       <r>   18.4112    0.0000 </r>
       <r>   19.1926    0.0000 </r>
       <r>   20.2332    0.0000 </r>
       <r>   20.7787    0.0000 </r>
       <r>   22.5951    0.0000 </r>
      </set>
      <set comment="kpoint 64">
       <r>   -4.0167    1.0000 </r>
       <r>   -0.0193    1.0000 </r>
       <r>    2.4252    1.0000 </r>
       <r>    3.1449    1.0000 </r>
       <r>    7.2657    0.0000 </r>
       <r>    8.5490    0.0000 </r>
       <r>   10.9344    0.0000 </r>
       <r>   12.4434    0.0000 </r>
       <r>   15.3003    0.0000 </r>
       <r>   16.2074    0.0000 </r>
       <r>   17.2301    0.0000 </r>
       <r>   18.0854    0.0000 </r>
       <r>   19.5051    0.0000 </r>
       <r>   19.9108    0.0000 </r>
       <r>   21.7423    0.0000 </r>
       <r>   22.7326    0.0000 </r>
      </set>
      <set comment="kpoint 65">
       <r>   -3.4603    1.0000 </r>
       <r>   -0.7809    1.0000 </r>
       <r>    1.9606    1.0000 </r>
       <r>    3.0794    1.0000 </r>
       <r>    7.3988    0.0000 </r>
       <r>    9.5535    0.0000 </r>
       <r>   10.6662    0.0000 </r>
       <r>   12.4196    0.0000 </r>
       <r>   14.6876    0.0000 </r>
       <r>   16.4103    0.0000 </r>
       <r>   17.0906    0.0000 </r>
       <r>   18.7403    0.0000 </r>
       <r>   18.9494    0.0000 </r>
       <r>   21.2721    0.0000 </r>
       <r>   22.9230    0.0000 </r>
       <r>   23.2925    0.0000 </r>
      </set>
      <set comment="kpoint 66">
       <r>   -3.1122    1.0000 </r>
       <r>   -1.2053    1.0000 </r>
       <r>    1.6340    1.0000 </r>
       <r>    3.1752    1.0000 </r>
       <r>    7.5632    0.0000 </r>
       <r>   10.3231    0.0000 </r>
       <r>   11.0205    0.0000 </r>
       <r>   12.2858    0.0000 </r>
       <r>   13.1448    0.0000 </r>
       <r>   15.4358    0.0000 </r>
       <r>   18.0377    0.0000 </r>
       <r>   18.6493    0.0000 </r>
       <r>   20.4308    0.0000 </r>
       <r>   22.1615    0.0000 </r>
       <r>   22.7123    0.0000 </r>
       <r>   23.0328    0.0000 </r>
      </set>
      <set comment="kpoint 67">
       <r>   -3.3531    1.0000 </r>
       <r>   -0.9093    1.0000 </r>
       <r>    1.5148    1.0000 </r>
       <r>    3.4060    1.0000 </r>
       <r>    7.8371    0.0000 </r>
       <r>   10.1513    0.0000 </r>
       <r>   11.6285    0.0000 </r>
       <r>   12.1270    0.0000 </r>
       <r>   12.6472    0.0000 </r>
       <r>   14.0912    0.0000 </r>
       <r>   18.4892    0.0000 </r>
       <r>   19.6553    0.0000 </r>
       <r>   20.6565    0.0000 </r>
       <r>   21.0209    0.0000 </r>
       <r>   22.0777    0.0000 </r>
       <r>   22.7769    0.0000 </r>
      </set>
      <set comment="kpoint 68">
       <r>   -3.8907    1.0000 </r>
       <r>   -0.2645    1.0000 </r>
       <r>    1.7085    1.0000 </r>
       <r>    3.7352    1.0000 </r>
       <r>    8.2021    0.0000 </r>
       <r>    9.7467    0.0000 </r>
       <r>   10.7271    0.0000 </r>
       <r>   11.7079    0.0000 </r>
       <r>   13.1933    0.0000 </r>
       <r>   14.2369    0.0000 </r>
       <r>   18.4468    0.0000 </r>
       <r>   19.1042    0.0000 </r>
       <r>   19.2294    0.0000 </r>
       <r>   20.9473    0.0000 </r>
       <r>   22.4293    0.0000 </r>
       <r>   23.3000    0.0000 </r>
      </set>
      <set comment="kpoint 69">
       <r>   -3.6872    1.0000 </r>
       <r>   -0.4087    1.0000 </r>
       <r>    2.6106    1.0000 </r>
       <r>    2.8440    1.0000 </r>
       <r>    6.7295    0.0000 </r>
       <r>    7.4726    0.0000 </r>
       <r>   12.3949    0.0000 </r>
       <r>   13.5166    0.0000 </r>
       <r>   15.8696    0.0000 </r>
       <r>   16.5966    0.0000 </r>
       <r>   17.1398    0.0000 </r>
       <r>   18.2390    0.0000 </r>
       <r>   19.3976    0.0000 </r>
       <r>   20.5489    0.0000 </r>
       <r>   21.2140    0.0000 </r>
       <r>   22.0733    0.0000 </r>
      </set>
      <set comment="kpoint 70">
       <r>   -3.1289    1.0000 </r>
       <r>   -1.0549    1.0000 </r>
       <r>    2.0632    1.0000 </r>
       <r>    2.7379    1.0000 </r>
       <r>    7.0267    0.0000 </r>
       <r>    8.0593    0.0000 </r>
       <r>   12.1325    0.0000 </r>
       <r>   13.8453    0.0000 </r>
       <r>   14.9551    0.0000 </r>
       <r>   16.6415    0.0000 </r>
       <r>   17.2549    0.0000 </r>
       <r>   18.8424    0.0000 </r>
       <r>   19.8444    0.0000 </r>
       <r>   20.5702    0.0000 </r>
       <r>   21.7134    0.0000 </r>
       <r>   22.8873    0.0000 </r>
      </set>
      <set comment="kpoint 71">
       <r>   -2.6740    1.0000 </r>
       <r>   -1.5162    1.0000 </r>
       <r>    1.5429    1.0000 </r>
       <r>    2.8330    1.0000 </r>
       <r>    7.1913    0.0000 </r>
       <r>    9.3034    0.0000 </r>
       <r>   11.8544    0.0000 </r>
       <r>   13.2102    0.0000 </r>
       <r>   13.8702    0.0000 </r>
       <r>   15.5327    0.0000 </r>
       <r>   18.3028    0.0000 </r>
       <r>   19.9127    0.0000 </r>
       <r>   20.6085    0.0000 </r>
       <r>   20.7405    0.0000 </r>
       <r>   22.4180    0.0000 </r>
       <r>   22.6851    0.0000 </r>
      </set>
      <set comment="kpoint 72">
       <r>   -2.8382    1.0000 </r>
       <r>   -1.3383    1.0000 </r>
       <r>    1.3031    1.0000 </r>
       <r>    3.0662    1.0000 </r>
       <r>    7.4595    0.0000 </r>
       <r>   10.7259    0.0000 </r>
       <r>   11.5061    0.0000 </r>
       <r>   11.9472    0.0000 </r>
       <r>   13.3641    0.0000 </r>
       <r>   14.3945    0.0000 </r>
       <r>   19.4411    0.0000 </r>
       <r>   20.1135    0.0000 </r>
       <r>   20.3532    0.0000 </r>
       <r>   21.3823    0.0000 </r>
       <r>   21.8672    0.0000 </r>
       <r>   23.2924    0.0000 </r>
      </set>
      <set comment="kpoint 73">
       <r>   -2.6950    1.0000 </r>
       <r>   -1.5869    1.0000 </r>
       <r>    2.4770    1.0000 </r>
       <r>    2.5514    1.0000 </r>
       <r>    6.7238    0.0000 </r>
       <r>    6.9639    0.0000 </r>
       <r>   13.7051    0.0000 </r>
       <r>   14.7645    0.0000 </r>
       <r>   15.4507    0.0000 </r>
       <r>   16.5615    0.0000 </r>
       <r>   17.4017    0.0000 </r>
       <r>   18.6917    0.0000 </r>
       <r>   18.7406    0.0000 </r>
       <r>   20.1006    0.0000 </r>
       <r>   22.2689    0.0000 </r>
       <r>   23.4666    0.0000 </r>
      </set>
      <set comment="kpoint 74">
       <r>   -2.2480    1.0000 </r>
       <r>   -1.9894    1.0000 </r>
       <r>    1.9344    1.0000 </r>
       <r>    2.6077    1.0000 </r>
       <r>    6.9457    0.0000 </r>
       <r>    7.8948    0.0000 </r>
       <r>   13.3454    0.0000 </r>
       <r>   13.5443    0.0000 </r>
       <r>   15.2052    0.0000 </r>
       <r>   15.7082    0.0000 </r>
       <r>   18.1781    0.0000 </r>
       <r>   18.7983    0.0000 </r>
       <r>   20.2381    0.0000 </r>
       <r>   20.7072    0.0000 </r>
       <r>   22.2896    0.0000 </r>
       <r>   22.6861    0.0000 </r>
      </set>
      <set comment="kpoint 75">
       <r>   -4.2834    1.0000 </r>
       <r>    0.3094    1.0000 </r>
       <r>    2.2842    1.0000 </r>
       <r>    3.5411    1.0000 </r>
       <r>    8.1961    0.0000 </r>
       <r>    9.2744    0.0000 </r>
       <r>    9.6083    0.0000 </r>
       <r>   11.9245    0.0000 </r>
       <r>   13.9384    0.0000 </r>
       <r>   15.8873    0.0000 </r>
       <r>   17.3390    0.0000 </r>
       <r>   18.2209    0.0000 </r>
       <r>   19.0333    0.0000 </r>
       <r>   20.5363    0.0000 </r>
       <r>   21.2934    0.0000 </r>
       <r>   23.3179    0.0000 </r>
      </set>
      <set comment="kpoint 76">
       <r>   -3.7306    1.0000 </r>
       <r>   -0.4524    1.0000 </r>
       <r>    1.9152    1.0000 </r>
       <r>    3.2313    1.0000 </r>
       <r>    8.5565    0.0000 </r>
       <r>    9.2467    0.0000 </r>
       <r>    9.9758    0.0000 </r>
       <r>   12.3234    0.0000 </r>
       <r>   14.3870    0.0000 </r>
       <r>   14.7075    0.0000 </r>
       <r>   18.1048    0.0000 </r>
       <r>   18.9922    0.0000 </r>
       <r>   19.5637    0.0000 </r>
       <r>   20.1543    0.0000 </r>
       <r>   22.4889    0.0000 </r>
       <r>   23.2476    0.0000 </r>
      </set>
      <set comment="kpoint 77">
       <r>   -3.2527    1.0000 </r>
       <r>   -1.0723    1.0000 </r>
       <r>    1.7701    1.0000 </r>
       <r>    3.0446    1.0000 </r>
       <r>    8.7177    0.0000 </r>
       <r>    8.9455    0.0000 </r>
       <r>   11.2348    0.0000 </r>
       <r>   12.3947    0.0000 </r>
       <r>   12.7873    0.0000 </r>
       <r>   15.9086    0.0000 </r>
       <r>   17.4574    0.0000 </r>
       <r>   18.5228    0.0000 </r>
       <r>   20.7391    0.0000 </r>
       <r>   21.7796    0.0000 </r>
       <r>   22.2343    0.0000 </r>
       <r>   23.2885    0.0000 </r>
      </set>
      <set comment="kpoint 78">
       <r>   -3.4846    1.0000 </r>
       <r>   -0.6201    1.0000 </r>
       <r>    2.0094    1.0000 </r>
       <r>    2.7473    1.0000 </r>
       <r>    7.9809    0.0000 </r>
       <r>    8.5849    0.0000 </r>
       <r>   10.6172    0.0000 </r>
       <r>   13.4757    0.0000 </r>
       <r>   14.6161    0.0000 </r>
       <r>   15.4844    0.0000 </r>
       <r>   18.4536    0.0000 </r>
       <r>   19.0649    0.0000 </r>
       <r>   19.5433    0.0000 </r>
       <r>   19.9480    0.0000 </r>
       <r>   21.8539    0.0000 </r>
       <r>   22.8955    0.0000 </r>
      </set>
      <set comment="kpoint 79">
       <r>   -2.9444    1.0000 </r>
       <r>   -1.2008    1.0000 </r>
       <r>    1.6765    1.0000 </r>
       <r>    2.5305    1.0000 </r>
       <r>    8.3168    0.0000 </r>
       <r>    9.4974    0.0000 </r>
       <r>   10.3325    0.0000 </r>
       <r>   12.9182    0.0000 </r>
       <r>   13.8933    0.0000 </r>
       <r>   16.3076    0.0000 </r>
       <r>   17.5798    0.0000 </r>
       <r>   19.6191    0.0000 </r>
       <r>   20.3444    0.0000 </r>
       <r>   20.9693    0.0000 </r>
       <r>   22.2981    0.0000 </r>
       <r>   23.7472    0.0000 </r>
      </set>
      <set comment="kpoint 80">
       <r>   -2.7625    1.0000 </r>
       <r>   -1.3853    1.0000 </r>
       <r>    1.4735    1.0000 </r>
       <r>    2.5828    1.0000 </r>
       <r>    8.5371    0.0000 </r>
       <r>    9.9357    0.0000 </r>
       <r>   10.9878    0.0000 </r>
       <r>   11.4377    0.0000 </r>
[...]
       </set>
       <set comment="band 12">
        <r>  0.0030  0.0138  0.0471  0.0442  0.0000  0.0000  0.0000  0.0000  0.0000 </r>
        <r>  0.0030  0.0138  0.0471  0.0442  0.0000  0.0000  0.0000  0.0000  0.0000 </r>
       </set>
       <set comment="band 13">
        <r>  0.0149  0.0008  0.0403  0.0086  0.0000  0.0000  0.0000  0.0000  0.0000 </r>
        <r>  0.0149  0.0008  0.0403  0.0086  0.0000  0.0000  0.0000  0.0000  0.0000 </r>
       </set>
       <set comment="band 14">
        <r>  0.0166  0.0301  0.0622  0.0089  0.0000  0.0000  0.0000  0.0000  0.0000 </r>
        <r>  0.0166  0.0301  0.0622  0.0089  0.0000  0.0000  0.0000  0.0000  0.0000 </r>
       </set>
       <set comment="band 15">
        <r>  0.0287  0.0001  0.0006  0.0083  0.0000  0.0000  0.0000  0.0000  0.0000 </r>
        <r>  0.0287  0.0001  0.0006  0.0083  0.0000  0.0000  0.0000  0.0000  0.0000 </r>
       </set>
       <set comment="band 16">
        <r>  0.0108  0.0009  0.0259  0.0259  0.0000  0.0000  0.0000  0.0000  0.0000 </r>
        <r>  0.0108  0.0009  0.0259  0.0259  0.0000  0.0000  0.0000  0.0000  0.0000 </r>
       </set>
      </set>
      <set comment="kpoint 80">
       <set comment="band 1">
        <r>  0.2067  0.0015  0.0142  0.0137  0.0000  0.0000  0.0000  0.0000  0.0000 </r>
        <r>  0.2067  0.0015  0.0142  0.0137  0.0000  0.0000  0.0000  0.0000  0.0000 </r>
       </set>
       <set comment="band 2">
        <r>  0.1804  0.0040  0.0304  0.0195  0.0000  0.0000  0.0000  0.0000  0.0000 </r>
        <r>  0.1804  0.0040  0.0304  0.0195  0.0000  0.0000  0.0000  0.0000  0.0000 </r>
       </set>
       <set comment="band 3">
        <r>  0.0053  0.0547  0.0532  0.0425  0.0000  0.0000  0.0000  0.0000  0.0000 </r>
        <r>  0.0053  0.0547  0.0532  0.0425  0.0000  0.0000  0.0000  0.0000  0.0000 </r>
       </set>
       <set comment="band 4">
        <r>  0.0018  0.0815  0.0270  0.0612  0.0000  0.0000  0.0000  0.0000  0.0000 </r>
        <r>  0.0018  0.0815  0.0270  0.0612  0.0000  0.0000  0.0000  0.0000  0.0000 </r>
       </set>
       <set comment="band 5">
        <r>  0.0323  0.0395  0.0269  0.0122  0.0000  0.0000  0.0000  0.0000  0.0000 </r>
        <r>  0.0323  0.0395  0.0269  0.0122  0.0000  0.0000  0.0000  0.0000  0.0000 </r>
       </set>
       <set comment="band 6">
        <r>  0.0235  0.0545  0.0182  0.0196  0.0000  0.0000  0.0000  0.0000  0.0000 </r>
        <r>  0.0235  0.0545  0.0182  0.0196  0.0000  0.0000  0.0000  0.0000  0.0000 </r>
       </set>
       <set comment="band 7">
        <r>  0.0271  0.0457  0.0173  0.0281  0.0000  0.0000  0.0000  0.0000  0.0000 </r>
        <r>  0.0271  0.0457  0.0173  0.0281  0.0000  0.0000  0.0000  0.0000  0.0000 </r>
       </set>
       <set comment="band 8">
        <r>  0.0380  0.0187  0.0470  0.0477  0.0000  0.0000  0.0000  0.0000  0.0000 </r>
        <r>  0.0380  0.0187  0.0470  0.0477  0.0000  0.0000  0.0000  0.0000  0.0000 </r>
       </set>
       <set comment="band 9">
        <r>  0.0104  0.0368  0.0549  0.0392  0.0000  0.0000  0.0000  0.0000  0.0000 </r>
        <r>  0.0104  0.0368  0.0549  0.0392  0.0000  0.0000  0.0000  0.0000  0.0000 </r>
       </set>
       <set comment="band 10">
        <r>  0.0139  0.0204  0.0160  0.0627  0.0000  0.0000  0.0000  0.0000  0.0000 </r>
        <r>  0.0139  0.0204  0.0160  0.0627  0.0000  0.0000  0.0000  0.0000  0.0000 </r>
       </set>
       <set comment="band 11">
        <r>  0.0142  0.0144  0.0775  0.0205  0.0000  0.0000  0.0000  0.0000  0.0000 </r>
        <r>  0.0142  0.0144  0.0775  0.0205  0.0000  0.0000  0.0000  0.0000  0.0000 </r>
       </set>
       <set comment="band 12">
        <r>  0.0038  0.0099  0.0352  0.0381  0.0000  0.0000  0.0000  0.0000  0.0000 </r>
        <r>  0.0038  0.0099  0.0352  0.0381  0.0000  0.0000  0.0000  0.0000  0.0000 </r>
       </set>
       <set comment="band 13">
        <r>  0.0186  0.0021  0.0206  0.0387  0.0000  0.0000  0.0000  0.0000  0.0000 </r>
        <r>  0.0186  0.0021  0.0206  0.0387  0.0000  0.0000  0.0000  0.0000  0.0000 </r>
       </set>
       <set comment="band 14">
        <r>  0.0096  0.0175  0.0326  0.0165  0.0000  0.0000  0.0000  0.0000  0.0000 </r>
        <r>  0.0096  0.0175  0.0326  0.0165  0.0000  0.0000  0.0000  0.0000  0.0000 </r>
       </set>
       <set comment="band 15">
        <r>  0.0088  0.0263  0.0319  0.0383  0.0000  0.0000  0.0000  0.0000  0.0000 </r>
        <r>  0.0088  0.0263  0.0319  0.0383  0.0000  0.0000  0.0000  0.0000  0.0000 </r>
       </set>
       <set comment="band 16">
        <r>  0.0239  0.0198  0.0049  0.0153  0.0000  0.0000  0.0000  0.0000  0.0000 </r>
        <r>  0.0239  0.0198  0.0049  0.0153  0.0000  0.0000  0.0000  0.0000  0.0000 </r>
       </set>
      </set>
      <set comment="kpoint 81">
       <set comment="band 1">
        <r>  0.2041  0.0028  0.0067  0.0173  0.0000  0.0000  0.0000  0.0000  0.0000 </r>
        <r>  0.2041  0.0028  0.0067  0.0173  0.0000  0.0000  0.0000  0.0000  0.0000 </r>
       </set>
       <set comment="band 2">
        <r>  0.1783  0.0046  0.0301  0.0240  0.0000  0.0000  0.0000  0.0000  0.0000 </r>
        <r>  0.1783  0.0046  0.0301  0.0240  0.0000  0.0000  0.0000  0.0000  0.0000 </r>
       </set>
       <set comment="band 3">
        <r>  0.0060  0.0528  0.0668  0.0309  0.0000  0.0000  0.0000  0.0000  0.0000 </r>
        <r>  0.0060  0.0528  0.0668  0.0309  0.0000  0.0000  0.0000  0.0000  0.0000 </r>
       </set>
       <set comment="band 4">
        <r>  0.0028  0.0842  0.0259  0.0628  0.0000  0.0000  0.0000  0.0000  0.0000 </r>
        <r>  0.0028  0.0842  0.0259  0.0628  0.0000  0.0000  0.0000  0.0000  0.0000 </r>
       </set>
       <set comment="band 5">
        <r>  0.0299  0.0453  0.0280  0.0092  0.0000  0.0000  0.0000  0.0000  0.0000 </r>
        <r>  0.0299  0.0453  0.0280  0.0092  0.0000  0.0000  0.0000  0.0000  0.0000 </r>
       </set>
       <set comment="band 6">
        <r>  0.0215  0.0457  0.0277  0.0284  0.0000  0.0000  0.0000  0.0000  0.0000 </r>
        <r>  0.0215  0.0457  0.0277  0.0284  0.0000  0.0000  0.0000  0.0000  0.0000 </r>
       </set>
       <set comment="band 7">
        <r>  0.0486  0.0268  0.0290  0.0250  0.0000  0.0000  0.0000  0.0000  0.0000 </r>
        <r>  0.0486  0.0268  0.0290  0.0250  0.0000  0.0000  0.0000  0.0000  0.0000 </r>
       </set>
       <set comment="band 8">
        <r>  0.0189  0.0305  0.0203  0.0547  0.0000  0.0000  0.0000  0.0000  0.0000 </r>
        <r>  0.0189  0.0305  0.0203  0.0547  0.0000  0.0000  0.0000  0.0000  0.0000 </r>
       </set>
       <set comment="band 9">
        <r>  0.0080  0.0489  0.0809  0.0187  0.0000  0.0000  0.0000  0.0000  0.0000 </r>
        <r>  0.0080  0.0489  0.0809  0.0187  0.0000  0.0000  0.0000  0.0000  0.0000 </r>
       </set>
       <set comment="band 10">
        <r>  0.0285  0.0107  0.0042  0.0656  0.0000  0.0000  0.0000  0.0000  0.0000 </r>
        <r>  0.0285  0.0107  0.0042  0.0656  0.0000  0.0000  0.0000  0.0000  0.0000 </r>
       </set>
       <set comment="band 11">
        <r>  0.0063  0.0247  0.0780  0.0014  0.0000  0.0000  0.0000  0.0000  0.0000 </r>
        <r>  0.0063  0.0247  0.0780  0.0014  0.0000  0.0000  0.0000  0.0000  0.0000 </r>
       </set>
       <set comment="band 12">
        <r>  0.0113  0.0115  0.0338  0.0141  0.0000  0.0000  0.0000  0.0000  0.0000 </r>
        <r>  0.0113  0.0115  0.0338  0.0141  0.0000  0.0000  0.0000  0.0000  0.0000 </r>
       </set>
       <set comment="band 13">
        <r>  0.0021  0.0005  0.0179  0.0738  0.0000  0.0000  0.0000  0.0000  0.0000 </r>
        <r>  0.0021  0.0005  0.0179  0.0738  0.0000  0.0000  0.0000  0.0000  0.0000 </r>
       </set>
       <set comment="band 14">
        <r>  0.0148  0.0312  0.0056  0.0535  0.0000  0.0000  0.0000  0.0000  0.0000 </r>
        <r>  0.0148  0.0312  0.0056  0.0535  0.0000  0.0000  0.0000  0.0000  0.0000 </r>
       </set>
       <set comment="band 15">
        <r>  0.0425  0.0026  0.0005  0.0254  0.0000  0.0000  0.0000  0.0000  0.0000 </r>
        <r>  0.0425  0.0026  0.0005  0.0254  0.0000  0.0000  0.0000  0.0000  0.0000 </r>
       </set>
       <set comment="band 16">
        <r>  0.0085  0.0030  0.0530  0.0097  0.0000  0.0000  0.0000  0.0000  0.0000 </r>
        <r>  0.0085  0.0030  0.0529  0.0097  0.0000  0.0000  0.0000  0.0000  0.0000 </r>
       </set>
      </set>
      <set comment="kpoint 82">
       <set comment="band 1">
        <r>  0.1974  0.0004  0.0300  0.0051  0.0000  0.0000  0.0000  0.0000  0.0000 </r>
        <r>  0.1974  0.0004  0.0300  0.0051  0.0000  0.0000  0.0000  0.0000  0.0000 </r>
       </set>
       <set comment="band 2">
        <r>  0.1921  0.0001  0.0368  0.0099  0.0000  0.0000  0.0000  0.0000  0.0000 </r>
        <r>  0.1921  0.0001  0.0368  0.0099  0.0000  0.0000  0.0000  0.0000  0.0000 </r>
       </set>
       <set comment="band 3">
        <r>  0.0039  0.0685  0.0203  0.0720  0.0000  0.0000  0.0000  0.0000  0.0000 </r>
        <r>  0.0039  0.0685  0.0203  0.0720  0.0000  0.0000  0.0000  0.0000  0.0000 </r>
       </set>
       <set comment="band 4">
        <r>  0.0004  0.0785  0.0254  0.0623  0.0000  0.0000  0.0000  0.0000  0.0000 </r>
        <r>  0.0004  0.0785  0.0254  0.0623  0.0000  0.0000  0.0000  0.0000  0.0000 </r>
       </set>
       <set comment="band 5">
        <r>  0.0345  0.0308  0.0270  0.0194  0.0000  0.0000  0.0000  0.0000  0.0000 </r>
        <r>  0.0345  0.0308  0.0270  0.0194  0.0000  0.0000  0.0000  0.0000  0.0000 </r>
       </set>
       <set comment="band 6">
        <r>  0.0349  0.0309  0.0218  0.0152  0.0000  0.0000  0.0000  0.0000  0.0000 </r>
        <r>  0.0349  0.0309  0.0218  0.0152  0.0000  0.0000  0.0000  0.0000  0.0000 </r>
       </set>
       <set comment="band 7">
        <r>  0.0294  0.0503  0.0282  0.0342  0.0000  0.0000  0.0000  0.0000  0.0000 </r>
        <r>  0.0294  0.0503  0.0282  0.0342  0.0000  0.0000  0.0000  0.0000  0.0000 </r>
       </set>
       <set comment="band 8">
        <r>  0.0211  0.0549  0.0331  0.0344  0.0000  0.0000  0.0000  0.0000  0.0000 </r>
        <r>  0.0211  0.0549  0.0331  0.0344  0.0000  0.0000  0.0000  0.0000  0.0000 </r>
       </set>
       <set comment="band 9">
        <r>  0.0000  0.0345  0.0214  0.0722  0.0000  0.0000  0.0000  0.0000  0.0000 </r>
        <r>  0.0000  0.0345  0.0214  0.0722  0.0000  0.0000  0.0000  0.0000  0.0000 </r>
       </set>
       <set comment="band 10">
        <r>  0.0073  0.0313  0.0538  0.0350  0.0000  0.0000  0.0000  0.0000  0.0000 </r>
        <r>  0.0073  0.0313  0.0538  0.0350  0.0000  0.0000  0.0000  0.0000  0.0000 </r>
       </set>
       <set comment="band 11">
        <r>  0.0240  0.0045  0.0348  0.0518  0.0000  0.0000  0.0000  0.0000  0.0000 </r>
        <r>  0.0240  0.0045  0.0348  0.0518  0.0000  0.0000  0.0000  0.0000  0.0000 </r>
       </set>
       <set comment="band 12">
        <r>  0.0158  0.0005  0.0954  0.0126  0.0000  0.0000  0.0000  0.0000  0.0000 </r>
        <r>  0.0158  0.0005  0.0954  0.0126  0.0000  0.0000  0.0000  0.0000  0.0000 </r>
       </set>
       <set comment="band 13">
        <r>  0.0167  0.0282  0.0666  0.0189  0.0000  0.0000  0.0000  0.0000  0.0000 </r>
        <r>  0.0167  0.0282  0.0666  0.0189  0.0000  0.0000  0.0000  0.0000  0.0000 </r>
       </set>
       <set comment="band 14">
        <r>  0.0007  0.0029  0.0076  0.0100  0.0000  0.0000  0.0000  0.0000  0.0000 </r>
        <r>  0.0007  0.0029  0.0076  0.0100  0.0000  0.0000  0.0000  0.0000  0.0000 </r>
       </set>
       <set comment="band 15">
        <r>  0.0005  0.0188  0.0537  0.0121  0.0000  0.0000  0.0000  0.0000  0.0000 </r>
        <r>  0.0005  0.0188  0.0537  0.0121  0.0000  0.0000  0.0000  0.0000  0.0000 </r>
       </set>
       <set comment="band 16">
        <r>  0.0374  0.0012  0.0132  0.0016  0.0000  0.0000  0.0000  0.0000  0.0000 </r>
        <r>  0.0374  0.0012  0.0132  0.0016  0.0000  0.0000  0.0000  0.0000  0.0000 </r>
       </set>
      </set>
      <set comment="kpoint 83">
       <set comment="band 1">
        <r>  0.2028  0.0004  0.0237  0.0115  0.0000  0.0000  0.0000  0.0000  0.0000 </r>
        <r>  0.2028  0.0004  0.0237  0.0115  0.0000  0.0000  0.0000  0.0000  0.0000 </r>
       </set>
       <set comment="band 2">
        <r>  0.1912  0.0007  0.0328  0.0116  0.0000  0.0000  0.0000  0.0000  0.0000 </r>
        <r>  0.1912  0.0007  0.0328  0.0116  0.0000  0.0000  0.0000  0.0000  0.0000 </r>
       </set>
       <set comment="band 3">
        <r>  0.0001  0.0642  0.0387  0.0522  0.0000  0.0000  0.0000  0.0000  0.0000 </r>
        <r>  0.0001  0.0642  0.0387  0.0522  0.0000  0.0000  0.0000  0.0000  0.0000 </r>
       </set>
       <set comment="band 4">
        <r>  0.0020  0.0760  0.0230  0.0663  0.0000  0.0000  0.0000  0.0000  0.0000 </r>
        <r>  0.0020  0.0760  0.0230  0.0663  0.0000  0.0000  0.0000  0.0000  0.0000 </r>
       </set>
       <set comment="band 5">
        <r>  0.0340  0.0352  0.0250  0.0145  0.0000  0.0000  0.0000  0.0000  0.0000 </r>
        <r>  0.0340  0.0352  0.0250  0.0145  0.0000  0.0000  0.0000  0.0000  0.0000 </r>
       </set>
       <set comment="band 6">
        <r>  0.0226  0.0482  0.0151  0.0206  0.0000  0.0000  0.0000  0.0000  0.0000 </r>
        <r>  0.0226  0.0482  0.0151  0.0206  0.0000  0.0000  0.0000  0.0000  0.0000 </r>
       </set>
       <set comment="band 7">
        <r>  0.0311  0.0365  0.0383  0.0393  0.0000  0.0000  0.0000  0.0000  0.0000 </r>
        <r>  0.0311  0.0365  0.0383  0.0393  0.0000  0.0000  0.0000  0.0000  0.0000 </r>
       </set>
       <set comment="band 8">
        <r>  0.0330  0.0442  0.0309  0.0278  0.0000  0.0000  0.0000  0.0000  0.0000 </r>
        <r>  0.0330  0.0442  0.0309  0.0278  0.0000  0.0000  0.0000  0.0000  0.0000 </r>
       </set>
       <set comment="band 9">
        <r>  0.0037  0.0373  0.0561  0.0424  0.0000  0.0000  0.0000  0.0000  0.0000 </r>
        <r>  0.0037  0.0373  0.0561  0.0424  0.0000  0.0000  0.0000  0.0000  0.0000 </r>
       </set>
       <set comment="band 10">
        <r>  0.0064  0.0288  0.0021  0.0816  0.0000  0.0000  0.0000  0.0000  0.0000 </r>
        <r>  0.0064  0.0288  0.0021  0.0816  0.0000  0.0000  0.0000  0.0000  0.0000 </r>
       </set>
       <set comment="band 11">
        <r>  0.0204  0.0084  0.1019  0.0017  0.0000  0.0000  0.0000  0.0000  0.0000 </r>
        <r>  0.0204  0.0084  0.1019  0.0017  0.0000  0.0000  0.0000  0.0000  0.0000 </r>
       </set>
       <set comment="band 12">
        <r>  0.0179  0.0022  0.0423  0.0594  0.0000  0.0000  0.0000  0.0000  0.0000 </r>
        <r>  0.0179  0.0022  0.0423  0.0594  0.0000  0.0000  0.0000  0.0000  0.0000 </r>
       </set>
       <set comment="band 13">
        <r>  0.0019  0.0078  0.0189  0.0198  0.0000  0.0000  0.0000  0.0000  0.0000 </r>
        <r>  0.0019  0.0078  0.0189  0.0198  0.0000  0.0000  0.0000  0.0000  0.0000 </r>
       </set>
       <set comment="band 14">
        <r>  0.0105  0.0000  0.0014  0.0167  0.0000  0.0000  0.0000  0.0000  0.0000 </r>
        <r>  0.0105  0.0000  0.0014  0.0167  0.0000  0.0000  0.0000  0.0000  0.0000 </r>
       </set>
       <set comment="band 15">
        <r>  0.0100  0.0188  0.0544  0.0086  0.0000  0.0000  0.0000  0.0000  0.0000 </r>
        <r>  0.0100  0.0188  0.0544  0.0086  0.0000  0.0000  0.0000  0.0000  0.0000 </r>
       </set>
       <set comment="band 16">
        <r>  0.0007  0.0375  0.0767  0.0038  0.0000  0.0000  0.0000  0.0000  0.0000 </r>
        <r>  0.0007  0.0375  0.0767  0.0038  0.0000  0.0000  0.0000  0.0000  0.0000 </r>
       </set>
      </set>
      <set comment="kpoint 84">
       <set comment="band 1">
        <r>  0.2022  0.0005  0.0215  0.0128  0.0000  0.0000  0.0000  0.0000  0.0000 </r>
        <r>  0.2022  0.0005  0.0215  0.0128  0.0000  0.0000  0.0000  0.0000  0.0000 </r>
       </set>
       <set comment="band 2">
        <r>  0.1938  0.0004  0.0236  0.0215  0.0000  0.0000  0.0000  0.0000  0.0000 </r>
        <r>  0.1938  0.0004  0.0236  0.0215  0.0000  0.0000  0.0000  0.0000  0.0000 </r>
       </set>
       <set comment="band 3">
        <r>  0.0013  0.0631  0.0355  0.0560  0.0000  0.0000  0.0000  0.0000  0.0000 </r>
        <r>  0.0013  0.0631  0.0355  0.0560  0.0000  0.0000  0.0000  0.0000  0.0000 </r>
       </set>
       <set comment="band 4">
        <r>  0.0002  0.0735  0.0460  0.0419  0.0000  0.0000  0.0000  0.0000  0.0000 </r>
        <r>  0.0002  0.0735  0.0460  0.0419  0.0000  0.0000  0.0000  0.0000  0.0000 </r>
       </set>
       <set comment="band 5">
        <r>  0.0197  0.0545  0.0171  0.0186  0.0000  0.0000  0.0000  0.0000  0.0000 </r>
        <r>  0.0197  0.0545  0.0171  0.0186  0.0000  0.0000  0.0000  0.0000  0.0000 </r>
       </set>
       <set comment="band 6">
        <r>  0.0013  0.0788  0.0008  0.0005  0.0000  0.0000  0.0000  0.0000  0.0000 </r>
        <r>  0.0013  0.0788  0.0008  0.0005  0.0000  0.0000  0.0000  0.0000  0.0000 </r>
       </set>
       <set comment="band 7">
        <r>  0.0648  0.0021  0.0457  0.0520  0.0000  0.0000  0.0000  0.0000  0.0000 </r>
        <r>  0.0648  0.0021  0.0457  0.0520  0.0000  0.0000  0.0000  0.0000  0.0000 </r>
       </set>
       <set comment="band 8">
        <r>  0.0352  0.0291  0.0436  0.0335  0.0000  0.0000  0.0000  0.0000  0.0000 </r>
        <r>  0.0352  0.0291  0.0436  0.0335  0.0000  0.0000  0.0000  0.0000  0.0000 </r>
       </set>
       <set comment="band 9">
        <r>  0.0013  0.0401  0.0309  0.0673  0.0000  0.0000  0.0000  0.0000  0.0000 </r>
        <r>  0.0013  0.0401  0.0309  0.0673  0.0000  0.0000  0.0000  0.0000  0.0000 </r>
       </set>
       <set comment="band 10">
        <r>  0.0074  0.0312  0.0733  0.0133  0.0000  0.0000  0.0000  0.0000  0.0000 </r>
        <r>  0.0074  0.0312  0.0733  0.0133  0.0000  0.0000  0.0000  0.0000  0.0000 </r>
       </set>
       <set comment="band 11">
        <r>  0.0219  0.0066  0.0144  0.0837  0.0000  0.0000  0.0000  0.0000  0.0000 </r>
        <r>  0.0219  0.0066  0.0144  0.0837  0.0000  0.0000  0.0000  0.0000  0.0000 </r>
       </set>
       <set comment="band 12">
        <r>  0.0166  0.0010  0.0815  0.0278  0.0000  0.0000  0.0000  0.0000  0.0000 </r>
        <r>  0.0166  0.0010  0.0815  0.0278  0.0000  0.0000  0.0000  0.0000  0.0000 </r>
       </set>
       <set comment="band 13">
        <r>  0.0032  0.0039  0.0119  0.0189  0.0000  0.0000  0.0000  0.0000  0.0000 </r>
        <r>  0.0032  0.0039  0.0119  0.0189  0.0000  0.0000  0.0000  0.0000  0.0000 </r>
       </set>
       <set comment="band 14">
        <r>  0.0152  0.0005  0.0104  0.0034  0.0000  0.0000  0.0000  0.0000  0.0000 </r>
        <r>  0.0152  0.0005  0.0104  0.0034  0.0000  0.0000  0.0000  0.0000  0.0000 </r>
       </set>
       <set comment="band 15">
        <r>  0.0044  0.0376  0.0648  0.0119  0.0000  0.0000  0.0000  0.0000  0.0000 </r>
        <r>  0.0044  0.0376  0.0648  0.0119  0.0000  0.0000  0.0000  0.0000  0.0000 </r>
       </set>
       <set comment="band 16">
        <r>  0.0231  0.0010  0.0003  0.0307  0.0000  0.0000  0.0000  0.0000  0.0000 </r>
        <r>  0.0231  0.0010  0.0003  0.0307  0.0000  0.0000  0.0000  0.0000  0.0000 </r>
       </set>
      </set>
     </set>
    </set>
   </array>
  </projected>
 </calculation>
 <structure name="finalpos" >
  <crystal>
   <varray name="basis" >
    <v>       0.00000000       2.74682114       2.74682114 </v>
    <v>       2.74682114       0.00000000       2.74682114 </v>
    <v>       2.74682114       2.74682114       0.00000000 </v>
   </varray>
   <i name="volume">     41.44967579 </i>
   <varray name="rec_basis" >
    <v>      -0.18202860       0.18202860       0.18202860 </v>
    <v>       0.18202860      -0.18202860       0.18202860 </v>
    <v>       0.18202860       0.18202860      -0.18202860 </v>
   </varray>
  </crystal>
  <varray name="positions" >
   <v>       0.75000000       0.75000000       0.75000000 </v>
   <v>       0.50000000       0.50000000       0.50000000 </v>
  </varray>
 </structure>
</modeling>
