 running on   16 total cores
 distrk:  each k-point on   16 cores,    1 groups
 distr:  one band on    1 cores,   16 groups
 using from now: INCAR     
 vasp.5.4.1 24Jun15 (build Feb  9 2019 14:16:27) complex                         
 POSCAR found type information on POSCAR  Si
 POSCAR found :  1 types and       2 ions
 scaLAPACK will be used

 ----------------------------------------------------------------------------- 
|                                                                             |
|           W    W    AA    RRRRR   N    N  II  N    N   GGGG   !!!           |
|           W    W   A  A   R    R  NN   N  II  NN   N  G    G  !!!           |
|           W    W  A    A  R    R  N N  N  II  N N  N  G       !!!           |
|           W WW W  AAAAAA  RRRRR   N  N N  II  N  N N  G  GGG   !            |
|           WW  WW  A    A  R   R   N   NN  II  N   NN  G    G                |
|           W    W  A    A  R    R  N    N  II  N    N   GGGG   !!!           |
|                                                                             |
|      For optimal performance we recommend to set                            |
|        NCORE= 4 - approx SQRT( number of cores)                             |
|      NCORE specifies how many cores store one orbital (NPAR=cpu/NCORE).     |
|      This setting can  greatly improve the performance of VASP for DFT.     |
|      The default, NPAR=number of cores might be grossly inefficient         |
|      on modern multi-core architectures or massively parallel machines.     |
|      Do your own testing !!!!                                               |
|      Unfortunately you need to use the default for GW and RPA calculations. |
|      (for HF NCORE is supported but not extensively tested yet)             |
|                                                                             |
 ----------------------------------------------------------------------------- 


 ----------------------------------------------------------------------------- 
|                                                                             |
|  ADVICE TO THIS USER RUNNING 'VASP/VAMP'   (HEAR YOUR MASTER'S VOICE ...):  |
|                                                                             |
|      You have switched on vdW-DFT.                                          |
|      This routine was written and supplied by Jiri Klimes.                  |
|      We recommed that you carefully read and cite the following             |
|      publication                                                            |
|      J. Klimes, D.R. Bowler, A. Michelides                                  |
|        J. Phys.: Cond Matt. 22 022201 (2010)                                |
|      J. Klimes, D.R. Bowler, A. Michelides                                  |
|        Phys. Rev. B. 83, 195131 (2011)                                      |
|      and references therein.                                                |
|                                                                             |
 ----------------------------------------------------------------------------- 


 ----------------------------------------------------------------------------- 
|                                                                             |
|  ADVICE TO THIS USER RUNNING 'VASP/VAMP'   (HEAR YOUR MASTER'S VOICE ...):  |
|                                                                             |
|      You enforced a specific xc-type in the INCAR file,                     |
|      a different type was found on the POTCAR file                          |
|          I HOPE YOU KNOW, WHAT YOU ARE  DOING                               |
|                                                                             |
 ----------------------------------------------------------------------------- 

 LDA part: xc-table for Pade appr. of Perdew
 POSCAR, INCAR and KPOINTS ok, starting setup
 WARNING: small aliasing (wrap around) errors must be expected
 FFT: planning ...
 WAVECAR not read
 entering main loop
       N       E                     dE             d eps       ncg     rms          rms(c)
 Total vdW correction in eV:    1.0901334366270501     
DAV:   1     0.350737525557E+01    0.35074E+01   -0.34667E+03  5376   0.395E+02
DAV:   2    -0.782053038795E+01   -0.11328E+02   -0.11211E+02  7968   0.398E+01
DAV:   3    -0.789879008620E+01   -0.78260E-01   -0.78248E-01  5840   0.425E+00
DAV:   4    -0.789902816907E+01   -0.23808E-03   -0.23808E-03 10096   0.262E-01
DAV:   5    -0.789902818212E+01   -0.13055E-07   -0.13292E-07  5856   0.160E-03    0.513E+00
 Total vdW correction in eV:    1.1372457698632212     
DAV:   6    -0.832579326385E+01   -0.42677E+00   -0.11437E-01  7872   0.116E+00    0.253E+00
 Total vdW correction in eV:    1.1849598685011218     
DAV:   7    -0.832300630794E+01    0.27870E-02   -0.78146E-02  7888   0.952E-01    0.157E+00
 Total vdW correction in eV:    1.2245666478019008     
DAV:   8    -0.834857039617E+01   -0.25564E-01   -0.36261E-02  8032   0.622E-01    0.663E-01
 Total vdW correction in eV:    1.2272961135637732     
DAV:   9    -0.834603299836E+01    0.25374E-02   -0.58931E-04  6800   0.111E-01    0.116E-01
 Total vdW correction in eV:    1.2275400534038741     
DAV:  10    -0.833856029060E+01    0.74727E-02   -0.10256E-03  6704   0.109E-01    0.585E-02
 Total vdW correction in eV:    1.2283847271258230     
DAV:  11    -0.833821351978E+01    0.34677E-03   -0.11454E-04  7040   0.442E-02    0.286E-02
 Total vdW correction in eV:    1.2289441379627781     
DAV:  12    -0.833848927050E+01   -0.27575E-03   -0.16197E-05  8736   0.122E-02    0.153E-02
 Total vdW correction in eV:    1.2290526397776262     
DAV:  13    -0.833837458450E+01    0.11469E-03   -0.49416E-06  6432   0.872E-03    0.385E-03
 Total vdW correction in eV:    1.2291190201016629     
DAV:  14    -0.833839279193E+01   -0.18207E-04   -0.69724E-07  6768   0.342E-03    0.905E-04
 Total vdW correction in eV:    1.2291390714905335     
DAV:  15    -0.833840333977E+01   -0.10548E-04   -0.21554E-08  8080   0.635E-04    0.479E-04
 Total vdW correction in eV:    1.2291583295145430     
DAV:  16    -0.833841047570E+01   -0.71359E-05   -0.17532E-08  5104   0.543E-04    0.141E-04
 Total vdW correction in eV:    1.2291590389970535     
DAV:  17    -0.833840920688E+01    0.12688E-05   -0.29052E-09  3344   0.212E-04    0.288E-05
 Total vdW correction in eV:    1.2291591559906734     
DAV:  18    -0.833840916651E+01    0.40367E-07   -0.64593E-11  3040   0.487E-05
 Total vdW correction in eV:    1.2291589888078887     
 Total vdW correction in eV:    1.2291591221816129     
   1 F= -.83384092E+01 E0= -.83383935E+01  d E =-.833841E+01  mag=    -0.0000
 curvature:   0.00 expect dE= 0.000E+00 dE for cont linesearch  0.000E+00
 trial: gam= 0.00000 g(F)=  0.169E-48 g(S)=  0.121E-08 ort = 0.000E+00 (trialstep = 0.100E+01)
 search vector abs. value=  0.131E-08
 reached required accuracy - stopping structural energy minimisation
