   2   2   0   0
  0.2072484E+02  0.3884592E-09  0.3884592E-09  0.3884592E-09  0.5000000E-15
   1.0000000000000000E-004
  CAR 
 unknown system                          
     30.16620174     -8.19187575  301      5.81350762      1.00000000
     -8.192  0.0000E+00  0.0000E+00
     -8.064  0.0000E+00  0.0000E+00
     -7.936  0.0000E+00  0.0000E+00
     -7.808  0.0000E+00  0.0000E+00
     -7.680  0.0000E+00  0.0000E+00
     -7.553  0.0000E+00  0.0000E+00
     -7.425  0.0000E+00  0.0000E+00
     -7.297  0.1498E-16  0.1915E-17
     -7.169  0.1669E-13  0.2136E-14
     -7.041  0.7916E-11  0.1014E-11
     -6.913  0.1733E-08  0.2226E-09
     -6.785  0.1770E-06  0.2285E-07
     -6.658  0.8564E-05  0.1118E-05
     -6.530  0.2007E-03  0.2678E-04
     -6.402  0.2352E-02  0.3275E-03
     -6.274  0.1443E-01  0.2173E-02
     -6.146  0.4981E-01  0.8541E-02
     -6.018  0.1076E+00  0.2230E-01
     -5.890  0.1677E+00  0.4374E-01
     -5.763  0.2171E+00  0.7149E-01
     -5.635  0.2576E+00  0.1044E+00
     -5.507  0.2931E+00  0.1419E+00
     -5.379  0.3262E+00  0.1836E+00
     -5.251  0.3569E+00  0.2292E+00
     -5.123  0.3880E+00  0.2789E+00
     -4.995  0.4173E+00  0.3322E+00
     -4.868  0.4474E+00  0.3894E+00
     -4.740  0.4803E+00  0.4508E+00
     -4.612  0.5091E+00  0.5159E+00
     -4.484  0.5484E+00  0.5860E+00
     -4.356  0.5872E+00  0.6611E+00
     -4.228  0.6320E+00  0.7419E+00
     -4.100  0.7057E+00  0.8321E+00
     -3.972  0.7789E+00  0.9317E+00
     -3.845  0.8423E+00  0.1039E+01
     -3.717  0.8627E+00  0.1150E+01
     -3.589  0.8235E+00  0.1255E+01
     -3.461  0.7861E+00  0.1356E+01
     -3.333  0.7395E+00  0.1450E+01
     -3.205  0.6880E+00  0.1538E+01
     -3.077  0.6452E+00  0.1621E+01
     -2.950  0.5916E+00  0.1696E+01
     -2.822  0.5428E+00  0.1766E+01
     -2.694  0.4882E+00  0.1828E+01
     -2.566  0.4255E+00  0.1882E+01
     -2.438  0.3628E+00  0.1929E+01
     -2.310  0.2772E+00  0.1964E+01
     -2.182  0.1927E+00  0.1989E+01
     -2.055  0.1506E+00  0.2008E+01
     -1.927  0.1580E+00  0.2028E+01
     -1.799  0.2301E+00  0.2058E+01
     -1.671  0.3199E+00  0.2099E+01
     -1.543  0.3964E+00  0.2149E+01
     -1.415  0.5400E+00  0.2218E+01
     -1.287  0.7738E+00  0.2317E+01
     -1.160  0.1065E+01  0.2453E+01
     -1.032  0.1207E+01  0.2608E+01
     -0.904  0.1070E+01  0.2745E+01
     -0.776  0.8710E+00  0.2856E+01
     -0.648  0.7407E+00  0.2951E+01
     -0.520  0.6473E+00  0.3033E+01
     -0.392  0.5819E+00  0.3108E+01
     -0.265  0.5321E+00  0.3176E+01
     -0.137  0.4833E+00  0.3238E+01
     -0.009  0.4494E+00  0.3295E+01
      0.119  0.4175E+00  0.3349E+01
      0.247  0.3806E+00  0.3397E+01
      0.375  0.3542E+00  0.3442E+01
      0.503  0.3380E+00  0.3486E+01
      0.630  0.3134E+00  0.3526E+01
      0.758  0.2784E+00  0.3561E+01
      0.886  0.2688E+00  0.3596E+01
      1.014  0.2677E+00  0.3630E+01
      1.142  0.2746E+00  0.3665E+01
      1.270  0.3727E+00  0.3713E+01
      1.398  0.6213E+00  0.3792E+01
      1.526  0.9246E+00  0.3910E+01
      1.653  0.1115E+01  0.4053E+01
      1.781  0.1133E+01  0.4198E+01
      1.909  0.1095E+01  0.4338E+01
      2.037  0.1089E+01  0.4477E+01
      2.165  0.1099E+01  0.4618E+01
      2.293  0.1103E+01  0.4759E+01
      2.421  0.1140E+01  0.4904E+01
      2.548  0.1232E+01  0.5062E+01
      2.676  0.1361E+01  0.5236E+01
      2.804  0.1481E+01  0.5425E+01
      2.932  0.1499E+01  0.5617E+01
      3.060  0.1498E+01  0.5808E+01
      3.188  0.1523E+01  0.6003E+01
      3.316  0.1462E+01  0.6190E+01
      3.443  0.1401E+01  0.6369E+01
      3.571  0.1381E+01  0.6546E+01
      3.699  0.1347E+01  0.6718E+01
      3.827  0.1308E+01  0.6885E+01
      3.955  0.1274E+01  0.7048E+01
      4.083  0.1249E+01  0.7208E+01
      4.211  0.1183E+01  0.7359E+01
      4.338  0.1060E+01  0.7495E+01
      4.466  0.8991E+00  0.7610E+01
      4.594  0.7362E+00  0.7704E+01
      4.722  0.6016E+00  0.7781E+01
      4.850  0.4876E+00  0.7843E+01
      4.978  0.3887E+00  0.7893E+01
      5.106  0.3147E+00  0.7933E+01
      5.233  0.2461E+00  0.7964E+01
      5.361  0.1616E+00  0.7985E+01
      5.489  0.8120E-01  0.7995E+01
      5.617  0.2863E-01  0.7999E+01
      5.745  0.6269E-02  0.8000E+01
      5.873  0.1363E-02  0.8000E+01
      6.001  0.5630E-02  0.8001E+01
      6.128  0.2840E-01  0.8004E+01
      6.256  0.8753E-01  0.8016E+01
      6.384  0.1823E+00  0.8039E+01
      6.512  0.2921E+00  0.8076E+01
      6.640  0.3941E+00  0.8127E+01
      6.768  0.4676E+00  0.8186E+01
      6.896  0.5283E+00  0.8254E+01
      7.023  0.6314E+00  0.8335E+01
      7.151  0.7826E+00  0.8435E+01
      7.279  0.9286E+00  0.8554E+01
      7.407  0.1038E+01  0.8686E+01
      7.535  0.1169E+01  0.8836E+01
      7.663  0.1366E+01  0.9010E+01
      7.791  0.1531E+01  0.9206E+01
      7.919  0.1584E+01  0.9409E+01
      8.046  0.1516E+01  0.9603E+01
      8.174  0.1391E+01  0.9781E+01
      8.302  0.1247E+01  0.9940E+01
      8.430  0.1099E+01  0.1008E+02
      8.558  0.1084E+01  0.1022E+02
      8.686  0.1356E+01  0.1039E+02
      8.814  0.1815E+01  0.1062E+02
      8.941  0.2050E+01  0.1089E+02
      9.069  0.1934E+01  0.1113E+02
      9.197  0.1749E+01  0.1136E+02
      9.325  0.1611E+01  0.1156E+02
      9.453  0.1442E+01  0.1175E+02
      9.581  0.1303E+01  0.1191E+02
      9.709  0.1324E+01  0.1208E+02
      9.836  0.1369E+01  0.1226E+02
      9.964  0.1326E+01  0.1243E+02
     10.092  0.1285E+01  0.1259E+02
     10.220  0.1270E+01  0.1275E+02
     10.348  0.1282E+01  0.1292E+02
     10.476  0.1317E+01  0.1309E+02
     10.604  0.1317E+01  0.1326E+02
     10.731  0.1228E+01  0.1341E+02
     10.859  0.1111E+01  0.1355E+02
     10.987  0.1074E+01  0.1369E+02
     11.115  0.1139E+01  0.1384E+02
     11.243  0.1235E+01  0.1400E+02
     11.371  0.1248E+01  0.1416E+02
     11.499  0.1120E+01  0.1430E+02
     11.626  0.9148E+00  0.1442E+02
     11.754  0.8277E+00  0.1452E+02
     11.882  0.9496E+00  0.1464E+02
     12.010  0.1187E+01  0.1479E+02
     12.138  0.1417E+01  0.1498E+02
     12.266  0.1516E+01  0.1517E+02
     12.394  0.1356E+01  0.1534E+02
     12.521  0.1054E+01  0.1548E+02
     12.649  0.8893E+00  0.1559E+02
     12.777  0.9073E+00  0.1571E+02
     12.905  0.1080E+01  0.1585E+02
     13.033  0.1374E+01  0.1602E+02
     13.161  0.1609E+01  0.1623E+02
     13.289  0.1585E+01  0.1643E+02
     13.417  0.1324E+01  0.1660E+02
     13.544  0.1051E+01  0.1673E+02
     13.672  0.9404E+00  0.1685E+02
     13.800  0.1005E+01  0.1698E+02
     13.928  0.1180E+01  0.1713E+02
     14.056  0.1448E+01  0.1732E+02
     14.184  0.1581E+01  0.1752E+02
     14.312  0.1385E+01  0.1770E+02
     14.439  0.1151E+01  0.1784E+02
     14.567  0.1144E+01  0.1799E+02
     14.695  0.1252E+01  0.1815E+02
     14.823  0.1404E+01  0.1833E+02
     14.951  0.1599E+01  0.1853E+02
     15.079  0.1604E+01  0.1874E+02
     15.207  0.1401E+01  0.1892E+02
     15.334  0.1261E+01  0.1908E+02
     15.462  0.1221E+01  0.1924E+02
     15.590  0.1177E+01  0.1939E+02
     15.718  0.1191E+01  0.1954E+02
     15.846  0.1306E+01  0.1971E+02
     15.974  0.1397E+01  0.1988E+02
     16.102  0.1372E+01  0.2006E+02
     16.229  0.1285E+01  0.2022E+02
     16.357  0.1186E+01  0.2038E+02
     16.485  0.1134E+01  0.2052E+02
     16.613  0.1170E+01  0.2067E+02
     16.741  0.1219E+01  0.2083E+02
     16.869  0.1280E+01  0.2099E+02
     16.997  0.1352E+01  0.2116E+02
     17.124  0.1402E+01  0.2134E+02
     17.252  0.1452E+01  0.2153E+02
     17.380  0.1489E+01  0.2172E+02
     17.508  0.1461E+01  0.2190E+02
     17.636  0.1420E+01  0.2209E+02
     17.764  0.1505E+01  0.2228E+02
     17.892  0.1739E+01  0.2250E+02
     18.019  0.1902E+01  0.2274E+02
     18.147  0.1806E+01  0.2298E+02
     18.275  0.1570E+01  0.2318E+02
     18.403  0.1375E+01  0.2335E+02
     18.531  0.1317E+01  0.2352E+02
     18.659  0.1385E+01  0.2370E+02
     18.787  0.1481E+01  0.2389E+02
     18.914  0.1617E+01  0.2409E+02
     19.042  0.1859E+01  0.2433E+02
     19.170  0.2021E+01  0.2459E+02
     19.298  0.1910E+01  0.2483E+02
     19.426  0.1663E+01  0.2505E+02
     19.554  0.1528E+01  0.2524E+02
     19.682  0.1540E+01  0.2544E+02
     19.810  0.1499E+01  0.2563E+02
     19.937  0.1355E+01  0.2580E+02
     20.065  0.1256E+01  0.2596E+02
     20.193  0.1311E+01  0.2613E+02
     20.321  0.1508E+01  0.2632E+02
     20.449  0.1668E+01  0.2654E+02
     20.577  0.1688E+01  0.2675E+02
     20.705  0.1618E+01  0.2696E+02
     20.832  0.1511E+01  0.2715E+02
     20.960  0.1475E+01  0.2734E+02
     21.088  0.1441E+01  0.2753E+02
     21.216  0.1334E+01  0.2770E+02
     21.344  0.1263E+01  0.2786E+02
     21.472  0.1241E+01  0.2802E+02
     21.600  0.1297E+01  0.2818E+02
     21.727  0.1487E+01  0.2837E+02
     21.855  0.1634E+01  0.2858E+02
     21.983  0.1629E+01  0.2879E+02
     22.111  0.1579E+01  0.2899E+02
     22.239  0.1557E+01  0.2919E+02
     22.367  0.1507E+01  0.2938E+02
     22.495  0.1434E+01  0.2957E+02
     22.622  0.1447E+01  0.2975E+02
     22.750  0.1534E+01  0.2995E+02
     22.878  0.1649E+01  0.3016E+02
     23.006  0.1779E+01  0.3039E+02
     23.134  0.1803E+01  0.3062E+02
     23.262  0.1670E+01  0.3083E+02
     23.390  0.1485E+01  0.3102E+02
     23.517  0.1325E+01  0.3119E+02
     23.645  0.1189E+01  0.3134E+02
     23.773  0.1047E+01  0.3148E+02
     23.901  0.8942E+00  0.3159E+02
     24.029  0.7023E+00  0.3168E+02
     24.157  0.4916E+00  0.3174E+02
     24.285  0.3395E+00  0.3179E+02
     24.412  0.2443E+00  0.3182E+02
     24.540  0.2092E+00  0.3184E+02
     24.668  0.2087E+00  0.3187E+02
     24.796  0.1817E+00  0.3189E+02
     24.924  0.1329E+00  0.3191E+02
     25.052  0.1039E+00  0.3192E+02
     25.180  0.9630E-01  0.3194E+02
     25.308  0.9356E-01  0.3195E+02
     25.435  0.9375E-01  0.3196E+02
     25.563  0.8930E-01  0.3197E+02
     25.691  0.6117E-01  0.3198E+02
     25.819  0.2409E-01  0.3198E+02
     25.947  0.4981E-02  0.3198E+02
     26.075  0.9188E-03  0.3198E+02
     26.203  0.1873E-02  0.3198E+02
     26.330  0.4077E-02  0.3198E+02
     26.458  0.6242E-02  0.3199E+02
     26.586  0.1293E-01  0.3199E+02
     26.714  0.2481E-01  0.3199E+02
     26.842  0.2701E-01  0.3199E+02
     26.970  0.1530E-01  0.3200E+02
     27.098  0.4424E-02  0.3200E+02
     27.225  0.7849E-03  0.3200E+02
     27.353  0.1060E-02  0.3200E+02
     27.481  0.3372E-02  0.3200E+02
     27.609  0.6249E-02  0.3200E+02
     27.737  0.7512E-02  0.3200E+02
     27.865  0.5897E-02  0.3200E+02
     27.993  0.2756E-02  0.3200E+02
     28.120  0.1078E-02  0.3200E+02
     28.248  0.7349E-03  0.3200E+02
     28.376  0.4172E-03  0.3200E+02
     28.504  0.1181E-03  0.3200E+02
     28.632  0.1556E-04  0.3200E+02
     28.760  0.9432E-06  0.3200E+02
     28.888  0.2612E-07  0.3200E+02
     29.015  0.3283E-09  0.3200E+02
     29.143  0.1864E-11  0.3200E+02
     29.271  0.4757E-14  0.3200E+02
     29.399  0.5427E-17  0.3200E+02
     29.527  0.0000E+00  0.3200E+02
     29.655  0.0000E+00  0.3200E+02
     29.783  0.0000E+00  0.3200E+02
     29.910  0.0000E+00  0.3200E+02
     30.038  0.0000E+00  0.3200E+02
     30.166  0.0000E+00  0.3200E+02
