    2    2    1    1
  0.2072484E+02  0.3884592E-09  0.3884592E-09  0.3884592E-09  0.5000000E-15
   1.0000000000000000E-004
  CAR 
 unknown system                          
      8    256     16

  0.3742002E-15  0.3742002E-15  0.3742002E-15  0.1250000E-03
    1       -6.191876   1.000000
    2        5.458884   0.993922
    3        5.458884   0.993922
    4        5.458884   0.993922
    5        8.074146   0.000000
    6        8.074146   0.000000
    7        8.074146   0.000000
    8        8.529723   0.000000
    9       13.214013   0.000000
   10       13.214013   0.000000
   11       13.348499   0.000000
   12       16.655514   0.000000
   13       16.655514   0.000000
   14       16.655514   0.000000
   15       20.750607   0.000000
   16       28.166202   0.000000

  0.5000000E-01  0.3712308E-15  0.3712308E-15  0.1000000E-02
    1       -6.160105   1.000000
    2        5.109123   1.000000
    3        5.407432   0.997957
    4        5.407432   0.997957
    5        8.106117   0.000000
    6        8.150530   0.000000
    7        8.150530   0.000000
    8        8.792803   0.000000
    9       13.107365   0.000000
   10       13.107365   0.000000
   11       13.488533   0.000000
   12       16.529195   0.000000
   13       16.865669   0.000000
   14       16.865669   0.000000
   15       20.973596   0.000000
   16       27.744039   0.000000

  0.1000000E+00  0.3816392E-15  0.3816392E-15  0.1000000E-02
    1       -6.065072   1.000000
    2        4.341839   1.000000
    3        5.273181   0.999933
    4        5.273181   0.999933
    5        8.011762   0.000000
    6        8.351136   0.000000
    7        8.351136   0.000000
    8        9.506662   0.000000
    9       12.869241   0.000000
   10       12.869241   0.000000
   11       13.871175   0.000000
   12       16.246021   0.000000
   13       17.420487   0.000000
   14       17.420487   0.000000
   15       21.561205   0.000000
   16       26.799656   0.000000

  0.1500000E+00  0.3885781E-15  0.3885781E-15  0.1000000E-02
    1       -5.908000   1.000000
    2        3.447355   1.000000
    3        5.096314   1.000000
    4        5.096314   1.000000
    5        7.835408   0.000000
    6        8.608905   0.000000
    7        8.608905   0.000000
    8       10.373939   0.000000
    9       12.646072   0.000000
   10       12.646072   0.000000
   11       14.346573   0.000000
   12       16.042046   0.000000
   13       18.191580   0.000000
   14       18.191580   0.000000
   15       22.357324   0.000000
   16       25.517499   0.000000

  0.2000000E+00  0.3747003E-15  0.3747003E-15  0.1000000E-02
    1       -5.691049   1.000000
    2        2.533311   1.000000
    3        4.910628   1.000000
    4        4.910628   1.000000
    5        7.635864   0.000000
    6        8.845203   0.000000
    7        8.845203   0.000000
    8       11.267419   0.000000
    9       12.558496   0.000000
   10       12.558496   0.000000
   11       14.551231   0.000000
   12       16.318035   0.000000
   13       19.077130   0.000000
   14       19.077130   0.000000
   15       23.119104   0.000000
   16       24.212063   0.000000

  0.2500000E+00  0.3885781E-15  0.3885781E-15  0.1000000E-02
    1       -5.418267   1.000000
    2        1.643265   1.000000
    3        4.737131   1.000000
    4        4.737131   1.000000
    5        7.442689   0.000000
    6        8.993757   0.000000
    7        8.993757   0.000000
    8       12.137958   0.000000
    9       12.689347   0.000000
   10       12.689347   0.000000
   11       14.415410   0.000000
   12       17.145580   0.000000
   13       19.938853   0.000000
   14       19.938853   0.000000
   15       23.051636   0.000000
   16       23.056966   0.000000

  0.3000000E+00  0.3885781E-15  0.3885781E-15  0.1000000E-02
    1       -5.096839   1.000000
    2        0.802934   1.000000
    3        4.587459   1.000000
    4        4.587459   1.000000
    5        7.272371   0.000000
    6        9.034895   0.000000
    7        9.034895   0.000000
    8       12.905600   0.000000
    9       13.064352   0.000000
   10       13.064352   0.000000
   11       14.291654   0.000000
   12       18.179011   0.000000
   13       20.268437   0.000000
   14       20.268437   0.000000
   15       22.335827   0.000000
   16       22.550540   0.000000

  0.3500000E+00  0.3885781E-15  0.3885781E-15  0.1000000E-02
    1       -4.740895   1.000000
    2        0.036242   1.000000
    3        4.467731   1.000000
    4        4.467731   1.000000
    5        7.134107   0.000000
    6        9.001479   0.000000
    7        9.001479   0.000000
    8       13.302312   0.000000
    9       13.651729   0.000000
   10       13.651729   0.000000
   11       14.564872   0.000000
   12       19.057613   0.000000
   13       19.546407   0.000000
   14       19.546407   0.000000
   15       21.755065   0.000000
   16       23.226830   0.000000

  0.4000000E+00  0.3885781E-15  0.3885781E-15  0.1000000E-02
    1       -4.379924   1.000000
    2       -0.621379   1.000000
    3        4.380971   1.000000
    4        4.380971   1.000000
    5        7.032896   0.000000
    6        8.942160   0.000000
    7        8.942160   0.000000
    8       13.305669   0.000000
    9       14.399027   0.000000
   10       14.399027   0.000000
   11       15.283161   0.000000
   12       18.480672   0.000000
   13       18.480672   0.000000
   14       19.108625   0.000000
   15       22.105084   0.000000
   16       24.365966   0.000000

  0.4500000E+00  0.3885781E-15  0.3885781E-15  0.1000000E-02
    1       -4.078603   1.000000
    2       -1.101957   1.000000
    3        4.328561   1.000000
    4        4.328561   1.000000
    5        6.971352   0.000000
    6        8.893430   0.000000
    7        8.893430   0.000000
    8       13.241241   0.000000
    9       15.251316   0.000000
   10       15.251316   0.000000
   11       16.080974   0.000000
   12       17.410422   0.000000
   13       17.410422   0.000000
   14       18.489993   0.000000
   15       23.277887   0.000000
   16       25.620820   0.000000

  0.5000000E+00  0.3608225E-15  0.3608225E-15  0.5000000E-03
    1       -3.952243   1.000000
    2       -1.288228   1.000000
    3        4.311047   1.000000
    4        4.311047   1.000000
    5        6.950711   0.000000
    6        8.875145   0.000000
    7        8.875145   0.000000
    8       13.213859   0.000000
    9       15.930999   0.000000
   10       15.930999   0.000000
   11       16.542439   0.000000
   12       16.656145   0.000000
   13       16.656145   0.000000
   14       18.054208   0.000000
   15       24.500324   0.000000
   16       25.018109   0.000000

  0.5000000E-01  0.5000000E-01  0.3742002E-15  0.7500000E-03
    1       -6.149489   1.000000
    2        5.172486   0.999997
    3        5.296558   0.999872
    4        5.296558   0.999872
    5        7.972371   0.000000
    6        8.288655   0.000000
    7        8.288655   0.000000
    8        8.807254   0.000000
    9       12.895772   0.000000
   10       13.261303   0.000000
   11       13.534818   0.000000
   12       16.729970   0.000000
   13       16.729970   0.000000
   14       16.877882   0.000000
   15       21.055444   0.000000
   16       27.537228   0.000000

  0.1000000E+00  0.5000000E-01  0.3712308E-15  0.3000000E-02
    1       -6.075476   1.000000
    2        4.565480   1.000000
    3        5.122004   0.999999
    4        5.239766   0.999975
    5        7.960027   0.000000
    6        8.348577   0.000000
    7        8.535399   0.000000
    8        9.337081   0.000000
    9       12.585296   0.000000
   10       13.212324   0.000000
   11       13.838602   0.000000
   12       16.523605   0.000000
   13       17.007888   0.000000
   14       17.412953   0.000000
   15       21.535852   0.000000
   16       26.685544   0.000000

  0.1500000E+00  0.5000000E-01  0.3816392E-15  0.3000000E-02
    1       -5.938972   1.000000
    2        3.722408   1.000000
    3        4.923971   1.000000
    4        5.118925   1.000000
    5        7.996904   0.000000
    6        8.347136   0.000000
    7        8.826761   0.000000
    8       10.116933   0.000000
    9       12.323020   0.000000
   10       13.065625   0.000000
   11       14.310104   0.000000
   12       16.244184   0.000000
   13       17.612002   0.000000
   14       18.199231   0.000000
   15       22.271897   0.000000
   16       25.437678   0.000000

  0.2000000E+00  0.5000000E-01  0.3885781E-15  0.3000000E-02
    1       -5.741730   1.000000
    2        2.824776   1.000000
    3        4.731261   1.000000
    4        4.943340   1.000000
    5        7.884917   0.000000
    6        8.516864   0.000000
    7        9.091189   0.000000
    8       10.862010   0.000000
    9       12.272313   0.000000
   10       12.978820   0.000000
   11       14.677916   0.000000
   12       16.265369   0.000000
   13       18.409298   0.000000
   14       19.104800   0.000000
   15       23.068577   0.000000
   16       24.117920   0.000000

  0.2500000E+00  0.5000000E-01  0.3885781E-15  0.3000000E-02
    1       -5.487075   1.000000
    2        1.933641   1.000000
    3        4.561015   1.000000
    4        4.750731   1.000000
    5        7.713034   0.000000
    6        8.711149   0.000000
    7        9.262312   0.000000
    8       11.405505   0.000000
    9       12.623490   0.000000
   10       13.071567   0.000000
   11       14.646194   0.000000
   12       16.892351   0.000000
   13       19.265358   0.000000
   14       20.032189   0.000000
   15       22.883946   0.000000
   16       23.123346   0.000000

  0.3000000E+00  0.5000000E-01  0.3747003E-15  0.3000000E-02
    1       -5.180856   1.000000
    2        1.080778   1.000000
    3        4.422641   1.000000
    4        4.564730   1.000000
    5        7.545153   0.000000
    6        8.821947   0.000000
    7        9.311091   0.000000
    8       11.845087   0.000000
    9       13.285426   0.000000
   10       13.397856   0.000000
   11       14.469027   0.000000
   12       17.856527   0.000000
   13       19.827867   0.000000
   14       20.647534   0.000000
   15       22.086849   0.000000
   16       22.437198   0.000000

  0.3500000E+00  0.5000000E-01  0.3885781E-15  0.3000000E-02
    1       -4.834243   1.000000
    2        0.290746   1.000000
    3        4.320932   1.000000
    4        4.398511   1.000000
    5        7.401233   0.000000
    6        8.845146   0.000000
    7        9.263448   0.000000
    8       12.370423   0.000000
    9       13.817861   0.000000
   10       13.942115   0.000000
   11       14.573419   0.000000
   12       18.767386   0.000000
   13       19.357532   0.000000
   14       20.292547   0.000000
   15       22.030841   0.000000
   16       22.461708   0.000000

  0.4000000E+00  0.5000000E-01  0.3885781E-15  0.3000000E-02
    1       -4.470002   1.000000
    2       -0.405952   1.000000
    3        4.257916   1.000000
    4        4.259401   1.000000
    5        7.290040   0.000000
    6        8.826832   0.000000
    7        9.170178   0.000000
    8       12.937806   0.000000
    9       13.938615   0.000000
   10       14.654410   0.000000
   11       15.280033   0.000000
   12       18.334038   0.000000
   13       18.725929   0.000000
   14       19.847333   0.000000
   15       21.901171   0.000000
   16       23.524815   0.000000

  0.4500000E+00  0.5000000E-01  0.3885781E-15  0.3000000E-02
    1       -4.138092   1.000000
    2       -0.954915   1.000000
    3        4.151796   1.000000
    4        4.233898   1.000000
    5        7.215949   0.000000
    6        8.810968   0.000000
    7        9.073763   0.000000
    8       13.261322   0.000000
    9       14.322950   0.000000
   10       15.471388   0.000000
   11       16.122437   0.000000
   12       17.267765   0.000000
   13       17.866676   0.000000
   14       19.192943   0.000000
   15       22.830935   0.000000
   16       24.772377   0.000000

  0.5000000E+00  0.5000000E-01  0.3885781E-15  0.3000000E-02
    1       -3.938876   1.000000
    2       -1.253199   1.000000
    3        4.078632   1.000000
    4        4.248116   1.000000
    5        7.181147   0.000000
    6        8.823051   0.000000
    7        8.999928   0.000000
    8       13.319626   0.000000
    9       15.037855   0.000000
   10       15.909836   0.000000
   11       16.622304   0.000000
   12       16.716835   0.000000
   13       17.243889   0.000000
   14       18.427686   0.000000
   15       24.170059   0.000000
   16       25.260790   0.000000

 -0.4500000E+00  0.5000000E-01  0.3608225E-15  0.3000000E-02
    1       -3.982475   1.000000
    2       -1.189662   1.000000
    3        4.042135   1.000000
    4        4.299089   1.000000
    5        7.186578   0.000000
    6        8.872656   0.000000
    7        8.960030   0.000000
    8       13.334873   0.000000
    9       15.071338   0.000000
   10       15.333721   0.000000
   11       16.551842   0.000000
   12       16.950067   0.000000
   13       17.591187   0.000000
   14       18.496996   0.000000
   15       23.687034   0.000000
   16       25.576030   0.000000

 -0.4000000E+00  0.5000000E-01  0.3885781E-15  0.3000000E-02
    1       -4.240415   1.000000
    2       -0.792960   1.000000
    3        4.044082   1.000000
    4        4.384765   1.000000
    5        7.232230   0.000000
    6        8.953162   0.000000
    7        8.956715   0.000000
    8       13.323803   0.000000
    9       14.185295   0.000000
   10       14.759974   0.000000
   11       16.104818   0.000000
   12       17.390065   0.000000
   13       18.659748   0.000000
   14       19.196095   0.000000
   15       22.411372   0.000000
   16       24.305536   0.000000

 -0.3500000E+00  0.5000000E-01  0.3885781E-15  0.3000000E-02
    1       -4.591404   1.000000
    2       -0.185986   1.000000
    3        4.085780   1.000000
    4        4.502504   1.000000
    5        7.317170   0.000000
    6        8.965221   0.000000
    7        9.059186   0.000000
    8       13.129191   0.000000
    9       13.403860   0.000000
   10       14.314364   0.000000
   11       15.228233   0.000000
   12       18.356194   0.000000
   13       19.499897   0.000000
   14       19.746658   0.000000
   15       21.755199   0.000000
   16       23.090066   0.000000

 -0.3000000E+00  0.5000000E-01  0.3608225E-15  0.3000000E-02
    1       -4.953482   1.000000
    2        0.546165   1.000000
    3        4.167895   1.000000
    4        4.648676   1.000000
    5        7.439234   0.000000
    6        8.965753   0.000000
    7        9.147162   0.000000
    8       12.636089   0.000000
    9       12.775631   0.000000
   10       14.178695   0.000000
   11       14.504084   0.000000
   12       18.449092   0.000000
   13       19.605062   0.000000
   14       20.642437   0.000000
   15       21.866263   0.000000
   16       22.438096   0.000000

 -0.2500000E+00  0.5000000E-01  0.3885781E-15  0.3000000E-02
    1       -5.288356   1.000000
    2        1.359547   1.000000
    3        4.290078   1.000000
    4        4.817773   1.000000
    5        7.594150   0.000000
    6        8.909865   0.000000
    7        9.168096   0.000000
    8       12.042761   0.000000
    9       12.353694   0.000000
   10       13.608588   0.000000
   11       14.536878   0.000000
   12       17.502356   0.000000
   13       19.653639   0.000000
   14       20.653523   0.000000
   15       21.957398   0.000000
   16       23.094128   0.000000

 -0.2000000E+00  0.5000000E-01  0.3885781E-15  0.3000000E-02
    1       -5.578234   1.000000
    2        2.226627   1.000000
    3        4.450453   1.000000
    4        5.000643   1.000000
    5        7.773978   0.000000
    6        8.762683   0.000000
    7        9.066430   0.000000
    8       11.410930   0.000000
    9       12.178993   0.000000
   10       13.130001   0.000000
   11       14.707062   0.000000
   12       16.618129   0.000000
   13       18.894529   0.000000
   14       19.862881   0.000000
   15       22.929285   0.000000
   16       23.456191   0.000000

 -0.1500000E+00  0.5000000E-01  0.3747003E-15  0.3000000E-02
    1       -5.814202   1.000000
    2        3.120029   1.000000
    3        4.645117   1.000000
    4        5.181471   0.999996
    5        7.964199   0.000000
    6        8.540414   0.000000
    7        8.831865   0.000000
    8       10.692839   0.000000
    9       12.241682   0.000000
   10       12.954193   0.000000
   11       14.598766   0.000000
   12       16.199402   0.000000
   13       18.021693   0.000000
   14       18.941546   0.000000
   15       22.788738   0.000000
   16       24.239235   0.000000

 -0.1000000E+00  0.5000000E-01  0.3885781E-15  0.3000000E-02
    1       -5.991431   1.000000
    2        3.994408   1.000000
    3        4.869215   1.000000
    4        5.333747   0.999654
    5        8.137567   0.000000
    6        8.312191   0.000000
    7        8.521918   0.000000
    8        9.914718   0.000000
    9       12.479002   0.000000
   10       13.010150   0.000000
   11       14.143581   0.000000
   12       16.325732   0.000000
   13       17.266194   0.000000
   14       18.079042   0.000000
   15       21.983068   0.000000
   16       25.538869   0.000000

 -0.5000000E-01  0.5000000E-01  0.3816392E-15  0.1500000E-02
    1       -6.107212   1.000000
    2        4.732217   1.000000
    3        5.133360   0.999999
    4        5.420003   0.997303
    5        8.161706   0.000000
    6        8.219101   0.000000
    7        8.250155   0.000000
    8        9.198910   0.000000
    9       12.803774   0.000000
   10       13.122159   0.000000
   11       13.710625   0.000000
   12       16.551224   0.000000
   13       16.808196   0.000000
   14       17.356144   0.000000
   15       21.321828   0.000000
   16       26.785257   0.000000

  0.1000000E+00  0.1000000E+00  0.3742002E-15  0.7500000E-03
    1       -6.022512   1.000000
    2        4.511940   1.000000
    3        4.920461   1.000000
    4        4.920461   1.000000
    5        7.708389   0.000000
    6        8.820391   0.000000
    7        8.820391   0.000000
    8        9.383474   0.000000
    9       12.248499   0.000000
   10       13.403121   0.000000
   11       14.050775   0.000000
   12       16.952134   0.000000
   13       16.952134   0.000000
   14       17.342210   0.000000
   15       21.915910   0.000000
   16       26.324013   0.000000

  0.1500000E+00  0.1000000E+00  0.3712308E-15  0.3000000E-02
    1       -5.906765   1.000000
    2        3.880160   1.000000
    3        4.706386   1.000000
    4        4.801354   1.000000
    5        7.655623   0.000000
    6        8.887429   0.000000
    7        9.147726   0.000000
    8        9.899968   0.000000
    9       12.024260   0.000000
   10       13.421990   0.000000
   11       14.465826   0.000000
   12       16.763238   0.000000
   13       17.289670   0.000000
   14       17.998475   0.000000
   15       22.578591   0.000000
   16       25.343449   0.000000

  0.2000000E+00  0.1000000E+00  0.3816392E-15  0.3000000E-02
    1       -5.729656   1.000000
    2        3.058364   1.000000
    3        4.505370   1.000000
    4        4.654595   1.000000
    5        7.752890   0.000000
    6        8.808346   0.000000
    7        9.452050   0.000000
    8       10.370650   0.000000
    9       12.149854   0.000000
   10       13.392253   0.000000
   11       14.938467   0.000000
   12       16.570363   0.000000
   13       17.923524   0.000000
   14       18.908705   0.000000
   15       23.344723   0.000000
   16       24.063830   0.000000

  0.2500000E+00  0.1000000E+00  0.3885781E-15  0.3000000E-02
    1       -5.493907   1.000000
    2        2.200727   1.000000
    3        4.332662   1.000000
    4        4.454074   1.000000
    5        7.848474   0.000000
    6        8.787200   0.000000
    7        9.665513   0.000000
    8       10.576548   0.000000
    9       12.725697   0.000000
   10       13.471259   0.000000
   11       15.119769   0.000000
   12       16.859674   0.000000
   13       18.704686   0.000000
   14       19.877903   0.000000
   15       22.797363   0.000000
   16       23.195216   0.000000

  0.3000000E+00  0.1000000E+00  0.3747003E-15  0.3000000E-02
    1       -5.204258   1.000000
    2        1.357910   1.000000
    3        4.196867   1.000000
    4        4.236566   1.000000
    5        7.839792   0.000000
    6        8.832499   0.000000
    7        9.745928   0.000000
    8       10.795387   0.000000
    9       13.519072   0.000000
   10       13.756242   0.000000
   11       14.969958   0.000000
   12       17.653942   0.000000
   13       19.366290   0.000000
   14       20.650816   0.000000
   15       21.815371   0.000000
   16       22.432117   0.000000

  0.3500000E+00  0.1000000E+00  0.3885781E-15  0.3000000E-02
    1       -4.869562   1.000000
    2        0.560971   1.000000
    3        4.027076   1.000000
    4        4.102513   1.000000
    5        7.762851   0.000000
    6        8.855402   0.000000
    7        9.706930   0.000000
    8       11.213839   0.000000
    9       14.259622   0.000000
   10       14.285283   0.000000
   11       14.850627   0.000000
   12       18.522170   0.000000
   13       19.172402   0.000000
   14       20.527529   0.000000
   15       21.843391   0.000000
   16       22.531017   0.000000

  0.4000000E+00  0.1000000E+00  0.3885781E-15  0.3000000E-02
    1       -4.507433   1.000000
    2       -0.160286   1.000000
    3        3.839692   1.000000
    4        4.051571   1.000000
    5        7.677221   0.000000
    6        8.838378   0.000000
    7        9.599021   0.000000
    8       11.821886   0.000000
    9       14.396829   0.000000
   10       14.939094   0.000000
   11       15.448803   0.000000
   12       18.220413   0.000000
   13       18.635480   0.000000
   14       20.493339   0.000000
   15       22.212396   0.000000
   16       22.777078   0.000000

  0.4500000E+00  0.1000000E+00  0.3608225E-15  0.3000000E-02
    1       -4.156007   1.000000
    2       -0.760637   1.000000
    3        3.682660   1.000000
    4        4.044287   1.000000
    5        7.612714   0.000000
    6        8.818508   0.000000
    7        9.470707   0.000000
    8       12.534712   0.000000
    9       14.301717   0.000000
   10       15.721740   0.000000
   11       16.315459   0.000000
   12       17.165867   0.000000
   13       17.911168   0.000000
   14       20.361265   0.000000
   15       22.476512   0.000000
   16       23.975256   0.000000

  0.5000000E+00  0.1000000E+00  0.3885781E-15  0.3000000E-02
    1       -3.897511   1.000000
    2       -1.153894   1.000000
    3        3.561397   1.000000
    4        4.079599   1.000000
    5        7.581586   0.000000
    6        8.824974   0.000000
    7        9.353640   0.000000
    8       13.210396   0.000000
    9       14.324386   0.000000
   10       15.869302   0.000000
   11       16.717921   0.000000
   12       16.872120   0.000000
   13       17.578900   0.000000
   14       19.526601   0.000000
   15       23.679488   0.000000
   16       25.248440   0.000000

 -0.4500000E+00  0.1000000E+00  0.3885781E-15  0.3000000E-02
    1       -3.854662   1.000000
    2       -1.215379   1.000000
    3        3.479938   1.000000
    4        4.155408   1.000000
    5        7.588149   0.000000
    6        8.870975   0.000000
    7        9.263918   0.000000
    8       13.557898   0.000000
    9       14.567090   0.000000
   10       14.937757   0.000000
   11       16.270965   0.000000
   12       17.803058   0.000000
   13       18.120555   0.000000
   14       18.808848   0.000000
   15       23.915026   0.000000
   16       25.141461   0.000000

 -0.4000000E+00  0.1000000E+00  0.3608225E-15  0.3000000E-02
    1       -4.055707   1.000000
    2       -0.916729   1.000000
    3        3.441551   1.000000
    4        4.268551   1.000000
    5        7.632848   0.000000
    6        8.957542   0.000000
    7        9.204910   0.000000
    8       13.461834   0.000000
    9       14.020853   0.000000
   10       14.652415   0.000000
   11       16.470995   0.000000
   12       17.429469   0.000000
   13       18.866889   0.000000
   14       19.383600   0.000000
   15       22.600694   0.000000
   16       24.378371   0.000000

 -0.3500000E+00  0.1000000E+00  0.3885781E-15  0.3000000E-02
    1       -4.388631   1.000000
    2       -0.371521   1.000000
    3        3.449092   1.000000
    4        4.414682   1.000000
    5        7.714065   0.000000
    6        9.073622   0.000000
    7        9.166996   0.000000
    8       12.999377   0.000000
    9       13.208253   0.000000
   10       14.640319   0.000000
   11       16.495116   0.000000
   12       17.273144   0.000000
   13       19.837876   0.000000
   14       19.961961   0.000000
   15       21.735219   0.000000
   16       23.110604   0.000000

 -0.3000000E+00  0.1000000E+00  0.3608225E-15  0.3000000E-02
    1       -4.752923   1.000000
    2        0.315772   1.000000
    3        3.505285   1.000000
    4        4.587806   1.000000
    5        7.828759   0.000000
    6        9.124287   0.000000
    7        9.190406   0.000000
    8       12.375581   0.000000
    9       12.544850   0.000000
   10       14.769746   0.000000
   11       15.585396   0.000000
   12       18.036194   0.000000
   13       19.437518   0.000000
   14       20.956453   0.000000
   15       21.491853   0.000000
   16       22.502189   0.000000

 -0.2500000E+00  0.1000000E+00  0.3885781E-15  0.3000000E-02
    1       -5.099084   1.000000
    2        1.088071   1.000000
    3        3.613325   1.000000
    4        4.779206   1.000000
    5        7.971901   0.000000
    6        9.035066   0.000000
    7        9.249984   0.000000
    8       11.783464   0.000000
    9       12.084958   0.000000
   10       14.718320   0.000000
   11       14.989550   0.000000
   12       17.757222   0.000000
   13       19.349618   0.000000
   14       21.011349   0.000000
   15       21.325572   0.000000
   16       23.116462   0.000000

 -0.2000000E+00  0.1000000E+00  0.3885781E-15  0.3000000E-02
    1       -5.404684   1.000000
    2        1.907686   1.000000
    3        3.778863   1.000000
    4        4.975533   1.000000
    5        8.134564   0.000000
    6        8.865813   0.000000
    7        9.167118   0.000000
    8       11.314155   0.000000
    9       11.874746   0.000000
   10       13.964532   0.000000
   11       15.163752   0.000000
   12       16.972025   0.000000
   13       18.772643   0.000000
   14       20.709951   0.000000
   15       21.676140   0.000000
   16       23.666869   0.000000

 -0.1500000E+00  0.1000000E+00  0.3885781E-15  0.3000000E-02
    1       -5.658699   1.000000
    2        2.729712   1.000000
    3        4.016924   1.000000
    4        5.155580   0.999998
    5        8.298325   0.000000
    6        8.636745   0.000000
    7        8.902320   0.000000
    8       10.926692   0.000000
    9       11.909975   0.000000
   10       13.396685   0.000000
   11       15.057621   0.000000
   12       16.537912   0.000000
   13       17.932150   0.000000
   14       19.800069   0.000000
   15       22.873248   0.000000
   16       23.400924   0.000000

 -0.1000000E+00  0.1000000E+00  0.3747003E-15  0.1500000E-02
    1       -5.855376   1.000000
    2        3.465656   1.000000
    3        4.371065   1.000000
    4        5.287508   0.999900
    5        8.389916   0.000000
    6        8.423986   0.000000
    7        8.573202   0.000000
    8       10.461091   0.000000
    9       12.134748   0.000000
   10       13.109247   0.000000
   11       14.599737   0.000000
   12       16.510097   0.000000
   13       17.312985   0.000000
   14       18.893893   0.000000
   15       22.663128   0.000000
   16       24.198704   0.000000

  0.1500000E+00  0.1500000E+00  0.3742002E-15  0.7500000E-03
    1       -5.811707   1.000000
    2        3.707879   1.000000
    3        4.480261   1.000000
    4        4.480261   1.000000
    5        7.364650   0.000000
    6        9.517143   0.000000
    7        9.517143   0.000000
    8        9.721952   0.000000
    9       11.890905   0.000000
   10       13.639355   0.000000
   11       14.808177   0.000000
   12       17.316702   0.000000
   13       17.316702   0.000000
   14       17.863900   0.000000
   15       23.178720   0.000000
   16       25.004522   0.000000

  0.2000000E+00  0.1500000E+00  0.3712308E-15  0.3000000E-02
    1       -5.654919   1.000000
    2        3.119741   1.000000
    3        4.270171   1.000000
    4        4.300837   1.000000
    5        7.304898   0.000000
    6        9.448743   0.000000
    7        9.874312   0.000000
    8        9.994160   0.000000
    9       12.139641   0.000000
   10       13.735706   0.000000
   11       15.280735   0.000000
   12       17.187180   0.000000
   13       17.701127   0.000000
   14       18.580842   0.000000
   15       23.880685   0.000000
   16       24.007223   0.000000

  0.2500000E+00  0.1500000E+00  0.3816392E-15  0.3000000E-02
    1       -5.438579   1.000000
    2        2.370016   1.000000
    3        4.090955   1.000000
    4        4.094513   1.000000
    5        7.420499   0.000000
    6        9.335193   0.000000
    7       10.054730   0.000000
    8       10.150121   0.000000
    9       12.807381   0.000000
   10       13.845991   0.000000
   11       15.669870   0.000000
   12       17.149085   0.000000
   13       18.328790   0.000000
   14       19.551139   0.000000
   15       22.768906   0.000000
   16       23.162440   0.000000

  0.3000000E+00  0.1500000E+00  0.3885781E-15  0.3000000E-02
    1       -5.166514   1.000000
    2        1.582317   1.000000
    3        3.847431   1.000000
    4        3.951246   1.000000
    5        7.562685   0.000000
    6        9.363727   0.000000
    7       10.018165   0.000000