       N       E                     dE             d eps       ncg     rms          rms(c)
DAV:   1     0.292401674271E+01    0.29240E+01   -0.34463E+03  8208   0.391E+02
DAV:   2    -0.832842618820E+01   -0.11252E+02   -0.11124E+02 11984   0.395E+01
DAV:   3    -0.840898187679E+01   -0.80556E-01   -0.80556E-01  9184   0.427E+00
DAV:   4    -0.840921420407E+01   -0.23233E-03   -0.23233E-03 15344   0.255E-01
DAV:   5    -0.840921421745E+01   -0.13383E-07   -0.13690E-07  8992   0.158E-03    0.367E+00
DAV:   6    -0.835975915150E+01    0.49455E-01   -0.84731E-02 12400   0.858E-01    0.224E+00
DAV:   7    -0.835393644300E+01    0.58227E-02   -0.19360E-01 12640   0.128E+00    0.185E-01
DAV:   8    -0.833753180136E+01    0.16405E-01   -0.49557E-03  9632   0.243E-01    0.955E-02
DAV:   9    -0.833864268531E+01   -0.11109E-02   -0.55046E-04 12976   0.819E-02    0.525E-02
DAV:  10    -0.833866973187E+01   -0.27047E-04   -0.22819E-05 10400   0.214E-02    0.108E-02
DAV:  11    -0.833848580250E+01    0.18393E-03   -0.30156E-07 13760   0.259E-03    0.194E-03
DAV:  12    -0.833847491247E+01    0.10890E-04   -0.68170E-08 10320   0.137E-03    0.455E-04
DAV:  13    -0.833847263747E+01    0.22750E-05   -0.51709E-09  9456   0.328E-04    0.728E-05
DAV:  14    -0.833847286105E+01   -0.22358E-06   -0.18334E-10  5616   0.683E-05    0.566E-06
DAV:  15    -0.833847261636E+01    0.24469E-06   -0.76052E-12  5152   0.137E-05    0.262E-06
DAV:  16    -0.833847260603E+01    0.10326E-07   -0.92269E-13  4832   0.592E-06
   1 F= -.83384726E+01 E0= -.83384619E+01  d E =-.833847E+01
