 vasp.5.4.1 24Jun15 (build Feb  9 2019 14:16:27) complex                         
 executed on           IFC91_ompi date 2020.09.26  22:36:46
 running on   16 total cores
 distrk:  each k-point on   16 cores,    1 groups
 distr:  one band on NCORES_PER_BAND=   1 cores,   16 groups


--------------------------------------------------------------------------------------------------------


 INCAR:
 POTCAR:    PAW_PBE Si 05Jan2001                  

 ----------------------------------------------------------------------------- 
|                                                                             |
|           W    W    AA    RRRRR   N    N  II  N    N   GGGG   !!!           |
|           W    W   A  A   R    R  NN   N  II  NN   N  G    G  !!!           |
|           W    W  A    A  R    R  N N  N  II  N N  N  G       !!!           |
|           W WW W  AAAAAA  RRRRR   N  N N  II  N  N N  G  GGG   !            |
|           WW  WW  A    A  R   R   N   NN  II  N   NN  G    G                |
|           W    W  A    A  R    R  N    N  II  N    N   GGGG   !!!           |
|                                                                             |
|      For optimal performance we recommend to set                            |
|        NCORE= 4 - approx SQRT( number of cores)                             |
|      NCORE specifies how many cores store one orbital (NPAR=cpu/NCORE).     |
|      This setting can  greatly improve the performance of VASP for DFT.     |
|      The default, NPAR=number of cores might be grossly inefficient         |
|      on modern multi-core architectures or massively parallel machines.     |
|      Do your own testing !!!!                                               |
|      Unfortunately you need to use the default for GW and RPA calculations. |
|      (for HF NCORE is supported but not extensively tested yet)             |
|                                                                             |
 ----------------------------------------------------------------------------- 


 ----------------------------------------------------------------------------- 
|                                                                             |
|  ADVICE TO THIS USER RUNNING 'VASP/VAMP'   (HEAR YOUR MASTER'S VOICE ...):  |
|                                                                             |
|      You have switched on vdW-DFT.                                          |
|      This routine was written and supplied by Jiri Klimes.                  |
|      We recommed that you carefully read and cite the following             |
|      publication                                                            |
|      J. Klimes, D.R. Bowler, A. Michelides                                  |
|        J. Phys.: Cond Matt. 22 022201 (2010)                                |
|      J. Klimes, D.R. Bowler, A. Michelides                                  |
|        Phys. Rev. B. 83, 195131 (2011)                                      |
|      and references therein.                                                |
|                                                                             |
 ----------------------------------------------------------------------------- 

 POTCAR:    PAW_PBE Si 05Jan2001                  
   VRHFIN =Si: s2p2                                                             
   LEXCH  = PE                                                                  
   EATOM  =   103.0669 eV,    7.5752 Ry                                         
                                                                                
   TITEL  = PAW_PBE Si 05Jan2001                                                
   LULTRA =        F    use ultrasoft PP ?                                      
   IUNSCR =        1    unscreen: 0-lin 1-nonlin 2-no                           
   RPACOR =    1.500    partial core radius                                     
   POMASS =   28.085; ZVAL   =    4.000    mass and valenz                      
   RCORE  =    1.900    outmost cutoff radius                                   
   RWIGS  =    2.480; RWIGS  =    1.312    wigner-seitz radius (au A)           
   ENMAX  =  245.345; ENMIN  =  184.009 eV                                      
   ICORE  =        2    local potential                                         
   LCOR   =        T    correct aug charges                                     
   LPAW   =        T    paw PP                                                  
   EAUG   =  322.069                                                            
   DEXC   =    0.000                                                            
   RMAX   =    1.950    core radius for proj-oper                               
   RAUG   =    1.300    factor for augmentation sphere                          
   RDEP   =    1.993    radius for radial grids                                 
   RDEPT  =    1.837    core radius for aug-charge                              
                                                                                
   Atomic configuration                                                         
    6 entries                                                                   
     n  l   j            E        occ.                                          
     1  0  0.50     -1785.8828   2.0000                                         
     2  0  0.50      -139.4969   2.0000                                         
     2  1  1.50       -95.5546   6.0000                                         
     3  0  0.50       -10.8127   2.0000                                         
     3  1  0.50        -4.0811   2.0000                                         
     3  2  1.50        -4.0817   0.0000                                         
   Description                                                                  
     l       E           TYP  RCUT    TYP  RCUT                                 
     0    -10.8127223     23  1.900                                             
     0     -7.6451159     23  1.900                                             
     1     -4.0811372     23  1.900                                             
     1      2.4879257     23  1.900                                             
     2     -4.0817478      7  1.900                                             
  local pseudopotential read in
  partial core-charges read in
  partial kinetic energy density read in
  atomic valenz-charges read in
  non local Contribution for L=           0  read in
    real space projection operators read in
  non local Contribution for L=           0  read in
    real space projection operators read in
  non local Contribution for L=           1  read in
    real space projection operators read in
  non local Contribution for L=           1  read in
    real space projection operators read in
    PAW grid and wavefunctions read in

   number of l-projection  operators is LMAX  =           4
   number of lm-projection operators is LMMAX =           8


 ----------------------------------------------------------------------------- 
|                                                                             |
|  ADVICE TO THIS USER RUNNING 'VASP/VAMP'   (HEAR YOUR MASTER'S VOICE ...):  |
|                                                                             |
|      You enforced a specific xc-type in the INCAR file,                     |
|      a different type was found on the POTCAR file                          |
|          I HOPE YOU KNOW, WHAT YOU ARE  DOING                               |
|                                                                             |
 ----------------------------------------------------------------------------- 

  PAW_PBE Si 05Jan2001                  :
 energy of atom  1       EATOM= -103.0669
 kinetic energy error for atom=    0.0006 (will be added to EATOM!!)


 POSCAR: bulk@JVASP-1002                         
  positions in direct lattice
  No initial velocities read in
 exchange correlation table for  LEXCH =       42
   RHO(1)=    0.500       N(1)  =     2000
   RHO(2)=  100.500       N(2)  =     4000



--------------------------------------------------------------------------------------------------------


 ion  position               nearest neighbor table
   1  0.750  0.750  0.750-   2 2.38   2 2.38   2 2.38   2 2.38
   2  0.500  0.500  0.500-   1 2.38   1 2.38   1 2.38   1 2.38

  LATTYP: Found a face centered cubic cell.
 ALAT       =     5.4936422752
  
  Lattice vectors:
  
 A1 = (   0.0000000000,   2.7468211376,   2.7468211376)
 A2 = (   2.7468211376,   0.0000000000,   2.7468211376)
 A3 = (   2.7468211376,   2.7468211376,   0.0000000000)


Analysis of symmetry for initial positions (statically):
=====================================================================
 Subroutine PRICEL returns:
 Original cell was already a primitive cell.
 

 Routine SETGRP: Setting up the symmetry group for a 
 face centered cubic supercell.


 Subroutine GETGRP returns: Found 48 space group operations
 (whereof 24 operations were pure point group operations)
 out of a pool of 48 trial point group operations.


The static configuration has the point symmetry T_d .
 The point group associated with its full space group is O_h .


Analysis of symmetry for dynamics (positions and initial velocities):
=====================================================================
 Subroutine PRICEL returns:
 Original cell was already a primitive cell.
 

 Routine SETGRP: Setting up the symmetry group for a 
 face centered cubic supercell.


 Subroutine GETGRP returns: Found 48 space group operations
 (whereof 24 operations were pure point group operations)
 out of a pool of 48 trial point group operations.


The dynamic configuration has the point symmetry T_d .
 The point group associated with its full space group is O_h .


 KPOINTS: Automatic kpoint scheme                 

Automatic generation of k-mesh.
Space group operators:
 irot       det(A)        alpha          n_x          n_y          n_z        tau_x        tau_y        tau_z
    1     1.000000     0.000000     1.000000     0.000000     0.000000     0.000000     0.000000     0.000000
    2     1.000000   120.000000    -0.577350    -0.577350    -0.577350     0.000000     0.000000     0.000000
    3     1.000000   120.000000     0.577350     0.577350     0.577350     0.000000     0.000000     0.000000
    4    -1.000000    90.000000     0.000000     0.000000    -1.000000     0.000000     0.000000     0.000000
    5    -1.000000   180.000000     0.000000     0.707107     0.707107     0.000000     0.000000     0.000000
    6    -1.000000    90.000000     0.000000     1.000000     0.000000     0.000000     0.000000     0.000000
    7     1.000000   180.000000     0.000000     0.000000     1.000000     0.000000     0.000000     0.000000
    8     1.000000   120.000000    -0.577350     0.577350     0.577350     0.000000     0.000000     0.000000
    9     1.000000   120.000000    -0.577350     0.577350    -0.577350     0.000000     0.000000     0.000000
   10    -1.000000    90.000000     0.000000     0.000000     1.000000     0.000000     0.000000     0.000000
   11    -1.000000    90.000000    -1.000000     0.000000     0.000000     0.000000     0.000000     0.000000
   12    -1.000000   180.000000     0.707107     0.000000     0.707107     0.000000     0.000000     0.000000
   13     1.000000   120.000000     0.577350    -0.577350     0.577350     0.000000     0.000000     0.000000
   14     1.000000   120.000000    -0.577350    -0.577350     0.577350     0.000000     0.000000     0.000000
   15     1.000000   180.000000     1.000000     0.000000     0.000000     0.000000     0.000000     0.000000
   16    -1.000000    90.000000     0.000000    -1.000000     0.000000     0.000000     0.000000     0.000000
   17    -1.000000   180.000000     0.707107     0.707107     0.000000     0.000000     0.000000     0.000000
   18    -1.000000    90.000000     1.000000     0.000000     0.000000     0.000000     0.000000     0.000000
   19     1.000000   120.000000     0.577350    -0.577350    -0.577350     0.000000     0.000000     0.000000
   20     1.000000   180.000000     0.000000     1.000000     0.000000     0.000000     0.000000     0.000000
   21     1.000000   120.000000     0.577350     0.577350    -0.577350     0.000000     0.000000     0.000000
   22    -1.000000   180.000000     0.000000    -0.707107     0.707107     0.000000     0.000000     0.000000
   23    -1.000000   180.000000     0.707107    -0.707107     0.000000     0.000000     0.000000     0.000000
   24    -1.000000   180.000000     0.707107     0.000000    -0.707107     0.000000     0.000000     0.000000
   25    -1.000000     0.000000     1.000000     0.000000     0.000000     0.250000     0.250000     0.250000
   26    -1.000000   120.000000    -0.577350    -0.577350    -0.577350     0.250000     0.250000     0.250000
   27    -1.000000   120.000000     0.577350     0.577350     0.577350     0.250000     0.250000     0.250000
   28     1.000000    90.000000     0.000000     0.000000    -1.000000     0.250000     0.250000     0.250000
   29     1.000000   180.000000     0.000000     0.707107     0.707107     0.250000     0.250000     0.250000
   30     1.000000    90.000000     0.000000     1.000000     0.000000     0.250000     0.250000     0.250000
   31    -1.000000   180.000000     0.000000     0.000000     1.000000     0.250000     0.250000     0.250000
   32    -1.000000   120.000000    -0.577350     0.577350     0.577350     0.250000     0.250000     0.250000
   33    -1.000000   120.000000    -0.577350     0.577350    -0.577350     0.250000     0.250000     0.250000
   34     1.000000    90.000000     0.000000     0.000000     1.000000     0.250000     0.250000     0.250000
   35     1.000000    90.000000    -1.000000     0.000000     0.000000     0.250000     0.250000     0.250000
   36     1.000000   180.000000     0.707107     0.000000     0.707107     0.250000     0.250000     0.250000
   37    -1.000000   120.000000     0.577350    -0.577350     0.577350     0.250000     0.250000     0.250000
   38    -1.000000   120.000000    -0.577350    -0.577350     0.577350     0.250000     0.250000     0.250000
   39    -1.000000   180.000000     1.000000     0.000000     0.000000     0.250000     0.250000     0.250000
   40     1.000000    90.000000     0.000000    -1.000000     0.000000     0.250000     0.250000     0.250000
   41     1.000000   180.000000     0.707107     0.707107     0.000000     0.250000     0.250000     0.250000
   42     1.000000    90.000000     1.000000     0.000000     0.000000     0.250000     0.250000     0.250000
   43    -1.000000   120.000000     0.577350    -0.577350    -0.577350     0.250000     0.250000     0.250000
   44    -1.000000   180.000000     0.000000     1.000000     0.000000     0.250000     0.250000     0.250000
   45    -1.000000   120.000000     0.577350     0.577350    -0.577350     0.250000     0.250000     0.250000
   46     1.000000   180.000000     0.000000    -0.707107     0.707107     0.250000     0.250000     0.250000
   47     1.000000   180.000000     0.707107    -0.707107     0.000000     0.250000     0.250000     0.250000
   48     1.000000   180.000000     0.707107     0.000000    -0.707107     0.250000     0.250000     0.250000
 
 Subroutine IBZKPT returns following result:
 ===========================================
 
 Found    256 irreducible k-points:
 
 Following reciprocal coordinates:
            Coordinates               Weight
  0.000000  0.000000  0.000000      1.000000
  0.050000  0.000000  0.000000      8.000000
  0.100000  0.000000  0.000000      8.000000
  0.150000  0.000000  0.000000      8.000000
  0.200000  0.000000  0.000000      8.000000
  0.250000  0.000000  0.000000      8.000000
  0.300000  0.000000  0.000000      8.000000
  0.350000  0.000000  0.000000      8.000000
  0.400000  0.000000  0.000000      8.000000
  0.450000  0.000000  0.000000      8.000000
  0.500000  0.000000  0.000000      4.000000
  0.050000  0.050000  0.000000      6.000000
  0.100000  0.050000  0.000000     24.000000
  0.150000  0.050000  0.000000     24.000000
  0.200000  0.050000  0.000000     24.000000
  0.250000  0.050000  0.000000     24.000000
  0.300000  0.050000  0.000000     24.000000
  0.350000  0.050000  0.000000     24.000000
  0.400000  0.050000  0.000000     24.000000
  0.450000  0.050000  0.000000     24.000000
  0.500000  0.050000  0.000000     24.000000
 -0.450000  0.050000  0.000000     24.000000
 -0.400000  0.050000  0.000000     24.000000
 -0.350000  0.050000  0.000000     24.000000
 -0.300000  0.050000  0.000000     24.000000
 -0.250000  0.050000  0.000000     24.000000
 -0.200000  0.050000  0.000000     24.000000
 -0.150000  0.050000  0.000000     24.000000
 -0.100000  0.050000  0.000000     24.000000
 -0.050000  0.050000  0.000000     12.000000
  0.100000  0.100000  0.000000      6.000000
  0.150000  0.100000  0.000000     24.000000
  0.200000  0.100000  0.000000     24.000000
  0.250000  0.100000  0.000000     24.000000
  0.300000  0.100000  0.000000     24.000000
  0.350000  0.100000  0.000000     24.000000
  0.400000  0.100000  0.000000     24.000000
  0.450000  0.100000  0.000000     24.000000
  0.500000  0.100000  0.000000     24.000000
 -0.450000  0.100000  0.000000     24.000000
 -0.400000  0.100000  0.000000     24.000000
 -0.350000  0.100000  0.000000     24.000000
 -0.300000  0.100000  0.000000     24.000000
 -0.250000  0.100000  0.000000     24.000000
 -0.200000  0.100000  0.000000     24.000000
 -0.150000  0.100000  0.000000     24.000000
 -0.100000  0.100000  0.000000     12.000000
  0.150000  0.150000  0.000000      6.000000
  0.200000  0.150000  0.000000     24.000000
  0.250000  0.150000  0.000000     24.000000
  0.300000  0.150000  0.000000     24.000000
  0.350000  0.150000  0.000000     24.000000
  0.400000  0.150000  0.000000     24.000000
  0.450000  0.150000  0.000000     24.000000
  0.500000  0.150000  0.000000     24.000000
 -0.450000  0.150000  0.000000     24.000000
 -0.400000  0.150000  0.000000     24.000000
 -0.350000  0.150000  0.000000     24.000000
 -0.300000  0.150000  0.000000     24.000000
 -0.250000  0.150000  0.000000     24.000000
 -0.200000  0.150000  0.000000     24.000000
 -0.150000  0.150000  0.000000     12.000000
  0.200000  0.200000  0.000000      6.000000
  0.250000  0.200000  0.000000     24.000000
  0.300000  0.200000  0.000000     24.000000
  0.350000  0.200000  0.000000     24.000000
  0.400000  0.200000  0.000000     24.000000
  0.450000  0.200000  0.000000     24.000000
  0.500000  0.200000  0.000000     24.000000
 -0.450000  0.200000  0.000000     24.000000
 -0.400000  0.200000  0.000000     24.000000
 -0.350000  0.200000  0.000000     24.000000
 -0.300000  0.200000  0.000000     24.000000
 -0.250000  0.200000  0.000000     24.000000
 -0.200000  0.200000  0.000000     12.000000
  0.250000  0.250000  0.000000      6.000000
  0.300000  0.250000  0.000000     24.000000
  0.350000  0.250000  0.000000     24.000000
  0.400000  0.250000  0.000000     24.000000
  0.450000  0.250000  0.000000     24.000000
  0.500000  0.250000  0.000000     24.000000
 -0.450000  0.250000  0.000000     24.000000
 -0.400000  0.250000  0.000000     24.000000
 -0.350000  0.250000  0.000000     24.000000
 -0.300000  0.250000  0.000000     24.000000
 -0.250000  0.250000  0.000000     12.000000
  0.300000  0.300000  0.000000      6.000000
  0.350000  0.300000  0.000000     24.000000
  0.400000  0.300000  0.000000     24.000000
  0.450000  0.300000  0.000000     24.000000
  0.500000  0.300000  0.000000     24.000000
 -0.450000  0.300000  0.000000     24.000000
 -0.400000  0.300000  0.000000     24.000000
 -0.350000  0.300000  0.000000     24.000000
 -0.300000  0.300000  0.000000     12.000000
  0.350000  0.350000  0.000000      6.000000
  0.400000  0.350000  0.000000     24.000000
  0.450000  0.350000  0.000000     24.000000
  0.500000  0.350000  0.000000     24.000000
 -0.450000  0.350000  0.000000     24.000000
 -0.400000  0.350000  0.000000     24.000000
 -0.350000  0.350000  0.000000     12.000000
  0.400000  0.400000  0.000000      6.000000
  0.450000  0.400000  0.000000     24.000000
  0.500000  0.400000  0.000000     24.000000
 -0.450000  0.400000  0.000000     24.000000
 -0.400000  0.400000  0.000000     12.000000
  0.450000  0.450000  0.000000      6.000000
  0.500000  0.450000  0.000000     24.000000
 -0.450000  0.450000  0.000000     12.000000
  0.500000  0.500000  0.000000      3.000000
  0.150000  0.100000  0.050000     24.000000
  0.200000  0.100000  0.050000     48.000000
  0.250000  0.100000  0.050000     48.000000
  0.300000  0.100000  0.050000     48.000000
  0.350000  0.100000  0.050000     48.000000
  0.400000  0.100000  0.050000     48.000000
  0.450000  0.100000  0.050000     48.000000
  0.500000  0.100000  0.050000     48.000000
 -0.450000  0.100000  0.050000     24.000000
  0.200000  0.150000  0.050000     24.000000
  0.250000  0.150000  0.050000     48.000000
  0.300000  0.150000  0.050000     48.000000
  0.350000  0.150000  0.050000     48.000000
  0.400000  0.150000  0.050000     48.000000
  0.450000  0.150000  0.050000     48.000000
  0.500000  0.150000  0.050000     48.000000
 -0.450000  0.150000  0.050000     48.000000
 -0.400000  0.150000  0.050000     48.000000
 -0.350000  0.150000  0.050000     48.000000
 -0.300000  0.150000  0.050000     48.000000
 -0.250000  0.150000  0.050000     48.000000
 -0.200000  0.150000  0.050000     48.000000
 -0.150000  0.150000  0.050000     48.000000
 -0.100000  0.150000  0.050000     24.000000
  0.250000  0.200000  0.050000     24.000000
  0.300000  0.200000  0.050000     48.000000
  0.350000  0.200000  0.050000     48.000000
  0.400000  0.200000  0.050000     48.000000
  0.450000  0.200000  0.050000     48.000000
  0.500000  0.200000  0.050000     48.000000
 -0.450000  0.200000  0.050000     48.000000
 -0.400000  0.200000  0.050000     48.000000
 -0.350000  0.200000  0.050000     48.000000
 -0.300000  0.200000  0.050000     48.000000
 -0.250000  0.200000  0.050000     48.000000
 -0.200000  0.200000  0.050000     48.000000
 -0.150000  0.200000  0.050000     24.000000
  0.300000  0.250000  0.050000     24.000000
  0.350000  0.250000  0.050000     48.000000
  0.400000  0.250000  0.050000     48.000000
  0.450000  0.250000  0.050000     48.000000
  0.500000  0.250000  0.050000     48.000000
 -0.450000  0.250000  0.050000     48.000000
 -0.400000  0.250000  0.050000     48.000000
 -0.350000  0.250000  0.050000     48.000000
 -0.300000  0.250000  0.050000     48.000000
 -0.250000  0.250000  0.050000     48.000000
 -0.200000  0.250000  0.050000     24.000000
  0.350000  0.300000  0.050000     24.000000
  0.400000  0.300000  0.050000     48.000000
  0.450000  0.300000  0.050000     48.000000
  0.500000  0.300000  0.050000     48.000000
 -0.450000  0.300000  0.050000     48.000000
 -0.400000  0.300000  0.050000     48.000000
 -0.350000  0.300000  0.050000     48.000000
 -0.300000  0.300000  0.050000     48.000000
 -0.250000  0.300000  0.050000     24.000000
  0.400000  0.350000  0.050000     24.000000
  0.450000  0.350000  0.050000     48.000000
  0.500000  0.350000  0.050000     48.000000
 -0.450000  0.350000  0.050000     48.000000
 -0.400000  0.350000  0.050000     48.000000
 -0.350000  0.350000  0.050000     48.000000
 -0.300000  0.350000  0.050000     24.000000
  0.450000  0.400000  0.050000     24.000000
  0.500000  0.400000  0.050000     48.000000
 -0.450000  0.400000  0.050000     48.000000
 -0.400000  0.400000  0.050000     48.000000
 -0.350000  0.400000  0.050000     24.000000
  0.500000  0.450000  0.050000     24.000000
 -0.450000  0.450000  0.050000     48.000000
 -0.400000  0.450000  0.050000     24.000000
 -0.450000  0.500000  0.050000     12.000000
  0.300000  0.200000  0.100000     24.000000
  0.350000  0.200000  0.100000     48.000000
  0.400000  0.200000  0.100000     48.000000
  0.450000  0.200000  0.100000     48.000000
  0.500000  0.200000  0.100000     48.000000
 -0.450000  0.200000  0.100000     48.000000
 -0.400000  0.200000  0.100000     24.000000
  0.350000  0.250000  0.100000     24.000000
  0.400000  0.250000  0.100000     48.000000
  0.450000  0.250000  0.100000     48.000000
  0.500000  0.250000  0.100000     48.000000
 -0.450000  0.250000  0.100000     48.000000
 -0.400000  0.250000  0.100000     48.000000
 -0.350000  0.250000  0.100000     48.000000
 -0.300000  0.250000  0.100000     48.000000
 -0.250000  0.250000  0.100000     48.000000
 -0.200000  0.250000  0.100000     48.000000
 -0.150000  0.250000  0.100000     24.000000
  0.400000  0.300000  0.100000     24.000000
  0.450000  0.300000  0.100000     48.000000
  0.500000  0.300000  0.100000     48.000000
 -0.450000  0.300000  0.100000     48.000000
 -0.400000  0.300000  0.100000     48.000000
 -0.350000  0.300000  0.100000     48.000000
 -0.300000  0.300000  0.100000     48.000000
 -0.250000  0.300000  0.100000     48.000000
 -0.200000  0.300000  0.100000     24.000000
  0.450000  0.350000  0.100000     24.000000
  0.500000  0.350000  0.100000     48.000000
 -0.450000  0.350000  0.100000     48.000000
 -0.400000  0.350000  0.100000     48.000000
 -0.350000  0.350000  0.100000     48.000000
 -0.300000  0.350000  0.100000     48.000000
 -0.250000  0.350000  0.100000     24.000000
  0.500000  0.400000  0.100000     24.000000
 -0.450000  0.400000  0.100000     48.000000
 -0.400000  0.400000  0.100000     48.000000
 -0.350000  0.400000  0.100000     48.000000
 -0.300000  0.400000  0.100000     24.000000
 -0.450000  0.450000  0.100000     24.000000
 -0.400000  0.450000  0.100000     48.000000
 -0.350000  0.450000  0.100000     24.000000
 -0.400000  0.500000  0.100000     12.000000
  0.450000  0.300000  0.150000     24.000000
  0.500000  0.300000  0.150000     48.000000
 -0.450000  0.300000  0.150000     48.000000
 -0.400000  0.300000  0.150000     48.000000
 -0.350000  0.300000  0.150000     24.000000
  0.500000  0.350000  0.150000     24.000000
 -0.450000  0.350000  0.150000     48.000000
 -0.400000  0.350000  0.150000     48.000000
 -0.350000  0.350000  0.150000     48.000000
 -0.300000  0.350000  0.150000     48.000000
 -0.250000  0.350000  0.150000     48.000000
 -0.200000  0.350000  0.150000     24.000000
 -0.450000  0.400000  0.150000     24.000000
 -0.400000  0.400000  0.150000     48.000000
 -0.350000  0.400000  0.150000     48.000000
 -0.300000  0.400000  0.150000     48.000000
 -0.250000  0.400000  0.150000     24.000000
 -0.400000  0.450000  0.150000     24.000000
 -0.350000  0.450000  0.150000     48.000000
 -0.300000  0.450000  0.150000     24.000000
 -0.350000  0.500000  0.150000     12.000000
 -0.400000  0.400000  0.200000     24.000000
 -0.350000  0.400000  0.200000     48.000000
 -0.300000  0.400000  0.200000     24.000000
 -0.350000  0.450000  0.200000     24.000000
 -0.300000  0.450000  0.200000     48.000000
 -0.250000  0.450000  0.200000     24.000000
 -0.300000  0.500000  0.200000     12.000000
 -0.250000  0.500000  0.250000      6.000000
 
 Following cartesian coordinates:
            Coordinates               Weight
  0.000000  0.000000  0.000000      1.000000
 -0.009101  0.009101  0.009101      8.000000
 -0.018203  0.018203  0.018203      8.000000
 -0.027304  0.027304  0.027304      8.000000
 -0.036406  0.036406  0.036406      8.000000
 -0.045507  0.045507  0.045507      8.000000
 -0.054609  0.054609  0.054609      8.000000
 -0.063710  0.063710  0.063710      8.000000
 -0.072811  0.072811  0.072811      8.000000
 -0.081913  0.081913  0.081913      8.000000
 -0.091014  0.091014  0.091014      4.000000
  0.000000  0.000000  0.018203      6.000000
 -0.009101  0.009101  0.027304     24.000000
 -0.018203  0.018203  0.036406     24.000000
 -0.027304  0.027304  0.045507     24.000000
 -0.036406  0.036406  0.054609     24.000000
 -0.045507  0.045507  0.063710     24.000000
 -0.054609  0.054609  0.072811     24.000000
 -0.063710  0.063710  0.081913     24.000000
 -0.072811  0.072811  0.091014     24.000000
 -0.081913  0.081913  0.100116     24.000000
  0.091014 -0.091014 -0.072811     24.000000
  0.081913 -0.081913 -0.063710     24.000000
  0.072811 -0.072811 -0.054609     24.000000
  0.063710 -0.063710 -0.045507     24.000000
  0.054609 -0.054609 -0.036406     24.000000
  0.045507 -0.045507 -0.027304     24.000000
  0.036406 -0.036406 -0.018203     24.000000
  0.027304 -0.027304 -0.009101     24.000000
  0.018203 -0.018203  0.000000     12.000000
  0.000000  0.000000  0.036406      6.000000
 -0.009101  0.009101  0.045507     24.000000
 -0.018203  0.018203  0.054609     24.000000
 -0.027304  0.027304  0.063710     24.000000
 -0.036406  0.036406  0.072811     24.000000
 -0.045507  0.045507  0.081913     24.000000
 -0.054609  0.054609  0.091014     24.000000
 -0.063710  0.063710  0.100116     24.000000
 -0.072811  0.072811  0.109217     24.000000
  0.100116 -0.100116 -0.063710     24.000000
  0.091014 -0.091014 -0.054609     24.000000
  0.081913 -0.081913 -0.045507     24.000000
  0.072811 -0.072811 -0.036406     24.000000
  0.063710 -0.063710 -0.027304     24.000000
  0.054609 -0.054609 -0.018203     24.000000
  0.045507 -0.045507 -0.009101     24.000000
  0.036406 -0.036406  0.000000     12.000000
  0.000000  0.000000  0.054609      6.000000
 -0.009101  0.009101  0.063710     24.000000
 -0.018203  0.018203  0.072811     24.000000
 -0.027304  0.027304  0.081913     24.000000
 -0.036406  0.036406  0.091014     24.000000
 -0.045507  0.045507  0.100116     24.000000
 -0.054609  0.054609  0.109217     24.000000
 -0.063710  0.063710  0.118319     24.000000
  0.109217 -0.109217 -0.054609     24.000000
  0.100116 -0.100116 -0.045507     24.000000
  0.091014 -0.091014 -0.036406     24.000000
  0.081913 -0.081913 -0.027304     24.000000
  0.072811 -0.072811 -0.018203     24.000000
  0.063710 -0.063710 -0.009101     24.000000
  0.054609 -0.054609  0.000000     12.000000
  0.000000  0.000000  0.072811      6.000000
 -0.009101  0.009101  0.081913     24.000000
 -0.018203  0.018203  0.091014     24.000000
 -0.027304  0.027304  0.100116     24.000000
 -0.036406  0.036406  0.109217     24.000000
 -0.045507  0.045507  0.118319     24.000000
 -0.054609  0.054609  0.127420     24.000000
  0.118319 -0.118319 -0.045507     24.000000
  0.109217 -0.109217 -0.036406     24.000000
  0.100116 -0.100116 -0.027304     24.000000
  0.091014 -0.091014 -0.018203     24.000000
  0.081913 -0.081913 -0.009101     24.000000
  0.072811 -0.072811  0.000000     12.000000
  0.000000  0.000000  0.091014      6.000000
 -0.009101  0.009101  0.100116     24.000000
 -0.018203  0.018203  0.109217     24.000000
 -0.027304  0.027304  0.118319     24.000000
 -0.036406  0.036406  0.127420     24.000000
 -0.045507  0.045507  0.136521     24.000000
  0.127420 -0.127420 -0.036406     24.000000
  0.118319 -0.118319 -0.027304     24.000000
  0.109217 -0.109217 -0.018203     24.000000
  0.100116 -0.100116 -0.009101     24.000000
  0.091014 -0.091014  0.000000     12.000000
  0.000000  0.000000  0.109217      6.000000
 -0.009101  0.009101  0.118319     24.000000
 -0.018203  0.018203  0.127420     24.000000
 -0.027304  0.027304  0.136521     24.000000
 -0.036406  0.036406  0.145623     24.000000
  0.136521 -0.136521 -0.027304     24.000000
  0.127420 -0.127420 -0.018203     24.000000
  0.118319 -0.118319 -0.009101     24.000000
  0.109217 -0.109217  0.000000     12.000000
  0.000000  0.000000  0.127420      6.000000
 -0.009101  0.009101  0.136521     24.000000
 -0.018203  0.018203  0.145623     24.000000
 -0.027304  0.027304  0.154724     24.000000
  0.145623 -0.145623 -0.018203     24.000000
  0.136521 -0.136521 -0.009101     24.000000
  0.127420 -0.127420  0.000000     12.000000
  0.000000  0.000000  0.145623      6.000000
 -0.009101  0.009101  0.154724     24.000000
 -0.018203  0.018203  0.163826     24.000000
  0.154724 -0.154724 -0.009101     24.000000
  0.145623 -0.145623  0.000000     12.000000
  0.000000  0.000000  0.163826      6.000000
 -0.009101  0.009101  0.172927     24.000000
  0.163826 -0.163826  0.000000     12.000000
  0.000000  0.000000  0.182029      3.000000
 -0.000000  0.018203  0.036406     24.000000
 -0.009101  0.027304  0.045507     48.000000
 -0.018203  0.036406  0.054609     48.000000
 -0.027304  0.045507  0.063710     48.000000
 -0.036406  0.054609  0.072811     48.000000
 -0.045507  0.063710  0.081913     48.000000
 -0.054609  0.072811  0.091014     48.000000
 -0.063710  0.081913  0.100116     48.000000
  0.109217 -0.091014 -0.072811     24.000000
  0.000000  0.018203  0.054609     24.000000
 -0.009101  0.027304  0.063710     48.000000
 -0.018203  0.036406  0.072811     48.000000
 -0.027304  0.045507  0.081913     48.000000
 -0.036406  0.054609  0.091014     48.000000
 -0.045507  0.063710  0.100116     48.000000
 -0.054609  0.072811  0.109217     48.000000
  0.118319 -0.100116 -0.063710     48.000000
  0.109217 -0.091014 -0.054609     48.000000
  0.100116 -0.081913 -0.045507     48.000000
  0.091014 -0.072811 -0.036406     48.000000
  0.081913 -0.063710 -0.027304     48.000000
  0.072811 -0.054609 -0.018203     48.000000
  0.063710 -0.045507 -0.009101     48.000000
  0.054609 -0.036406  0.000000     24.000000
  0.000000  0.018203  0.072811     24.000000
 -0.009101  0.027304  0.081913     48.000000
 -0.018203  0.036406  0.091014     48.000000
 -0.027304  0.045507  0.100116     48.000000
 -0.036406  0.054609  0.109217     48.000000
 -0.045507  0.063710  0.118319     48.000000
  0.127420 -0.109217 -0.054609     48.000000
  0.118319 -0.100116 -0.045507     48.000000
  0.109217 -0.091014 -0.036406     48.000000
  0.100116 -0.081913 -0.027304     48.000000
  0.091014 -0.072811 -0.018203     48.000000
  0.081913 -0.063710 -0.009101     48.000000
  0.072811 -0.054609  0.000000     24.000000
  0.000000  0.018203  0.091014     24.000000
 -0.009101  0.027304  0.100116     48.000000
 -0.018203  0.036406  0.109217     48.000000
 -0.027304  0.045507  0.118319     48.000000
 -0.036406  0.054609  0.127420     48.000000
  0.136521 -0.118319 -0.045507     48.000000
  0.127420 -0.109217 -0.036406     48.000000
  0.118319 -0.100116 -0.027304     48.000000
  0.109217 -0.091014 -0.018203     48.000000
  0.100116 -0.081913 -0.009101     48.000000
  0.091014 -0.072811  0.000000     24.000000
  0.000000  0.018203  0.109217     24.000000
 -0.009101  0.027304  0.118319     48.000000
 -0.018203  0.036406  0.127420     48.000000
 -0.027304  0.045507  0.136521     48.000000
  0.145623 -0.127420 -0.036406     48.000000
  0.136521 -0.118319 -0.027304     48.000000
  0.127420 -0.109217 -0.018203     48.000000
  0.118319 -0.100116 -0.009101     48.000000
  0.109217 -0.091014  0.000000     24.000000
 -0.000000  0.018203  0.127420     24.000000
 -0.009101  0.027304  0.136521     48.000000
 -0.018203  0.036406  0.145623     48.000000
  0.154724 -0.136521 -0.027304     48.000000
  0.145623 -0.127420 -0.018203     48.000000
  0.136521 -0.118319 -0.009101     48.000000
  0.127420 -0.109217  0.000000     24.000000
  0.000000  0.018203  0.145623     24.000000
 -0.009101  0.027304  0.154724     48.000000
  0.163826 -0.145623 -0.018203     48.000000
  0.154724 -0.136521 -0.009101     48.000000
  0.145623 -0.127420  0.000000     24.000000
  0.000000  0.018203  0.163826     24.000000
  0.172927 -0.154724 -0.009101     48.000000
  0.163826 -0.145623  0.000000     24.000000
  0.182029 -0.163826  0.000000     12.000000
  0.000000  0.036406  0.072811     24.000000
 -0.009101  0.045507  0.081913     48.000000
 -0.018203  0.054609  0.091014     48.000000
 -0.027304  0.063710  0.100116     48.000000
 -0.036406  0.072811  0.109217     48.000000
  0.136521 -0.100116 -0.063710     48.000000
  0.127420 -0.091014 -0.054609     24.000000
  0.000000  0.036406  0.091014     24.000000
 -0.009101  0.045507  0.100116     48.000000
 -0.018203  0.054609  0.109217     48.000000
 -0.027304  0.063710  0.118319     48.000000
  0.145623 -0.109217 -0.054609     48.000000
  0.136521 -0.100116 -0.045507     48.000000
  0.127420 -0.091014 -0.036406     48.000000
  0.118319 -0.081913 -0.027304     48.000000
  0.109217 -0.072811 -0.018203     48.000000
  0.100116 -0.063710 -0.009101     48.000000
  0.091014 -0.054609  0.000000     24.000000
 -0.000000  0.036406  0.109217     24.000000
 -0.009101  0.045507  0.118319     48.000000
 -0.018203  0.054609  0.127420     48.000000
  0.154724 -0.118319 -0.045507     48.000000
  0.145623 -0.109217 -0.036406     48.000000
  0.136521 -0.100116 -0.027304     48.000000
  0.127420 -0.091014 -0.018203     48.000000
  0.118319 -0.081913 -0.009101     48.000000
  0.109217 -0.072811  0.000000     24.000000
 -0.000000  0.036406  0.127420     24.000000
 -0.009101  0.045507  0.136521     48.000000
  0.163826 -0.127420 -0.036406     48.000000
  0.154724 -0.118319 -0.027304     48.000000
  0.145623 -0.109217 -0.018203     48.000000
  0.136521 -0.100116 -0.009101     48.000000
  0.127420 -0.091014  0.000000     24.000000
  0.000000  0.036406  0.145623     24.000000
  0.172927 -0.136521 -0.027304     48.000000
  0.163826 -0.127420 -0.018203     48.000000
  0.154724 -0.118319 -0.009101     48.000000
  0.145623 -0.109217  0.000000     24.000000
  0.182029 -0.145623 -0.018203     24.000000
  0.172927 -0.136521 -0.009101     48.000000
  0.163826 -0.127420  0.000000     24.000000
  0.182029 -0.145623  0.000000     12.000000
  0.000000  0.054609  0.109217     24.000000
 -0.009101  0.063710  0.118319     48.000000
  0.163826 -0.109217 -0.054609     48.000000
  0.154724 -0.100116 -0.045507     48.000000
  0.145623 -0.091014 -0.036406     24.000000
  0.000000  0.054609  0.127420     24.000000
  0.172927 -0.118319 -0.045507     48.000000
  0.163826 -0.109217 -0.036406     48.000000
  0.154724 -0.100116 -0.027304     48.000000
  0.145623 -0.091014 -0.018203     48.000000
  0.136521 -0.081913 -0.009101     48.000000
  0.127420 -0.072811 -0.000000     24.000000
  0.182029 -0.127420 -0.036406     24.000000
  0.172927 -0.118319 -0.027304     48.000000
  0.163826 -0.109217 -0.018203     48.000000
  0.154724 -0.100116 -0.009101     48.000000
  0.145623 -0.091014  0.000000     24.000000
  0.182029 -0.127420 -0.018203     24.000000
  0.172927 -0.118319 -0.009101     48.000000
  0.163826 -0.109217  0.000000     24.000000
  0.182029 -0.127420  0.000000     12.000000
  0.182029 -0.109217 -0.036406     24.000000
  0.172927 -0.100116 -0.027304     48.000000
  0.163826 -0.091014 -0.018203     24.000000
  0.182029 -0.109217 -0.018203     24.000000
  0.172927 -0.100116 -0.009101     48.000000
  0.163826 -0.091014  0.000000     24.000000
  0.182029 -0.109217  0.000000     12.000000
  0.182029 -0.091014  0.000000      6.000000
 


--------------------------------------------------------------------------------------------------------




 Dimension of arrays:
   k-points           NKPTS =      256   k-points in BZ     NKDIM =      256   number of bands    NBANDS=     16
   number of dos      NEDOS =    301   number of ions     NIONS =      2
   non local maximal  LDIM  =      4   non local SUM 2l+1 LMDIM =      8
   total plane-waves  NPLWV =  21952
   max r-space proj   IRMAX =      1   max aug-charges    IRDMAX=  17905
   dimension x,y,z NGX =    28 NGY =   28 NGZ =   28
   dimension x,y,z NGXF=    56 NGYF=   56 NGZF=   56
   support grid    NGXF=    56 NGYF=   56 NGZF=   56
   ions per type =               2
 NGX,Y,Z   is equivalent  to a cutoff of  11.98, 11.98, 11.98 a.u.
 NGXF,Y,Z  is equivalent  to a cutoff of  23.97, 23.97, 23.97 a.u.


 I would recommend the setting:
   dimension x,y,z NGX =    28 NGY =   28 NGZ =   28
 SYSTEM =  unknown system                          
 POSCAR =  bulk@JVASP-1002                         

 Startparameter for this run:
   NWRITE =      2    write-flag & timer
   PREC   = accura    normal or accurate (medium, high low for compatibility)
   ISTART =      0    job   : 0-new  1-cont  2-samecut
   ICHARG =      2    charge: 1-file 2-atom 10-const
   ISPIN  =      1    spin polarized calculation?
   LNONCOLLINEAR =      F non collinear calculations
   LSORBIT =      F    spin-orbit coupling
   INIWAV =      1    electr: 0-lowe 1-rand  2-diag
   LASPH  =      F    aspherical Exc in radial PAW
   METAGGA=      F    non-selfconsistent MetaGGA calc.

 Electronic Relaxation 1
   ENCUT  =  500.0 eV  36.75 Ry    6.06 a.u.   7.08  7.08  7.08*2*pi/ulx,y,z
   ENINI  =  500.0     initial cutoff
   ENAUG  =  322.1 eV  augmentation charge cutoff
   NELM   =    400;   NELMIN=  2; NELMDL= -5     # of ELM steps 
   EDIFF  = 0.1E-06   stopping-criterion for ELM
   LREAL  =      F    real-space projection
   NLSPLINE    = F    spline interpolate recip. space projectors
   LCOMPAT=      F    compatible to vasp.4.4
   GGA_COMPAT  = T    GGA compatible to vasp.4.4-vasp.4.6
   LMAXPAW     = -100 max onsite density
   LMAXMIX     =    2 max onsite mixed and CHGCAR
   VOSKOWN=      0    Vosko Wilk Nusair interpolation
   ROPT   =    0.00000
 Ionic relaxation
   EDIFFG = 0.1E-05   stopping-criterion for IOM
   NSW    =      1    number of steps for IOM
   NBLOCK =      1;   KBLOCK =      1    inner block; outer block 
   IBRION =      2    ionic relax: 0-MD 1-quasi-New 2-CG
   NFREE  =      1    steps in history (QN), initial steepest desc. (CG)
   ISIF   =      2    stress and relaxation
   IWAVPR =     11    prediction:  0-non 1-charg 2-wave 3-comb
   ISYM   =      2    0-nonsym 1-usesym 2-fastsym
   LCORR  =      T    Harris-Foulkes like correction to forces

   POTIM  = 0.5000    time-step for ionic-motion
   TEIN   =    0.0    initial temperature
   TEBEG  =    0.0;   TEEND  =   0.0 temperature during run
   SMASS  =  -3.00    Nose mass-parameter (am)
   estimated Nose-frequenzy (Omega)   =  0.10E-29 period in steps =****** mass=  -0.345E-27a.u.
   SCALEE = 1.0000    scale energy and forces
   NPACO  =    256;   APACO  = 16.0  distance and # of slots for P.C.
   PSTRESS=    0.0 pullay stress

  Mass of Ions in am
   POMASS =  28.09
  Ionic Valenz
   ZVAL   =   4.00
  Atomic Wigner-Seitz radii
   RWIGS  =  -1.00
  virtual crystal weights 
   VCA    =   1.00
   NELECT =       8.0000    total number of electrons
   NUPDOWN=      -1.0000    fix difference up-down

 DOS related values:
   EMIN   =  10.00;   EMAX   =-10.00  energy-range for DOS
   EFERMI =   0.00
   ISMEAR =     0;   SIGMA  =   0.20  broadening in eV -4-tet -1-fermi 0-gaus

 Electronic relaxation 2 (details)
   IALGO  =     38    algorithm
   LDIAG  =      T    sub-space diagonalisation (order eigenvalues)
   LSUBROT=      F    optimize rotation matrix (better conditioning)
   TURBO    =      0    0=normal 1=particle mesh
   IRESTART =      0    0=no restart 2=restart with 2 vectors
   NREBOOT  =      0    no. of reboots
   NMIN     =      0    reboot dimension
   EREF     =   0.00    reference energy to select bands
   IMIX   =      4    mixing-type and parameters
     AMIX     =   0.40;   BMIX     =  1.00
     AMIX_MAG =   1.60;   BMIX_MAG =  1.00
     AMIN     =   0.10
     WC   =   100.;   INIMIX=   1;  MIXPRE=   1;  MAXMIX= -45

 Intra band minimization:
   WEIMIN = 0.0010     energy-eigenvalue tresh-hold
   EBREAK =  0.16E-08  absolut break condition
   DEPER  =   0.30     relativ break condition  

   TIME   =   0.40     timestep for ELM

  volume/ion in A,a.u.               =      20.72       139.86
  Fermi-wavevector in a.u.,A,eV,Ry     =   0.946087  1.787845 12.178313  0.895081
  Thomas-Fermi vector in A             =   2.074051

 Write flags
   LWAVE  =      F    write WAVECAR
   LCHARG =      F    write CHGCAR
   LVTOT  =      F    write LOCPOT, total local potential
   LVHAR  =      F    write LOCPOT, Hartree potential only
   LELF   =      F    write electronic localiz. function (ELF)
   LORBIT =      0    0 simple, 1 ext, 2 COOP (PROOUT)


 Dipole corrections
   LMONO  =      F    monopole corrections only (constant potential shift)
   LDIPOL =      F    correct potential (dipole corrections)
   IDIPOL =      0    1-x, 2-y, 3-z, 4-all directions 
   EPSILON=  1.0000000 bulk dielectric constant

 Exchange correlation treatment:
   GGA     =    BO    GGA type
   LEXCH   =    42    internal setting for exchange type
   VOSKOWN=      0    Vosko Wilk Nusair interpolation
   LHFCALC =     F    Hartree Fock is set to
   LHFONE  =     F    Hartree Fock one center treatment
   AEXX    =    0.0000 exact exchange contribution

 vdW DFT:
   LUSE_VDW   =     T    switch on vdW DFT
   Zab_VDW    =-.8491    correlation parameter
   PARAM1     =0.1833
   PARAM2     =0.2200
   PARAM3     =0.0000

 Linear response parameters
   LEPSILON=     F    determine dielectric tensor
   LRPA    =     F    only Hartree local field effects (RPA)
   LNABLA  =     F    use nabla operator in PAW spheres
   LVEL    =     F    velocity operator in full k-point grid
   LINTERFAST=   F  fast interpolation
   KINTER  =     0    interpolate to denser k-point grid
   CSHIFT  =0.1000    complex shift for real part using Kramers Kronig
   OMEGAMAX=  -1.0    maximum frequency
   DEG_THRESHOLD= 0.2000000E-02 threshold for treating states as degnerate
   RTIME   =    0.100 relaxation time in fs

 Orbital magnetization related:
   ORBITALMAG=     F  switch on orbital magnetization
   LCHIMAG   =     F  perturbation theory with respect to B field
   DQ        =  0.001000  dq finite difference perturbation B field



--------------------------------------------------------------------------------------------------------


 conjugate gradient relaxation of ions
 charge density and potential will be updated during run
 non-spin polarized calculation
 Variant of blocked Davidson
 Davidson routine will perform the subspace rotation
 perform sub-space diagonalisation
    after iterative eigenvector-optimisation
 modified Broyden-mixing scheme, WC =      100.0
 initial mixing is a Kerker type mixing with AMIX =  0.4000 and BMIX =      1.0000
 Hartree-type preconditioning will be used
 using additional bands           12
 reciprocal scheme for non local part
 use partial core corrections
 calculate Harris-corrections to forces   (improved forces if not selfconsistent)
 use gradient corrections 
 use of overlap-Matrix (Vanderbilt PP)
 Gauss-broadening in eV      SIGMA  =   0.20


--------------------------------------------------------------------------------------------------------


  energy-cutoff  :      500.00
  volume of cell :       41.45
      direct lattice vectors                 reciprocal lattice vectors
     0.000000000  2.746821138  2.746821138    -0.182028598  0.182028598  0.182028598
     2.746821138  0.000000000  2.746821138     0.182028598 -0.182028598  0.182028598
     2.746821138  2.746821138  0.000000000     0.182028598  0.182028598 -0.182028598

  length of vectors
     3.884591706  3.884591706  3.884591706     0.315282780  0.315282780  0.315282780



 k-points in units of 2pi/SCALE and weight: Automatic kpoint scheme                 
   0.00000000  0.00000000  0.00000000       0.000
  -0.00910143  0.00910143  0.00910143       0.001
  -0.01820286  0.01820286  0.01820286       0.001
  -0.02730429  0.02730429  0.02730429       0.001
  -0.03640572  0.03640572  0.03640572       0.001
  -0.04550715  0.04550715  0.04550715       0.001
  -0.05460858  0.05460858  0.05460858       0.001
  -0.06371001  0.06371001  0.06371001       0.001
  -0.07281144  0.07281144  0.07281144       0.001
  -0.08191287  0.08191287  0.08191287       0.001
  -0.09101430  0.09101430  0.09101430       0.001
   0.00000000  0.00000000  0.01820286       0.001
  -0.00910143  0.00910143  0.02730429       0.003
  -0.01820286  0.01820286  0.03640572       0.003
  -0.02730429  0.02730429  0.04550715       0.003
  -0.03640572  0.03640572  0.05460858       0.003
  -0.04550715  0.04550715  0.06371001       0.003
  -0.05460858  0.05460858  0.07281144       0.003
  -0.06371001  0.06371001  0.08191287       0.003
  -0.07281144  0.07281144  0.09101430       0.003
  -0.08191287  0.08191287  0.10011573       0.003
   0.09101430 -0.09101430 -0.07281144       0.003
   0.08191287 -0.08191287 -0.06371001       0.003
   0.07281144 -0.07281144 -0.05460858       0.003
   0.06371001 -0.06371001 -0.04550715       0.003
   0.05460858 -0.05460858 -0.03640572       0.003
   0.04550715 -0.04550715 -0.02730429       0.003
   0.03640572 -0.03640572 -0.01820286       0.003
   0.02730429 -0.02730429 -0.00910143       0.003
   0.01820286 -0.01820286  0.00000000       0.002
   0.00000000  0.00000000  0.03640572       0.001
  -0.00910143  0.00910143  0.04550715       0.003
  -0.01820286  0.01820286  0.05460858       0.003
  -0.02730429  0.02730429  0.06371001       0.003
  -0.03640572  0.03640572  0.07281144       0.003
  -0.04550715  0.04550715  0.08191287       0.003
  -0.05460858  0.05460858  0.09101430       0.003
  -0.06371001  0.06371001  0.10011573       0.003
  -0.07281144  0.07281144  0.10921716       0.003
   0.10011573 -0.10011573 -0.06371001       0.003
   0.09101430 -0.09101430 -0.05460858       0.003
   0.08191287 -0.08191287 -0.04550715       0.003
   0.07281144 -0.07281144 -0.03640572       0.003
   0.06371001 -0.06371001 -0.02730429       0.003
   0.05460858 -0.05460858 -0.01820286       0.003
   0.04550715 -0.04550715 -0.00910143       0.003
   0.03640572 -0.03640572  0.00000000       0.002
   0.00000000  0.00000000  0.05460858       0.001
  -0.00910143  0.00910143  0.06371001       0.003
  -0.01820286  0.01820286  0.07281144       0.003
  -0.02730429  0.02730429  0.08191287       0.003
  -0.03640572  0.03640572  0.09101430       0.003
  -0.04550715  0.04550715  0.10011573       0.003
  -0.05460858  0.05460858  0.10921716       0.003
  -0.06371001  0.06371001  0.11831859       0.003
   0.10921716 -0.10921716 -0.05460858       0.003
   0.10011573 -0.10011573 -0.04550715       0.003
   0.09101430 -0.09101430 -0.03640572       0.003
   0.08191287 -0.08191287 -0.02730429       0.003
   0.07281144 -0.07281144 -0.01820286       0.003
   0.06371001 -0.06371001 -0.00910143       0.003
   0.05460858 -0.05460858  0.00000000       0.002
   0.00000000  0.00000000  0.07281144       0.001
  -0.00910143  0.00910143  0.08191287       0.003
  -0.01820286  0.01820286  0.09101430       0.003
  -0.02730429  0.02730429  0.10011573       0.003
  -0.03640572  0.03640572  0.10921716       0.003
  -0.04550715  0.04550715  0.11831859       0.003
  -0.05460858  0.05460858  0.12742002       0.003
   0.11831859 -0.11831859 -0.04550715       0.003
   0.10921716 -0.10921716 -0.03640572       0.003
   0.10011573 -0.10011573 -0.02730429       0.003
   0.09101430 -0.09101430 -0.01820286       0.003
   0.08191287 -0.08191287 -0.00910143       0.003
   0.07281144 -0.07281144  0.00000000       0.002
   0.00000000  0.00000000  0.09101430       0.001
  -0.00910143  0.00910143  0.10011573       0.003
  -0.01820286  0.01820286  0.10921716       0.003
  -0.02730429  0.02730429  0.11831859       0.003
  -0.03640572  0.03640572  0.12742002       0.003
  -0.04550715  0.04550715  0.13652145       0.003
   0.12742002 -0.12742002 -0.03640572       0.003
   0.11831859 -0.11831859 -0.02730429       0.003
   0.10921716 -0.10921716 -0.01820286       0.003
   0.10011573 -0.10011573 -0.00910143       0.003
   0.09101430 -0.09101430  0.00000000       0.002
   0.00000000  0.00000000  0.10921716       0.001
  -0.00910143  0.00910143  0.11831859       0.003
  -0.01820286  0.01820286  0.12742002       0.003
  -0.02730429  0.02730429  0.13652145       0.003
  -0.03640572  0.03640572  0.14562288       0.003
   0.13652145 -0.13652145 -0.02730429       0.003
   0.12742002 -0.12742002 -0.01820286       0.003
   0.11831859 -0.11831859 -0.00910143       0.003
   0.10921716 -0.10921716  0.00000000       0.002
   0.00000000  0.00000000  0.12742002       0.001
  -0.00910143  0.00910143  0.13652145       0.003
  -0.01820286  0.01820286  0.14562288       0.003
  -0.02730429  0.02730429  0.15472431       0.003
   0.14562288 -0.14562288 -0.01820286       0.003
   0.13652145 -0.13652145 -0.00910143       0.003
   0.12742002 -0.12742002  0.00000000       0.002
   0.00000000  0.00000000  0.14562288       0.001
  -0.00910143  0.00910143  0.15472431       0.003
  -0.01820286  0.01820286  0.16382574       0.003
   0.15472431 -0.15472431 -0.00910143       0.003
   0.14562288 -0.14562288  0.00000000       0.002
   0.00000000  0.00000000  0.16382574       0.001
  -0.00910143  0.00910143  0.17292717       0.003
   0.16382574 -0.16382574  0.00000000       0.002
   0.00000000  0.00000000  0.18202860       0.000
  -0.00000000  0.01820286  0.03640572       0.003
  -0.00910143  0.02730429  0.04550715       0.006
  -0.01820286  0.03640572  0.05460858       0.006
  -0.02730429  0.04550715  0.06371001       0.006
  -0.03640572  0.05460858  0.07281144       0.006
  -0.04550715  0.06371001  0.08191287       0.006
  -0.05460858  0.07281144  0.09101430       0.006
  -0.06371001  0.08191287  0.10011573       0.006
   0.10921716 -0.09101430 -0.07281144       0.003
   0.00000000  0.01820286  0.05460858       0.003
  -0.00910143  0.02730429  0.06371001       0.006
  -0.01820286  0.03640572  0.07281144       0.006
  -0.02730429  0.04550715  0.08191287       0.006
  -0.03640572  0.05460858  0.09101430       0.006
  -0.04550715  0.06371001  0.10011573       0.006
  -0.05460858  0.07281144  0.10921716       0.006
   0.11831859 -0.10011573 -0.06371001       0.006
   0.10921716 -0.09101430 -0.05460858       0.006
   0.10011573 -0.08191287 -0.04550715       0.006
   0.09101430 -0.07281144 -0.03640572       0.006
   0.08191287 -0.06371001 -0.02730429       0.006
   0.07281144 -0.05460858 -0.01820286       0.006
   0.06371001 -0.04550715 -0.00910143       0.006
   0.05460858 -0.03640572  0.00000000       0.003
   0.00000000  0.01820286  0.07281144       0.003
  -0.00910143  0.02730429  0.08191287       0.006
  -0.01820286  0.03640572  0.09101430       0.006
  -0.02730429  0.04550715  0.10011573       0.006
  -0.03640572  0.05460858  0.10921716       0.006
  -0.04550715  0.06371001  0.11831859       0.006
   0.12742002 -0.10921716 -0.05460858       0.006
   0.11831859 -0.10011573 -0.04550715       0.006
   0.10921716 -0.09101430 -0.03640572       0.006
   0.10011573 -0.08191287 -0.02730429       0.006
   0.09101430 -0.07281144 -0.01820286       0.006
   0.08191287 -0.06371001 -0.00910143       0.006
   0.07281144 -0.05460858  0.00000000       0.003
   0.00000000  0.01820286  0.09101430       0.003
  -0.00910143  0.02730429  0.10011573       0.006
  -0.01820286  0.03640572  0.10921716       0.006
  -0.02730429  0.04550715  0.11831859       0.006
  -0.03640572  0.05460858  0.12742002       0.006
   0.13652145 -0.11831859 -0.04550715       0.006
   0.12742002 -0.10921716 -0.03640572       0.006
   0.11831859 -0.10011573 -0.02730429       0.006
   0.10921716 -0.09101430 -0.01820286       0.006
   0.10011573 -0.08191287 -0.00910143       0.006
   0.09101430 -0.07281144  0.00000000       0.003
   0.00000000  0.01820286  0.10921716       0.003
  -0.00910143  0.02730429  0.11831859       0.006
  -0.01820286  0.03640572  0.12742002       0.006
  -0.02730429  0.04550715  0.13652145       0.006
   0.14562288 -0.12742002 -0.03640572       0.006
   0.13652145 -0.11831859 -0.02730429       0.006
   0.12742002 -0.10921716 -0.01820286       0.006
   0.11831859 -0.10011573 -0.00910143       0.006
   0.10921716 -0.09101430  0.00000000       0.003
  -0.00000000  0.01820286  0.12742002       0.003
  -0.00910143  0.02730429  0.13652145       0.006
  -0.01820286  0.03640572  0.14562288       0.006
   0.15472431 -0.13652145 -0.02730429       0.006
   0.14562288 -0.12742002 -0.01820286       0.006
   0.13652145 -0.11831859 -0.00910143       0.006
   0.12742002 -0.10921716  0.00000000       0.003
   0.00000000  0.01820286  0.14562288       0.003
  -0.00910143  0.02730429  0.15472431       0.006
   0.16382574 -0.14562288 -0.01820286       0.006
   0.15472431 -0.13652145 -0.00910143       0.006
   0.14562288 -0.12742002  0.00000000       0.003
   0.00000000  0.01820286  0.16382574       0.003
   0.17292717 -0.15472431 -0.00910143       0.006
   0.16382574 -0.14562288  0.00000000       0.003
   0.18202860 -0.16382574  0.00000000       0.002
   0.00000000  0.03640572  0.07281144       0.003
  -0.00910143  0.04550715  0.08191287       0.006
  -0.01820286  0.05460858  0.09101430       0.006
  -0.02730429  0.06371001  0.10011573       0.006
  -0.03640572  0.07281144  0.10921716       0.006
   0.13652145 -0.10011573 -0.06371001       0.006
   0.12742002 -0.09101430 -0.05460858       0.003
   0.00000000  0.03640572  0.09101430       0.003
  -0.00910143  0.04550715  0.10011573       0.006
  -0.01820286  0.05460858  0.10921716       0.006
  -0.02730429  0.06371001  0.11831859       0.006
   0.14562288 -0.10921716 -0.05460858       0.006
   0.13652145 -0.10011573 -0.04550715       0.006
   0.12742002 -0.09101430 -0.03640572       0.006
   0.11831859 -0.08191287 -0.02730429       0.006
   0.10921716 -0.07281144 -0.01820286       0.006
   0.10011573 -0.06371001 -0.00910143       0.006
   0.09101430 -0.05460858  0.00000000       0.003
  -0.00000000  0.03640572  0.10921716       0.003
  -0.00910143  0.04550715  0.11831859       0.006
  -0.01820286  0.05460858  0.12742002       0.006
   0.15472431 -0.11831859 -0.04550715       0.006
   0.14562288 -0.10921716 -0.03640572       0.006
   0.13652145 -0.10011573 -0.02730429       0.006
   0.12742002 -0.09101430 -0.01820286       0.006
   0.11831859 -0.08191287 -0.00910143       0.006
   0.10921716 -0.07281144  0.00000000       0.003
  -0.00000000  0.03640572  0.12742002       0.003
  -0.00910143  0.04550715  0.13652145       0.006
   0.16382574 -0.12742002 -0.03640572       0.006
   0.15472431 -0.11831859 -0.02730429       0.006
   0.14562288 -0.10921716 -0.01820286       0.006
   0.13652145 -0.10011573 -0.00910143       0.006
   0.12742002 -0.09101430  0.00000000       0.003
   0.00000000  0.03640572  0.14562288       0.003
   0.17292717 -0.13652145 -0.02730429       0.006
   0.16382574 -0.12742002 -0.01820286       0.006
   0.15472431 -0.11831859 -0.00910143       0.006
   0.14562288 -0.10921716  0.00000000       0.003
   0.18202860 -0.14562288 -0.01820286       0.003
   0.17292717 -0.13652145 -0.00910143       0.006
   0.16382574 -0.12742002  0.00000000       0.003
   0.18202860 -0.14562288  0.00000000       0.002
   0.00000000  0.05460858  0.10921716       0.003
  -0.00910143  0.06371001  0.11831859       0.006
   0.16382574 -0.10921716 -0.05460858       0.006
   0.15472431 -0.10011573 -0.04550715       0.006
   0.14562288 -0.09101430 -0.03640572       0.003
   0.00000000  0.05460858  0.12742002       0.003
   0.17292717 -0.11831859 -0.04550715       0.006
   0.16382574 -0.10921716 -0.03640572       0.006
   0.15472431 -0.10011573 -0.02730429       0.006
   0.14562288 -0.09101430 -0.01820286       0.006
   0.13652145 -0.08191287 -0.00910143       0.006
   0.12742002 -0.07281144 -0.00000000       0.003
   0.18202860 -0.12742002 -0.03640572       0.003
   0.17292717 -0.11831859 -0.02730429       0.006
   0.16382574 -0.10921716 -0.01820286       0.006
   0.15472431 -0.10011573 -0.00910143       0.006
   0.14562288 -0.09101430  0.00000000       0.003
   0.18202860 -0.12742002 -0.01820286       0.003
   0.17292717 -0.11831859 -0.00910143       0.006
   0.16382574 -0.10921716  0.00000000       0.003
   0.18202860 -0.12742002  0.00000000       0.002
   0.18202860 -0.10921716 -0.03640572       0.003
   0.17292717 -0.10011573 -0.02730429       0.006
   0.16382574 -0.09101430 -0.01820286       0.003
   0.18202860 -0.10921716 -0.01820286       0.003
   0.17292717 -0.10011573 -0.00910143       0.006
   0.16382574 -0.09101430  0.00000000       0.003
   0.18202860 -0.10921716  0.00000000       0.002
   0.18202860 -0.09101430  0.00000000       0.001

 k-points in reciprocal lattice and weights: Automatic kpoint scheme                 
   0.00000000  0.00000000  0.00000000       0.000
   0.05000000  0.00000000  0.00000000       0.001
   0.10000000  0.00000000  0.00000000       0.001
   0.15000000  0.00000000  0.00000000       0.001
   0.20000000  0.00000000  0.00000000       0.001
   0.25000000  0.00000000  0.00000000       0.001
   0.30000000  0.00000000  0.00000000       0.001
   0.35000000  0.00000000  0.00000000       0.001
   0.40000000  0.00000000  0.00000000       0.001
   0.45000000  0.00000000  0.00000000       0.001
   0.50000000  0.00000000  0.00000000       0.001
   0.05000000  0.05000000  0.00000000       0.001
   0.10000000  0.05000000  0.00000000       0.003
   0.15000000  0.05000000  0.00000000       0.003
   0.20000000  0.05000000  0.00000000       0.003
   0.25000000  0.05000000  0.00000000       0.003
   0.30000000  0.05000000  0.00000000       0.003
   0.35000000  0.05000000  0.00000000       0.003
   0.40000000  0.05000000  0.00000000       0.003
   0.45000000  0.05000000  0.00000000       0.003
   0.50000000  0.05000000  0.00000000       0.003
  -0.45000000  0.05000000  0.00000000       0.003
  -0.40000000  0.05000000  0.00000000       0.003
  -0.35000000  0.05000000  0.00000000       0.003
  -0.30000000  0.05000000  0.00000000       0.003
  -0.25000000  0.05000000  0.00000000       0.003
  -0.20000000  0.05000000  0.00000000       0.003
  -0.15000000  0.05000000  0.00000000       0.003
  -0.10000000  0.05000000  0.00000000       0.003
  -0.05000000  0.05000000  0.00000000       0.002
   0.10000000  0.10000000  0.00000000       0.001
   0.15000000  0.10000000  0.00000000       0.003
   0.20000000  0.10000000  0.00000000       0.003
   0.25000000  0.10000000  0.00000000       0.003
   0.30000000  0.10000000  0.00000000       0.003
   0.35000000  0.10000000  0.00000000       0.003
   0.40000000  0.10000000  0.00000000       0.003
   0.45000000  0.10000000  0.00000000       0.003
   0.50000000  0.10000000  0.00000000       0.003
  -0.45000000  0.10000000  0.00000000       0.003
  -0.40000000  0.10000000  0.00000000       0.003
  -0.35000000  0.10000000  0.00000000       0.003
  -0.30000000  0.10000000  0.00000000       0.003
  -0.25000000  0.10000000  0.00000000       0.003
  -0.20000000  0.10000000  0.00000000       0.003
  -0.15000000  0.10000000  0.00000000       0.003
  -0.10000000  0.10000000  0.00000000       0.002
   0.15000000  0.15000000  0.00000000       0.001
   0.20000000  0.15000000  0.00000000       0.003
   0.25000000  0.15000000  0.00000000       0.003
   0.30000000  0.15000000  0.00000000       0.003
   0.35000000  0.15000000  0.00000000       0.003
   0.40000000  0.15000000  0.00000000       0.003
   0.45000000  0.15000000  0.00000000       0.003
   0.50000000  0.15000000  0.00000000       0.003
  -0.45000000  0.15000000  0.00000000       0.003
  -0.40000000  0.15000000  0.00000000       0.003
  -0.35000000  0.15000000  0.00000000       0.003
  -0.30000000  0.15000000  0.00000000       0.003
  -0.25000000  0.15000000  0.00000000       0.003
  -0.20000000  0.15000000  0.00000000       0.003
  -0.15000000  0.15000000  0.00000000       0.002
   0.20000000  0.20000000  0.00000000       0.001
   0.25000000  0.20000000  0.00000000       0.003
   0.30000000  0.20000000  0.00000000       0.003
   0.35000000  0.20000000  0.00000000       0.003
   0.40000000  0.20000000  0.00000000       0.003
   0.45000000  0.20000000  0.00000000       0.003
   0.50000000  0.20000000  0.00000000       0.003
  -0.45000000  0.20000000  0.00000000       0.003
  -0.40000000  0.20000000  0.00000000       0.003
  -0.35000000  0.20000000  0.00000000       0.003
  -0.30000000  0.20000000  0.00000000       0.003
  -0.25000000  0.20000000  0.00000000       0.003
  -0.20000000  0.20000000  0.00000000       0.002
   0.25000000  0.25000000  0.00000000       0.001
   0.30000000  0.25000000  0.00000000       0.003
   0.35000000  0.25000000  0.00000000       0.003
   0.40000000  0.25000000  0.00000000       0.003
   0.45000000  0.25000000  0.00000000       0.003
   0.50000000  0.25000000  0.00000000       0.003
  -0.45000000  0.25000000  0.00000000       0.003
  -0.40000000  0.25000000  0.00000000       0.003
  -0.35000000  0.25000000  0.00000000       0.003
  -0.30000000  0.25000000  0.00000000       0.003
  -0.25000000  0.25000000  0.00000000       0.002
   0.30000000  0.30000000  0.00000000       0.001
   0.35000000  0.30000000  0.00000000       0.003
   0.40000000  0.30000000  0.00000000       0.003
   0.45000000  0.30000000  0.00000000       0.003
   0.50000000  0.30000000  0.00000000       0.003
  -0.45000000  0.30000000  0.00000000       0.003
  -0.40000000  0.30000000  0.00000000       0.003
  -0.35000000  0.30000000  0.00000000       0.003
  -0.30000000  0.30000000  0.00000000       0.002
   0.35000000  0.35000000  0.00000000       0.001
   0.40000000  0.35000000  0.00000000       0.003
   0.45000000  0.35000000  0.00000000       0.003
   0.50000000  0.35000000  0.00000000       0.003
  -0.45000000  0.35000000  0.00000000       0.003
  -0.40000000  0.35000000  0.00000000       0.003
  -0.35000000  0.35000000  0.00000000       0.002
   0.40000000  0.40000000  0.00000000       0.001
   0.45000000  0.40000000  0.00000000       0.003
   0.50000000  0.40000000  0.00000000       0.003
  -0.45000000  0.40000000  0.00000000       0.003
  -0.40000000  0.40000000  0.00000000       0.002
   0.45000000  0.45000000  0.00000000       0.001
   0.50000000  0.45000000  0.00000000       0.003
  -0.45000000  0.45000000  0.00000000       0.002
   0.50000000  0.50000000  0.00000000       0.000
   0.15000000  0.10000000  0.05000000       0.003
   0.20000000  0.10000000  0.05000000       0.006
   0.25000000  0.10000000  0.05000000       0.006
   0.30000000  0.10000000  0.05000000       0.006
   0.35000000  0.10000000  0.05000000       0.006
   0.40000000  0.10000000  0.05000000       0.006
   0.45000000  0.10000000  0.05000000       0.006
   0.50000000  0.10000000  0.05000000       0.006
  -0.45000000  0.10000000  0.05000000       0.003
   0.20000000  0.15000000  0.05000000       0.003
   0.25000000  0.15000000  0.05000000       0.006
   0.30000000  0.15000000  0.05000000       0.006
   0.35000000  0.15000000  0.05000000       0.006
   0.40000000  0.15000000  0.05000000       0.006
   0.45000000  0.15000000  0.05000000       0.006
   0.50000000  0.15000000  0.05000000       0.006
  -0.45000000  0.15000000  0.05000000       0.006
  -0.40000000  0.15000000  0.05000000       0.006
  -0.35000000  0.15000000  0.05000000       0.006
  -0.30000000  0.15000000  0.05000000       0.006
  -0.25000000  0.15000000  0.05000000       0.006
  -0.20000000  0.15000000  0.05000000       0.006
  -0.15000000  0.15000000  0.05000000       0.006
  -0.10000000  0.15000000  0.05000000       0.003
   0.25000000  0.20000000  0.05000000       0.003
   0.30000000  0.20000000  0.05000000       0.006
   0.35000000  0.20000000  0.05000000       0.006
   0.40000000  0.20000000  0.05000000       0.006
   0.45000000  0.20000000  0.05000000       0.006
   0.50000000  0.20000000  0.05000000       0.006
  -0.45000000  0.20000000  0.05000000       0.006
  -0.40000000  0.20000000  0.05000000       0.006
  -0.35000000  0.20000000  0.05000000       0.006
  -0.30000000  0.20000000  0.05000000       0.006
  -0.25000000  0.20000000  0.05000000       0.006
  -0.20000000  0.20000000  0.05000000       0.006
  -0.15000000  0.20000000  0.05000000       0.003
   0.30000000  0.25000000  0.05000000       0.003
   0.35000000  0.25000000  0.05000000       0.006
   0.40000000  0.25000000  0.05000000       0.006
   0.45000000  0.25000000  0.05000000       0.006
   0.50000000  0.25000000  0.05000000       0.006
  -0.45000000  0.25000000  0.05000000       0.006
  -0.40000000  0.25000000  0.05000000       0.006
  -0.35000000  0.25000000  0.05000000       0.006
  -0.30000000  0.25000000  0.05000000       0.006
  -0.25000000  0.25000000  0.05000000       0.006
  -0.20000000  0.25000000  0.05000000       0.003
   0.35000000  0.30000000  0.05000000       0.003
   0.40000000  0.30000000  0.05000000       0.006
   0.45000000  0.30000000  0.05000000       0.006
   0.50000000  0.30000000  0.05000000       0.006
  -0.45000000  0.30000000  0.05000000       0.006
  -0.40000000  0.30000000  0.05000000       0.006
  -0.35000000  0.30000000  0.05000000       0.006
  -0.30000000  0.30000000  0.05000000       0.006
  -0.25000000  0.30000000  0.05000000       0.003
   0.40000000  0.35000000  0.05000000       0.003
   0.45000000  0.35000000  0.05000000       0.006
   0.50000000  0.35000000  0.05000000       0.006
  -0.45000000  0.35000000  0.05000000       0.006
  -0.40000000  0.35000000  0.05000000       0.006
  -0.35000000  0.35000000  0.05000000       0.006
  -0.30000000  0.35000000  0.05000000       0.003
   0.45000000  0.40000000  0.05000000       0.003
   0.50000000  0.40000000  0.05000000       0.006
  -0.45000000  0.40000000  0.05000000       0.006
  -0.40000000  0.40000000  0.05000000       0.006
  -0.35000000  0.40000000  0.05000000       0.003
   0.50000000  0.45000000  0.05000000       0.003
  -0.45000000  0.45000000  0.05000000       0.006
  -0.40000000  0.45000000  0.05000000       0.003
  -0.45000000  0.50000000  0.05000000       0.002
   0.30000000  0.20000000  0.10000000       0.003
   0.35000000  0.20000000  0.10000000       0.006
   0.40000000  0.20000000  0.10000000       0.006
   0.45000000  0.20000000  0.10000000       0.006
   0.50000000  0.20000000  0.10000000       0.006
  -0.45000000  0.20000000  0.10000000       0.006
  -0.40000000  0.20000000  0.10000000       0.003
   0.35000000  0.25000000  0.10000000       0.003
   0.40000000  0.25000000  0.10000000       0.006
   0.45000000  0.25000000  0.10000000       0.006
   0.50000000  0.25000000  0.10000000       0.006
  -0.45000000  0.25000000  0.10000000       0.006
  -0.40000000  0.25000000  0.10000000       0.006
  -0.35000000  0.25000000  0.10000000       0.006
  -0.30000000  0.25000000  0.10000000       0.006
  -0.25000000  0.25000000  0.10000000       0.006
  -0.20000000  0.25000000  0.10000000       0.006
  -0.15000000  0.25000000  0.10000000       0.003
   0.40000000  0.30000000  0.10000000       0.003
   0.45000000  0.30000000  0.10000000       0.006
   0.50000000  0.30000000  0.10000000       0.006
  -0.45000000  0.30000000  0.10000000       0.006
  -0.40000000  0.30000000  0.10000000       0.006
  -0.35000000  0.30000000  0.10000000       0.006
  -0.30000000  0.30000000  0.10000000       0.006
  -0.25000000  0.30000000  0.10000000       0.006
  -0.20000000  0.30000000  0.10000000       0.003
   0.45000000  0.35000000  0.10000000       0.003
   0.50000000  0.35000000  0.10000000       0.006
  -0.45000000  0.35000000  0.10000000       0.006
  -0.40000000  0.35000000  0.10000000       0.006
  -0.35000000  0.35000000  0.10000000       0.006
  -0.30000000  0.35000000  0.10000000       0.006
  -0.25000000  0.35000000  0.10000000       0.003
   0.50000000  0.40000000  0.10000000       0.003
  -0.45000000  0.40000000  0.10000000       0.006
  -0.40000000  0.40000000  0.10000000       0.006
  -0.35000000  0.40000000  0.10000000       0.006
  -0.30000000  0.40000000  0.10000000       0.003
  -0.45000000  0.45000000  0.10000000       0.003
  -0.40000000  0.45000000  0.10000000       0.006
  -0.35000000  0.45000000  0.10000000       0.003
  -0.40000000  0.50000000  0.10000000       0.002
   0.45000000  0.30000000  0.15000000       0.003
   0.50000000  0.30000000  0.15000000       0.006
  -0.45000000  0.30000000  0.15000000       0.006
  -0.40000000  0.30000000  0.15000000       0.006
  -0.35000000  0.30000000  0.15000000       0.003
   0.50000000  0.35000000  0.15000000       0.003
  -0.45000000  0.35000000  0.15000000       0.006
  -0.40000000  0.35000000  0.15000000       0.006
  -0.35000000  0.35000000  0.15000000       0.006
  -0.30000000  0.35000000  0.15000000       0.006
  -0.25000000  0.35000000  0.15000000       0.006
  -0.20000000  0.35000000  0.15000000       0.003
  -0.45000000  0.40000000  0.15000000       0.003
  -0.40000000  0.40000000  0.15000000       0.006
  -0.35000000  0.40000000  0.15000000       0.006
  -0.30000000  0.40000000  0.15000000       0.006
  -0.25000000  0.40000000  0.15000000       0.003
  -0.40000000  0.45000000  0.15000000       0.003
  -0.35000000  0.45000000  0.15000000       0.006
  -0.30000000  0.45000000  0.15000000       0.003
  -0.35000000  0.50000000  0.15000000       0.002
  -0.40000000  0.40000000  0.20000000       0.003
  -0.35000000  0.40000000  0.20000000       0.006
  -0.30000000  0.40000000  0.20000000       0.003
  -0.35000000  0.45000000  0.20000000       0.003
  -0.30000000  0.45000000  0.20000000       0.006
  -0.25000000  0.45000000  0.20000000       0.003
  -0.30000000  0.50000000  0.20000000       0.002
  -0.25000000  0.50000000  0.25000000       0.001

 position of ions in fractional coordinates (direct lattice) 
   0.75000000  0.75000000  0.75000000
   0.50000000  0.50000000  0.50000000

 position of ions in cartesian coordinates  (Angst):
   4.12023171  4.12023171  4.12023171
   2.74682114  2.74682114  2.74682114



--------------------------------------------------------------------------------------------------------


 k-point  1 :   0.0000 0.0000 0.0000  plane waves:    1067
 k-point  2 :   0.0500 0.0000 0.0000  plane waves:    1049
 k-point  3 :   0.1000 0.0000 0.0000  plane waves:    1028
 k-point  4 :   0.1500 0.0000 0.0000  plane waves:    1031
 k-point  5 :   0.2000 0.0000 0.0000  plane waves:    1046
 k-point  6 :   0.2500 0.0000 0.0000  plane waves:    1053
 k-point  7 :   0.3000 0.0000 0.0000  plane waves:    1056
 k-point  8 :   0.3500 0.0000 0.0000  plane waves:    1053
 k-point  9 :   0.4000 0.0000 0.0000  plane waves:    1050
 k-point 10 :   0.4500 0.0000 0.0000  plane waves:    1050
 k-point 11 :   0.5000 0.0000 0.0000  plane waves:    1056
 k-point 12 :   0.0500 0.0500 0.0000  plane waves:    1042
 k-point 13 :   0.1000 0.0500 0.0000  plane waves:    1028
 k-point 14 :   0.1500 0.0500 0.0000  plane waves:    1034
 k-point 15 :   0.2000 0.0500 0.0000  plane waves:    1038
 k-point 16 :   0.2500 0.0500 0.0000  plane waves:    1048
 k-point 17 :   0.3000 0.0500 0.0000  plane waves:    1053
 k-point 18 :   0.3500 0.0500 0.0000  plane waves:    1053
 k-point 19 :   0.4000 0.0500 0.0000  plane waves:    1048
 k-point 20 :   0.4500 0.0500 0.0000  plane waves:    1050
 k-point 21 :   0.5000 0.0500 0.0000  plane waves:    1060
 k-point 22 :  -0.4500 0.0500 0.0000  plane waves:    1056
 k-point 23 :  -0.4000 0.0500 0.0000  plane waves:    1048
 k-point 24 :  -0.3500 0.0500 0.0000  plane waves:    1053
 k-point 25 :  -0.3000 0.0500 0.0000  plane waves:    1057
 k-point 26 :  -0.2500 0.0500 0.0000  plane waves:    1055
 k-point 27 :  -0.2000 0.0500 0.0000  plane waves:    1045
 k-point 28 :  -0.1500 0.0500 0.0000  plane waves:    1032
 k-point 29 :  -0.1000 0.0500 0.0000  plane waves:    1033
 k-point 30 :  -0.0500 0.0500 0.0000  plane waves:    1037
 k-point 31 :   0.1000 0.1000 0.0000  plane waves:    1038
 k-point 32 :   0.1500 0.1000 0.0000  plane waves:    1034
 k-point 33 :   0.2000 0.1000 0.0000  plane waves:    1035
 k-point 34 :   0.2500 0.1000 0.0000  plane waves:    1042
 k-point 35 :   0.3000 0.1000 0.0000  plane waves:    1054
 k-point 36 :   0.3500 0.1000 0.0000  plane waves:    1050
 k-point 37 :   0.4000 0.1000 0.0000  plane waves:    1050
 k-point 38 :   0.4500 0.1000 0.0000  plane waves:    1046
 k-point 39 :   0.5000 0.1000 0.0000  plane waves:    1056
 k-point 40 :  -0.4500 0.1000 0.0000  plane waves:    1058
 k-point 41 :  -0.4000 0.1000 0.0000  plane waves:    1052
 k-point 42 :  -0.3500 0.1000 0.0000  plane waves:    1050
 k-point 43 :  -0.3000 0.1000 0.0000  plane waves:    1050
 k-point 44 :  -0.2500 0.1000 0.0000  plane waves:    1054
 k-point 45 :  -0.2000 0.1000 0.0000  plane waves:    1048
 k-point 46 :  -0.1500 0.1000 0.0000  plane waves:    1042
 k-point 47 :  -0.1000 0.1000 0.0000  plane waves:    1037
 k-point 48 :   0.1500 0.1500 0.0000  plane waves:    1034
 k-point 49 :   0.2000 0.1500 0.0000  plane waves:    1035
 k-point 50 :   0.2500 0.1500 0.0000  plane waves:    1041
 k-point 51 :   0.3000 0.1500 0.0000  plane waves:    1048
 k-point 52 :   0.3500 0.1500 0.0000  plane waves:    1050
 k-point 53 :   0.4000 0.1500 0.0000  plane waves:    1054
 k-point 54 :   0.4500 0.1500 0.0000  plane waves:    1051
 k-point 55 :   0.5000 0.1500 0.0000  plane waves:    1053
 k-point 56 :  -0.4500 0.1500 0.0000  plane waves:    1057
 k-point 57 :  -0.4000 0.1500 0.0000  plane waves:    1058
 k-point 58 :  -0.3500 0.1500 0.0000  plane waves:    1051
 k-point 59 :  -0.3000 0.1500 0.0000  plane waves:    1053
 k-point 60 :  -0.2500 0.1500 0.0000  plane waves:    1050
 k-point 61 :  -0.2000 0.1500 0.0000  plane waves:    1055
 k-point 62 :  -0.1500 0.1500 0.0000  plane waves:    1043
 k-point 63 :   0.2000 0.2000 0.0000  plane waves:    1054
 k-point 64 :   0.2500 0.2000 0.0000  plane waves:    1047
 k-point 65 :   0.3000 0.2000 0.0000  plane waves:    1051
 k-point 66 :   0.3500 0.2000 0.0000  plane waves:    1048
 k-point 67 :   0.4000 0.2000 0.0000  plane waves:    1046
 k-point 68 :   0.4500 0.2000 0.0000  plane waves:    1052
 k-point 69 :   0.5000 0.2000 0.0000  plane waves:    1061
 k-point 70 :  -0.4500 0.2000 0.0000  plane waves:    1063
 k-point 71 :  -0.4000 0.2000 0.0000  plane waves:    1073
 k-point 72 :  -0.3500 0.2000 0.0000  plane waves:    1054
 k-point 73 :  -0.3000 0.2000 0.0000  plane waves:    1053
 k-point 74 :  -0.2500 0.2000 0.0000  plane waves:    1056
 k-point 75 :  -0.2000 0.2000 0.0000  plane waves:    1057
 k-point 76 :   0.2500 0.2500 0.0000  plane waves:    1062
 k-point 77 :   0.3000 0.2500 0.0000  plane waves:    1039
 k-point 78 :   0.3500 0.2500 0.0000  plane waves:    1045
 k-point 79 :   0.4000 0.2500 0.0000  plane waves:    1048
 k-point 80 :   0.4500 0.2500 0.0000  plane waves:    1052
 k-point 81 :   0.5000 0.2500 0.0000  plane waves:    1053
 k-point 82 :  -0.4500 0.2500 0.0000  plane waves:    1055
 k-point 83 :  -0.4000 0.2500 0.0000  plane waves:    1062
 k-point 84 :  -0.3500 0.2500 0.0000  plane waves:    1056
 k-point 85 :  -0.3000 0.2500 0.0000  plane waves:    1056
 k-point 86 :  -0.2500 0.2500 0.0000  plane waves:    1049
 k-point 87 :   0.3000 0.3000 0.0000  plane waves:    1030
 k-point 88 :   0.3500 0.3000 0.0000  plane waves:    1042
 k-point 89 :   0.4000 0.3000 0.0000  plane waves:    1049
 k-point 90 :   0.4500 0.3000 0.0000  plane waves:    1050
 k-point 91 :   0.5000 0.3000 0.0000  plane waves:    1054
 k-point 92 :  -0.4500 0.3000 0.0000  plane waves:    1053
 k-point 93 :  -0.4000 0.3000 0.0000  plane waves:    1056
 k-point 94 :  -0.3500 0.3000 0.0000  plane waves:    1056
 k-point 95 :  -0.3000 0.3000 0.0000  plane waves:    1059
 k-point 96 :   0.3500 0.3500 0.0000  plane waves:    1034
 k-point 97 :   0.4000 0.3500 0.0000  plane waves:    1044
 k-point 98 :   0.4500 0.3500 0.0000  plane waves:    1052
 k-point 99 :   0.5000 0.3500 0.0000  plane waves:    1056
 k-point ** :  -0.4500 0.3500 0.0000  plane waves:    1048
 k-point ** :  -0.4000 0.3500 0.0000  plane waves:    1056
 k-point ** :  -0.3500 0.3500 0.0000  plane waves:    1059
 k-point ** :   0.4000 0.4000 0.0000  plane waves:    1042
 k-point ** :   0.4500 0.4000 0.0000  plane waves:    1057
 k-point ** :   0.5000 0.4000 0.0000  plane waves:    1051
 k-point ** :  -0.4500 0.4000 0.0000  plane waves:    1046
 k-point ** :  -0.4000 0.4000 0.0000  plane waves:    1057
 k-point ** :   0.4500 0.4500 0.0000  plane waves:    1054
 k-point ** :   0.5000 0.4500 0.0000  plane waves:    1052
 k-point ** :  -0.4500 0.4500 0.0000  plane waves:    1051
 k-point ** :   0.5000 0.5000 0.0000  plane waves:    1034
 k-point ** :   0.1500 0.1000 0.0500  plane waves:    1034
 k-point ** :   0.2000 0.1000 0.0500  plane waves:    1033
 k-point ** :   0.2500 0.1000 0.0500  plane waves:    1034
 k-point ** :   0.3000 0.1000 0.0500  plane waves:    1049
 k-point ** :   0.3500 0.1000 0.0500  plane waves:    1056
 k-point ** :   0.4000 0.1000 0.0500  plane waves:    1055
[...]
     10      16.4029      0.00000
     11      17.2948      0.00000
     12      19.1125      0.00000
     13      21.0602      0.00000
     14      21.7072      0.00000
     15      22.6454      0.00000
     16      23.2423      0.00000

 k-point   237 :      -0.3000    0.3500    0.1500
  band No.  band energies     occupation 
      1      -3.0194      2.00000
      2      -1.1864      2.00000
      3       1.5438      2.00000
      4       2.8092      2.00000
      5       8.6719      0.00000
      6       9.4241      0.00000
      7      11.1199      0.00000
      8      12.0021      0.00000
      9      13.1827      0.00000
     10      15.6926      0.00000
     11      18.0043      0.00000
     12      19.1441      0.00000
     13      20.9990      0.00000
     14      21.7081      0.00000
     15      22.1899      0.00000
     16      23.0774      0.00000

 k-point   238 :      -0.2500    0.3500    0.1500
  band No.  band energies     occupation 
      1      -3.3057      2.00000
      2      -0.8613      2.00000
      3       1.5914      2.00000
      4       2.9583      2.00000
      5       8.8744      0.00000
      6       9.2771      0.00000
      7      10.3034      0.00000
      8      12.9898      0.00000
      9      13.0888      0.00000
     10      14.9269      0.00000
     11      18.7110      0.00000
     12      19.3135      0.00000
     13      20.2174      0.00000
     14      20.7306      0.00000
     15      21.9628      0.00000
     16      23.7471      0.00000

 k-point   239 :      -0.2000    0.3500    0.1500
  band No.  band energies     occupation 
      1      -3.6638      2.00000
      2      -0.4583      2.00000
      3       1.7607      2.00000
      4       3.1675      2.00000
      5       8.9733      0.00000
      6       9.1112      0.00000
      7       9.7616      0.00000
      8      12.6974      0.00000
      9      14.1198      0.00000
     10      14.4108      0.00000
     11      18.8496      0.00000
     12      19.2755      0.00000
     13      19.4288      0.00000
     14      20.0494      0.00000
     15      22.0320      0.00000
     16      23.4072      0.00000

 k-point   240 :      -0.4500    0.4000    0.1500
  band No.  band energies     occupation 
      1      -3.3215      2.00000
      2      -0.8006      2.00000
      3       2.0105      2.00000
      4       2.6205      2.00000
      5       7.8873      0.00000
      6       8.4101      0.00000
      7      10.9322      0.00000
      8      13.7763      0.00000
      9      14.4431      0.00000
     10      15.8059      0.00000
     11      18.1995      0.00000
     12      19.3056      0.00000
     13      19.5210      0.00000
     14      20.1952      0.00000
     15      21.8903      0.00000
     16      22.8478      0.00000

 k-point   241 :      -0.4000    0.4000    0.1500
  band No.  band energies     occupation 
      1      -2.9610      2.00000
      2      -1.1760      2.00000
      3       1.7828      2.00000
      4       2.4670      2.00000
      5       8.1432      0.00000
      6       8.9569      0.00000
      7      10.7283      0.00000
      8      13.2976      0.00000
      9      14.1471      0.00000
     10      16.2639      0.00000
     11      17.7021      0.00000
     12      19.5682      0.00000
     13      20.2550      0.00000
     14      20.6763      0.00000
     15      22.1625      0.00000
     16      23.3964      0.00000

 k-point   242 :      -0.3500    0.4000    0.1500
  band No.  band energies     occupation 
      1      -2.6859      2.00000
      2      -1.4518      2.00000
      3       1.5752      2.00000
      4       2.4517      2.00000
      5       8.2733      0.00000
      6       9.7645      0.00000
      7      10.5813      0.00000
      8      12.2490      0.00000
      9      14.2084      0.00000
     10      16.3895      0.00000
     11      17.5191      0.00000
     12      19.6894      0.00000
     13      20.4663      0.00000
     14      21.6910      0.00000
     15      22.6153      0.00000
     16      23.4494      0.00000

 k-point   243 :      -0.3000    0.4000    0.1500
  band No.  band energies     occupation 
      1      -2.6868      2.00000
      2      -1.4444      2.00000
      3       1.4450      2.00000
      4       2.5452      2.00000
      5       8.4320      0.00000
      6      10.2029      0.00000
      7      10.8851      0.00000
      8      11.3210      0.00000
      9      14.1037      0.00000
     10      15.7169      0.00000
     11      18.1984      0.00000
     12      19.7792      0.00000
     13      20.4420      0.00000
     14      21.8660      0.00000
     15      22.6974      0.00000
     16      23.4622      0.00000

 k-point   244 :      -0.2500    0.4000    0.1500
  band No.  band energies     occupation 
      1      -2.9556      2.00000
      2      -1.1783      2.00000
      3       1.4392      2.00000
      4       2.7210      2.00000
      5       8.6346      0.00000
      6       9.9568      0.00000
      7      10.5077      0.00000
      8      11.9495      0.00000
      9      13.7393      0.00000
     10      15.1506      0.00000
     11      18.8060      0.00000
     12      19.9154      0.00000
     13      19.9448      0.00000
     14      21.5632      0.00000
     15      21.9686      0.00000
     16      23.6955      0.00000

 k-point   245 :      -0.4000    0.4500    0.1500
  band No.  band energies     occupation 
      1      -2.7211      2.00000
      2      -1.4426      2.00000
      3       1.9874      2.00000
      4       2.2857      2.00000
      5       7.8740      0.00000
      6       8.1290      0.00000
      7      11.7136      0.00000
      8      13.4542      0.00000
      9      14.8509      0.00000
     10      16.4661      0.00000
     11      17.5741      0.00000
     12      19.0033      0.00000
     13      20.3599      0.00000
     14      21.2393      0.00000
     15      22.0470      0.00000
     16      22.8875      0.00000

 k-point   246 :      -0.3500    0.4500    0.1500
  band No.  band energies     occupation 
      1      -2.3973      2.00000
      2      -1.7405      2.00000
      3       1.7556      2.00000
      4       2.2280      2.00000
      5       8.0847      0.00000
      6       8.8283      0.00000
      7      11.5168      0.00000
      8      12.3857      0.00000
      9      15.1222      0.00000
     10      16.2320      0.00000
     11      17.7700      0.00000
     12      18.9073      0.00000
     13      21.1663      0.00000
     14      21.8005      0.00000
     15      22.2616      0.00000
     16      22.9966      0.00000

 k-point   247 :      -0.3000    0.4500    0.1500
  band No.  band energies     occupation 
      1      -2.3938      2.00000
      2      -1.7233      2.00000
      3       1.5303      2.00000
      4       2.3442      2.00000
      5       8.2350      0.00000
      6       9.7328      0.00000
      7      11.2743      0.00000
      8      11.4632      0.00000
      9      14.8641      0.00000
     10      15.8514      0.00000
     11      18.1174      0.00000
     12      19.2509      0.00000
     13      21.0381      0.00000
     14      21.9801      0.00000
     15      22.6261      0.00000
     16      23.0218      0.00000

 k-point   248 :      -0.3500    0.5000    0.1500
  band No.  band energies     occupation 
      1      -2.0888      2.00000
      2      -2.0888      2.00000
      3       2.0762      2.00000
      4       2.0762      2.00000
      5       7.9523      0.00000
      6       7.9523      0.00000
      7      12.5593      0.00000
      8      12.5593      0.00000
      9      15.8378      0.00000
     10      15.8378      0.00000
     11      18.1568      0.00000
     12      18.1568      0.00000
     13      21.3488      0.00000
     14      21.3488      0.00000
     15      22.4526      0.00000
     16      22.4526      0.00000

 k-point   249 :      -0.4000    0.4000    0.2000
  band No.  band energies     occupation 
      1      -3.1499      2.00000
      2      -0.9704      2.00000
      3       1.6746      2.00000
      4       2.6215      2.00000
      5       8.8815      0.00000
      6       9.2882      0.00000
      7       9.8496      0.00000
      8      13.1485      0.00000
      9      13.7712      0.00000
     10      15.4929      0.00000
     11      18.5090      0.00000
     12      19.6800      0.00000
     13      19.8258      0.00000
     14      20.7639      0.00000
     15      21.7281      0.00000
     16      23.8881      0.00000

 k-point   250 :      -0.3500    0.4000    0.2000
  band No.  band energies     occupation 
      1      -2.8195      2.00000
      2      -1.3016      2.00000
      3       1.5602      2.00000
      4       2.4453      2.00000
      5       9.1257      0.00000
      6       9.4781      0.00000
      7      10.1337      0.00000
      8      12.0756      0.00000
      9      14.1193      0.00000
     10      15.9952      0.00000
     11      17.9558      0.00000
     12      19.6626      0.00000
     13      20.3011      0.00000
     14      21.8099      0.00000
     15      22.0572      0.00000
     16      23.9066      0.00000

 k-point   251 :      -0.3000    0.4000    0.2000
  band No.  band energies     occupation 
      1      -2.6611      2.00000
      2      -1.4616      2.00000
      3       1.5253      2.00000
      4       2.3826      2.00000
      5       9.1803      0.00000
      6       9.4398      0.00000
      7      10.8376      0.00000
      8      11.2363      0.00000
      9      14.2082      0.00000
     10      16.4362      0.00000
     11      17.4783      0.00000
     12      19.6682      0.00000
     13      20.4420      0.00000
     14      22.5037      0.00000
     15      22.5927      0.00000
     16      23.4637      0.00000

 k-point   252 :      -0.3500    0.4500    0.2000
  band No.  band energies     occupation 
      1      -2.6058      2.00000
      2      -1.5010      2.00000
      3       1.7085      2.00000
      4       2.1810      2.00000
      5       8.8645      0.00000
      6       9.0783      0.00000
      7      10.5272      0.00000
      8      12.2073      0.00000
      9      14.8383      0.00000
     10      16.2821      0.00000
     11      17.7792      0.00000
     12      19.1222      0.00000
     13      20.7969      0.00000
     14      21.8739      0.00000
     15      22.1309      0.00000
     16      23.5513      0.00000

 k-point   253 :      -0.3000    0.4500    0.2000
  band No.  band energies     occupation 
      1      -2.3579      2.00000
      2      -1.7293      2.00000
      3       1.6265      2.00000
      4       2.0871      2.00000
      5       9.0797      0.00000
      6       9.7868      0.00000
      7      10.4218      0.00000
      8      11.1851      0.00000
      9      15.1187      0.00000
     10      16.2635      0.00000
     11      17.7748      0.00000
     12      18.9762      0.00000
     13      21.0729      0.00000
     14      22.2256      0.00000
     15      22.9139      0.00000
     16      23.4654      0.00000

 k-point   254 :      -0.2500    0.4500    0.2000
  band No.  band energies     occupation 
      1      -2.4908      2.00000
      2      -1.5977      2.00000
      3       1.5461      2.00000
      4       2.2030      2.00000
      5       9.2334      0.00000
      6       9.9045      0.00000
      7      10.3222      0.00000
      8      11.0591      0.00000
      9      14.8459      0.00000
     10      16.0739      0.00000
     11      17.9612      0.00000
     12      19.2226      0.00000
     13      20.8277      0.00000
     14      21.9704      0.00000
     15      23.0504      0.00000
     16      23.5589      0.00000

 k-point   255 :      -0.3000    0.5000    0.2000
  band No.  band energies     occupation 
      1      -2.0500      2.00000
      2      -2.0500      2.00000
      3       1.8748      2.00000
      4       1.8748      2.00000
      5       8.9292      0.00000
      6       8.9292      0.00000
      7      11.3269      0.00000
      8      11.3269      0.00000
      9      15.8382      0.00000
     10      15.8382      0.00000
     11      18.2271      0.00000
     12      18.2271      0.00000
     13      21.8153      0.00000
     14      21.8153      0.00000
     15      22.9779      0.00000
     16      22.9779      0.00000

 k-point   256 :      -0.2500    0.5000    0.2500
  band No.  band energies     occupation 
      1      -2.0347      2.00000
      2      -2.0347      2.00000
      3       1.8021      2.00000
      4       1.8021      2.00000
      5       9.7642      0.00000
      6       9.7642      0.00000
      7      10.4072      0.00000
      8      10.4072      0.00000
      9      15.8397      0.00000
     10      15.8397      0.00000
     11      18.2558      0.00000
     12      18.2558      0.00000
     13      21.7404      0.00000
     14      21.7404      0.00000
     15      23.7798      0.00000
     16      23.7799      0.00000


--------------------------------------------------------------------------------------------------------


 soft charge-density along one line, spin component           1
         0         1         2         3         4         5         6         7         8         9
 total charge-density along one line

 pseudopotential strength for first ion, spin component:           1
 18.546  25.870  -0.000  -0.000  -0.000  -0.000  -0.000  -0.000
 25.870  36.092  -0.000  -0.000  -0.000  -0.000  -0.000  -0.000
 -0.000  -0.000   4.200  -0.000  -0.000   7.819  -0.000  -0.000
 -0.000  -0.000  -0.000   4.200  -0.000  -0.000   7.819  -0.000
 -0.000  -0.000  -0.000  -0.000   4.200  -0.000  -0.000   7.819
 -0.000  -0.000   7.819  -0.000  -0.000  14.567  -0.000  -0.000
 -0.000  -0.000  -0.000   7.819  -0.000  -0.000  14.567  -0.000
 -0.000  -0.000  -0.000  -0.000   7.819  -0.000  -0.000  14.567
 total augmentation occupancy for first ion, spin component:           1
  3.174  -0.925  -0.000   0.000  -0.000  -0.000  -0.000   0.000
 -0.925   0.476   0.000  -0.000   0.000   0.000   0.000   0.000
 -0.000  -0.000   2.219  -0.000  -0.000  -0.395   0.000   0.000
 -0.000   0.000  -0.000   2.219  -0.000   0.000  -0.395   0.000
 -0.000  -0.000  -0.000  -0.000   2.219  -0.000  -0.000  -0.395
 -0.000  -0.000  -0.395   0.000   0.000   0.081   0.000   0.000
  0.000   0.000  -0.000  -0.395  -0.000  -0.000   0.081   0.000
  0.000  -0.000   0.000   0.000  -0.395   0.000   0.000   0.081


------------------------ aborting loop because EDIFF is reached ----------------------------------------


    CHARGE:  cpu time    0.1960: real time    0.1980
    FORLOC:  cpu time    0.0040: real time    0.0005
    FORNL :  cpu time    0.3520: real time    0.3519
    STRESS:  cpu time    3.6080: real time    3.6065
    FORCOR:  cpu time    1.6560: real time    1.6564
    FORHAR:  cpu time    0.0040: real time    0.0038
    MIXING:  cpu time    0.0000: real time    0.0006
    OFIELD:  cpu time    0.0000: real time    0.0000

  FORCE on cell =-STRESS in cart. coord.  units (eV):
  Direction    XX          YY          ZZ          XY          YZ          ZX
  --------------------------------------------------------------------------------------
  Alpha Z     3.24858     3.24858     3.24858
  Ewald     -75.30526   -75.30526   -75.30526     0.00000    -0.00000    -0.00000
  Hartree     5.17713     5.17713     5.17713     0.00000     0.00000     0.00000
  E(xc)     -25.30722   -25.30722   -25.30722    -0.00000    -0.00000    -0.00000
  Local     -29.74888   -29.74888   -29.74888     0.00001     0.00001     0.00001
  n-local    78.49400    80.09851    74.29071     2.20495    -1.30451     0.49111
  augment   -11.97762   -11.97762   -11.97762    -0.00001    -0.00001    -0.00001
  Kinetic    58.51455    55.91505    54.42767     3.55553    -0.73981     1.05686
  Fock        0.00000     0.00000     0.00000     0.00000     0.00000     0.00000
  -------------------------------------------------------------------------------------
  Total       0.00022     0.00022     0.00022    -0.00000    -0.00000     0.00000
  in kB       0.00860     0.00860     0.00860    -0.00000    -0.00000     0.00000
  external pressure =        0.01 kB  Pullay stress =        0.00 kB


 VOLUME and BASIS-vectors are now :
 -----------------------------------------------------------------------------
  energy-cutoff  :      500.00
  volume of cell :       41.45
      direct lattice vectors                 reciprocal lattice vectors
     0.000000000  2.746821138  2.746821138    -0.182028598  0.182028598  0.182028598
     2.746821138  0.000000000  2.746821138     0.182028598 -0.182028598  0.182028598
     2.746821138  2.746821138  0.000000000     0.182028598  0.182028598 -0.182028598

  length of vectors
     3.884591706  3.884591706  3.884591706     0.315282780  0.315282780  0.315282780


 FORCES acting on ions
    electron-ion (+dipol)            ewald-force                    non-local-force                 convergence-correction
 -----------------------------------------------------------------------------------------------
   0.983E-08 0.983E-08 0.107E-07   -.313E-14 -.268E-14 -.153E-14   0.694E-16 0.486E-16 0.108E-15   -.433E-12 -.431E-12 -.431E-12
   -.983E-08 -.983E-08 -.107E-07   0.307E-14 0.301E-14 0.222E-14   -.833E-16 -.625E-16 -.111E-15   0.432E-12 0.431E-12 0.433E-12
 -----------------------------------------------------------------------------------------------
   0.295E-13 0.993E-13 -.113E-12   -.615E-16 0.330E-15 0.690E-15   -.139E-16 -.139E-16 -.347E-17   -.171E-14 -.356E-15 0.118E-14


 POSITION                                       TOTAL-FORCE (eV/Angst)
 -----------------------------------------------------------------------------------
      4.12023      4.12023      4.12023         0.000000      0.000000      0.000000
      2.74682      2.74682      2.74682        -0.000000     -0.000000     -0.000000
 -----------------------------------------------------------------------------------
    total drift:                                0.000000      0.000000     -0.000000


--------------------------------------------------------------------------------------------------------



  FREE ENERGIE OF THE ION-ELECTRON SYSTEM (eV)
  ---------------------------------------------------
  free  energy   TOTEN  =        -8.33847261 eV

  energy  without entropy=       -8.33845116  energy(sigma->0) =       -8.33846188



--------------------------------------------------------------------------------------------------------


    POTLOK:  cpu time    1.6320: real time    1.6302


--------------------------------------------------------------------------------------------------------




--------------------------------------------------------------------------------------------------------


  
 reached required accuracy - stopping structural energy minimisation
     LOOP+:  cpu time   98.6560: real time  101.1853
    4ORBIT:  cpu time    0.0000: real time    0.0000

 total amount of memory used by VASP on root node    54411. kBytes
========================================================================

   base      :      30000. kBytes
   nonl-proj :      17860. kBytes
   fftplans  :        517. kBytes
   grid      :       1507. kBytes
   one-center:          6. kBytes
   wavefun   :       4521. kBytes

  
  
 General timing and accounting informations for this job:
 ========================================================
  
                  Total CPU time used (sec):      100.216
                            User time (sec):       98.644
                          System time (sec):        1.572
                         Elapsed time (sec):      104.146
  
                   Maximum memory used (kb):      141788.
                   Average memory used (kb):           0.
  
                          Minor page faults:      1284705
                          Major page faults:            6
                 Voluntary context switches:          341
