<?xml version="1.0" encoding="ISO-8859-1"?>
<modeling>
 <generator>
  <i name="program" type="string">vasp </i>
  <i name="version" type="string">5.4.1  </i>
  <i name="subversion" type="string">24Jun15 (build Feb  9 2019 14:16:27) complex                          parallel </i>
  <i name="platform" type="string">IFC91_ompi </i>
  <i name="date" type="string">2020 09 26 </i>
  <i name="time" type="string">22:36:46 </i>
 </generator>
 <incar>
  <i type="string" name="PREC">accurate</i>
  <i type="int" name="NELM">   400</i>
  <i type="int" name="IBRION">     2</i>
  <i name="EDIFF">      0.00000010</i>
  <i type="int" name="NSW">     1</i>
  <i type="int" name="ISIF">     2</i>
  <i name="ENCUT">    500.00000000</i>
  <i type="int" name="ISMEAR">     0</i>
  <i type="logical" name="LWAVE"> F  </i>
  <i type="logical" name="LCHARG"> F  </i>
  <v type="int" name="KPOINT_BSE">    -1     0     0     0</v>
  <i type="int" name="NELM">   400</i>
  <i type="string" name="GGA">BO</i>
  <i name="PARAM1">      0.18333333</i>
  <i name="PARAM2">      0.22000000</i>
  <i type="logical" name="LUSE_VDW"> T  </i>
  <i name="AGGAC">      0.00000000</i>
 </incar>
 <kpoints>
  <generation param="Gamma">
   <v type="int" name="divisions">      20       20       20 </v>
   <v name="usershift">      0.00000000       0.00000000       0.00000000 </v>
   <v name="genvec1">      0.05000000       0.00000000       0.00000000 </v>
   <v name="genvec2">      0.00000000       0.05000000       0.00000000 </v>
   <v name="genvec3">      0.00000000       0.00000000       0.05000000 </v>
   <v name="shift">      0.00000000       0.00000000       0.00000000 </v>
  </generation>
  <varray name="kpointlist" >
   <v>       0.00000000       0.00000000       0.00000000 </v>
   <v>       0.05000000       0.00000000       0.00000000 </v>
   <v>       0.10000000       0.00000000       0.00000000 </v>
   <v>       0.15000000       0.00000000       0.00000000 </v>
   <v>       0.20000000       0.00000000       0.00000000 </v>
   <v>       0.25000000       0.00000000       0.00000000 </v>
   <v>       0.30000000       0.00000000       0.00000000 </v>
   <v>       0.35000000       0.00000000       0.00000000 </v>
   <v>       0.40000000       0.00000000       0.00000000 </v>
   <v>       0.45000000       0.00000000       0.00000000 </v>
   <v>       0.50000000       0.00000000       0.00000000 </v>
   <v>       0.05000000       0.05000000       0.00000000 </v>
   <v>       0.10000000       0.05000000       0.00000000 </v>
   <v>       0.15000000       0.05000000       0.00000000 </v>
   <v>       0.20000000       0.05000000       0.00000000 </v>
   <v>       0.25000000       0.05000000       0.00000000 </v>
   <v>       0.30000000       0.05000000       0.00000000 </v>
   <v>       0.35000000       0.05000000       0.00000000 </v>
   <v>       0.40000000       0.05000000       0.00000000 </v>
   <v>       0.45000000       0.05000000       0.00000000 </v>
   <v>       0.50000000       0.05000000       0.00000000 </v>
   <v>      -0.45000000       0.05000000       0.00000000 </v>
   <v>      -0.40000000       0.05000000       0.00000000 </v>
   <v>      -0.35000000       0.05000000       0.00000000 </v>
   <v>      -0.30000000       0.05000000       0.00000000 </v>
   <v>      -0.25000000       0.05000000       0.00000000 </v>
   <v>      -0.20000000       0.05000000       0.00000000 </v>
   <v>      -0.15000000       0.05000000       0.00000000 </v>
   <v>      -0.10000000       0.05000000       0.00000000 </v>
   <v>      -0.05000000       0.05000000       0.00000000 </v>
   <v>       0.10000000       0.10000000       0.00000000 </v>
   <v>       0.15000000       0.10000000       0.00000000 </v>
   <v>       0.20000000       0.10000000       0.00000000 </v>
   <v>       0.25000000       0.10000000       0.00000000 </v>
   <v>       0.30000000       0.10000000       0.00000000 </v>
   <v>       0.35000000       0.10000000       0.00000000 </v>
   <v>       0.40000000       0.10000000       0.00000000 </v>
   <v>       0.45000000       0.10000000       0.00000000 </v>
   <v>       0.50000000       0.10000000       0.00000000 </v>
   <v>      -0.45000000       0.10000000       0.00000000 </v>
   <v>      -0.40000000       0.10000000       0.00000000 </v>
   <v>      -0.35000000       0.10000000       0.00000000 </v>
   <v>      -0.30000000       0.10000000       0.00000000 </v>
   <v>      -0.25000000       0.10000000       0.00000000 </v>
   <v>      -0.20000000       0.10000000       0.00000000 </v>
   <v>      -0.15000000       0.10000000       0.00000000 </v>
   <v>      -0.10000000       0.10000000       0.00000000 </v>
   <v>       0.15000000       0.15000000       0.00000000 </v>
   <v>       0.20000000       0.15000000       0.00000000 </v>
   <v>       0.25000000       0.15000000       0.00000000 </v>
   <v>       0.30000000       0.15000000       0.00000000 </v>
   <v>       0.35000000       0.15000000       0.00000000 </v>
   <v>       0.40000000       0.15000000       0.00000000 </v>
   <v>       0.45000000       0.15000000       0.00000000 </v>
   <v>       0.50000000       0.15000000       0.00000000 </v>
   <v>      -0.45000000       0.15000000       0.00000000 </v>
   <v>      -0.40000000       0.15000000       0.00000000 </v>
   <v>      -0.35000000       0.15000000       0.00000000 </v>
   <v>      -0.30000000       0.15000000       0.00000000 </v>
   <v>      -0.25000000       0.15000000       0.00000000 </v>
   <v>      -0.20000000       0.15000000       0.00000000 </v>
   <v>      -0.15000000       0.15000000       0.00000000 </v>
   <v>       0.20000000       0.20000000       0.00000000 </v>
   <v>       0.25000000       0.20000000       0.00000000 </v>
   <v>       0.30000000       0.20000000       0.00000000 </v>
   <v>       0.35000000       0.20000000       0.00000000 </v>
   <v>       0.40000000       0.20000000       0.00000000 </v>
   <v>       0.45000000       0.20000000       0.00000000 </v>
   <v>       0.50000000       0.20000000       0.00000000 </v>
   <v>      -0.45000000       0.20000000       0.00000000 </v>
   <v>      -0.40000000       0.20000000       0.00000000 </v>
   <v>      -0.35000000       0.20000000       0.00000000 </v>
   <v>      -0.30000000       0.20000000       0.00000000 </v>
   <v>      -0.25000000       0.20000000       0.00000000 </v>
   <v>      -0.20000000       0.20000000       0.00000000 </v>
   <v>       0.25000000       0.25000000       0.00000000 </v>
   <v>       0.30000000       0.25000000       0.00000000 </v>
   <v>       0.35000000       0.25000000       0.00000000 </v>
   <v>       0.40000000       0.25000000       0.00000000 </v>
   <v>       0.45000000       0.25000000       0.00000000 </v>
   <v>       0.50000000       0.25000000       0.00000000 </v>
   <v>      -0.45000000       0.25000000       0.00000000 </v>
   <v>      -0.40000000       0.25000000       0.00000000 </v>
   <v>      -0.35000000       0.25000000       0.00000000 </v>
   <v>      -0.30000000       0.25000000       0.00000000 </v>
   <v>      -0.25000000       0.25000000       0.00000000 </v>
   <v>       0.30000000       0.30000000       0.00000000 </v>
   <v>       0.35000000       0.30000000       0.00000000 </v>
   <v>       0.40000000       0.30000000       0.00000000 </v>
   <v>       0.45000000       0.30000000       0.00000000 </v>
   <v>       0.50000000       0.30000000       0.00000000 </v>
   <v>      -0.45000000       0.30000000       0.00000000 </v>
   <v>      -0.40000000       0.30000000       0.00000000 </v>
   <v>      -0.35000000       0.30000000       0.00000000 </v>
   <v>      -0.30000000       0.30000000       0.00000000 </v>
   <v>       0.35000000       0.35000000       0.00000000 </v>
   <v>       0.40000000       0.35000000       0.00000000 </v>
   <v>       0.45000000       0.35000000       0.00000000 </v>
   <v>       0.50000000       0.35000000       0.00000000 </v>
   <v>      -0.45000000       0.35000000       0.00000000 </v>
   <v>      -0.40000000       0.35000000       0.00000000 </v>
   <v>      -0.35000000       0.35000000       0.00000000 </v>
   <v>       0.40000000       0.40000000       0.00000000 </v>
   <v>       0.45000000       0.40000000       0.00000000 </v>
   <v>       0.50000000       0.40000000       0.00000000 </v>
   <v>      -0.45000000       0.40000000       0.00000000 </v>
   <v>      -0.40000000       0.40000000       0.00000000 </v>
   <v>       0.45000000       0.45000000       0.00000000 </v>
   <v>       0.50000000       0.45000000       0.00000000 </v>
   <v>      -0.45000000       0.45000000       0.00000000 </v>
   <v>       0.50000000       0.50000000       0.00000000 </v>
   <v>       0.15000000       0.10000000       0.05000000 </v>
   <v>       0.20000000       0.10000000       0.05000000 </v>
   <v>       0.25000000       0.10000000       0.05000000 </v>
   <v>       0.30000000       0.10000000       0.05000000 </v>
   <v>       0.35000000       0.10000000       0.05000000 </v>
   <v>       0.40000000       0.10000000       0.05000000 </v>
   <v>       0.45000000       0.10000000       0.05000000 </v>
   <v>       0.50000000       0.10000000       0.05000000 </v>
   <v>      -0.45000000       0.10000000       0.05000000 </v>
   <v>       0.20000000       0.15000000       0.05000000 </v>
   <v>       0.25000000       0.15000000       0.05000000 </v>
   <v>       0.30000000       0.15000000       0.05000000 </v>
   <v>       0.35000000       0.15000000       0.05000000 </v>
   <v>       0.40000000       0.15000000       0.05000000 </v>
   <v>       0.45000000       0.15000000       0.05000000 </v>
   <v>       0.50000000       0.15000000       0.05000000 </v>
   <v>      -0.45000000       0.15000000       0.05000000 </v>
   <v>      -0.40000000       0.15000000       0.05000000 </v>
   <v>      -0.35000000       0.15000000       0.05000000 </v>
   <v>      -0.30000000       0.15000000       0.05000000 </v>
   <v>      -0.25000000       0.15000000       0.05000000 </v>
   <v>      -0.20000000       0.15000000       0.05000000 </v>
   <v>      -0.15000000       0.15000000       0.05000000 </v>
   <v>      -0.10000000       0.15000000       0.05000000 </v>
   <v>       0.25000000       0.20000000       0.05000000 </v>
   <v>       0.30000000       0.20000000       0.05000000 </v>
   <v>       0.35000000       0.20000000       0.05000000 </v>
   <v>       0.40000000       0.20000000       0.05000000 </v>
   <v>       0.45000000       0.20000000       0.05000000 </v>
   <v>       0.50000000       0.20000000       0.05000000 </v>
   <v>      -0.45000000       0.20000000       0.05000000 </v>
   <v>      -0.40000000       0.20000000       0.05000000 </v>
   <v>      -0.35000000       0.20000000       0.05000000 </v>
   <v>      -0.30000000       0.20000000       0.05000000 </v>
   <v>      -0.25000000       0.20000000       0.05000000 </v>
   <v>      -0.20000000       0.20000000       0.05000000 </v>
   <v>      -0.15000000       0.20000000       0.05000000 </v>
   <v>       0.30000000       0.25000000       0.05000000 </v>
   <v>       0.35000000       0.25000000       0.05000000 </v>
   <v>       0.40000000       0.25000000       0.05000000 </v>
   <v>       0.45000000       0.25000000       0.05000000 </v>
   <v>       0.50000000       0.25000000       0.05000000 </v>
   <v>      -0.45000000       0.25000000       0.05000000 </v>
   <v>      -0.40000000       0.25000000       0.05000000 </v>
   <v>      -0.35000000       0.25000000       0.05000000 </v>
   <v>      -0.30000000       0.25000000       0.05000000 </v>
   <v>      -0.25000000       0.25000000       0.05000000 </v>
   <v>      -0.20000000       0.25000000       0.05000000 </v>
   <v>       0.35000000       0.30000000       0.05000000 </v>
   <v>       0.40000000       0.30000000       0.05000000 </v>
   <v>       0.45000000       0.30000000       0.05000000 </v>
   <v>       0.50000000       0.30000000       0.05000000 </v>
   <v>      -0.45000000       0.30000000       0.05000000 </v>
   <v>      -0.40000000       0.30000000       0.05000000 </v>
   <v>      -0.35000000       0.30000000       0.05000000 </v>
   <v>      -0.30000000       0.30000000       0.05000000 </v>
   <v>      -0.25000000       0.30000000       0.05000000 </v>
   <v>       0.40000000       0.35000000       0.05000000 </v>
   <v>       0.45000000       0.35000000       0.05000000 </v>
   <v>       0.50000000       0.35000000       0.05000000 </v>
   <v>      -0.45000000       0.35000000       0.05000000 </v>
   <v>      -0.40000000       0.35000000       0.05000000 </v>
   <v>      -0.35000000       0.35000000       0.05000000 </v>
   <v>      -0.30000000       0.35000000       0.05000000 </v>
   <v>       0.45000000       0.40000000       0.05000000 </v>
   <v>       0.50000000       0.40000000       0.05000000 </v>
   <v>      -0.45000000       0.40000000       0.05000000 </v>
   <v>      -0.40000000       0.40000000       0.05000000 </v>
   <v>      -0.35000000       0.40000000       0.05000000 </v>
   <v>       0.50000000       0.45000000       0.05000000 </v>
   <v>      -0.45000000       0.45000000       0.05000000 </v>
   <v>      -0.40000000       0.45000000       0.05000000 </v>
   <v>      -0.45000000       0.50000000       0.05000000 </v>
   <v>       0.30000000       0.20000000       0.10000000 </v>
   <v>       0.35000000       0.20000000       0.10000000 </v>
   <v>       0.40000000       0.20000000       0.10000000 </v>
   <v>       0.45000000       0.20000000       0.10000000 </v>
   <v>       0.50000000       0.20000000       0.10000000 </v>
   <v>      -0.45000000       0.20000000       0.10000000 </v>
   <v>      -0.40000000       0.20000000       0.10000000 </v>
   <v>       0.35000000       0.25000000       0.10000000 </v>
   <v>       0.40000000       0.25000000       0.10000000 </v>
   <v>       0.45000000       0.25000000       0.10000000 </v>
   <v>       0.50000000       0.25000000       0.10000000 </v>
   <v>      -0.45000000       0.25000000       0.10000000 </v>
   <v>      -0.40000000       0.25000000       0.10000000 </v>
   <v>      -0.35000000       0.25000000       0.10000000 </v>
   <v>      -0.30000000       0.25000000       0.10000000 </v>
   <v>      -0.25000000       0.25000000       0.10000000 </v>
   <v>      -0.20000000       0.25000000       0.10000000 </v>
   <v>      -0.15000000       0.25000000       0.10000000 </v>
   <v>       0.40000000       0.30000000       0.10000000 </v>
   <v>       0.45000000       0.30000000       0.10000000 </v>
   <v>       0.50000000       0.30000000       0.10000000 </v>
   <v>      -0.45000000       0.30000000       0.10000000 </v>
   <v>      -0.40000000       0.30000000       0.10000000 </v>
   <v>      -0.35000000       0.30000000       0.10000000 </v>
   <v>      -0.30000000       0.30000000       0.10000000 </v>
   <v>      -0.25000000       0.30000000       0.10000000 </v>
   <v>      -0.20000000       0.30000000       0.10000000 </v>
   <v>       0.45000000       0.35000000       0.10000000 </v>
   <v>       0.50000000       0.35000000       0.10000000 </v>
   <v>      -0.45000000       0.35000000       0.10000000 </v>
   <v>      -0.40000000       0.35000000       0.10000000 </v>
   <v>      -0.35000000       0.35000000       0.10000000 </v>
   <v>      -0.30000000       0.35000000       0.10000000 </v>
   <v>      -0.25000000       0.35000000       0.10000000 </v>
   <v>       0.50000000       0.40000000       0.10000000 </v>
   <v>      -0.45000000       0.40000000       0.10000000 </v>
   <v>      -0.40000000       0.40000000       0.10000000 </v>
   <v>      -0.35000000       0.40000000       0.10000000 </v>
   <v>      -0.30000000       0.40000000       0.10000000 </v>
   <v>      -0.45000000       0.45000000       0.10000000 </v>
   <v>      -0.40000000       0.45000000       0.10000000 </v>
   <v>      -0.35000000       0.45000000       0.10000000 </v>
   <v>      -0.40000000       0.50000000       0.10000000 </v>
   <v>       0.45000000       0.30000000       0.15000000 </v>
   <v>       0.50000000       0.30000000       0.15000000 </v>
   <v>      -0.45000000       0.30000000       0.15000000 </v>
   <v>      -0.40000000       0.30000000       0.15000000 </v>
   <v>      -0.35000000       0.30000000       0.15000000 </v>
   <v>       0.50000000       0.35000000       0.15000000 </v>
   <v>      -0.45000000       0.35000000       0.15000000 </v>
   <v>      -0.40000000       0.35000000       0.15000000 </v>
   <v>      -0.35000000       0.35000000       0.15000000 </v>
   <v>      -0.30000000       0.35000000       0.15000000 </v>
   <v>      -0.25000000       0.35000000       0.15000000 </v>
   <v>      -0.20000000       0.35000000       0.15000000 </v>
   <v>      -0.45000000       0.40000000       0.15000000 </v>
   <v>      -0.40000000       0.40000000       0.15000000 </v>
   <v>      -0.35000000       0.40000000       0.15000000 </v>
   <v>      -0.30000000       0.40000000       0.15000000 </v>
   <v>      -0.25000000       0.40000000       0.15000000 </v>
   <v>      -0.40000000       0.45000000       0.15000000 </v>
   <v>      -0.35000000       0.45000000       0.15000000 </v>
   <v>      -0.30000000       0.45000000       0.15000000 </v>
   <v>      -0.35000000       0.50000000       0.15000000 </v>
   <v>      -0.40000000       0.40000000       0.20000000 </v>
   <v>      -0.35000000       0.40000000       0.20000000 </v>
   <v>      -0.30000000       0.40000000       0.20000000 </v>
   <v>      -0.35000000       0.45000000       0.20000000 </v>
   <v>      -0.30000000       0.45000000       0.20000000 </v>
   <v>      -0.25000000       0.45000000       0.20000000 </v>
   <v>      -0.30000000       0.50000000       0.20000000 </v>
   <v>      -0.25000000       0.50000000       0.25000000 </v>
  </varray>
  <varray name="weights" >
   <v>       0.00012500 </v>
   <v>       0.00100000 </v>
   <v>       0.00100000 </v>
   <v>       0.00100000 </v>
   <v>       0.00100000 </v>
   <v>       0.00100000 </v>
   <v>       0.00100000 </v>
   <v>       0.00100000 </v>
   <v>       0.00100000 </v>
   <v>       0.00100000 </v>
   <v>       0.00050000 </v>
   <v>       0.00075000 </v>
   <v>       0.00300000 </v>
   <v>       0.00300000 </v>
   <v>       0.00300000 </v>
   <v>       0.00300000 </v>
   <v>       0.00300000 </v>
   <v>       0.00300000 </v>
   <v>       0.00300000 </v>
   <v>       0.00300000 </v>
   <v>       0.00300000 </v>
   <v>       0.00300000 </v>
   <v>       0.00300000 </v>
   <v>       0.00300000 </v>
   <v>       0.00300000 </v>
   <v>       0.00300000 </v>
   <v>       0.00300000 </v>
   <v>       0.00300000 </v>
   <v>       0.00300000 </v>
   <v>       0.00150000 </v>
   <v>       0.00075000 </v>
   <v>       0.00300000 </v>
   <v>       0.00300000 </v>
   <v>       0.00300000 </v>
   <v>       0.00300000 </v>
   <v>       0.00300000 </v>
   <v>       0.00300000 </v>
   <v>       0.00300000 </v>
   <v>       0.00300000 </v>
   <v>       0.00300000 </v>
   <v>       0.00300000 </v>
   <v>       0.00300000 </v>
   <v>       0.00300000 </v>
   <v>       0.00300000 </v>
   <v>       0.00300000 </v>
   <v>       0.00300000 </v>
   <v>       0.00150000 </v>
   <v>       0.00075000 </v>
   <v>       0.00300000 </v>
   <v>       0.00300000 </v>
   <v>       0.00300000 </v>
   <v>       0.00300000 </v>
   <v>       0.00300000 </v>
   <v>       0.00300000 </v>
   <v>       0.00300000 </v>
   <v>       0.00300000 </v>
   <v>       0.00300000 </v>
   <v>       0.00300000 </v>
   <v>       0.00300000 </v>
   <v>       0.00300000 </v>
   <v>       0.00300000 </v>
   <v>       0.00150000 </v>
   <v>       0.00075000 </v>
   <v>       0.00300000 </v>
   <v>       0.00300000 </v>
   <v>       0.00300000 </v>
   <v>       0.00300000 </v>
   <v>       0.00300000 </v>
   <v>       0.00300000 </v>
   <v>       0.00300000 </v>
   <v>       0.00300000 </v>
   <v>       0.00300000 </v>
   <v>       0.00300000 </v>
   <v>       0.00300000 </v>
   <v>       0.00150000 </v>
   <v>       0.00075000 </v>
   <v>       0.00300000 </v>
   <v>       0.00300000 </v>
   <v>       0.00300000 </v>
   <v>       0.00300000 </v>
   <v>       0.00300000 </v>
   <v>       0.00300000 </v>
   <v>       0.00300000 </v>
   <v>       0.00300000 </v>
   <v>       0.00300000 </v>
   <v>       0.00150000 </v>
   <v>       0.00075000 </v>
   <v>       0.00300000 </v>
   <v>       0.00300000 </v>
   <v>       0.00300000 </v>
   <v>       0.00300000 </v>
   <v>       0.00300000 </v>
   <v>       0.00300000 </v>
   <v>       0.00300000 </v>
   <v>       0.00150000 </v>
   <v>       0.00075000 </v>
   <v>       0.00300000 </v>
   <v>       0.00300000 </v>
   <v>       0.00300000 </v>
   <v>       0.00300000 </v>
   <v>       0.00300000 </v>
   <v>       0.00150000 </v>
   <v>       0.00075000 </v>
   <v>       0.00300000 </v>
   <v>       0.00300000 </v>
   <v>       0.00300000 </v>
   <v>       0.00150000 </v>
   <v>       0.00075000 </v>
   <v>       0.00300000 </v>
   <v>       0.00150000 </v>
   <v>       0.00037500 </v>
   <v>       0.00300000 </v>
   <v>       0.00600000 </v>
   <v>       0.00600000 </v>
   <v>       0.00600000 </v>
   <v>       0.00600000 </v>
   <v>       0.00600000 </v>
   <v>       0.00600000 </v>
   <v>       0.00600000 </v>
   <v>       0.00300000 </v>
   <v>       0.00300000 </v>
   <v>       0.00600000 </v>
   <v>       0.00600000 </v>
   <v>       0.00600000 </v>
   <v>       0.00600000 </v>
   <v>       0.00600000 </v>
   <v>       0.00600000 </v>
   <v>       0.00600000 </v>
   <v>       0.00600000 </v>
   <v>       0.00600000 </v>
   <v>       0.00600000 </v>
   <v>       0.00600000 </v>
   <v>       0.00600000 </v>
   <v>       0.00600000 </v>
   <v>       0.00300000 </v>
   <v>       0.00300000 </v>
   <v>       0.00600000 </v>
   <v>       0.00600000 </v>
   <v>       0.00600000 </v>
   <v>       0.00600000 </v>
   <v>       0.00600000 </v>
   <v>       0.00600000 </v>
   <v>       0.00600000 </v>
   <v>       0.00600000 </v>
   <v>       0.00600000 </v>
   <v>       0.00600000 </v>
   <v>       0.00600000 </v>
   <v>       0.00300000 </v>
   <v>       0.00300000 </v>
   <v>       0.00600000 </v>
   <v>       0.00600000 </v>
   <v>       0.00600000 </v>
   <v>       0.00600000 </v>
   <v>       0.00600000 </v>
   <v>       0.00600000 </v>
   <v>       0.00600000 </v>
   <v>       0.00600000 </v>
   <v>       0.00600000 </v>
   <v>       0.00300000 </v>
   <v>       0.00300000 </v>
   <v>       0.00600000 </v>
   <v>       0.00600000 </v>
   <v>       0.00600000 </v>
   <v>       0.00600000 </v>
   <v>       0.00600000 </v>
   <v>       0.00600000 </v>
   <v>       0.00600000 </v>
   <v>       0.00300000 </v>
   <v>       0.00300000 </v>
   <v>       0.00600000 </v>
   <v>       0.00600000 </v>
   <v>       0.00600000 </v>
   <v>       0.00600000 </v>
   <v>       0.00600000 </v>
   <v>       0.00300000 </v>
   <v>       0.00300000 </v>
   <v>       0.00600000 </v>
   <v>       0.00600000 </v>
   <v>       0.00600000 </v>
   <v>       0.00300000 </v>
   <v>       0.00300000 </v>
   <v>       0.00600000 </v>
   <v>       0.00300000 </v>
   <v>       0.00150000 </v>
   <v>       0.00300000 </v>
   <v>       0.00600000 </v>
   <v>       0.00600000 </v>
   <v>       0.00600000 </v>
   <v>       0.00600000 </v>
   <v>       0.00600000 </v>
   <v>       0.00300000 </v>
   <v>       0.00300000 </v>
   <v>       0.00600000 </v>
   <v>       0.00600000 </v>
   <v>       0.00600000 </v>
   <v>       0.00600000 </v>
   <v>       0.00600000 </v>
   <v>       0.00600000 </v>
   <v>       0.00600000 </v>
   <v>       0.00600000 </v>
   <v>       0.00600000 </v>
   <v>       0.00300000 </v>
   <v>       0.00300000 </v>
   <v>       0.00600000 </v>
   <v>       0.00600000 </v>
   <v>       0.00600000 </v>
   <v>       0.00600000 </v>
   <v>       0.00600000 </v>
   <v>       0.00600000 </v>
   <v>       0.00600000 </v>
   <v>       0.00300000 </v>
   <v>       0.00300000 </v>
   <v>       0.00600000 </v>
   <v>       0.00600000 </v>
   <v>       0.00600000 </v>
   <v>       0.00600000 </v>
   <v>       0.00600000 </v>
   <v>       0.00300000 </v>
   <v>       0.00300000 </v>
   <v>       0.00600000 </v>
   <v>       0.00600000 </v>
   <v>       0.00600000 </v>
   <v>       0.00300000 </v>
   <v>       0.00300000 </v>
   <v>       0.00600000 </v>
   <v>       0.00300000 </v>
   <v>       0.00150000 </v>
   <v>       0.00300000 </v>
   <v>       0.00600000 </v>
   <v>       0.00600000 </v>
   <v>       0.00600000 </v>
   <v>       0.00300000 </v>
   <v>       0.00300000 </v>
   <v>       0.00600000 </v>
   <v>       0.00600000 </v>
   <v>       0.00600000 </v>
   <v>       0.00600000 </v>
   <v>       0.00600000 </v>
   <v>       0.00300000 </v>
   <v>       0.00300000 </v>
   <v>       0.00600000 </v>
   <v>       0.00600000 </v>
   <v>       0.00600000 </v>
   <v>       0.00300000 </v>
   <v>       0.00300000 </v>
   <v>       0.00600000 </v>
   <v>       0.00300000 </v>
   <v>       0.00150000 </v>
   <v>       0.00300000 </v>
   <v>       0.00600000 </v>
   <v>       0.00300000 </v>
   <v>       0.00300000 </v>
   <v>       0.00600000 </v>
   <v>       0.00300000 </v>
   <v>       0.00150000 </v>
   <v>       0.00075000 </v>
  </varray>
 </kpoints>
 <parameters>
  <separator name="general" >
   <i type="string" name="SYSTEM">unknown system</i>
   <i type="logical" name="LCOMPAT"> F  </i>
  </separator>
  <separator name="electronic" >
   <i type="string" name="PREC">accura</i>
   <i name="ENMAX">    500.00000000</i>
   <i name="ENAUG">    322.06900000</i>
   <i name="EDIFF">      0.00000010</i>
   <i type="int" name="IALGO">    38</i>
   <i type="int" name="IWAVPR">    11</i>
   <i type="int" name="NBANDS">    16</i>
   <i name="NELECT">      8.00000000</i>
   <i type="int" name="TURBO">     0</i>
   <i type="int" name="IRESTART">     0</i>
   <i type="int" name="NREBOOT">     0</i>
   <i type="int" name="NMIN">     0</i>
   <i name="EREF">      0.00000000</i>
   <separator name="electronic smearing" >
    <i type="int" name="ISMEAR">     0</i>
    <i name="SIGMA">      0.20000000</i>
    <i name="KSPACING">      0.50000000</i>
    <i type="logical" name="KGAMMA"> T  </i>
   </separator>
   <separator name="electronic projectors" >
    <i type="logical" name="LREAL"> F  </i>
    <v name="ROPT">      0.00000000</v>
    <i type="int" name="LMAXPAW">  -100</i>
    <i type="int" name="LMAXMIX">     2</i>
    <i type="logical" name="NLSPLINE"> F  </i>
   </separator>
   <separator name="electronic startup" >
    <i type="int" name="ISTART">     0</i>
    <i type="int" name="ICHARG">     2</i>
    <i type="int" name="INIWAV">     1</i>
   </separator>
   <separator name="electronic spin" >
    <i type="int" name="ISPIN">     1</i>
    <i type="logical" name="LNONCOLLINEAR"> F  </i>
    <v name="MAGMOM">      1.00000000      1.00000000</v>
    <i name="NUPDOWN">     -1.00000000</i>
    <i type="logical" name="LSORBIT"> F  </i>
    <v name="SAXIS">      0.00000000      0.00000000      1.00000000</v>
    <i type="logical" name="LSPIRAL"> F  </i>
    <v name="QSPIRAL">      0.00000000      0.00000000      0.00000000</v>
    <i type="logical" name="LZEROZ"> F  </i>
   </separator>
   <separator name="electronic exchange-correlation" >
    <i type="logical" name="LASPH"> F  </i>
    <i type="logical" name="LMETAGGA"> F  </i>
   </separator>
   <separator name="electronic convergence" >
    <i type="int" name="NELM">   400</i>
    <i type="int" name="NELMDL">    -5</i>
    <i type="int" name="NELMIN">     2</i>
    <i name="ENINI">    500.00000000</i>
    <separator name="electronic convergence detail" >
     <i type="logical" name="LDIAG"> T  </i>
     <i type="logical" name="LSUBROT"> F  </i>
     <i name="WEIMIN">      0.00100000</i>
     <i name="EBREAK">      0.00000000</i>
     <i name="DEPER">      0.30000000</i>
     <i type="int" name="NRMM">     4</i>
     <i name="TIME">      0.40000000</i>
    </separator>
   </separator>
   <separator name="electronic mixer" >
    <i name="AMIX">      0.40000000</i>
    <i name="BMIX">      1.00000000</i>
    <i name="AMIN">      0.10000000</i>
    <i name="AMIX_MAG">      1.60000000</i>
    <i name="BMIX_MAG">      1.00000000</i>
    <separator name="electronic mixer details" >
     <i type="int" name="IMIX">     4</i>
     <i type="logical" name="MIXFIRST"> F  </i>
     <i type="int" name="MAXMIX">   -45</i>
     <i name="WC">    100.00000000</i>
     <i type="int" name="INIMIX">     1</i>
     <i type="int" name="MIXPRE">     1</i>
     <i type="int" name="MREMOVE">     5</i>
    </separator>
   </separator>
   <separator name="electronic dipolcorrection" >
    <i type="logical" name="LDIPOL"> F  </i>
    <i type="logical" name="LMONO"> F  </i>
    <i type="int" name="IDIPOL">     0</i>
    <i name="EPSILON">      1.00000000</i>
    <v name="DIPOL">   -100.00000000   -100.00000000   -100.00000000</v>
    <i name="EFIELD">      0.00000000</i>
   </separator>
  </separator>
  <separator name="grids" >
   <i type="int" name="NGX">    28</i>
   <i type="int" name="NGY">    28</i>
   <i type="int" name="NGZ">    28</i>
   <i type="int" name="NGXF">    56</i>
   <i type="int" name="NGYF">    56</i>
   <i type="int" name="NGZF">    56</i>
   <i type="logical" name="ADDGRID"> F  </i>
  </separator>
  <separator name="ionic" >
   <i type="int" name="NSW">     1</i>
   <i type="int" name="IBRION">     2</i>
   <i type="int" name="ISIF">     2</i>
   <i name="PSTRESS">      0.00000000</i>
   <i name="EDIFFG">      0.00000100</i>
   <i type="int" name="NFREE">     1</i>
   <i name="POTIM">      0.50000000</i>
   <i name="SMASS">     -3.00000000</i>
   <i name="SCALEE">      1.00000000</i>
  </separator>
  <separator name="ionic md" >
   <i name="TEBEG">      0.00010000</i>
   <i name="TEEND">      0.00010000</i>
   <i type="int" name="NBLOCK">     1</i>
   <i type="int" name="KBLOCK">     1</i>
   <i type="int" name="NPACO">   256</i>
   <i name="APACO">     16.00000000</i>
  </separator>
  <separator name="symmetry" >
   <i type="int" name="ISYM">     2</i>
   <i name="SYMPREC">      0.00001000</i>
  </separator>
  <separator name="dos" >
   <i type="logical" name="LORBIT"> T  </i>
   <v name="RWIGS">     -1.00000000</v>
   <i type="int" name="NEDOS">   301</i>
   <i name="EMIN">     10.00000000</i>
   <i name="EMAX">    -10.00000000</i>
   <i name="EFERMI">      0.00000000</i>
  </separator>
  <separator name="writing" >
   <i type="int" name="NWRITE">     2</i>
   <i type="logical" name="LWAVE"> F  </i>
   <i type="logical" name="LCHARG"> F  </i>
   <i type="logical" name="LPARD"> F  </i>
   <i type="logical" name="LVTOT"> F  </i>
   <i type="logical" name="LVHAR"> F  </i>
   <i type="logical" name="LELF"> F  </i>
   <i type="logical" name="LOPTICS"> F  </i>
   <v name="STM">      0.00000000      0.00000000      0.00000000      0.00000000      0.00000000      0.00000000      0.00000000</v>
  </separator>
  <separator name="performance" >
   <i type="int" name="NPAR">    16</i>
   <i type="int" name="NSIM">     4</i>
   <i type="int" name="NBLK">    -1</i>
   <i type="logical" name="LPLANE"> T  </i>
   <i type="logical" name="LSCALAPACK"> T  </i>
   <i type="logical" name="LSCAAWARE"> F  </i>
   <i type="logical" name="LSCALU"> F  </i>
   <i type="logical" name="LASYNC"> F  </i>
   <i type="logical" name="LORBITALREAL"> F  </i>
  </separator>
  <separator name="miscellaneous" >
   <i type="int" name="IDIOT">     3</i>
   <i type="logical" name="LMUSIC"> F  </i>
   <v name="POMASS">     28.08500000</v>
   <v name="DARWINR">      0.00000000</v>
   <v name="DARWINV">      1.00000000</v>
   <i type="logical" name="LCORR"> T  </i>
  </separator>
  <i type="logical" name="GGA_COMPAT"> T  </i>
  <i type="logical" name="LBERRY"> F  </i>
  <i type="int" name="ICORELEVEL">     0</i>
  <i type="logical" name="LDAU"> F  </i>
  <i type="int" name="I_CONSTRAINED_M">     0</i>
  <separator name="electronic exchange-correlation" >
   <i type="string" name="GGA">BO</i>
   <i type="int" name="VOSKOWN">     0</i>
   <i type="logical" name="LHFCALC"> F  </i>
   <i type="string" name="PRECFOCK"></i>
   <i type="logical" name="LSYMGRAD"> F  </i>
   <i type="logical" name="LHFONE"> F  </i>
   <i type="logical" name="LRHFCALC"> F  </i>
   <i type="logical" name="LTHOMAS"> F  </i>
   <i type="logical" name="LMODELHF"> F  </i>
   <i name="ENCUT4O">     -1.00000000</i>
   <i type="int" name="EXXOEP">     0</i>
   <i type="int" name="FOURORBIT">     0</i>
   <i name="AEXX">      0.00000000</i>
   <i name="HFALPHA">      0.00000000</i>
   <i name="MCALPHA">      0.00000000</i>
   <i name="ALDAX">      1.00000000</i>
   <i name="AGGAX">      1.00000000</i>
   <i name="ALDAC">      1.00000000</i>
   <i name="AGGAC">      0.00000000</i>
   <i type="int" name="NKREDX">     1</i>
   <i type="int" name="NKREDY">     1</i>
   <i type="int" name="NKREDZ">     1</i>
   <i type="logical" name="SHIFTRED"> F  </i>
   <i type="logical" name="ODDONLY"> F  </i>
   <i type="logical" name="EVENONLY"> F  </i>
   <i type="int" name="LMAXFOCK">     0</i>
   <i type="int" name="NMAXFOCKAE">     0</i>
   <i type="logical" name="LFOCKAEDFT"> F  </i>
   <i name="HFSCREEN">      0.00000000</i>
   <i name="HFSCREENC">      0.00000000</i>
   <i type="int" name="NBANDSGWLOW">     0</i>
  </separator>
  <separator name="vdW DFT" >
   <i type="logical" name="LUSE_VDW"> T  </i>
   <i name="Zab_VDW">     -0.84910000</i>
   <i name="PARAM1">      0.18333333</i>
   <i name="PARAM2">      0.22000000</i>
   <i name="PARAM3">      0.00000000</i>
  </separator>
  <separator name="model GW" >
   <i type="int" name="MODEL_GW">     0</i>
   <i name="MODEL_EPS0">     12.43490274</i>
   <i name="MODEL_ALPHA">      1.00000000</i>
  </separator>
  <separator name="linear response parameters" >
   <i type="logical" name="LEPSILON"> F  </i>
   <i type="logical" name="LRPA"> F  </i>
   <i type="logical" name="LNABLA"> F  </i>
   <i type="logical" name="LVEL"> F  </i>
   <i type="int" name="KINTER">     0</i>
   <i name="CSHIFT">      0.10000000</i>
   <i name="OMEGAMAX">     -1.00000000</i>
   <i name="DEG_THRESHOLD">      0.00200000</i>
  </separator>
  <separator name="orbital magnetization" >
   <i type="logical" name="NUCIND"> F  </i>
   <v name="MAGPOS">      0.00000000      0.00000000      0.00000000</v>
   <i type="logical" name="LNICSALL"> T  </i>
   <i type="logical" name="ORBITALMAG"> F  </i>
   <i type="logical" name="LMAGBLOCH"> F  </i>
   <i type="logical" name="LCHIMAG"> F  </i>
   <i type="logical" name="LGAUGE"> T  </i>
   <i type="int" name="MAGATOM">     0</i>
   <v name="MAGDIPOL">      0.00000000      0.00000000      0.00000000</v>
   <v name="AVECCONST">      0.00000000      0.00000000      0.00000000</v>
  </separator>
  <separator name="response functions" >
   <i type="logical" name="LADDER"> F  </i>
   <i type="logical" name="LFXC"> F  </i>
   <i type="logical" name="LHARTREE"> T  </i>
   <i type="int" name="IBSE">     0</i>
   <v type="int" name="KPOINT">    -1     0     0     0</v>
   <i type="logical" name="LTCTE"> F  </i>
   <i type="logical" name="LTETE"> F  </i>
   <i type="logical" name="LTRIPLET"> F  </i>
   <i type="logical" name="LFXCEPS"> F  </i>
   <i type="logical" name="LFXHEG"> F  </i>
   <i type="int" name="NATURALO">     0</i>
   <i type="logical" name="L2ORDER"> F  </i>
   <i type="logical" name="LUSEW"> F  </i>
   <i name="ENCUTGW">     -2.00000000</i>
   <i name="ENCUTGWSOFT">     -2.00000000</i>
   <i name="ENCUTLF">     -1.00000000</i>
   <i type="int" name="LMAXMP2">    -1</i>
   <i name="SCISSOR">      0.00000000</i>
   <i type="int" name="NOMEGA">     0</i>
   <i type="int" name="NOMEGAR">     0</i>
   <i type="int" name="NBANDSGW">    -1</i>
   <i type="int" name="NBANDSO">    -1</i>
   <i type="int" name="NBANDSV">    -1</i>
   <i type="int" name="NELM">   400</i>
   <i type="int" name="NELMHF">     1</i>
   <i type="int" name="DIM">     3</i>
   <i type="int" name="ANTIRES">     0</i>
   <i name="OMEGAMAX">    -30.00000000</i>
   <i name="OMEGAMIN">    -30.00000000</i>
   <i name="OMEGATL">   -200.00000000</i>
   <i type="int" name="OMEGAGRID">     0</i>
   <i name="CSHIFT">     -0.10000000</i>
   <i type="logical" name="SELFENERGY"> F  </i>
   <i type="logical" name="LSPECTRAL"> F  </i>
   <i type="logical" name="LSPECTRALGW"> F  </i>
   <i type="logical" name="LSINGLES"> F  </i>
   <i type="logical" name="LFERMIGW"> F  </i>
   <i type="logical" name="ODDONLYGW"> F  </i>
   <i type="logical" name="EVENONLYGW"> F  </i>
   <i type="int" name="NKREDLFX">     1</i>
   <i type="int" name="NKREDLFY">     1</i>
   <i type="int" name="NKREDLFZ">     1</i>
   <i type="int" name="MAXMEM">  1800</i>
   <i type="int" name="TELESCOPE">     0</i>
   <i type="int" name="TAUPAR">     1</i>
   <i type="int" name="OMEGAPAR">    -1</i>
   <i name="LAMBDA">      1.00000000</i>
  </separator>
  <separator name="External order field" >
   <i name="OFIELD_KAPPA">      0.00000000</i>
   <v name="OFIELD_K">      0.00000000      0.00000000      0.00000000</v>
   <i name="OFIELD_Q6_NEAR">      0.00000000</i>
   <i name="OFIELD_Q6_FAR">      0.00000000</i>
   <i name="OFIELD_A">      0.00000000</i>
  </separator>
 </parameters>
 <atominfo>
  <atoms>       2 </atoms>
  <types>       1 </types>
  <array name="atoms" >
   <dimension dim="1">ion</dimension>
   <field type="string">element</field>
   <field type="int">atomtype</field>
   <set>
    <rc><c>Si</c><c>   1</c></rc>
    <rc><c>Si</c><c>   1</c></rc>
   </set>
  </array>
  <array name="atomtypes" >
   <dimension dim="1">type</dimension>
   <field type="int">atomspertype</field>
   <field type="string">element</field>
   <field>mass</field>
   <field>valence</field>
   <field type="string">pseudopotential</field>
   <set>
    <rc><c>   2</c><c>Si</c><c>     28.08500000</c><c>      4.00000000</c><c>  PAW_PBE Si 05Jan2001                  </c></rc>
   </set>
  </array>
 </atominfo>
 <structure name="initialpos" >
  <crystal>
   <varray name="basis" >
    <v>       0.00000000       2.74682114       2.74682114 </v>
    <v>       2.74682114       0.00000000       2.74682114 </v>
    <v>       2.74682114       2.74682114       0.00000000 </v>
   </varray>
   <i name="volume">     41.44967579 </i>
   <varray name="rec_basis" >
    <v>      -0.18202860       0.18202860       0.18202860 </v>
    <v>       0.18202860      -0.18202860       0.18202860 </v>
    <v>       0.18202860       0.18202860      -0.18202860 </v>
   </varray>
  </crystal>
  <varray name="positions" >
   <v>       0.75000000       0.75000000       0.75000000 </v>
   <v>       0.50000000       0.50000000       0.50000000 </v>
  </varray>
 </structure>
 <calculation>
  <scstep>
   <time name="dav">    2.95    2.95</time>
   <time name="total">    5.02    5.02</time>
   <energy>
    <i name="alphaZ">      3.24857844 </i>
    <i name="ewald">   -225.91568183 </i>
    <i name="hartreedc">    -11.53197166 </i>
    <i name="XCdc">    -20.29573795 </i>
    <i name="pawpsdc">    189.40224250 </i>
    <i name="pawaedc">   -152.61488262 </i>
    <i name="eentropy">     -0.00856863 </i>
    <i name="bandstr">     12.04630021 </i>
    <i name="atom">    208.59373829 </i>
    <i name="e_fr_energy">      2.92401674 </i>
    <i name="e_wo_entrp">      2.93258537 </i>
    <i name="e_0_energy">      2.92830106 </i>
   </energy>
  </scstep>
  <scstep>
   <time name="dav">    5.20    5.19</time>
   <time name="total">    5.20    5.31</time>
   <energy>
    <i name="e_fr_energy">     -8.32842619 </i>
    <i name="e_wo_entrp">     -8.32842508 </i>
    <i name="e_0_energy">     -8.32842563 </i>
   </energy>
  </scstep>
  <scstep>
   <time name="dav">    3.69    3.69</time>
   <time name="total">    3.69    3.74</time>
   <energy>
    <i name="e_fr_energy">     -8.40898188 </i>
    <i name="e_wo_entrp">     -8.40898098 </i>
    <i name="e_0_energy">     -8.40898143 </i>
   </energy>
  </scstep>
  <scstep>
   <time name="dav">    7.27    7.27</time>
   <time name="total">    7.27    7.55</time>
   <energy>
    <i name="e_fr_energy">     -8.40921420 </i>
    <i name="e_wo_entrp">     -8.40921331 </i>
    <i name="e_0_energy">     -8.40921376 </i>
   </energy>
  </scstep>
  <scstep>
   <time name="dav">    3.56    3.56</time>
   <time name="total">    3.77    3.84</time>
   <energy>
    <i name="e_fr_energy">     -8.40921422 </i>
    <i name="e_wo_entrp">     -8.40921332 </i>
    <i name="e_0_energy">     -8.40921377 </i>
   </energy>
  </scstep>
  <scstep>
   <time name="dav">    5.72    5.72</time>
   <time name="total">    7.51    7.55</time>
   <energy>
    <i name="e_fr_energy">     -8.35975915 </i>
    <i name="e_wo_entrp">     -8.35975526 </i>
    <i name="e_0_energy">     -8.35975721 </i>
   </energy>
  </scstep>
  <scstep>
   <time name="dav">    5.39    5.39</time>
   <time name="total">    7.18    7.24</time>
   <energy>
    <i name="e_fr_energy">     -8.35393644 </i>
    <i name="e_wo_entrp">     -8.35390759 </i>
    <i name="e_0_energy">     -8.35392202 </i>
   </energy>
  </scstep>
  <scstep>
   <time name="dav">    3.75    3.75</time>
   <time name="total">    5.56    5.58</time>
   <energy>
    <i name="e_fr_energy">     -8.33753180 </i>
    <i name="e_wo_entrp">     -8.33751170 </i>
    <i name="e_0_energy">     -8.33752175 </i>
   </energy>
  </scstep>
  <scstep>
   <time name="dav">    5.63    5.63</time>
   <time name="total">    7.46    7.53</time>
   <energy>
    <i name="e_fr_energy">     -8.33864269 </i>
    <i name="e_wo_entrp">     -8.33862076 </i>
    <i name="e_0_energy">     -8.33863172 </i>
   </energy>
  </scstep>
  <scstep>
   <time name="dav">    4.28    4.27</time>
   <time name="total">    6.08    6.55</time>
   <energy>
    <i name="e_fr_energy">     -8.33866973 </i>
    <i name="e_wo_entrp">     -8.33864824 </i>
    <i name="e_0_energy">     -8.33865899 </i>
   </energy>
  </scstep>
  <scstep>
   <time name="dav">    6.24    6.24</time>
   <time name="total">    8.06    8.11</time>
   <energy>
    <i name="e_fr_energy">     -8.33848580 </i>
    <i name="e_wo_entrp">     -8.33846434 </i>
    <i name="e_0_energy">     -8.33847507 </i>
   </energy>
  </scstep>
  <scstep>
   <time name="dav">    4.08    4.08</time>
   <time name="total">    5.92    5.93</time>
   <energy>
    <i name="e_fr_energy">     -8.33847491 </i>
    <i name="e_wo_entrp">     -8.33845346 </i>
    <i name="e_0_energy">     -8.33846419 </i>
   </energy>
  </scstep>
  <scstep>
   <time name="dav">    4.51    4.51</time>
   <time name="total">    6.28    6.53</time>
   <energy>
    <i name="e_fr_energy">     -8.33847264 </i>
    <i name="e_wo_entrp">     -8.33845120 </i>
    <i name="e_0_energy">     -8.33846192 </i>
   </energy>
  </scstep>
  <scstep>
   <time name="dav">    2.40    2.40</time>
   <time name="total">    4.16    4.47</time>
   <energy>
    <i name="e_fr_energy">     -8.33847286 </i>
    <i name="e_wo_entrp">     -8.33845142 </i>
    <i name="e_0_energy">     -8.33846214 </i>
   </energy>
  </scstep>
  <scstep>
   <time name="dav">    2.42    2.43</time>
   <time name="total">    4.20    4.28</time>
   <energy>
    <i name="e_fr_energy">     -8.33847262 </i>
    <i name="e_wo_entrp">     -8.33845117 </i>
    <i name="e_0_energy">     -8.33846190 </i>
   </energy>
  </scstep>
  <scstep>
   <time name="dav">    2.18    2.18</time>
   <time name="total">    3.82    4.09</time>
   <energy>
    <i name="alphaZ">      3.24857844 </i>
    <i name="ewald">   -225.91568183 </i>
    <i name="hartreedc">    -15.53139134 </i>
    <i name="XCdc">    -19.63668175 </i>
    <i name="pawpsdc">    523.22395839 </i>
    <i name="pawaedc">   -486.67181327 </i>
    <i name="eentropy">     -0.00002144 </i>
    <i name="bandstr">      4.35084191 </i>
    <i name="atom">    208.59373829 </i>
    <i name="e_fr_energy">     -8.33847261 </i>
    <i name="e_wo_entrp">     -8.33845116 </i>
    <i name="e_0_energy">     -8.33846188 </i>
   </energy>
  </scstep>
  <structure>
   <crystal>
    <varray name="basis" >
     <v>       0.00000000       2.74682114       2.74682114 </v>
     <v>       2.74682114       0.00000000       2.74682114 </v>
     <v>       2.74682114       2.74682114       0.00000000 </v>
    </varray>
    <i name="volume">     41.44967579 </i>
    <varray name="rec_basis" >
     <v>      -0.18202860       0.18202860       0.18202860 </v>
     <v>       0.18202860      -0.18202860       0.18202860 </v>
     <v>       0.18202860       0.18202860      -0.18202860 </v>
    </varray>
   </crystal>
   <varray name="positions" >
    <v>       0.75000000       0.75000000       0.75000000 </v>
    <v>       0.50000000       0.50000000       0.50000000 </v>
   </varray>
  </structure>
  <varray name="forces" >
   <v>       0.00000000       0.00000000       0.00000000 </v>
   <v>      -0.00000000      -0.00000000      -0.00000000 </v>
  </varray>
  <varray name="stress" >
   <v>       0.00859786      -0.00000000       0.00000000 </v>
   <v>      -0.00000000       0.00859786      -0.00000000 </v>
   <v>       0.00000000      -0.00000000       0.00859786 </v>
  </varray>
  <energy>
   <i name="e_fr_energy">     -8.33847261 </i>
   <i name="e_wo_entrp">     -8.33846188 </i>
   <i name="e_0_energy">     -0.00002144 </i>
  </energy>
  <time name="totalsc">   98.66  101.19</time>
  <eigenvalues>
   <array>
    <dimension dim="1">band</dimension>
    <dimension dim="2">kpoint</dimension>
    <dimension dim="3">spin</dimension>
    <field>eigene</field>
    <field>occ</field>
    <set>
     <set comment="spin 1">
      <set comment="kpoint 1">
       <r>   -6.1919    1.0000 </r>
       <r>    5.4589    0.9939 </r>
       <r>    5.4589    0.9939 </r>
       <r>    5.4589    0.9939 </r>
       <r>    8.0741    0.0000 </r>
       <r>    8.0741    0.0000 </r>
       <r>    8.0741    0.0000 </r>
       <r>    8.5297    0.0000 </r>
       <r>   13.2140    0.0000 </r>
       <r>   13.2140    0.0000 </r>
       <r>   13.3485    0.0000 </r>
       <r>   16.6555    0.0000 </r>
       <r>   16.6555    0.0000 </r>
       <r>   16.6555    0.0000 </r>
       <r>   20.7506    0.0000 </r>
       <r>   28.1662    0.0000 </r>
      </set>
      <set comment="kpoint 2">
       <r>   -6.1601    1.0000 </r>
       <r>    5.1091    1.0000 </r>
       <r>    5.4074    0.9980 </r>
       <r>    5.4074    0.9980 </r>
       <r>    8.1061    0.0000 </r>
       <r>    8.1505    0.0000 </r>
       <r>    8.1505    0.0000 </r>
       <r>    8.7928    0.0000 </r>
       <r>   13.1074    0.0000 </r>
       <r>   13.1074    0.0000 </r>
       <r>   13.4885    0.0000 </r>
       <r>   16.5292    0.0000 </r>
       <r>   16.8657    0.0000 </r>
       <r>   16.8657    0.0000 </r>
       <r>   20.9736    0.0000 </r>
       <r>   27.7440    0.0000 </r>
      </set>
      <set comment="kpoint 3">
       <r>   -6.0651    1.0000 </r>
       <r>    4.3418    1.0000 </r>
       <r>    5.2732    0.9999 </r>
       <r>    5.2732    0.9999 </r>
       <r>    8.0118    0.0000 </r>
       <r>    8.3511    0.0000 </r>
       <r>    8.3511    0.0000 </r>
       <r>    9.5067    0.0000 </r>
       <r>   12.8692    0.0000 </r>
       <r>   12.8692    0.0000 </r>
       <r>   13.8712    0.0000 </r>
       <r>   16.2460    0.0000 </r>
       <r>   17.4205    0.0000 </r>
       <r>   17.4205    0.0000 </r>
       <r>   21.5612    0.0000 </r>
       <r>   26.7997    0.0000 </r>
      </set>
      <set comment="kpoint 4">
       <r>   -5.9080    1.0000 </r>
       <r>    3.4474    1.0000 </r>
       <r>    5.0963    1.0000 </r>
       <r>    5.0963    1.0000 </r>
       <r>    7.8354    0.0000 </r>
       <r>    8.6089    0.0000 </r>
       <r>    8.6089    0.0000 </r>
       <r>   10.3739    0.0000 </r>
       <r>   12.6461    0.0000 </r>
       <r>   12.6461    0.0000 </r>
       <r>   14.3466    0.0000 </r>
       <r>   16.0420    0.0000 </r>
       <r>   18.1916    0.0000 </r>
       <r>   18.1916    0.0000 </r>
       <r>   22.3573    0.0000 </r>
       <r>   25.5175    0.0000 </r>
      </set>
      <set comment="kpoint 5">
       <r>   -5.6910    1.0000 </r>
       <r>    2.5333    1.0000 </r>
       <r>    4.9106    1.0000 </r>
       <r>    4.9106    1.0000 </r>
       <r>    7.6359    0.0000 </r>
       <r>    8.8452    0.0000 </r>
       <r>    8.8452    0.0000 </r>
       <r>   11.2674    0.0000 </r>
       <r>   12.5585    0.0000 </r>
       <r>   12.5585    0.0000 </r>
       <r>   14.5512    0.0000 </r>
       <r>   16.3180    0.0000 </r>
       <r>   19.0771    0.0000 </r>
       <r>   19.0771    0.0000 </r>
       <r>   23.1191    0.0000 </r>
       <r>   24.2121    0.0000 </r>
      </set>
      <set comment="kpoint 6">
       <r>   -5.4183    1.0000 </r>
       <r>    1.6433    1.0000 </r>
       <r>    4.7371    1.0000 </r>
       <r>    4.7371    1.0000 </r>
       <r>    7.4427    0.0000 </r>
       <r>    8.9938    0.0000 </r>
       <r>    8.9938    0.0000 </r>
       <r>   12.1380    0.0000 </r>
       <r>   12.6893    0.0000 </r>
       <r>   12.6893    0.0000 </r>
       <r>   14.4154    0.0000 </r>
       <r>   17.1456    0.0000 </r>
       <r>   19.9389    0.0000 </r>
       <r>   19.9389    0.0000 </r>
       <r>   23.0516    0.0000 </r>
       <r>   23.0570    0.0000 </r>
      </set>
      <set comment="kpoint 7">
       <r>   -5.0968    1.0000 </r>
       <r>    0.8029    1.0000 </r>
       <r>    4.5875    1.0000 </r>
       <r>    4.5875    1.0000 </r>
       <r>    7.2724    0.0000 </r>
       <r>    9.0349    0.0000 </r>
       <r>    9.0349    0.0000 </r>
       <r>   12.9056    0.0000 </r>
       <r>   13.0644    0.0000 </r>
       <r>   13.0644    0.0000 </r>
       <r>   14.2917    0.0000 </r>
       <r>   18.1790    0.0000 </r>
       <r>   20.2684    0.0000 </r>
       <r>   20.2684    0.0000 </r>
       <r>   22.3358    0.0000 </r>
       <r>   22.5505    0.0000 </r>
      </set>
      <set comment="kpoint 8">
       <r>   -4.7409    1.0000 </r>
       <r>    0.0362    1.0000 </r>
       <r>    4.4677    1.0000 </r>
       <r>    4.4677    1.0000 </r>
       <r>    7.1341    0.0000 </r>
       <r>    9.0015    0.0000 </r>
       <r>    9.0015    0.0000 </r>
       <r>   13.3023    0.0000 </r>
       <r>   13.6517    0.0000 </r>
       <r>   13.6517    0.0000 </r>
       <r>   14.5649    0.0000 </r>
       <r>   19.0576    0.0000 </r>
       <r>   19.5464    0.0000 </r>
       <r>   19.5464    0.0000 </r>
       <r>   21.7551    0.0000 </r>
       <r>   23.2268    0.0000 </r>
      </set>
      <set comment="kpoint 9">
       <r>   -4.3799    1.0000 </r>
       <r>   -0.6214    1.0000 </r>
       <r>    4.3810    1.0000 </r>
       <r>    4.3810    1.0000 </r>
       <r>    7.0329    0.0000 </r>
       <r>    8.9422    0.0000 </r>
       <r>    8.9422    0.0000 </r>
       <r>   13.3057    0.0000 </r>
       <r>   14.3990    0.0000 </r>
       <r>   14.3990    0.0000 </r>
       <r>   15.2832    0.0000 </r>
       <r>   18.4807    0.0000 </r>
       <r>   18.4807    0.0000 </r>
       <r>   19.1086    0.0000 </r>
       <r>   22.1051    0.0000 </r>
       <r>   24.3660    0.0000 </r>
      </set>
      <set comment="kpoint 10">
       <r>   -4.0786    1.0000 </r>
       <r>   -1.1020    1.0000 </r>
       <r>    4.3286    1.0000 </r>
       <r>    4.3286    1.0000 </r>
       <r>    6.9714    0.0000 </r>
       <r>    8.8934    0.0000 </r>
       <r>    8.8934    0.0000 </r>
       <r>   13.2412    0.0000 </r>
       <r>   15.2513    0.0000 </r>
       <r>   15.2513    0.0000 </r>
       <r>   16.0810    0.0000 </r>
       <r>   17.4104    0.0000 </r>
       <r>   17.4104    0.0000 </r>
       <r>   18.4900    0.0000 </r>
       <r>   23.2779    0.0000 </r>
       <r>   25.6208    0.0000 </r>
      </set>
      <set comment="kpoint 11">
       <r>   -3.9522    1.0000 </r>
       <r>   -1.2882    1.0000 </r>
       <r>    4.3110    1.0000 </r>
       <r>    4.3110    1.0000 </r>
       <r>    6.9507    0.0000 </r>
       <r>    8.8751    0.0000 </r>
       <r>    8.8751    0.0000 </r>
       <r>   13.2139    0.0000 </r>
       <r>   15.9310    0.0000 </r>
       <r>   15.9310    0.0000 </r>
       <r>   16.5424    0.0000 </r>
       <r>   16.6561    0.0000 </r>
       <r>   16.6561    0.0000 </r>
       <r>   18.0542    0.0000 </r>
       <r>   24.5003    0.0000 </r>
       <r>   25.0181    0.0000 </r>
      </set>
      <set comment="kpoint 12">
       <r>   -6.1495    1.0000 </r>
       <r>    5.1725    1.0000 </r>
       <r>    5.2966    0.9999 </r>
       <r>    5.2966    0.9999 </r>
       <r>    7.9724    0.0000 </r>
       <r>    8.2887    0.0000 </r>
       <r>    8.2887    0.0000 </r>
       <r>    8.8073    0.0000 </r>
       <r>   12.8958    0.0000 </r>
       <r>   13.2613    0.0000 </r>
       <r>   13.5348    0.0000 </r>
       <r>   16.7300    0.0000 </r>
       <r>   16.7300    0.0000 </r>
       <r>   16.8779    0.0000 </r>
       <r>   21.0554    0.0000 </r>
       <r>   27.5372    0.0000 </r>
      </set>
      <set comment="kpoint 13">
       <r>   -6.0755    1.0000 </r>
       <r>    4.5655    1.0000 </r>
       <r>    5.1220    1.0000 </r>
       <r>    5.2398    1.0000 </r>
       <r>    7.9600    0.0000 </r>
       <r>    8.3486    0.0000 </r>
       <r>    8.5354    0.0000 </r>
       <r>    9.3371    0.0000 </r>
       <r>   12.5853    0.0000 </r>
       <r>   13.2123    0.0000 </r>
       <r>   13.8386    0.0000 </r>
       <r>   16.5236    0.0000 </r>
       <r>   17.0079    0.0000 </r>
       <r>   17.4130    0.0000 </r>
       <r>   21.5359    0.0000 </r>
       <r>   26.6855    0.0000 </r>
      </set>
      <set comment="kpoint 14">
       <r>   -5.9390    1.0000 </r>
       <r>    3.7224    1.0000 </r>
       <r>    4.9240    1.0000 </r>
       <r>    5.1189    1.0000 </r>
       <r>    7.9969    0.0000 </r>
       <r>    8.3471    0.0000 </r>
       <r>    8.8268    0.0000 </r>
       <r>   10.1169    0.0000 </r>
       <r>   12.3230    0.0000 </r>
       <r>   13.0656    0.0000 </r>
       <r>   14.3101    0.0000 </r>
       <r>   16.2442    0.0000 </r>
       <r>   17.6120    0.0000 </r>
       <r>   18.1992    0.0000 </r>
       <r>   22.2719    0.0000 </r>
       <r>   25.4377    0.0000 </r>
      </set>
      <set comment="kpoint 15">
       <r>   -5.7417    1.0000 </r>
       <r>    2.8248    1.0000 </r>
       <r>    4.7313    1.0000 </r>
       <r>    4.9433    1.0000 </r>
       <r>    7.8849    0.0000 </r>
       <r>    8.5169    0.0000 </r>
       <r>    9.0912    0.0000 </r>
       <r>   10.8620    0.0000 </r>
       <r>   12.2723    0.0000 </r>
       <r>   12.9788    0.0000 </r>
       <r>   14.6779    0.0000 </r>
       <r>   16.2654    0.0000 </r>
       <r>   18.4093    0.0000 </r>
       <r>   19.1048    0.0000 </r>
       <r>   23.0686    0.0000 </r>
       <r>   24.1179    0.0000 </r>
      </set>
      <set comment="kpoint 16">
       <r>   -5.4871    1.0000 </r>
       <r>    1.9336    1.0000 </r>
       <r>    4.5610    1.0000 </r>
       <r>    4.7507    1.0000 </r>
       <r>    7.7130    0.0000 </r>
       <r>    8.7111    0.0000 </r>
       <r>    9.2623    0.0000 </r>
       <r>   11.4055    0.0000 </r>
       <r>   12.6235    0.0000 </r>
       <r>   13.0716    0.0000 </r>
       <r>   14.6462    0.0000 </r>
       <r>   16.8924    0.0000 </r>
       <r>   19.2654    0.0000 </r>
       <r>   20.0322    0.0000 </r>
       <r>   22.8839    0.0000 </r>
       <r>   23.1233    0.0000 </r>
      </set>
      <set comment="kpoint 17">
       <r>   -5.1809    1.0000 </r>
       <r>    1.0808    1.0000 </r>
       <r>    4.4226    1.0000 </r>
       <r>    4.5647    1.0000 </r>
       <r>    7.5452    0.0000 </r>
       <r>    8.8219    0.0000 </r>
       <r>    9.3111    0.0000 </r>
       <r>   11.8451    0.0000 </r>
       <r>   13.2854    0.0000 </r>
       <r>   13.3979    0.0000 </r>
       <r>   14.4690    0.0000 </r>
       <r>   17.8565    0.0000 </r>
       <r>   19.8279    0.0000 </r>
       <r>   20.6475    0.0000 </r>
       <r>   22.0868    0.0000 </r>
       <r>   22.4372    0.0000 </r>
      </set>
      <set comment="kpoint 18">
       <r>   -4.8342    1.0000 </r>
       <r>    0.2907    1.0000 </r>
       <r>    4.3209    1.0000 </r>
       <r>    4.3985    1.0000 </r>
       <r>    7.4012    0.0000 </r>
       <r>    8.8451    0.0000 </r>
       <r>    9.2634    0.0000 </r>
       <r>   12.3704    0.0000 </r>
       <r>   13.8179    0.0000 </r>
       <r>   13.9421    0.0000 </r>
       <r>   14.5734    0.0000 </r>
       <r>   18.7674    0.0000 </r>
       <r>   19.3575    0.0000 </r>
       <r>   20.2925    0.0000 </r>
       <r>   22.0308    0.0000 </r>
       <r>   22.4617    0.0000 </r>
      </set>
      <set comment="kpoint 19">
       <r>   -4.4700    1.0000 </r>
       <r>   -0.4060    1.0000 </r>
       <r>    4.2579    1.0000 </r>
       <r>    4.2594    1.0000 </r>
       <r>    7.2900    0.0000 </r>
       <r>    8.8268    0.0000 </r>
       <r>    9.1702    0.0000 </r>
       <r>   12.9378    0.0000 </r>
       <r>   13.9386    0.0000 </r>
       <r>   14.6544    0.0000 </r>
       <r>   15.2800    0.0000 </r>
       <r>   18.3340    0.0000 </r>
       <r>   18.7259    0.0000 </r>
       <r>   19.8473    0.0000 </r>
       <r>   21.9012    0.0000 </r>
       <r>   23.5248    0.0000 </r>
      </set>
      <set comment="kpoint 20">
       <r>   -4.1381    1.0000 </r>
       <r>   -0.9549    1.0000 </r>
       <r>    4.1518    1.0000 </r>
       <r>    4.2339    1.0000 </r>
       <r>    7.2159    0.0000 </r>
       <r>    8.8110    0.0000 </r>
       <r>    9.0738    0.0000 </r>
       <r>   13.2613    0.0000 </r>
       <r>   14.3229    0.0000 </r>
       <r>   15.4714    0.0000 </r>
       <r>   16.1224    0.0000 </r>
       <r>   17.2678    0.0000 </r>
       <r>   17.8667    0.0000 </r>
       <r>   19.1929    0.0000 </r>
       <r>   22.8309    0.0000 </r>
       <r>   24.7724    0.0000 </r>
      </set>
      <set comment="kpoint 21">
       <r>   -3.9389    1.0000 </r>
       <r>   -1.2532    1.0000 </r>
       <r>    4.0786    1.0000 </r>
       <r>    4.2481    1.0000 </r>
       <r>    7.1811    0.0000 </r>
       <r>    8.8231    0.0000 </r>
       <r>    8.9999    0.0000 </r>
       <r>   13.3196    0.0000 </r>
       <r>   15.0379    0.0000 </r>
       <r>   15.9098    0.0000 </r>
       <r>   16.6223    0.0000 </r>
       <r>   16.7168    0.0000 </r>
       <r>   17.2439    0.0000 </r>
       <r>   18.4277    0.0000 </r>
       <r>   24.1701    0.0000 </r>
       <r>   25.2608    0.0000 </r>
      </set>
      <set comment="kpoint 22">
       <r>   -3.9825    1.0000 </r>
       <r>   -1.1897    1.0000 </r>
       <r>    4.0421    1.0000 </r>
       <r>    4.2991    1.0000 </r>
       <r>    7.1866    0.0000 </r>
       <r>    8.8727    0.0000 </r>
       <r>    8.9600    0.0000 </r>
       <r>   13.3349    0.0000 </r>
       <r>   15.0713    0.0000 </r>
       <r>   15.3337    0.0000 </r>
       <r>   16.5518    0.0000 </r>
       <r>   16.9501    0.0000 </r>
       <r>   17.5912    0.0000 </r>
       <r>   18.4970    0.0000 </r>
       <r>   23.6870    0.0000 </r>
       <r>   25.5760    0.0000 </r>
      </set>
      <set comment="kpoint 23">
       <r>   -4.2404    1.0000 </r>
       <r>   -0.7930    1.0000 </r>
       <r>    4.0441    1.0000 </r>
       <r>    4.3848    1.0000 </r>
       <r>    7.2322    0.0000 </r>
       <r>    8.9532    0.0000 </r>
       <r>    8.9567    0.0000 </r>
       <r>   13.3238    0.0000 </r>
       <r>   14.1853    0.0000 </r>
       <r>   14.7600    0.0000 </r>
       <r>   16.1048    0.0000 </r>
       <r>   17.3901    0.0000 </r>
       <r>   18.6597    0.0000 </r>
       <r>   19.1961    0.0000 </r>
       <r>   22.4114    0.0000 </r>
       <r>   24.3055    0.0000 </r>
      </set>
      <set comment="kpoint 24">
       <r>   -4.5914    1.0000 </r>
       <r>   -0.1860    1.0000 </r>
       <r>    4.0858    1.0000 </r>
       <r>    4.5025    1.0000 </r>
       <r>    7.3172    0.0000 </r>
       <r>    8.9652    0.0000 </r>
       <r>    9.0592    0.0000 </r>
       <r>   13.1292    0.0000 </r>
       <r>   13.4039    0.0000 </r>
       <r>   14.3144    0.0000 </r>
       <r>   15.2282    0.0000 </r>
       <r>   18.3562    0.0000 </r>
       <r>   19.4999    0.0000 </r>
       <r>   19.7467    0.0000 </r>
       <r>   21.7552    0.0000 </r>
       <r>   23.0901    0.0000 </r>
      </set>
      <set comment="kpoint 25">
       <r>   -4.9535    1.0000 </r>
       <r>    0.5462    1.0000 </r>
       <r>    4.1679    1.0000 </r>
       <r>    4.6487    1.0000 </r>
       <r>    7.4392    0.0000 </r>
       <r>    8.9658    0.0000 </r>
       <r>    9.1472    0.0000 </r>
       <r>   12.6361    0.0000 </r>
       <r>   12.7756    0.0000 </r>
       <r>   14.1787    0.0000 </r>
       <r>   14.5041    0.0000 </r>
       <r>   18.4491    0.0000 </r>
       <r>   19.6051    0.0000 </r>
       <r>   20.6424    0.0000 </r>
       <r>   21.8663    0.0000 </r>
       <r>   22.4381    0.0000 </r>
      </set>
      <set comment="kpoint 26">
       <r>   -5.2884    1.0000 </r>
       <r>    1.3595    1.0000 </r>
       <r>    4.2901    1.0000 </r>
       <r>    4.8178    1.0000 </r>
       <r>    7.5941    0.0000 </r>
       <r>    8.9099    0.0000 </r>
       <r>    9.1681    0.0000 </r>
       <r>   12.0428    0.0000 </r>
       <r>   12.3537    0.0000 </r>
       <r>   13.6086    0.0000 </r>
       <r>   14.5369    0.0000 </r>
       <r>   17.5024    0.0000 </r>
       <r>   19.6536    0.0000 </r>
       <r>   20.6535    0.0000 </r>
       <r>   21.9574    0.0000 </r>
       <r>   23.0941    0.0000 </r>
      </set>
      <set comment="kpoint 27">
       <r>   -5.5782    1.0000 </r>
       <r>    2.2266    1.0000 </r>
       <r>    4.4505    1.0000 </r>
       <r>    5.0006    1.0000 </r>
       <r>    7.7740    0.0000 </r>
       <r>    8.7627    0.0000 </r>
       <r>    9.0664    0.0000 </r>
       <r>   11.4109    0.0000 </r>
       <r>   12.1790    0.0000 </r>
       <r>   13.1300    0.0000 </r>
       <r>   14.7071    0.0000 </r>
       <r>   16.6181    0.0000 </r>
       <r>   18.8945    0.0000 </r>
       <r>   19.8629    0.0000 </r>
       <r>   22.9293    0.0000 </r>
       <r>   23.4562    0.0000 </r>
      </set>
      <set comment="kpoint 28">
       <r>   -5.8142    1.0000 </r>
       <r>    3.1200    1.0000 </r>
       <r>    4.6451    1.0000 </r>
       <r>    5.1815    1.0000 </r>
       <r>    7.9642    0.0000 </r>
       <r>    8.5404    0.0000 </r>
       <r>    8.8319    0.0000 </r>
       <r>   10.6928    0.0000 </r>
       <r>   12.2417    0.0000 </r>
       <r>   12.9542    0.0000 </r>
       <r>   14.5988    0.0000 </r>
       <r>   16.1994    0.0000 </r>
       <r>   18.0217    0.0000 </r>
       <r>   18.9415    0.0000 </r>
       <r>   22.7887    0.0000 </r>
       <r>   24.2392    0.0000 </r>
      </set>
      <set comment="kpoint 29">
       <r>   -5.9914    1.0000 </r>
       <r>    3.9944    1.0000 </r>
       <r>    4.8692    1.0000 </r>
       <r>    5.3337    0.9997 </r>
       <r>    8.1376    0.0000 </r>
       <r>    8.3122    0.0000 </r>
       <r>    8.5219    0.0000 </r>
       <r>    9.9147    0.0000 </r>
       <r>   12.4790    0.0000 </r>
       <r>   13.0101    0.0000 </r>
       <r>   14.1436    0.0000 </r>
       <r>   16.3257    0.0000 </r>
       <r>   17.2662    0.0000 </r>
       <r>   18.0790    0.0000 </r>
       <r>   21.9831    0.0000 </r>
       <r>   25.5389    0.0000 </r>
      </set>
      <set comment="kpoint 30">
       <r>   -6.1072    1.0000 </r>
       <r>    4.7322    1.0000 </r>
       <r>    5.1334    1.0000 </r>
       <r>    5.4200    0.9973 </r>
       <r>    8.1617    0.0000 </r>
       <r>    8.2191    0.0000 </r>
       <r>    8.2502    0.0000 </r>
       <r>    9.1989    0.0000 </r>
       <r>   12.8038    0.0000 </r>
       <r>   13.1222    0.0000 </r>
       <r>   13.7106    0.0000 </r>
       <r>   16.5512    0.0000 </r>
       <r>   16.8082    0.0000 </r>
       <r>   17.3561    0.0000 </r>
       <r>   21.3218    0.0000 </r>
       <r>   26.7853    0.0000 </r>
      </set>
      <set comment="kpoint 31">
       <r>   -6.0225    1.0000 </r>
       <r>    4.5119    1.0000 </r>
       <r>    4.9205    1.0000 </r>
       <r>    4.9205    1.0000 </r>
       <r>    7.7084    0.0000 </r>
       <r>    8.8204    0.0000 </r>
       <r>    8.8204    0.0000 </r>
       <r>    9.3835    0.0000 </r>
       <r>   12.2485    0.0000 </r>
       <r>   13.4031    0.0000 </r>
       <r>   14.0508    0.0000 </r>
       <r>   16.9521    0.0000 </r>
       <r>   16.9521    0.0000 </r>
       <r>   17.3422    0.0000 </r>
       <r>   21.9159    0.0000 </r>
       <r>   26.3240    0.0000 </r>
      </set>
      <set comment="kpoint 32">
       <r>   -5.9068    1.0000 </r>
       <r>    3.8802    1.0000 </r>
       <r>    4.7064    1.0000 </r>
       <r>    4.8014    1.0000 </r>
       <r>    7.6556    0.0000 </r>
       <r>    8.8874    0.0000 </r>
       <r>    9.1477    0.0000 </r>
       <r>    9.9000    0.0000 </r>
       <r>   12.0243    0.0000 </r>
       <r>   13.4220    0.0000 </r>
       <r>   14.4658    0.0000 </r>
       <r>   16.7632    0.0000 </r>
       <r>   17.2897    0.0000 </r>
       <r>   17.9985    0.0000 </r>
       <r>   22.5786    0.0000 </r>
       <r>   25.3434    0.0000 </r>
      </set>
      <set comment="kpoint 33">
       <r>   -5.7297    1.0000 </r>
       <r>    3.0584    1.0000 </r>
       <r>    4.5054    1.0000 </r>
       <r>    4.6546    1.0000 </r>
       <r>    7.7529    0.0000 </r>
       <r>    8.8083    0.0000 </r>
       <r>    9.4520    0.0000 </r>
       <r>   10.3706    0.0000 </r>
       <r>   12.1499    0.0000 </r>
       <r>   13.3923    0.0000 </r>
       <r>   14.9385    0.0000 </r>
       <r>   16.5704    0.0000 </r>
       <r>   17.9235    0.0000 </r>
       <r>   18.9087    0.0000 </r>
       <r>   23.3447    0.0000 </r>
       <r>   24.0638    0.0000 </r>
      </set>
      <set comment="kpoint 34">
       <r>   -5.4939    1.0000 </r>
       <r>    2.2007    1.0000 </r>
       <r>    4.3327    1.0000 </r>
       <r>    4.4541    1.0000 </r>
       <r>    7.8485    0.0000 </r>
       <r>    8.7872    0.0000 </r>
       <r>    9.6655    0.0000 </r>
       <r>   10.5765    0.0000 </r>
       <r>   12.7257    0.0000 </r>
       <r>   13.4713    0.0000 </r>
       <r>   15.1198    0.0000 </r>
       <r>   16.8597    0.0000 </r>
       <r>   18.7047    0.0000 </r>
       <r>   19.8779    0.0000 </r>
       <r>   22.7974    0.0000 </r>
       <r>   23.1952    0.0000 </r>
      </set>
      <set comment="kpoint 35">
       <r>   -5.2043    1.0000 </r>
       <r>    1.3579    1.0000 </r>
       <r>    4.1969    1.0000 </r>
       <r>    4.2366    1.0000 </r>
       <r>    7.8398    0.0000 </r>
       <r>    8.8325    0.0000 </r>
       <r>    9.7459    0.0000 </r>
       <r>   10.7954    0.0000 </r>
       <r>   13.5191    0.0000 </r>
       <r>   13.7562    0.0000 </r>
       <r>   14.9700    0.0000 </r>
       <r>   17.6539    0.0000 </r>
       <r>   19.3663    0.0000 </r>
       <r>   20.6508    0.0000 </r>
       <r>   21.8154    0.0000 </r>
       <r>   22.4321    0.0000 </r>
      </set>
      <set comment="kpoint 36">
       <r>   -4.8696    1.0000 </r>
       <r>    0.5610    1.0000 </r>
       <r>    4.0271    1.0000 </r>
       <r>    4.1025    1.0000 </r>
       <r>    7.7629    0.0000 </r>
       <r>    8.8554    0.0000 </r>
       <r>    9.7069    0.0000 </r>
       <r>   11.2138    0.0000 </r>
       <r>   14.2596    0.0000 </r>
       <r>   14.2853    0.0000 </r>
       <r>   14.8506    0.0000 </r>
       <r>   18.5222    0.0000 </r>
       <r>   19.1724    0.0000 </r>
       <r>   20.5275    0.0000 </r>
       <r>   21.8434    0.0000 </r>
       <r>   22.5310    0.0000 </r>
      </set>
      <set comment="kpoint 37">
       <r>   -4.5074    1.0000 </r>
       <r>   -0.1603    1.0000 </r>
       <r>    3.8397    1.0000 </r>
       <r>    4.0516    1.0000 </r>
       <r>    7.6772    0.0000 </r>
       <r>    8.8384    0.0000 </r>
       <r>    9.5990    0.0000 </r>
       <r>   11.8219    0.0000 </r>
       <r>   14.3968    0.0000 </r>
       <r>   14.9391    0.0000 </r>
       <r>   15.4488    0.0000 </r>
       <r>   18.2204    0.0000 </r>
       <r>   18.6355    0.0000 </r>
       <r>   20.4933    0.0000 </r>
       <r>   22.2124    0.0000 </r>
       <r>   22.7771    0.0000 </r>
      </set>
      <set comment="kpoint 38">
       <r>   -4.1560    1.0000 </r>
       <r>   -0.7606    1.0000 </r>
       <r>    3.6827    1.0000 </r>
       <r>    4.0443    1.0000 </r>
       <r>    7.6127    0.0000 </r>
       <r>    8.8185    0.0000 </r>
       <r>    9.4707    0.0000 </r>
       <r>   12.5347    0.0000 </r>
       <r>   14.3017    0.0000 </r>
       <r>   15.7217    0.0000 </r>
       <r>   16.3155    0.0000 </r>
       <r>   17.1659    0.0000 </r>
       <r>   17.9112    0.0000 </r>
       <r>   20.3613    0.0000 </r>
       <r>   22.4765    0.0000 </r>
       <r>   23.9753    0.0000 </r>
      </set>
      <set comment="kpoint 39">
       <r>   -3.8975    1.0000 </r>
       <r>   -1.1539    1.0000 </r>
       <r>    3.5614    1.0000 </r>
       <r>    4.0796    1.0000 </r>
       <r>    7.5816    0.0000 </r>
       <r>    8.8250    0.0000 </r>
       <r>    9.3536    0.0000 </r>
       <r>   13.2104    0.0000 </r>
       <r>   14.3244    0.0000 </r>
       <r>   15.8693    0.0000 </r>
       <r>   16.7179    0.0000 </r>
       <r>   16.8721    0.0000 </r>
       <r>   17.5789    0.0000 </r>
       <r>   19.5266    0.0000 </r>
       <r>   23.6795    0.0000 </r>
       <r>   25.2484    0.0000 </r>
      </set>
      <set comment="kpoint 40">
       <r>   -3.8547    1.0000 </r>
       <r>   -1.2154    1.0000 </r>
       <r>    3.4799    1.0000 </r>
       <r>    4.1554    1.0000 </r>
       <r>    7.5881    0.0000 </r>
       <r>    8.8710    0.0000 </r>
       <r>    9.2639    0.0000 </r>
       <r>   13.5579    0.0000 </r>
       <r>   14.5671    0.0000 </r>
       <r>   14.9378    0.0000 </r>
       <r>   16.2710    0.0000 </r>
       <r>   17.8031    0.0000 </r>
       <r>   18.1206    0.0000 </r>
       <r>   18.8088    0.0000 </r>
       <r>   23.9150    0.0000 </r>
       <r>   25.1415    0.0000 </r>
      </set>
      <set comment="kpoint 41">
       <r>   -4.0557    1.0000 </r>
       <r>   -0.9167    1.0000 </r>
       <r>    3.4416    1.0000 </r>
       <r>    4.2686    1.0000 </r>
       <r>    7.6328    0.0000 </r>
       <r>    8.9575    0.0000 </r>
       <r>    9.2049    0.0000 </r>
       <r>   13.4618    0.0000 </r>
       <r>   14.0209    0.0000 </r>
       <r>   14.6524    0.0000 </r>
       <r>   16.4710    0.0000 </r>
       <r>   17.4295    0.0000 </r>
       <r>   18.8669    0.0000 </r>
       <r>   19.3836    0.0000 </r>
       <r>   22.6007    0.0000 </r>
       <r>   24.3784    0.0000 </r>
      </set>
      <set comment="kpoint 42">
       <r>   -4.3886    1.0000 </r>
       <r>   -0.3715    1.0000 </r>
       <r>    3.4491    1.0000 </r>
       <r>    4.4147    1.0000 </r>
       <r>    7.7141    0.0000 </r>
       <r>    9.0736    0.0000 </r>
       <r>    9.1670    0.0000 </r>
       <r>   12.9994    0.0000 </r>
       <r>   13.2083    0.0000 </r>
       <r>   14.6403    0.0000 </r>
       <r>   16.4951    0.0000 </r>
       <r>   17.2731    0.0000 </r>
       <r>   19.8379    0.0000 </r>
       <r>   19.9620    0.0000 </r>
       <r>   21.7352    0.0000 </r>
       <r>   23.1106    0.0000 </r>
      </set>
      <set comment="kpoint 43">
       <r>   -4.7529    1.0000 </r>
       <r>    0.3158    1.0000 </r>
       <r>    3.5053    1.0000 </r>
       <r>    4.5878    1.0000 </r>
       <r>    7.8288    0.0000 </r>
       <r>    9.1243    0.0000 </r>
       <r>    9.1904    0.0000 </r>
       <r>   12.3756    0.0000 </r>
       <r>   12.5448    0.0000 </r>
       <r>   14.7697    0.0000 </r>
       <r>   15.5854    0.0000 </r>
       <r>   18.0362    0.0000 </r>
       <r>   19.4375    0.0000 </r>
       <r>   20.9565    0.0000 </r>
       <r>   21.4919    0.0000 </r>
       <r>   22.5022    0.0000 </r>
      </set>
      <set comment="kpoint 44">
       <r>   -5.0991    1.0000 </r>
       <r>    1.0881    1.0000 </r>
       <r>    3.6133    1.0000 </r>
       <r>    4.7792    1.0000 </r>
       <r>    7.9719    0.0000 </r>
       <r>    9.0351    0.0000 </r>
       <r>    9.2500    0.0000 </r>
       <r>   11.7835    0.0000 </r>
       <r>   12.0850    0.0000 </r>
       <r>   14.7183    0.0000 </r>
       <r>   14.9895    0.0000 </r>
       <r>   17.7572    0.0000 </r>
       <r>   19.3496    0.0000 </r>
       <r>   21.0113    0.0000 </r>
       <r>   21.3256    0.0000 </r>
       <r>   23.1165    0.0000 </r>
      </set>
      <set comment="kpoint 45">
       <r>   -5.4047    1.0000 </r>
       <r>    1.9077    1.0000 </r>
       <r>    3.7789    1.0000 </r>
       <r>    4.9755    1.0000 </r>
       <r>    8.1346    0.0000 </r>
       <r>    8.8658    0.0000 </r>
       <r>    9.1671    0.0000 </r>
       <r>   11.3142    0.0000 </r>
       <r>   11.8747    0.0000 </r>
       <r>   13.9645    0.0000 </r>
       <r>   15.1638    0.0000 </r>
       <r>   16.9720    0.0000 </r>
       <r>   18.7726    0.0000 </r>
       <r>   20.7100    0.0000 </r>
       <r>   21.6761    0.0000 </r>
       <r>   23.6669    0.0000 </r>
      </set>
      <set comment="kpoint 46">
       <r>   -5.6587    1.0000 </r>
       <r>    2.7297    1.0000 </r>
       <r>    4.0169    1.0000 </r>
       <r>    5.1556    1.0000 </r>
       <r>    8.2983    0.0000 </r>
       <r>    8.6367    0.0000 </r>
       <r>    8.9023    0.0000 </r>
       <r>   10.9267    0.0000 </r>
       <r>   11.9100    0.0000 </r>
       <r>   13.3967    0.0000 </r>
       <r>   15.0576    0.0000 </r>
       <r>   16.5379    0.0000 </r>
       <r>   17.9322    0.0000 </r>
       <r>   19.8001    0.0000 </r>
       <r>   22.8732    0.0000 </r>
       <r>   23.4009    0.0000 </r>
      </set>
      <set comment="kpoint 47">
       <r>   -5.8554    1.0000 </r>
       <r>    3.4657    1.0000 </r>
       <r>    4.3711    1.0000 </r>
       <r>    5.2875    0.9999 </r>
       <r>    8.3899    0.0000 </r>
       <r>    8.4240    0.0000 </r>
       <r>    8.5732    0.0000 </r>
       <r>   10.4611    0.0000 </r>
       <r>   12.1347    0.0000 </r>
       <r>   13.1092    0.0000 </r>
       <r>   14.5997    0.0000 </r>
       <r>   16.5101    0.0000 </r>
       <r>   17.3130    0.0000 </r>
       <r>   18.8939    0.0000 </r>
       <r>   22.6631    0.0000 </r>
       <r>   24.1987    0.0000 </r>
      </set>
      <set comment="kpoint 48">
       <r>   -5.8117    1.0000 </r>
       <r>    3.7079    1.0000 </r>
       <r>    4.4803    1.0000 </r>
       <r>    4.4803    1.0000 </r>
       <r>    7.3647    0.0000 </r>
       <r>    9.5171    0.0000 </r>
       <r>    9.5171    0.0000 </r>
       <r>    9.7220    0.0000 </r>
       <r>   11.8909    0.0000 </r>
       <r>   13.6394    0.0000 </r>
       <r>   14.8082    0.0000 </r>
       <r>   17.3167    0.0000 </r>
       <r>   17.3167    0.0000 </r>
       <r>   17.8639    0.0000 </r>
       <r>   23.1787    0.0000 </r>
       <r>   25.0045    0.0000 </r>
      </set>
      <set comment="kpoint 49">
       <r>   -5.6549    1.0000 </r>
       <r>    3.1197    1.0000 </r>
       <r>    4.2702    1.0000 </r>
       <r>    4.3008    1.0000 </r>
       <r>    7.3049    0.0000 </r>
       <r>    9.4487    0.0000 </r>
       <r>    9.8743    0.0000 </r>
       <r>    9.9942    0.0000 </r>
       <r>   12.1396    0.0000 </r>
       <r>   13.7357    0.0000 </r>
       <r>   15.2807    0.0000 </r>
       <r>   17.1872    0.0000 </r>
       <r>   17.7011    0.0000 </r>
       <r>   18.5808    0.0000 </r>
       <r>   23.8807    0.0000 </r>
       <r>   24.0072    0.0000 </r>
      </set>
      <set comment="kpoint 50">
       <r>   -5.4386    1.0000 </r>
       <r>    2.3700    1.0000 </r>
       <r>    4.0910    1.0000 </r>
       <r>    4.0945    1.0000 </r>
       <r>    7.4205    0.0000 </r>
       <r>    9.3352    0.0000 </r>
       <r>   10.0547    0.0000 </r>
       <r>   10.1501    0.0000 </r>
       <r>   12.8074    0.0000 </r>
       <r>   13.8460    0.0000 </r>
       <r>   15.6699    0.0000 </r>
       <r>   17.1491    0.0000 </r>
       <r>   18.3288    0.0000 </r>
       <r>   19.5511    0.0000 </r>
       <r>   22.7689    0.0000 </r>
       <r>   23.1624    0.0000 </r>
      </set>
      <set comment="kpoint 51">
       <r>   -5.1665    1.0000 </r>
       <r>    1.5823    1.0000 </r>
       <r>    3.8474    1.0000 </r>
       <r>    3.9512    1.0000 </r>
       <r>    7.5627    0.0000 </r>
       <r>    9.3637    0.0000 </r>
       <r>   10.0182    0.0000 </r>
       <r>   10.2875    0.0000 </r>
       <r>   13.6718    0.0000 </r>
       <r>   14.1092    0.0000 </r>
       <r>   15.6721    0.0000 </r>
       <r>   17.6534    0.0000 </r>
       <r>   18.9697    0.0000 </r>
       <r>   20.4216    0.0000 </r>
       <r>   21.6924    0.0000 </r>
       <r>   22.3441    0.0000 </r>
      </set>
      <set comment="kpoint 52">
       <r>   -4.8458    1.0000 </r>
       <r>    0.8089    1.0000 </r>
       <r>    3.5935    1.0000 </r>
       <r>    3.8558    1.0000 </r>
       <r>    7.6262    0.0000 </r>
       <r>    9.4401    0.0000 </r>
       <r>   10.1687    0.0000 </r>
       <r>   10.2819    0.0000 </r>
       <r>   14.5802    0.0000 </r>
       <r>   14.5819    0.0000 </r>
       <r>   15.4729    0.0000 </r>
       <r>   18.4135    0.0000 </r>
       <r>   18.9903    0.0000 </r>
       <r>   20.4881    0.0000 </r>
       <r>   21.4102    0.0000 </r>
       <r>   22.5063    0.0000 </r>
      </set>
      <set comment="kpoint 53">
       <r>   -4.4900    1.0000 </r>
       <r>    0.0861    1.0000 </r>
       <r>    3.3565    1.0000 </r>
       <r>    3.8068    1.0000 </r>
       <r>    7.6247    0.0000 </r>
       <r>    9.4048    0.0000 </r>
       <r>   10.1800    0.0000 </r>
       <r>   10.6697    0.0000 </r>
       <r>   15.0955    0.0000 </r>
       <r>   15.2335    0.0000 </r>
       <r>   15.6580    0.0000 </r>
       <r>   18.1382    0.0000 </r>
       <r>   18.6093    0.0000 </r>
       <r>   20.5199    0.0000 </r>
       <r>   22.1617    0.0000 </r>
       <r>   23.0581    0.0000 </r>
      </set>
      <set comment="kpoint 54">
       <r>   -4.1281    1.0000 </r>
       <r>   -0.5440    1.0000 </r>
       <r>    3.1497    1.0000 </r>
       <r>    3.8049    1.0000 </r>
       <r>    7.6133    0.0000 </r>
       <r>    9.3335    0.0000 </r>
       <r>   10.0369    0.0000 </r>
       <r>   11.3870    0.0000 </r>
       <r>   14.9032    0.0000 </r>
       <r>   15.9880    0.0000 </r>
       <r>   16.5374    0.0000 </r>
       <r>   17.1031    0.0000 </r>
       <r>   17.9692    0.0000 </r>
       <r>   21.2052    0.0000 </r>
       <r>   22.5740    0.0000 </r>
       <r>   23.2738    0.0000 </r>
      </set>
      <set comment="kpoint 55">
       <r>   -3.8249    1.0000 </r>
       <r>   -1.0095    1.0000 </r>
       <r>    2.9814    1.0000 </r>
       <r>    3.8493    1.0000 </r>
       <r>    7.6265    0.0000 </r>
       <r>    9.2815    0.0000 </r>
       <r>    9.8913    0.0000 </r>
       <r>   12.2158    0.0000 </r>
       <r>   14.6407    0.0000 </r>
       <r>   15.8431    0.0000 </r>
       <r>   16.9398    0.0000 </r>
       <r>   17.0763    0.0000 </r>
       <r>   17.7581    0.0000 </r>
       <r>   20.8373    0.0000 </r>
       <r>   23.2280    0.0000 </r>
       <r>   24.4732    0.0000 </r>
      </set>
      <set comment="kpoint 56">
       <r>   -3.6992    1.0000 </r>
       <r>   -1.1878    1.0000 </r>
       <r>    2.8574    1.0000 </r>
       <r>    3.9379    1.0000 </r>
       <r>    7.6783    0.0000 </r>
[...]
       <r>   19.6626    0.0000 </r>
       <r>   20.3011    0.0000 </r>
       <r>   21.8099    0.0000 </r>
       <r>   22.0572    0.0000 </r>
       <r>   23.9066    0.0000 </r>
      </set>
      <set comment="kpoint 251">
       <r>   -2.6611    1.0000 </r>
       <r>   -1.4616    1.0000 </r>
       <r>    1.5253    1.0000 </r>
       <r>    2.3826    1.0000 </r>
       <r>    9.1803    0.0000 </r>
       <r>    9.4398    0.0000 </r>
       <r>   10.8376    0.0000 </r>
       <r>   11.2363    0.0000 </r>
       <r>   14.2082    0.0000 </r>
       <r>   16.4362    0.0000 </r>
       <r>   17.4783    0.0000 </r>
       <r>   19.6682    0.0000 </r>
       <r>   20.4420    0.0000 </r>
       <r>   22.5037    0.0000 </r>
       <r>   22.5927    0.0000 </r>
       <r>   23.4637    0.0000 </r>
      </set>
      <set comment="kpoint 252">
       <r>   -2.6058    1.0000 </r>
       <r>   -1.5010    1.0000 </r>
       <r>    1.7085    1.0000 </r>
       <r>    2.1810    1.0000 </r>
       <r>    8.8645    0.0000 </r>
       <r>    9.0783    0.0000 </r>
       <r>   10.5272    0.0000 </r>
       <r>   12.2073    0.0000 </r>
       <r>   14.8383    0.0000 </r>
       <r>   16.2821    0.0000 </r>
       <r>   17.7792    0.0000 </r>
       <r>   19.1222    0.0000 </r>
       <r>   20.7969    0.0000 </r>
       <r>   21.8739    0.0000 </r>
       <r>   22.1309    0.0000 </r>
       <r>   23.5513    0.0000 </r>
      </set>
      <set comment="kpoint 253">
       <r>   -2.3579    1.0000 </r>
       <r>   -1.7293    1.0000 </r>
       <r>    1.6265    1.0000 </r>
       <r>    2.0871    1.0000 </r>
       <r>    9.0797    0.0000 </r>
       <r>    9.7868    0.0000 </r>
       <r>   10.4218    0.0000 </r>
       <r>   11.1851    0.0000 </r>
       <r>   15.1187    0.0000 </r>
       <r>   16.2635    0.0000 </r>
       <r>   17.7748    0.0000 </r>
       <r>   18.9762    0.0000 </r>
       <r>   21.0729    0.0000 </r>
       <r>   22.2256    0.0000 </r>
       <r>   22.9139    0.0000 </r>
       <r>   23.4654    0.0000 </r>
      </set>
      <set comment="kpoint 254">
       <r>   -2.4908    1.0000 </r>
       <r>   -1.5977    1.0000 </r>
       <r>    1.5461    1.0000 </r>
       <r>    2.2030    1.0000 </r>
       <r>    9.2334    0.0000 </r>
       <r>    9.9045    0.0000 </r>
       <r>   10.3222    0.0000 </r>
       <r>   11.0591    0.0000 </r>
       <r>   14.8459    0.0000 </r>
       <r>   16.0739    0.0000 </r>
       <r>   17.9612    0.0000 </r>
       <r>   19.2226    0.0000 </r>
       <r>   20.8277    0.0000 </r>
       <r>   21.9704    0.0000 </r>
       <r>   23.0504    0.0000 </r>
       <r>   23.5589    0.0000 </r>
      </set>
      <set comment="kpoint 255">
       <r>   -2.0500    1.0000 </r>
       <r>   -2.0500    1.0000 </r>
       <r>    1.8748    1.0000 </r>
       <r>    1.8748    1.0000 </r>
       <r>    8.9292    0.0000 </r>
       <r>    8.9292    0.0000 </r>
       <r>   11.3269    0.0000 </r>
       <r>   11.3269    0.0000 </r>
       <r>   15.8382    0.0000 </r>
       <r>   15.8382    0.0000 </r>
       <r>   18.2271    0.0000 </r>
       <r>   18.2271    0.0000 </r>
       <r>   21.8153    0.0000 </r>
       <r>   21.8153    0.0000 </r>
       <r>   22.9779    0.0000 </r>
       <r>   22.9779    0.0000 </r>
      </set>
      <set comment="kpoint 256">
       <r>   -2.0347    1.0000 </r>
       <r>   -2.0347    1.0000 </r>
       <r>    1.8021    1.0000 </r>
       <r>    1.8021    1.0000 </r>
       <r>    9.7642    0.0000 </r>
       <r>    9.7642    0.0000 </r>
       <r>   10.4072    0.0000 </r>
       <r>   10.4072    0.0000 </r>
       <r>   15.8397    0.0000 </r>
       <r>   15.8397    0.0000 </r>
       <r>   18.2558    0.0000 </r>
       <r>   18.2558    0.0000 </r>
       <r>   21.7404    0.0000 </r>
       <r>   21.7404    0.0000 </r>
       <r>   23.7798    0.0000 </r>
       <r>   23.7799    0.0000 </r>
      </set>
     </set>
    </set>
   </array>
  </eigenvalues>
  <separator name="orbital magnetization" >
   <v name="MAGDIPOLOUT">      0.00000000      0.00000000      0.00000000</v>
  </separator>
  <dos>
   <i name="efermi">      5.81350762 </i>
   <total>
    <array>
     <dimension dim="1">gridpoints</dimension>
     <dimension dim="2">spin</dimension>
     <field>energy</field>
     <field>total</field>
     <field>integrated</field>
     <set>
      <set comment="spin 1">
       <r>    -8.1919     0.0000     0.0000 </r>
       <r>    -8.0640     0.0000     0.0000 </r>
       <r>    -7.9362     0.0000     0.0000 </r>
       <r>    -7.8083     0.0000     0.0000 </r>
       <r>    -7.6804     0.0000     0.0000 </r>
       <r>    -7.5526     0.0000     0.0000 </r>
       <r>    -7.4247     0.0000     0.0000 </r>
       <r>    -7.2969     0.0000     0.0000 </r>
       <r>    -7.1690     0.0000     0.0000 </r>
       <r>    -7.0411     0.0000     0.0000 </r>
       <r>    -6.9133     0.0000     0.0000 </r>
       <r>    -6.7854     0.0000     0.0000 </r>
       <r>    -6.6576     0.0000     0.0000 </r>
       <r>    -6.5297     0.0002     0.0000 </r>
       <r>    -6.4018     0.0024     0.0003 </r>
       <r>    -6.2740     0.0144     0.0022 </r>
       <r>    -6.1461     0.0498     0.0085 </r>
       <r>    -6.0183     0.1076     0.0223 </r>
       <r>    -5.8904     0.1677     0.0437 </r>
       <r>    -5.7625     0.2171     0.0715 </r>
       <r>    -5.6347     0.2576     0.1044 </r>
       <r>    -5.5068     0.2931     0.1419 </r>
       <r>    -5.3790     0.3262     0.1836 </r>
       <r>    -5.2511     0.3569     0.2292 </r>
       <r>    -5.1232     0.3880     0.2789 </r>
       <r>    -4.9954     0.4173     0.3322 </r>
       <r>    -4.8675     0.4474     0.3894 </r>
       <r>    -4.7396     0.4803     0.4508 </r>
       <r>    -4.6118     0.5091     0.5159 </r>
       <r>    -4.4839     0.5484     0.5860 </r>
       <r>    -4.3561     0.5872     0.6611 </r>
       <r>    -4.2282     0.6320     0.7419 </r>
       <r>    -4.1003     0.7057     0.8321 </r>
       <r>    -3.9725     0.7789     0.9317 </r>
       <r>    -3.8446     0.8423     1.0394 </r>
       <r>    -3.7168     0.8627     1.1497 </r>
       <r>    -3.5889     0.8235     1.2550 </r>
       <r>    -3.4610     0.7861     1.3555 </r>
       <r>    -3.3332     0.7395     1.4501 </r>
       <r>    -3.2053     0.6880     1.5381 </r>
       <r>    -3.0775     0.6452     1.6206 </r>
       <r>    -2.9496     0.5916     1.6962 </r>
       <r>    -2.8217     0.5428     1.7656 </r>
       <r>    -2.6939     0.4882     1.8280 </r>
       <r>    -2.5660     0.4255     1.8824 </r>
       <r>    -2.4382     0.3628     1.9288 </r>
       <r>    -2.3103     0.2772     1.9643 </r>
       <r>    -2.1824     0.1927     1.9889 </r>
       <r>    -2.0546     0.1506     2.0081 </r>
       <r>    -1.9267     0.1580     2.0284 </r>
       <r>    -1.7989     0.2301     2.0578 </r>
       <r>    -1.6710     0.3199     2.0987 </r>
       <r>    -1.5431     0.3964     2.1494 </r>
       <r>    -1.4153     0.5400     2.2184 </r>
       <r>    -1.2874     0.7738     2.3173 </r>
       <r>    -1.1596     1.0646     2.4535 </r>
       <r>    -1.0317     1.2074     2.6078 </r>
       <r>    -0.9038     1.0698     2.7446 </r>
       <r>    -0.7760     0.8710     2.8560 </r>
       <r>    -0.6481     0.7407     2.9507 </r>
       <r>    -0.5203     0.6473     3.0335 </r>
       <r>    -0.3924     0.5819     3.1079 </r>
       <r>    -0.2645     0.5321     3.1759 </r>
       <r>    -0.1367     0.4833     3.2377 </r>
       <r>    -0.0088     0.4494     3.2952 </r>
       <r>     0.1190     0.4175     3.3485 </r>
       <r>     0.2469     0.3806     3.3972 </r>
       <r>     0.3748     0.3542     3.4425 </r>
       <r>     0.5026     0.3380     3.4857 </r>
       <r>     0.6305     0.3134     3.5258 </r>
       <r>     0.7583     0.2784     3.5614 </r>
       <r>     0.8862     0.2688     3.5957 </r>
       <r>     1.0141     0.2677     3.6300 </r>
       <r>     1.1419     0.2746     3.6651 </r>
       <r>     1.2698     0.3727     3.7127 </r>
       <r>     1.3976     0.6213     3.7922 </r>
       <r>     1.5255     0.9246     3.9104 </r>
       <r>     1.6534     1.1145     4.0529 </r>
       <r>     1.7812     1.1332     4.1978 </r>
       <r>     1.9091     1.0954     4.3378 </r>
       <r>     2.0369     1.0890     4.4771 </r>
       <r>     2.1648     1.0989     4.6176 </r>
       <r>     2.2927     1.1029     4.7586 </r>
       <r>     2.4205     1.1402     4.9044 </r>
       <r>     2.5484     1.2319     5.0619 </r>
       <r>     2.6762     1.3611     5.2359 </r>
       <r>     2.8041     1.4808     5.4253 </r>
       <r>     2.9320     1.4993     5.6170 </r>
       <r>     3.0598     1.4977     5.8085 </r>
       <r>     3.1877     1.5226     6.0031 </r>
       <r>     3.3155     1.4617     6.1900 </r>
       <r>     3.4434     1.4012     6.3692 </r>
       <r>     3.5713     1.3806     6.5457 </r>
       <r>     3.6991     1.3471     6.7179 </r>
       <r>     3.8270     1.3077     6.8851 </r>
       <r>     3.9548     1.2744     7.0481 </r>
       <r>     4.0827     1.2488     7.2078 </r>
       <r>     4.2106     1.1833     7.3591 </r>
       <r>     4.3384     1.0604     7.4946 </r>
       <r>     4.4663     0.8991     7.6096 </r>
       <r>     4.5942     0.7362     7.7037 </r>
       <r>     4.7220     0.6016     7.7806 </r>
       <r>     4.8499     0.4876     7.8430 </r>
       <r>     4.9777     0.3887     7.8927 </r>
       <r>     5.1056     0.3147     7.9329 </r>
       <r>     5.2335     0.2461     7.9644 </r>
       <r>     5.3613     0.1616     7.9851 </r>
       <r>     5.4892     0.0812     7.9954 </r>
       <r>     5.6170     0.0286     7.9991 </r>
       <r>     5.7449     0.0063     7.9999 </r>
       <r>     5.8728     0.0014     8.0001 </r>
       <r>     6.0006     0.0056     8.0008 </r>
       <r>     6.1285     0.0284     8.0044 </r>
       <r>     6.2563     0.0875     8.0156 </r>
       <r>     6.3842     0.1823     8.0389 </r>
       <r>     6.5121     0.2921     8.0763 </r>
       <r>     6.6399     0.3941     8.1267 </r>
       <r>     6.7678     0.4676     8.1865 </r>
       <r>     6.8956     0.5283     8.2540 </r>
       <r>     7.0235     0.6314     8.3347 </r>
       <r>     7.1514     0.7826     8.4348 </r>
       <r>     7.2792     0.9286     8.5535 </r>
       <r>     7.4071     1.0383     8.6863 </r>
       <r>     7.5349     1.1691     8.8358 </r>
       <r>     7.6628     1.3665     9.0105 </r>
       <r>     7.7907     1.5313     9.2063 </r>
       <r>     7.9185     1.5843     9.4088 </r>
       <r>     8.0464     1.5157     9.6026 </r>
       <r>     8.1742     1.3915     9.7806 </r>
       <r>     8.3021     1.2468     9.9400 </r>
       <r>     8.4300     1.0994    10.0805 </r>
       <r>     8.5578     1.0837    10.2191 </r>
       <r>     8.6857     1.3555    10.3924 </r>
       <r>     8.8135     1.8146    10.6244 </r>
       <r>     8.9414     2.0504    10.8866 </r>
       <r>     9.0693     1.9339    11.1339 </r>
       <r>     9.1971     1.7490    11.3575 </r>
       <r>     9.3250     1.6107    11.5634 </r>
       <r>     9.4528     1.4420    11.7478 </r>
       <r>     9.5807     1.3033    11.9145 </r>
       <r>     9.7086     1.3237    12.0837 </r>
       <r>     9.8364     1.3687    12.2587 </r>
       <r>     9.9643     1.3258    12.4282 </r>
       <r>    10.0921     1.2853    12.5926 </r>
       <r>    10.2200     1.2701    12.7550 </r>
       <r>    10.3479     1.2819    12.9189 </r>
       <r>    10.4757     1.3165    13.0872 </r>
       <r>    10.6036     1.3171    13.2556 </r>
       <r>    10.7314     1.2284    13.4127 </r>
       <r>    10.8593     1.1110    13.5547 </r>
       <r>    10.9872     1.0743    13.6921 </r>
       <r>    11.1150     1.1389    13.8377 </r>
       <r>    11.2429     1.2347    13.9956 </r>
       <r>    11.3707     1.2482    14.1552 </r>
       <r>    11.4986     1.1199    14.2984 </r>
       <r>    11.6265     0.9148    14.4153 </r>
       <r>    11.7543     0.8277    14.5211 </r>
       <r>    11.8822     0.9496    14.6426 </r>
       <r>    12.0100     1.1866    14.7943 </r>
       <r>    12.1379     1.4171    14.9755 </r>
       <r>    12.2658     1.5161    15.1693 </r>
       <r>    12.3936     1.3560    15.3427 </r>
       <r>    12.5215     1.0536    15.4774 </r>
       <r>    12.6493     0.8893    15.5911 </r>
       <r>    12.7772     0.9073    15.7071 </r>
       <r>    12.9051     1.0797    15.8452 </r>
       <r>    13.0329     1.3743    16.0209 </r>
       <r>    13.1608     1.6086    16.2266 </r>
       <r>    13.2886     1.5848    16.4292 </r>
       <r>    13.4165     1.3236    16.5984 </r>
       <r>    13.5444     1.0512    16.7328 </r>
       <r>    13.6722     0.9404    16.8531 </r>
       <r>    13.8001     1.0055    16.9816 </r>
       <r>    13.9279     1.1797    17.1325 </r>
       <r>    14.0558     1.4480    17.3176 </r>
       <r>    14.1837     1.5810    17.5198 </r>
       <r>    14.3115     1.3851    17.6969 </r>
       <r>    14.4394     1.1508    17.8440 </r>
       <r>    14.5673     1.1444    17.9903 </r>
       <r>    14.6951     1.2520    18.1504 </r>
       <r>    14.8230     1.4041    18.3299 </r>
       <r>    14.9508     1.5987    18.5343 </r>
       <r>    15.0787     1.6041    18.7394 </r>
       <r>    15.2066     1.4008    18.9185 </r>
       <r>    15.3344     1.2613    19.0798 </r>
       <r>    15.4623     1.2214    19.2360 </r>
       <r>    15.5901     1.1767    19.3864 </r>
       <r>    15.7180     1.1905    19.5387 </r>
       <r>    15.8459     1.3063    19.7057 </r>
       <r>    15.9737     1.3975    19.8844 </r>
       <r>    16.1016     1.3718    20.0598 </r>
       <r>    16.2294     1.2845    20.2240 </r>
       <r>    16.3573     1.1856    20.3756 </r>
       <r>    16.4852     1.1345    20.5207 </r>
       <r>    16.6130     1.1700    20.6703 </r>
       <r>    16.7409     1.2191    20.8261 </r>
       <r>    16.8687     1.2798    20.9898 </r>
       <r>    16.9966     1.3517    21.1626 </r>
       <r>    17.1245     1.4016    21.3418 </r>
       <r>    17.2523     1.4522    21.5275 </r>
       <r>    17.3802     1.4892    21.7179 </r>
       <r>    17.5080     1.4613    21.9047 </r>
       <r>    17.6359     1.4204    22.0863 </r>
       <r>    17.7638     1.5054    22.2788 </r>
       <r>    17.8916     1.7387    22.5011 </r>
       <r>    18.0195     1.9022    22.7443 </r>
       <r>    18.1473     1.8057    22.9752 </r>
       <r>    18.2752     1.5696    23.1759 </r>
       <r>    18.4031     1.3747    23.3517 </r>
       <r>    18.5309     1.3168    23.5200 </r>
       <r>    18.6588     1.3845    23.6971 </r>
       <r>    18.7866     1.4810    23.8864 </r>
       <r>    18.9145     1.6169    24.0932 </r>
       <r>    19.0424     1.8591    24.3309 </r>
       <r>    19.1702     2.0211    24.5893 </r>
       <r>    19.2981     1.9103    24.8335 </r>
       <r>    19.4259     1.6626    25.0461 </r>
       <r>    19.5538     1.5283    25.2415 </r>
       <r>    19.6817     1.5397    25.4384 </r>
       <r>    19.8095     1.4992    25.6301 </r>
       <r>    19.9374     1.3553    25.8034 </r>
       <r>    20.0652     1.2562    25.9640 </r>
       <r>    20.1931     1.3108    26.1316 </r>
       <r>    20.3210     1.5075    26.3243 </r>
       <r>    20.4488     1.6683    26.5376 </r>
       <r>    20.5767     1.6877    26.7534 </r>
       <r>    20.7045     1.6183    26.9603 </r>
       <r>    20.8324     1.5109    27.1535 </r>
       <r>    20.9603     1.4754    27.3422 </r>
       <r>    21.0881     1.4414    27.5265 </r>
       <r>    21.2160     1.3344    27.6971 </r>
       <r>    21.3438     1.2626    27.8585 </r>
       <r>    21.4717     1.2408    28.0172 </r>
       <r>    21.5996     1.2969    28.1830 </r>
       <r>    21.7274     1.4868    28.3731 </r>
       <r>    21.8553     1.6341    28.5820 </r>
       <r>    21.9831     1.6287    28.7902 </r>
       <r>    22.1110     1.5794    28.9922 </r>
       <r>    22.2389     1.5572    29.1913 </r>
       <r>    22.3667     1.5074    29.3840 </r>
       <r>    22.4946     1.4342    29.5674 </r>
       <r>    22.6224     1.4465    29.7524 </r>
       <r>    22.7503     1.5335    29.9484 </r>
       <r>    22.8782     1.6486    30.1592 </r>
       <r>    23.0060     1.7794    30.3868 </r>
       <r>    23.1339     1.8031    30.6173 </r>
       <r>    23.2617     1.6702    30.8309 </r>
       <r>    23.3896     1.4846    31.0207 </r>
       <r>    23.5175     1.3248    31.1901 </r>
       <r>    23.6453     1.1890    31.3421 </r>
       <r>    23.7732     1.0467    31.4759 </r>
       <r>    23.9010     0.8942    31.5903 </r>
       <r>    24.0289     0.7023    31.6800 </r>
       <r>    24.1568     0.4916    31.7429 </r>
       <r>    24.2846     0.3395    31.7863 </r>
       <r>    24.4125     0.2443    31.8175 </r>
       <r>    24.5404     0.2092    31.8443 </r>
       <r>    24.6682     0.2087    31.8710 </r>
       <r>    24.7961     0.1817    31.8942 </r>
       <r>    24.9239     0.1329    31.9112 </r>
       <r>    25.0518     0.1039    31.9245 </r>
       <r>    25.1797     0.0963    31.9368 </r>
       <r>    25.3075     0.0936    31.9487 </r>
       <r>    25.4354     0.0937    31.9607 </r>
       <r>    25.5632     0.0893    31.9722 </r>
       <r>    25.6911     0.0612    31.9800 </r>
       <r>    25.8190     0.0241    31.9831 </r>
       <r>    25.9468     0.0050    31.9837 </r>
       <r>    26.0747     0.0009    31.9838 </r>
       <r>    26.2025     0.0019    31.9840 </r>
       <r>    26.3304     0.0041    31.9846 </r>
       <r>    26.4583     0.0062    31.9854 </r>
       <r>    26.5861     0.0129    31.9870 </r>
       <r>    26.7140     0.0248    31.9902 </r>
       <r>    26.8418     0.0270    31.9936 </r>
       <r>    26.9697     0.0153    31.9956 </r>
       <r>    27.0976     0.0044    31.9962 </r>
       <r>    27.2254     0.0008    31.9963 </r>
       <r>    27.3533     0.0011    31.9964 </r>
       <r>    27.4811     0.0034    31.9968 </r>
       <r>    27.6090     0.0062    31.9976 </r>
       <r>    27.7369     0.0075    31.9986 </r>
       <r>    27.8647     0.0059    31.9993 </r>
       <r>    27.9926     0.0028    31.9997 </r>
       <r>    28.1204     0.0011    31.9998 </r>
       <r>    28.2483     0.0007    31.9999 </r>
       <r>    28.3762     0.0004    32.0000 </r>
       <r>    28.5040     0.0001    32.0000 </r>
       <r>    28.6319     0.0000    32.0000 </r>
       <r>    28.7597     0.0000    32.0000 </r>
       <r>    28.8876     0.0000    32.0000 </r>
       <r>    29.0155     0.0000    32.0000 </r>
       <r>    29.1433     0.0000    32.0000 </r>
       <r>    29.2712     0.0000    32.0000 </r>
       <r>    29.3990     0.0000    32.0000 </r>
       <r>    29.5269     0.0000    32.0000 </r>
       <r>    29.6548     0.0000    32.0000 </r>
       <r>    29.7826     0.0000    32.0000 </r>
       <r>    29.9105     0.0000    32.0000 </r>
       <r>    30.0383     0.0000    32.0000 </r>
       <r>    30.1662     0.0000    32.0000 </r>
      </set>
     </set>
    </array>
   </total>
  </dos>
 </calculation>
 <structure name="finalpos" >
  <crystal>
   <varray name="basis" >
    <v>       0.00000000       2.74682114       2.74682114 </v>
    <v>       2.74682114       0.00000000       2.74682114 </v>
    <v>       2.74682114       2.74682114       0.00000000 </v>
   </varray>
   <i name="volume">     41.44967579 </i>
   <varray name="rec_basis" >
    <v>      -0.18202860       0.18202860       0.18202860 </v>
    <v>       0.18202860      -0.18202860       0.18202860 </v>
    <v>       0.18202860       0.18202860      -0.18202860 </v>
   </varray>
  </crystal>
  <varray name="positions" >
   <v>       0.75000000       0.75000000       0.75000000 </v>
   <v>       0.50000000       0.50000000       0.50000000 </v>
  </varray>
 </structure>
</modeling>
