   2   2   0   0
  0.2072484E+02  0.3884592E-09  0.3884592E-09  0.3884592E-09  0.5000000E-15
   1.0000000000000000E-004
  CAR 
 unknown system                          
     30.25024391     -8.11241083  301      5.94162260      1.00000000
     -8.112  0.0000E+00  0.0000E+00
     -7.985  0.0000E+00  0.0000E+00
     -7.857  0.0000E+00  0.0000E+00
     -7.729  0.0000E+00  0.0000E+00
     -7.601  0.0000E+00  0.0000E+00
     -7.473  0.0000E+00  0.0000E+00
     -7.345  0.0000E+00  0.0000E+00
     -7.217  0.1608E-14  0.2056E-15
     -7.089  0.1418E-11  0.1815E-12
     -6.962  0.5555E-09  0.7122E-10
     -6.834  0.9783E-07  0.1258E-07
     -6.706  0.7779E-05  0.1007E-05
     -6.578  0.2807E-03  0.3690E-04
     -6.450  0.4627E-02  0.6286E-03
     -6.322  0.3507E-01  0.5113E-02
     -6.194  0.1230E+00  0.2084E-01
     -6.066  0.2005E+00  0.4648E-01
     -5.939  0.1524E+00  0.6597E-01
     -5.811  0.5387E-01  0.7286E-01
     -5.683  0.8828E-02  0.7399E-01
     -5.555  0.6665E-03  0.7407E-01
     -5.427  0.3336E-04  0.7408E-01
     -5.299  0.5249E-03  0.7414E-01
     -5.171  0.1212E-01  0.7569E-01
     -5.043  0.1285E+00  0.9212E-01
     -4.916  0.6283E+00  0.1725E+00
     -4.788  0.1427E+01  0.3549E+00
     -4.660  0.1516E+01  0.5488E+00
     -4.532  0.8350E+00  0.6555E+00
     -4.404  0.6298E+00  0.7361E+00
     -4.276  0.1078E+01  0.8740E+00
     -4.148  0.1139E+01  0.1020E+01
     -4.020  0.5688E+00  0.1092E+01
     -3.893  0.1321E+00  0.1109E+01
     -3.765  0.1417E-01  0.1111E+01
     -3.637  0.7024E-03  0.1111E+01
     -3.509  0.3234E-03  0.1111E+01
     -3.381  0.8710E-02  0.1112E+01
     -3.253  0.1128E+00  0.1127E+01
     -3.125  0.6733E+00  0.1213E+01
     -2.997  0.1863E+01  0.1451E+01
     -2.870  0.2398E+01  0.1758E+01
     -2.742  0.1439E+01  0.1942E+01
     -2.614  0.4013E+00  0.1993E+01
     -2.486  0.5178E-01  0.2000E+01
     -2.358  0.3071E-02  0.2000E+01
     -2.230  0.8320E-04  0.2000E+01
     -2.102  0.1023E-05  0.2000E+01
     -1.974  0.6264E-08  0.2000E+01
     -1.847  0.1452E-06  0.2000E+01
     -1.719  0.1615E-04  0.2000E+01
     -1.591  0.8136E-03  0.2000E+01
     -1.463  0.1866E-01  0.2002E+01
     -1.335  0.1963E+00  0.2028E+01
     -1.207  0.9532E+00  0.2149E+01
     -1.079  0.2148E+01  0.2424E+01
     -0.951  0.2254E+01  0.2712E+01
     -0.824  0.1102E+01  0.2853E+01
     -0.696  0.2502E+00  0.2885E+01
     -0.568  0.2623E-01  0.2889E+01
     -0.440  0.1262E-02  0.2889E+01
     -0.312  0.3190E-04  0.2889E+01
     -0.184  0.2514E-03  0.2889E+01
     -0.056  0.6811E-02  0.2890E+01
      0.072  0.8469E-01  0.2901E+01
      0.199  0.4879E+00  0.2963E+01
      0.327  0.1337E+01  0.3134E+01
      0.455  0.1910E+01  0.3378E+01
      0.583  0.1827E+01  0.3612E+01
      0.711  0.1447E+01  0.3797E+01
      0.839  0.7696E+00  0.3895E+01
      0.967  0.2498E+00  0.3927E+01
      1.095  0.3516E+00  0.3972E+01
      1.223  0.1280E+01  0.4136E+01
      1.350  0.2346E+01  0.4436E+01
      1.478  0.2005E+01  0.4692E+01
      1.606  0.7978E+00  0.4794E+01
      1.734  0.1473E+00  0.4813E+01
      1.862  0.1253E-01  0.4815E+01
      1.990  0.4886E-03  0.4815E+01
      2.118  0.8669E-05  0.4815E+01
      2.246  0.6960E-07  0.4815E+01
      2.373  0.4031E-08  0.4815E+01
      2.501  0.7215E-06  0.4815E+01
      2.629  0.6215E-04  0.4815E+01
      2.757  0.2429E-02  0.4815E+01
      2.885  0.4334E-01  0.4821E+01
      3.013  0.3560E+00  0.4866E+01
      3.141  0.1366E+01  0.5041E+01
      3.269  0.2580E+01  0.5371E+01
      3.396  0.2935E+01  0.5746E+01
      3.524  0.2920E+01  0.6120E+01
      3.652  0.2362E+01  0.6422E+01
      3.780  0.1075E+01  0.6559E+01
      3.908  0.2364E+00  0.6589E+01
      4.036  0.2451E-01  0.6592E+01
      4.164  0.1115E-01  0.6594E+01
      4.292  0.1349E+00  0.6611E+01
      4.419  0.8366E+00  0.6718E+01
      4.547  0.2404E+01  0.7026E+01
      4.675  0.3215E+01  0.7437E+01
      4.803  0.2004E+01  0.7693E+01
      4.931  0.5805E+00  0.7767E+01
      5.059  0.7819E-01  0.7777E+01
      5.187  0.1189E-01  0.7779E+01
      5.315  0.6622E-01  0.7787E+01
      5.442  0.2845E+00  0.7824E+01
      5.570  0.5690E+00  0.7896E+01
      5.698  0.5300E+00  0.7964E+01
      5.826  0.2302E+00  0.7994E+01
      5.954  0.5369E-01  0.8000E+01
      6.082  0.8736E-01  0.8012E+01
      6.210  0.4303E+00  0.8067E+01
      6.338  0.1033E+01  0.8199E+01
      6.465  0.1156E+01  0.8347E+01
      6.593  0.6025E+00  0.8424E+01
      6.721  0.1505E+00  0.8443E+01
      6.849  0.9150E-01  0.8455E+01
      6.977  0.5779E+00  0.8528E+01
      7.105  0.2119E+01  0.8799E+01
      7.233  0.3786E+01  0.9284E+01
      7.361  0.3414E+01  0.9720E+01
      7.488  0.1953E+01  0.9970E+01
      7.616  0.1417E+01  0.1015E+02
      7.744  0.1118E+01  0.1029E+02
      7.872  0.5371E+00  0.1036E+02
      8.000  0.3355E+00  0.1041E+02
      8.128  0.5429E+00  0.1047E+02
      8.256  0.5688E+00  0.1055E+02
      8.384  0.2975E+00  0.1059E+02
      8.511  0.1454E+00  0.1060E+02
      8.639  0.1958E+00  0.1063E+02
      8.767  0.3124E+00  0.1067E+02
      8.895  0.8864E+00  0.1078E+02
      9.023  0.2368E+01  0.1109E+02
      9.151  0.3226E+01  0.1150E+02
      9.279  0.2063E+01  0.1176E+02
      9.407  0.6136E+00  0.1184E+02
      9.534  0.8451E-01  0.1185E+02
      9.662  0.5353E-02  0.1185E+02
      9.790  0.1549E-03  0.1185E+02
      9.918  0.2036E-05  0.1185E+02
     10.046  0.1208E-07  0.1185E+02
     10.174  0.3225E-10  0.1185E+02
     10.302  0.3350E-11  0.1185E+02
     10.430  0.1589E-08  0.1185E+02
     10.557  0.3423E-06  0.1185E+02
     10.685  0.3327E-04  0.1185E+02
     10.813  0.1465E-02  0.1185E+02
     10.941  0.2942E-01  0.1186E+02
     11.069  0.2712E+00  0.1189E+02
     11.197  0.1155E+01  0.1204E+02
     11.325  0.2286E+01  0.1233E+02
     11.453  0.2108E+01  0.1260E+02
     11.580  0.9340E+00  0.1272E+02
     11.708  0.4546E+00  0.1278E+02
     11.836  0.1180E+01  0.1293E+02
     11.964  0.2292E+01  0.1322E+02
     12.092  0.2122E+01  0.1349E+02
     12.220  0.1118E+01  0.1364E+02
     12.348  0.1253E+01  0.1380E+02
     12.476  0.2701E+01  0.1414E+02
     12.603  0.4156E+01  0.1467E+02
     12.731  0.4994E+01  0.1531E+02
     12.859  0.4548E+01  0.1589E+02
     12.987  0.3051E+01  0.1628E+02
     13.115  0.2953E+01  0.1666E+02
     13.243  0.4447E+01  0.1723E+02
     13.371  0.5323E+01  0.1791E+02
     13.499  0.4985E+01  0.1855E+02
     13.626  0.3381E+01  0.1898E+02
     13.754  0.1320E+01  0.1915E+02
     13.882  0.2578E+00  0.1918E+02
     14.010  0.2653E-01  0.1919E+02
     14.138  0.4410E-01  0.1919E+02
     14.266  0.3109E+00  0.1923E+02
     14.394  0.1038E+01  0.1936E+02
     14.522  0.1613E+01  0.1957E+02
     14.649  0.1174E+01  0.1972E+02
     14.777  0.4740E+00  0.1978E+02
     14.905  0.4866E+00  0.1984E+02
     15.033  0.1065E+01  0.1998E+02
     15.161  0.1401E+01  0.2016E+02
     15.289  0.1403E+01  0.2034E+02
     15.417  0.1360E+01  0.2051E+02
     15.545  0.8793E+00  0.2062E+02
     15.672  0.2867E+00  0.2066E+02
     15.800  0.4390E-01  0.2067E+02
     15.928  0.3101E-02  0.2067E+02
     16.056  0.1087E-03  0.2067E+02
     16.184  0.3719E-03  0.2067E+02
     16.312  0.7420E-02  0.2067E+02
     16.440  0.6823E-01  0.2068E+02
     16.568  0.2899E+00  0.2071E+02
     16.695  0.5720E+00  0.2079E+02
     16.823  0.5258E+00  0.2085E+02
     16.951  0.2251E+00  0.2088E+02
     17.079  0.4471E-01  0.2089E+02
     17.207  0.4098E-02  0.2089E+02
     17.335  0.1722E-03  0.2089E+02
     17.463  0.3294E-05  0.2089E+02
     17.591  0.5804E-07  0.2089E+02
     17.718  0.3770E-05  0.2089E+02
     17.846  0.2178E-03  0.2089E+02
     17.974  0.5727E-02  0.2089E+02
     18.102  0.6895E-01  0.2090E+02
     18.230  0.3828E+00  0.2095E+02
     18.358  0.9888E+00  0.2107E+02
     18.486  0.1243E+01  0.2123E+02
     18.614  0.1172E+01  0.2138E+02
     18.741  0.2182E+01  0.2166E+02
     18.869  0.3791E+01  0.2215E+02
     18.997  0.3404E+01  0.2258E+02
     19.125  0.1481E+01  0.2277E+02
     19.253  0.3122E+00  0.2281E+02
     19.381  0.7375E-01  0.2282E+02
     19.509  0.3630E+00  0.2287E+02
     19.637  0.1487E+01  0.2306E+02
     19.764  0.3274E+01  0.2348E+02
     19.892  0.4476E+01  0.2405E+02
     20.020  0.4203E+01  0.2459E+02
     20.148  0.3170E+01  0.2499E+02
     20.276  0.2943E+01  0.2537E+02
     20.404  0.2808E+01  0.2573E+02
     20.532  0.2189E+01  0.2601E+02
     20.660  0.1836E+01  0.2624E+02
     20.787  0.2469E+01  0.2656E+02
     20.915  0.3744E+01  0.2704E+02
     21.043  0.4030E+01  0.2755E+02
     21.171  0.2787E+01  0.2791E+02
     21.299  0.1264E+01  0.2807E+02
     21.427  0.9886E+00  0.2820E+02
     21.555  0.1825E+01  0.2843E+02
     21.683  0.2793E+01  0.2879E+02
     21.810  0.3756E+01  0.2927E+02
     21.938  0.4318E+01  0.2982E+02
     22.066  0.3240E+01  0.3023E+02
     22.194  0.1341E+01  0.3040E+02
     22.322  0.2938E+00  0.3044E+02
     22.450  0.1380E+00  0.3046E+02
     22.578  0.6702E+00  0.3054E+02
     22.706  0.2006E+01  0.3080E+02
     22.833  0.3154E+01  0.3120E+02
     22.961  0.2981E+01  0.3159E+02
     23.089  0.1839E+01  0.3182E+02
     23.217  0.6777E+00  0.3191E+02
     23.345  0.1299E+00  0.3192E+02
     23.473  0.1197E-01  0.3193E+02
     23.601  0.5122E-03  0.3193E+02
     23.729  0.1002E-04  0.3193E+02
     23.856  0.8882E-07  0.3193E+02
     23.984  0.3549E-09  0.3193E+02
     24.112  0.6364E-12  0.3193E+02
     24.240  0.5145E-15  0.3193E+02
     24.368  0.0000E+00  0.3193E+02
     24.496  0.0000E+00  0.3193E+02
     24.624  0.0000E+00  0.3193E+02
     24.752  0.0000E+00  0.3193E+02
     24.879  0.0000E+00  0.3193E+02
     25.007  0.0000E+00  0.3193E+02
     25.135  0.0000E+00  0.3193E+02
     25.263  0.0000E+00  0.3193E+02
     25.391  0.0000E+00  0.3193E+02
     25.519  0.0000E+00  0.3193E+02
     25.647  0.0000E+00  0.3193E+02
     25.775  0.0000E+00  0.3193E+02
     25.902  0.0000E+00  0.3193E+02
     26.030  0.0000E+00  0.3193E+02
     26.158  0.0000E+00  0.3193E+02
     26.286  0.0000E+00  0.3193E+02
     26.414  0.0000E+00  0.3193E+02
     26.542  0.0000E+00  0.3193E+02
     26.670  0.0000E+00  0.3193E+02
     26.798  0.0000E+00  0.3193E+02
     26.925  0.0000E+00  0.3193E+02
     27.053  0.0000E+00  0.3193E+02
     27.181  0.1177E-13  0.3193E+02
     27.309  0.8202E-11  0.3193E+02
     27.437  0.2567E-08  0.3193E+02
     27.565  0.3615E-06  0.3193E+02
     27.693  0.2302E-04  0.3193E+02
     27.821  0.6664E-03  0.3193E+02
     27.948  0.8828E-02  0.3193E+02
     28.076  0.5387E-01  0.3193E+02
     28.204  0.1524E+00  0.3195E+02
     28.332  0.2005E+00  0.3198E+02
     28.460  0.1230E+00  0.3199E+02
     28.588  0.3507E-01  0.3200E+02
     28.716  0.4627E-02  0.3200E+02
     28.844  0.2807E-03  0.3200E+02
     28.971  0.7779E-05  0.3200E+02
     29.099  0.9783E-07  0.3200E+02
     29.227  0.5555E-09  0.3200E+02
     29.355  0.1418E-11  0.3200E+02
     29.483  0.1608E-14  0.3200E+02
     29.611  0.0000E+00  0.3200E+02
     29.739  0.0000E+00  0.3200E+02
     29.867  0.0000E+00  0.3200E+02
     29.994  0.0000E+00  0.3200E+02
     30.122  0.0000E+00  0.3200E+02
     30.250  0.0000E+00  0.3200E+02
