 vasp.5.4.1 24Jun15 (build Feb  9 2019 14:16:27) complex                         
 executed on           IFC91_ompi date 2020.09.26  22:22:12
 running on   16 total cores
 distrk:  each k-point on   16 cores,    1 groups
 distr:  one band on NCORES_PER_BAND=   1 cores,   16 groups


--------------------------------------------------------------------------------------------------------


 INCAR:
 POTCAR:    PAW_PBE Si 05Jan2001                  

 ----------------------------------------------------------------------------- 
|                                                                             |
|           W    W    AA    RRRRR   N    N  II  N    N   GGGG   !!!           |
|           W    W   A  A   R    R  NN   N  II  NN   N  G    G  !!!           |
|           W    W  A    A  R    R  N N  N  II  N N  N  G       !!!           |
|           W WW W  AAAAAA  RRRRR   N  N N  II  N  N N  G  GGG   !            |
|           WW  WW  A    A  R   R   N   NN  II  N   NN  G    G                |
|           W    W  A    A  R    R  N    N  II  N    N   GGGG   !!!           |
|                                                                             |
|      For optimal performance we recommend to set                            |
|        NCORE= 4 - approx SQRT( number of cores)                             |
|      NCORE specifies how many cores store one orbital (NPAR=cpu/NCORE).     |
|      This setting can  greatly improve the performance of VASP for DFT.     |
|      The default, NPAR=number of cores might be grossly inefficient         |
|      on modern multi-core architectures or massively parallel machines.     |
|      Do your own testing !!!!                                               |
|      Unfortunately you need to use the default for GW and RPA calculations. |
|      (for HF NCORE is supported but not extensively tested yet)             |
|                                                                             |
 ----------------------------------------------------------------------------- 


 ----------------------------------------------------------------------------- 
|                                                                             |
|  ADVICE TO THIS USER RUNNING 'VASP/VAMP'   (HEAR YOUR MASTER'S VOICE ...):  |
|                                                                             |
|      You have switched on vdW-DFT.                                          |
|      This routine was written and supplied by Jiri Klimes.                  |
|      We recommed that you carefully read and cite the following             |
|      publication                                                            |
|      J. Klimes, D.R. Bowler, A. Michelides                                  |
|        J. Phys.: Cond Matt. 22 022201 (2010)                                |
|      J. Klimes, D.R. Bowler, A. Michelides                                  |
|        Phys. Rev. B. 83, 195131 (2011)                                      |
|      and references therein.                                                |
|                                                                             |
 ----------------------------------------------------------------------------- 

 POTCAR:    PAW_PBE Si 05Jan2001                  
   VRHFIN =Si: s2p2                                                             
   LEXCH  = PE                                                                  
   EATOM  =   103.0669 eV,    7.5752 Ry                                         
                                                                                
   TITEL  = PAW_PBE Si 05Jan2001                                                
   LULTRA =        F    use ultrasoft PP ?                                      
   IUNSCR =        1    unscreen: 0-lin 1-nonlin 2-no                           
   RPACOR =    1.500    partial core radius                                     
   POMASS =   28.085; ZVAL   =    4.000    mass and valenz                      
   RCORE  =    1.900    outmost cutoff radius                                   
   RWIGS  =    2.480; RWIGS  =    1.312    wigner-seitz radius (au A)           
   ENMAX  =  245.345; ENMIN  =  184.009 eV                                      
   ICORE  =        2    local potential                                         
   LCOR   =        T    correct aug charges                                     
   LPAW   =        T    paw PP                                                  
   EAUG   =  322.069                                                            
   DEXC   =    0.000                                                            
   RMAX   =    1.950    core radius for proj-oper                               
   RAUG   =    1.300    factor for augmentation sphere                          
   RDEP   =    1.993    radius for radial grids                                 
   RDEPT  =    1.837    core radius for aug-charge                              
                                                                                
   Atomic configuration                                                         
    6 entries                                                                   
     n  l   j            E        occ.                                          
     1  0  0.50     -1785.8828   2.0000                                         
     2  0  0.50      -139.4969   2.0000                                         
     2  1  1.50       -95.5546   6.0000                                         
     3  0  0.50       -10.8127   2.0000                                         
     3  1  0.50        -4.0811   2.0000                                         
     3  2  1.50        -4.0817   0.0000                                         
   Description                                                                  
     l       E           TYP  RCUT    TYP  RCUT                                 
     0    -10.8127223     23  1.900                                             
     0     -7.6451159     23  1.900                                             
     1     -4.0811372     23  1.900                                             
     1      2.4879257     23  1.900                                             
     2     -4.0817478      7  1.900                                             
  local pseudopotential read in
  partial core-charges read in
  partial kinetic energy density read in
  atomic valenz-charges read in
  non local Contribution for L=           0  read in
    real space projection operators read in
  non local Contribution for L=           0  read in
    real space projection operators read in
  non local Contribution for L=           1  read in
    real space projection operators read in
  non local Contribution for L=           1  read in
    real space projection operators read in
    PAW grid and wavefunctions read in

   number of l-projection  operators is LMAX  =           4
   number of lm-projection operators is LMMAX =           8


 ----------------------------------------------------------------------------- 
|                                                                             |
|  ADVICE TO THIS USER RUNNING 'VASP/VAMP'   (HEAR YOUR MASTER'S VOICE ...):  |
|                                                                             |
|      You enforced a specific xc-type in the INCAR file,                     |
|      a different type was found on the POTCAR file                          |
|          I HOPE YOU KNOW, WHAT YOU ARE  DOING                               |
|                                                                             |
 ----------------------------------------------------------------------------- 

  PAW_PBE Si 05Jan2001                  :
 energy of atom  1       EATOM= -103.0669
 kinetic energy error for atom=    0.0006 (will be added to EATOM!!)


 POSCAR: bulk@JVASP-1002                         
  positions in direct lattice
  No initial velocities read in
 exchange correlation table for  LEXCH =       42
   RHO(1)=    0.500       N(1)  =     2000
   RHO(2)=  100.500       N(2)  =     4000



--------------------------------------------------------------------------------------------------------


 ion  position               nearest neighbor table
   1  0.750  0.750  0.750-   2 2.38   2 2.38   2 2.38   2 2.38
   2  0.500  0.500  0.500-   1 2.38   1 2.38   1 2.38   1 2.38

  LATTYP: Found a face centered cubic cell.
 ALAT       =     5.4936422752
  
  Lattice vectors:
  
 A1 = (   0.0000000000,   2.7468211376,   2.7468211376)
 A2 = (   2.7468211376,   0.0000000000,   2.7468211376)
 A3 = (   2.7468211376,   2.7468211376,   0.0000000000)


Analysis of symmetry for initial positions (statically):
=====================================================================
 Subroutine PRICEL returns:
 Original cell was already a primitive cell.
 

 Routine SETGRP: Setting up the symmetry group for a 
 face centered cubic supercell.


 Subroutine GETGRP returns: Found 48 space group operations
 (whereof 24 operations were pure point group operations)
 out of a pool of 48 trial point group operations.


The static configuration has the point symmetry T_d .
 The point group associated with its full space group is O_h .


Analysis of symmetry for dynamics (positions and initial velocities):
=====================================================================
 Subroutine PRICEL returns:
 Original cell was already a primitive cell.
 

 Routine SETGRP: Setting up the symmetry group for a 
 face centered cubic supercell.


 Subroutine GETGRP returns: Found 48 space group operations
 (whereof 24 operations were pure point group operations)
 out of a pool of 48 trial point group operations.


The dynamic configuration has the point symmetry T_d .
 The point group associated with its full space group is O_h .


 KPOINTS: Automatic kpoint scheme                 

Automatic generation of k-mesh.
Space group operators:
 irot       det(A)        alpha          n_x          n_y          n_z        tau_x        tau_y        tau_z
    1     1.000000     0.000000     1.000000     0.000000     0.000000     0.000000     0.000000     0.000000
    2     1.000000   120.000000    -0.577350    -0.577350    -0.577350     0.000000     0.000000     0.000000
    3     1.000000   120.000000     0.577350     0.577350     0.577350     0.000000     0.000000     0.000000
    4    -1.000000    90.000000     0.000000     0.000000    -1.000000     0.000000     0.000000     0.000000
    5    -1.000000   180.000000     0.000000     0.707107     0.707107     0.000000     0.000000     0.000000
    6    -1.000000    90.000000     0.000000     1.000000     0.000000     0.000000     0.000000     0.000000
    7     1.000000   180.000000     0.000000     0.000000     1.000000     0.000000     0.000000     0.000000
    8     1.000000   120.000000    -0.577350     0.577350     0.577350     0.000000     0.000000     0.000000
    9     1.000000   120.000000    -0.577350     0.577350    -0.577350     0.000000     0.000000     0.000000
   10    -1.000000    90.000000     0.000000     0.000000     1.000000     0.000000     0.000000     0.000000
   11    -1.000000    90.000000    -1.000000     0.000000     0.000000     0.000000     0.000000     0.000000
   12    -1.000000   180.000000     0.707107     0.000000     0.707107     0.000000     0.000000     0.000000
   13     1.000000   120.000000     0.577350    -0.577350     0.577350     0.000000     0.000000     0.000000
   14     1.000000   120.000000    -0.577350    -0.577350     0.577350     0.000000     0.000000     0.000000
   15     1.000000   180.000000     1.000000     0.000000     0.000000     0.000000     0.000000     0.000000
   16    -1.000000    90.000000     0.000000    -1.000000     0.000000     0.000000     0.000000     0.000000
   17    -1.000000   180.000000     0.707107     0.707107     0.000000     0.000000     0.000000     0.000000
   18    -1.000000    90.000000     1.000000     0.000000     0.000000     0.000000     0.000000     0.000000
   19     1.000000   120.000000     0.577350    -0.577350    -0.577350     0.000000     0.000000     0.000000
   20     1.000000   180.000000     0.000000     1.000000     0.000000     0.000000     0.000000     0.000000
   21     1.000000   120.000000     0.577350     0.577350    -0.577350     0.000000     0.000000     0.000000
   22    -1.000000   180.000000     0.000000    -0.707107     0.707107     0.000000     0.000000     0.000000
   23    -1.000000   180.000000     0.707107    -0.707107     0.000000     0.000000     0.000000     0.000000
   24    -1.000000   180.000000     0.707107     0.000000    -0.707107     0.000000     0.000000     0.000000
   25    -1.000000     0.000000     1.000000     0.000000     0.000000     0.250000     0.250000     0.250000
   26    -1.000000   120.000000    -0.577350    -0.577350    -0.577350     0.250000     0.250000     0.250000
   27    -1.000000   120.000000     0.577350     0.577350     0.577350     0.250000     0.250000     0.250000
   28     1.000000    90.000000     0.000000     0.000000    -1.000000     0.250000     0.250000     0.250000
   29     1.000000   180.000000     0.000000     0.707107     0.707107     0.250000     0.250000     0.250000
   30     1.000000    90.000000     0.000000     1.000000     0.000000     0.250000     0.250000     0.250000
   31    -1.000000   180.000000     0.000000     0.000000     1.000000     0.250000     0.250000     0.250000
   32    -1.000000   120.000000    -0.577350     0.577350     0.577350     0.250000     0.250000     0.250000
   33    -1.000000   120.000000    -0.577350     0.577350    -0.577350     0.250000     0.250000     0.250000
   34     1.000000    90.000000     0.000000     0.000000     1.000000     0.250000     0.250000     0.250000
   35     1.000000    90.000000    -1.000000     0.000000     0.000000     0.250000     0.250000     0.250000
   36     1.000000   180.000000     0.707107     0.000000     0.707107     0.250000     0.250000     0.250000
   37    -1.000000   120.000000     0.577350    -0.577350     0.577350     0.250000     0.250000     0.250000
   38    -1.000000   120.000000    -0.577350    -0.577350     0.577350     0.250000     0.250000     0.250000
   39    -1.000000   180.000000     1.000000     0.000000     0.000000     0.250000     0.250000     0.250000
   40     1.000000    90.000000     0.000000    -1.000000     0.000000     0.250000     0.250000     0.250000
   41     1.000000   180.000000     0.707107     0.707107     0.000000     0.250000     0.250000     0.250000
   42     1.000000    90.000000     1.000000     0.000000     0.000000     0.250000     0.250000     0.250000
   43    -1.000000   120.000000     0.577350    -0.577350    -0.577350     0.250000     0.250000     0.250000
   44    -1.000000   180.000000     0.000000     1.000000     0.000000     0.250000     0.250000     0.250000
   45    -1.000000   120.000000     0.577350     0.577350    -0.577350     0.250000     0.250000     0.250000
   46     1.000000   180.000000     0.000000    -0.707107     0.707107     0.250000     0.250000     0.250000
   47     1.000000   180.000000     0.707107    -0.707107     0.000000     0.250000     0.250000     0.250000
   48     1.000000   180.000000     0.707107     0.000000    -0.707107     0.250000     0.250000     0.250000
 
 Subroutine IBZKPT returns following result:
 ===========================================
 
 Found      4 irreducible k-points:
 
 Following reciprocal coordinates:
            Coordinates               Weight
  0.000000  0.000000  0.000000      1.000000
  0.333333  0.000000  0.000000      8.000000
  0.333333  0.333333  0.000000      6.000000
 -0.333333  0.333333  0.000000     12.000000
 
 Following cartesian coordinates:
            Coordinates               Weight
  0.000000  0.000000  0.000000      1.000000
 -0.060676  0.060676  0.060676      8.000000
  0.000000  0.000000  0.121352      6.000000
  0.121352 -0.121352  0.000000     12.000000
 


--------------------------------------------------------------------------------------------------------




 Dimension of arrays:
   k-points           NKPTS =        4   k-points in BZ     NKDIM =        4   number of bands    NBANDS=     16
   number of dos      NEDOS =    301   number of ions     NIONS =      2
   non local maximal  LDIM  =      4   non local SUM 2l+1 LMDIM =      8
   total plane-waves  NPLWV =  21952
   max r-space proj   IRMAX =      1   max aug-charges    IRDMAX=  17905
   dimension x,y,z NGX =    28 NGY =   28 NGZ =   28
   dimension x,y,z NGXF=    56 NGYF=   56 NGZF=   56
   support grid    NGXF=    56 NGYF=   56 NGZF=   56
   ions per type =               2
 NGX,Y,Z   is equivalent  to a cutoff of  11.98, 11.98, 11.98 a.u.
 NGXF,Y,Z  is equivalent  to a cutoff of  23.97, 23.97, 23.97 a.u.


 I would recommend the setting:
   dimension x,y,z NGX =    28 NGY =   28 NGZ =   28
 SYSTEM =  unknown system                          
 POSCAR =  bulk@JVASP-1002                         

 Startparameter for this run:
   NWRITE =      2    write-flag & timer
   PREC   = accura    normal or accurate (medium, high low for compatibility)
   ISTART =      0    job   : 0-new  1-cont  2-samecut
   ICHARG =      2    charge: 1-file 2-atom 10-const
   ISPIN  =      1    spin polarized calculation?
   LNONCOLLINEAR =      F non collinear calculations
   LSORBIT =      F    spin-orbit coupling
   INIWAV =      1    electr: 0-lowe 1-rand  2-diag
   LASPH  =      F    aspherical Exc in radial PAW
   METAGGA=      F    non-selfconsistent MetaGGA calc.

 Electronic Relaxation 1
   ENCUT  =  500.0 eV  36.75 Ry    6.06 a.u.   7.08  7.08  7.08*2*pi/ulx,y,z
   ENINI  =  500.0     initial cutoff
   ENAUG  =  322.1 eV  augmentation charge cutoff
   NELM   =    400;   NELMIN=  2; NELMDL= -5     # of ELM steps 
   EDIFF  = 0.1E-06   stopping-criterion for ELM
   LREAL  =      F    real-space projection
   NLSPLINE    = F    spline interpolate recip. space projectors
   LCOMPAT=      F    compatible to vasp.4.4
   GGA_COMPAT  = T    GGA compatible to vasp.4.4-vasp.4.6
   LMAXPAW     = -100 max onsite density
   LMAXMIX     =    2 max onsite mixed and CHGCAR
   VOSKOWN=      0    Vosko Wilk Nusair interpolation
   ROPT   =    0.00000
 Ionic relaxation
   EDIFFG = 0.1E-05   stopping-criterion for IOM
   NSW    =      1    number of steps for IOM
   NBLOCK =      1;   KBLOCK =      1    inner block; outer block 
   IBRION =      2    ionic relax: 0-MD 1-quasi-New 2-CG
   NFREE  =      1    steps in history (QN), initial steepest desc. (CG)
   ISIF   =      2    stress and relaxation
   IWAVPR =     11    prediction:  0-non 1-charg 2-wave 3-comb
   ISYM   =      2    0-nonsym 1-usesym 2-fastsym
   LCORR  =      T    Harris-Foulkes like correction to forces

   POTIM  = 0.5000    time-step for ionic-motion
   TEIN   =    0.0    initial temperature
   TEBEG  =    0.0;   TEEND  =   0.0 temperature during run
   SMASS  =  -3.00    Nose mass-parameter (am)
   estimated Nose-frequenzy (Omega)   =  0.10E-29 period in steps =****** mass=  -0.345E-27a.u.
   SCALEE = 1.0000    scale energy and forces
   NPACO  =    256;   APACO  = 16.0  distance and # of slots for P.C.
   PSTRESS=    0.0 pullay stress

  Mass of Ions in am
   POMASS =  28.09
  Ionic Valenz
   ZVAL   =   4.00
  Atomic Wigner-Seitz radii
   RWIGS  =  -1.00
  virtual crystal weights 
   VCA    =   1.00
   NELECT =       8.0000    total number of electrons
   NUPDOWN=      -1.0000    fix difference up-down

 DOS related values:
   EMIN   =  10.00;   EMAX   =-10.00  energy-range for DOS
   EFERMI =   0.00
   ISMEAR =     0;   SIGMA  =   0.20  broadening in eV -4-tet -1-fermi 0-gaus

 Electronic relaxation 2 (details)
   IALGO  =     38    algorithm
   LDIAG  =      T    sub-space diagonalisation (order eigenvalues)
   LSUBROT=      F    optimize rotation matrix (better conditioning)
   TURBO    =      0    0=normal 1=particle mesh
   IRESTART =      0    0=no restart 2=restart with 2 vectors
   NREBOOT  =      0    no. of reboots
   NMIN     =      0    reboot dimension
   EREF     =   0.00    reference energy to select bands
   IMIX   =      4    mixing-type and parameters
     AMIX     =   0.40;   BMIX     =  1.00
     AMIX_MAG =   1.60;   BMIX_MAG =  1.00
     AMIN     =   0.10
     WC   =   100.;   INIMIX=   1;  MIXPRE=   1;  MAXMIX= -45

 Intra band minimization:
   WEIMIN = 0.0010     energy-eigenvalue tresh-hold
   EBREAK =  0.16E-08  absolut break condition
   DEPER  =   0.30     relativ break condition  

   TIME   =   0.40     timestep for ELM

  volume/ion in A,a.u.               =      20.72       139.86
  Fermi-wavevector in a.u.,A,eV,Ry     =   0.946087  1.787845 12.178313  0.895081
  Thomas-Fermi vector in A             =   2.074051

 Write flags
   LWAVE  =      F    write WAVECAR
   LCHARG =      F    write CHGCAR
   LVTOT  =      F    write LOCPOT, total local potential
   LVHAR  =      F    write LOCPOT, Hartree potential only
   LELF   =      F    write electronic localiz. function (ELF)
   LORBIT =      0    0 simple, 1 ext, 2 COOP (PROOUT)


 Dipole corrections
   LMONO  =      F    monopole corrections only (constant potential shift)
   LDIPOL =      F    correct potential (dipole corrections)
   IDIPOL =      0    1-x, 2-y, 3-z, 4-all directions 
   EPSILON=  1.0000000 bulk dielectric constant

 Exchange correlation treatment:
   GGA     =    BO    GGA type
   LEXCH   =    42    internal setting for exchange type
   VOSKOWN=      0    Vosko Wilk Nusair interpolation
   LHFCALC =     F    Hartree Fock is set to
   LHFONE  =     F    Hartree Fock one center treatment
   AEXX    =    0.0000 exact exchange contribution

 vdW DFT:
   LUSE_VDW   =     T    switch on vdW DFT
   Zab_VDW    =-.8491    correlation parameter
   PARAM1     =0.1833
   PARAM2     =0.2200
   PARAM3     =0.0000

 Linear response parameters
   LEPSILON=     F    determine dielectric tensor
   LRPA    =     F    only Hartree local field effects (RPA)
   LNABLA  =     F    use nabla operator in PAW spheres
   LVEL    =     F    velocity operator in full k-point grid
   LINTERFAST=   F  fast interpolation
   KINTER  =     0    interpolate to denser k-point grid
   CSHIFT  =0.1000    complex shift for real part using Kramers Kronig
   OMEGAMAX=  -1.0    maximum frequency
   DEG_THRESHOLD= 0.2000000E-02 threshold for treating states as degnerate
   RTIME   =    0.100 relaxation time in fs

 Orbital magnetization related:
   ORBITALMAG=     F  switch on orbital magnetization
   LCHIMAG   =     F  perturbation theory with respect to B field
   DQ        =  0.001000  dq finite difference perturbation B field



--------------------------------------------------------------------------------------------------------


 conjugate gradient relaxation of ions
 charge density and potential will be updated during run
 non-spin polarized calculation
 Variant of blocked Davidson
 Davidson routine will perform the subspace rotation
 perform sub-space diagonalisation
    after iterative eigenvector-optimisation
 modified Broyden-mixing scheme, WC =      100.0
 initial mixing is a Kerker type mixing with AMIX =  0.4000 and BMIX =      1.0000
 Hartree-type preconditioning will be used
 using additional bands           12
 reciprocal scheme for non local part
 use partial core corrections
 calculate Harris-corrections to forces   (improved forces if not selfconsistent)
 use gradient corrections 
 use of overlap-Matrix (Vanderbilt PP)
 Gauss-broadening in eV      SIGMA  =   0.20


--------------------------------------------------------------------------------------------------------


  energy-cutoff  :      500.00
  volume of cell :       41.45
      direct lattice vectors                 reciprocal lattice vectors
     0.000000000  2.746821138  2.746821138    -0.182028598  0.182028598  0.182028598
     2.746821138  0.000000000  2.746821138     0.182028598 -0.182028598  0.182028598
     2.746821138  2.746821138  0.000000000     0.182028598  0.182028598 -0.182028598

  length of vectors
     3.884591706  3.884591706  3.884591706     0.315282780  0.315282780  0.315282780



 k-points in units of 2pi/SCALE and weight: Automatic kpoint scheme                 
   0.00000000  0.00000000  0.00000000       0.037
  -0.06067620  0.06067620  0.06067620       0.296
   0.00000000  0.00000000  0.12135240       0.222
   0.12135240 -0.12135240  0.00000000       0.444

 k-points in reciprocal lattice and weights: Automatic kpoint scheme                 
   0.00000000  0.00000000  0.00000000       0.037
   0.33333333  0.00000000  0.00000000       0.296
   0.33333333  0.33333333  0.00000000       0.222
  -0.33333333  0.33333333  0.00000000       0.444

 position of ions in fractional coordinates (direct lattice) 
   0.75000000  0.75000000  0.75000000
   0.50000000  0.50000000  0.50000000

 position of ions in cartesian coordinates  (Angst):
   4.12023171  4.12023171  4.12023171
   2.74682114  2.74682114  2.74682114



--------------------------------------------------------------------------------------------------------


 k-point  1 :   0.0000 0.0000 0.0000  plane waves:    1067
 k-point  2 :   0.3333 0.0000 0.0000  plane waves:    1059
 k-point  3 :   0.3333 0.3333 0.0000  plane waves:    1030
 k-point  4 :  -0.3333 0.3333 0.0000  plane waves:    1063

 maximum and minimum number of plane-waves per node :      1067     1030

 maximum number of plane-waves:      1067
 maximum index in each direction: 
   IXMAX=    7   IYMAX=    7   IZMAX=    7
   IXMIN=   -7   IYMIN=   -7   IZMIN=   -7

 WARNING: aliasing errors must be expected set NGX to  30 to avoid them
 WARNING: aliasing errors must be expected set NGY to  30 to avoid them
 WARNING: aliasing errors must be expected set NGZ to  30 to avoid them
 aliasing errors are usually negligible using standard VASP settings
 and one can safely disregard these warnings

 serial   3D FFT for wavefunctions
 parallel 3D FFT for charge:
    minimum data exchange during FFTs selected (reduces bandwidth)


 total amount of memory used by VASP on root node    32407. kBytes
========================================================================

   base      :      30000. kBytes
   nonl-proj :        308. kBytes
   fftplans  :        517. kBytes
   grid      :       1507. kBytes
   one-center:          6. kBytes
   wavefun   :         69. kBytes

     INWAV:  cpu time    0.0000: real time    0.0000
 Broyden mixing: mesh for mixing (old mesh)
   NGX = 15   NGY = 15   NGZ = 15
  (NGX  = 56   NGY  = 56   NGZ  = 56)
  gives a total of   3375 points

 initial charge density was supplied:
 charge density of overlapping atoms calculated
 number of electron       8.0000000 magnetization 
 keeping initial charge density in first step


--------------------------------------------------------------------------------------------------------


 Maximum index for augmentation-charges         1417 (set IRDMAX)


--------------------------------------------------------------------------------------------------------


 First call to EWALD:  gamma=   0.512
 Maximum number of real-space cells 3x 3x 3
 Maximum number of reciprocal cells 3x 3x 3

 FEWALD executed in parallel
    FEWALD:  cpu time    0.0000: real time    0.0009


----------------------------------------- Iteration    1(   1)  ---------------------------------------


vdW kernel read from vdw_kernel.bindat
  0.0000  0.2424  0.5071  0.7962  1.1119  1.4567  1.8333  2.2446  2.6937  3.1842
  3.7199  4.3049  4.9438  5.6415  6.4036  7.2358  8.1446  9.1372 10.2212 11.4050
 12.6979 14.1099 15.6519 17.3360 19.1751 21.1837 23.3773 25.7729 28.3892 31.2465
 34.3669 37.7748 41.4965 45.5611 50.0000

    POTLOK:  cpu time    2.0920: real time    2.0941
    SETDIJ:  cpu time    0.0040: real time    0.0028
     EDDAV:  cpu time    0.0520: real time    0.0527
       DOS:  cpu time    0.0000: real time    0.0003
    --------------------------------------------
      LOOP:  cpu time    2.1520: real time    2.1519

 eigenvalue-minimisations  :   128
 total energy-change (2. order) : 0.4008929E+01  (-0.3304497E+03)
 number of electron       8.0000000 magnetization 
 augmentation part        8.0000000 magnetization 

 Free energy of the ion-electron system (eV)
  ---------------------------------------------------
  alpha Z        PSCENC =         3.24857844
  Ewald energy   TEWEN  =      -225.91568183
  -Hartree energ DENC   =       -11.53197166
  -exchange      EXHF   =         0.00000000
  -V(xc)+E(xc)   XCENC  =       -20.29573795
  PAW double counting   =       189.40224250     -152.61488262
  entropy T*S    EENTRO =        -0.03841412
  eigenvalues    EBANDS =        13.16105836
  atomic energy  EATOM  =       208.59373829
  Solvation  Ediel_sol  =         0.00000000
  ---------------------------------------------------
  free energy    TOTEN  =         4.00892941 eV

  energy without entropy =        4.04734353  energy(sigma->0) =        4.02813647


--------------------------------------------------------------------------------------------------------




----------------------------------------- Iteration    1(   2)  ---------------------------------------


     EDDAV:  cpu time    0.0800: real time    0.0804
       DOS:  cpu time    0.0040: real time    0.0003
    --------------------------------------------
      LOOP:  cpu time    0.0840: real time    0.2924

 eigenvalue-minimisations  :   176
 total energy-change (2. order) :-0.1178770E+02  (-0.1103910E+02)
 number of electron       8.0000000 magnetization 
 augmentation part        8.0000000 magnetization 

 Free energy of the ion-electron system (eV)
  ---------------------------------------------------
  alpha Z        PSCENC =         3.24857844
  Ewald energy   TEWEN  =      -225.91568183
  -Hartree energ DENC   =       -11.53197166
  -exchange      EXHF   =         0.00000000
  -V(xc)+E(xc)   XCENC  =       -20.29573795
  PAW double counting   =       189.40224250     -152.61488262
  entropy T*S    EENTRO =        -0.00002185
  eigenvalues    EBANDS =         1.33497081
  atomic energy  EATOM  =       208.59373829
  Solvation  Ediel_sol  =         0.00000000
  ---------------------------------------------------
  free energy    TOTEN  =        -7.77876588 eV

  energy without entropy =       -7.77874403  energy(sigma->0) =       -7.77875496


--------------------------------------------------------------------------------------------------------




----------------------------------------- Iteration    1(   3)  ---------------------------------------


     EDDAV:  cpu time    0.0680: real time    0.0704
       DOS:  cpu time    0.0000: real time    0.0003
    --------------------------------------------
      LOOP:  cpu time    0.0680: real time    0.0773

 eigenvalue-minimisations  :   160
 total energy-change (2. order) :-0.9433403E-01  (-0.9433396E-01)
 number of electron       8.0000000 magnetization 
 augmentation part        8.0000000 magnetization 

 Free energy of the ion-electron system (eV)
  ---------------------------------------------------
  alpha Z        PSCENC =         3.24857844
  Ewald energy   TEWEN  =      -225.91568183
  -Hartree energ DENC   =       -11.53197166
  -exchange      EXHF   =         0.00000000
  -V(xc)+E(xc)   XCENC  =       -20.29573795
  PAW double counting   =       189.40224250     -152.61488262
  entropy T*S    EENTRO =        -0.00001831
  eigenvalues    EBANDS =         1.24063323
  atomic energy  EATOM  =       208.59373829
  Solvation  Ediel_sol  =         0.00000000
  ---------------------------------------------------
  free energy    TOTEN  =        -7.87309991 eV

  energy without entropy =       -7.87308161  energy(sigma->0) =       -7.87309076


--------------------------------------------------------------------------------------------------------




----------------------------------------- Iteration    1(   4)  ---------------------------------------


     EDDAV:  cpu time    0.1080: real time    0.1068
       DOS:  cpu time    0.0000: real time    0.0003
    --------------------------------------------
      LOOP:  cpu time    0.1080: real time    0.1175

 eigenvalue-minimisations  :   208
 total energy-change (2. order) :-0.2437840E-03  (-0.2437837E-03)
 number of electron       8.0000000 magnetization 
 augmentation part        8.0000000 magnetization 

 Free energy of the ion-electron system (eV)
  ---------------------------------------------------
  alpha Z        PSCENC =         3.24857844
  Ewald energy   TEWEN  =      -225.91568183
  -Hartree energ DENC   =       -11.53197166
  -exchange      EXHF   =         0.00000000
  -V(xc)+E(xc)   XCENC  =       -20.29573795
  PAW double counting   =       189.40224250     -152.61488262
  entropy T*S    EENTRO =        -0.00001831
  eigenvalues    EBANDS =         1.24038945
  atomic energy  EATOM  =       208.59373829
  Solvation  Ediel_sol  =         0.00000000
  ---------------------------------------------------
  free energy    TOTEN  =        -7.87334370 eV

  energy without entropy =       -7.87332539  energy(sigma->0) =       -7.87333454


--------------------------------------------------------------------------------------------------------




----------------------------------------- Iteration    1(   5)  ---------------------------------------


     EDDAV:  cpu time    0.0760: real time    0.0748
       DOS:  cpu time    0.0000: real time    0.0003
    CHARGE:  cpu time    0.0200: real time    0.0208
    MIXING:  cpu time    0.0000: real time    0.0004
    --------------------------------------------
      LOOP:  cpu time    0.0960: real time    0.1099

 eigenvalue-minimisations  :   160
 total energy-change (2. order) :-0.4483229E-07  (-0.4498193E-07)
 number of electron       7.9999999 magnetization 
 augmentation part       -0.4719991 magnetization 

 Broyden mixing:
  rms(total) = 0.39338E+00    rms(broyden)= 0.39338E+00
  rms(prec ) = 0.99140E+00
  weight for this iteration     100.00

 Free energy of the ion-electron system (eV)
  ---------------------------------------------------
  alpha Z        PSCENC =         3.24857844
  Ewald energy   TEWEN  =      -225.91568183
  -Hartree energ DENC   =       -11.53197166
  -exchange      EXHF   =         0.00000000
  -V(xc)+E(xc)   XCENC  =       -20.29573795
  PAW double counting   =       189.40224250     -152.61488262
  entropy T*S    EENTRO =        -0.00001831
  eigenvalues    EBANDS =         1.24038940
  atomic energy  EATOM  =       208.59373829
  Solvation  Ediel_sol  =         0.00000000
  ---------------------------------------------------
  free energy    TOTEN  =        -7.87334374 eV

  energy without entropy =       -7.87332544  energy(sigma->0) =       -7.87333459


--------------------------------------------------------------------------------------------------------




----------------------------------------- Iteration    1(   6)  ---------------------------------------


    POTLOK:  cpu time    1.5720: real time    1.5718
    SETDIJ:  cpu time    0.0040: real time    0.0027
     EDDAV:  cpu time    0.0800: real time    0.0779
       DOS:  cpu time    0.0000: real time    0.0003
    CHARGE:  cpu time    0.0160: real time    0.0154
    MIXING:  cpu time    0.0000: real time    0.0005
    --------------------------------------------
      LOOP:  cpu time    1.6720: real time    1.6736

 eigenvalue-minimisations  :   208
 total energy-change (2. order) : 0.8091580E-01  (-0.1078821E-01)
 number of electron       7.9999999 magnetization 
 augmentation part       -0.4639499 magnetization 

 Broyden mixing:
  rms(total) = 0.24191E+00    rms(broyden)= 0.24191E+00
  rms(prec ) = 0.60091E+00
  weight for this iteration     100.00

 eigenvalues of (default mixing * dielectric matrix)
  average eigenvalue GAMMA=   2.5776
  2.5776

 Free energy of the ion-electron system (eV)
  ---------------------------------------------------
  alpha Z        PSCENC =         3.24857844
  Ewald energy   TEWEN  =      -225.91568183
  -Hartree energ DENC   =       -13.30845847
  -exchange      EXHF   =         0.00000000
  -V(xc)+E(xc)   XCENC  =       -20.03010919
  PAW double counting   =       306.61108860     -269.96265565
  entropy T*S    EENTRO =        -0.00009704
  eigenvalues    EBANDS =         2.97116890
  atomic energy  EATOM  =       208.59373829
  Solvation  Ediel_sol  =         0.00000000
  ---------------------------------------------------
  free energy    TOTEN  =        -7.79242794 eV

  energy without entropy =       -7.79233091  energy(sigma->0) =       -7.79237943


--------------------------------------------------------------------------------------------------------




----------------------------------------- Iteration    1(   7)  ---------------------------------------


    POTLOK:  cpu time    1.6200: real time    1.6207
    SETDIJ:  cpu time    0.0040: real time    0.0027
     EDDAV:  cpu time    0.0640: real time    0.0635
       DOS:  cpu time    0.0000: real time    0.0003
    CHARGE:  cpu time    0.0160: real time    0.0154
    MIXING:  cpu time    0.0000: real time    0.0005
    --------------------------------------------
      LOOP:  cpu time    1.7040: real time    1.7137

 eigenvalue-minimisations  :   176
 total energy-change (2. order) : 0.2197691E-01  (-0.2564930E-01)
 number of electron       7.9999999 magnetization 
 augmentation part       -0.4530001 magnetization 

 Broyden mixing:
  rms(total) = 0.21018E-01    rms(broyden)= 0.21018E-01
  rms(prec ) = 0.54000E-01
  weight for this iteration     100.00

 eigenvalues of (default mixing * dielectric matrix)
  average eigenvalue GAMMA=   2.1932
  2.1932  2.1932

 Free energy of the ion-electron system (eV)
  ---------------------------------------------------
  alpha Z        PSCENC =         3.24857844
  Ewald energy   TEWEN  =      -225.91568183
  -Hartree energ DENC   =       -16.39639708
  -exchange      EXHF   =         0.00000000
  -V(xc)+E(xc)   XCENC  =       -19.54071225
  PAW double counting   =       554.22054194     -517.75257810
  entropy T*S    EENTRO =        -0.00090827
  eigenvalues    EBANDS =         5.77296785
  atomic energy  EATOM  =       208.59373829
  Solvation  Ediel_sol  =         0.00000000
  ---------------------------------------------------
  free energy    TOTEN  =        -7.77045103 eV

  energy without entropy =       -7.76954276  energy(sigma->0) =       -7.76999690


--------------------------------------------------------------------------------------------------------




----------------------------------------- Iteration    1(   8)  ---------------------------------------


    POTLOK:  cpu time    1.6080: real time    1.6096
    SETDIJ:  cpu time    0.0040: real time    0.0021
     EDDAV:  cpu time    0.0440: real time    0.0445
       DOS:  cpu time    0.0000: real time    0.0003
    CHARGE:  cpu time    0.0120: real time    0.0137
    MIXING:  cpu time    0.0040: real time    0.0005
    --------------------------------------------
      LOOP:  cpu time    1.6720: real time    1.7487

 eigenvalue-minimisations  :   128
 total energy-change (2. order) : 0.1787836E-01  (-0.5945387E-03)
 number of electron       7.9999999 magnetization 
 augmentation part       -0.4545145 magnetization 

 Broyden mixing:
  rms(total) = 0.11273E-01    rms(broyden)= 0.11273E-01
  rms(prec ) = 0.27599E-01
  weight for this iteration     100.00

 eigenvalues of (default mixing * dielectric matrix)
  average eigenvalue GAMMA=   2.1630
  3.1102  1.6894  1.6894

 Free energy of the ion-electron system (eV)
  ---------------------------------------------------
  alpha Z        PSCENC =         3.24857844
  Ewald energy   TEWEN  =      -225.91568183
  -Hartree energ DENC   =       -16.13704997
  -exchange      EXHF   =         0.00000000
  -V(xc)+E(xc)   XCENC  =       -19.55989002
  PAW double counting   =       531.66147057     -495.12221289
  entropy T*S    EENTRO =        -0.00061928
  eigenvalues    EBANDS =         5.47909404
  atomic energy  EATOM  =       208.59373829
  Solvation  Ediel_sol  =         0.00000000
  ---------------------------------------------------
  free energy    TOTEN  =        -7.75257267 eV

  energy without entropy =       -7.75195339  energy(sigma->0) =       -7.75226303


--------------------------------------------------------------------------------------------------------




----------------------------------------- Iteration    1(   9)  ---------------------------------------


    POTLOK:  cpu time    1.6280: real time    1.6305
    SETDIJ:  cpu time    0.0040: real time    0.0027
     EDDAV:  cpu time    0.0600: real time    0.0599
       DOS:  cpu time    0.0000: real time    0.0003
    CHARGE:  cpu time    0.0160: real time    0.0155
    MIXING:  cpu time    0.0000: real time    0.0005
    --------------------------------------------
      LOOP:  cpu time    1.7080: real time    1.7536

 eigenvalue-minimisations  :   160
 total energy-change (2. order) :-0.5669658E-03  (-0.7443244E-04)
 number of electron       7.9999999 magnetization 
 augmentation part       -0.4541243 magnetization 

 Broyden mixing:
  rms(total) = 0.56258E-02    rms(broyden)= 0.56258E-02
  rms(prec ) = 0.77429E-02
  weight for this iteration     100.00

 eigenvalues of (default mixing * dielectric matrix)
  average eigenvalue GAMMA=   2.1740
  0.9372  2.9899  2.3845  2.3845

 Free energy of the ion-electron system (eV)
  ---------------------------------------------------
  alpha Z        PSCENC =         3.24857844
  Ewald energy   TEWEN  =      -225.91568183
  -Hartree energ DENC   =       -16.31340000
  -exchange      EXHF   =         0.00000000
  -V(xc)+E(xc)   XCENC  =       -19.52960361
  PAW double counting   =       542.83730861     -506.30349963
  entropy T*S    EENTRO =        -0.00067565
  eigenvalues    EBANDS =         5.63009576
  atomic energy  EATOM  =       208.59373829
  Solvation  Ediel_sol  =         0.00000000
  ---------------------------------------------------
  free energy    TOTEN  =        -7.75313964 eV

  energy without entropy =       -7.75246399  energy(sigma->0) =       -7.75280181


--------------------------------------------------------------------------------------------------------




----------------------------------------- Iteration    1(  10)  ---------------------------------------


    POTLOK:  cpu time    1.6080: real time    1.6063
    SETDIJ:  cpu time    0.0040: real time    0.0027
     EDDAV:  cpu time    0.0880: real time    0.0896
       DOS:  cpu time    0.0000: real time    0.0003
    CHARGE:  cpu time    0.0160: real time    0.0156
    MIXING:  cpu time    0.0000: real time    0.0006
    --------------------------------------------
      LOOP:  cpu time    1.7160: real time    1.9463

 eigenvalue-minimisations  :   208
 total energy-change (2. order) :-0.2458317E-03  (-0.2472181E-05)
 number of electron       7.9999999 magnetization 
 augmentation part       -0.4541625 magnetization 

 Broyden mixing:
  rms(total) = 0.41418E-03    rms(broyden)= 0.41418E-03
  rms(prec ) = 0.96486E-03
  weight for this iteration     100.00

 eigenvalues of (default mixing * dielectric matrix)
  average eigenvalue GAMMA=   1.9073
  2.9251  2.5402  2.2727  0.9735  0.8250

 Free energy of the ion-electron system (eV)
  ---------------------------------------------------
  alpha Z        PSCENC =         3.24857844
  Ewald energy   TEWEN  =      -225.91568183
  -Hartree energ DENC   =       -16.29104217
  -exchange      EXHF   =         0.00000000
  -V(xc)+E(xc)   XCENC  =       -19.53412013
  PAW double counting   =       535.07417889     -498.54048559
  entropy T*S    EENTRO =        -0.00066340
  eigenvalues    EBANDS =         5.61211204
  atomic energy  EATOM  =       208.59373829
  Solvation  Ediel_sol  =         0.00000000
  ---------------------------------------------------
  free energy    TOTEN  =        -7.75338547 eV

  energy without entropy =       -7.75272206  energy(sigma->0) =       -7.75305377


--------------------------------------------------------------------------------------------------------




----------------------------------------- Iteration    1(  11)  ---------------------------------------


    POTLOK:  cpu time    1.6200: real time    1.6167
    SETDIJ:  cpu time    0.0000: real time    0.0026
     EDDAV:  cpu time    0.1280: real time    0.1267
       DOS:  cpu time    0.0000: real time    0.0003
    CHARGE:  cpu time    0.0160: real time    0.0160
    MIXING:  cpu time    0.0000: real time    0.0006
    --------------------------------------------
      LOOP:  cpu time    1.7640: real time    1.7855

 eigenvalue-minimisations  :   224
 total energy-change (2. order) : 0.2621921E-03  (-0.1252510E-06)
 number of electron       7.9999999 magnetization 
 augmentation part       -0.4541911 magnetization 

 Broyden mixing:
  rms(total) = 0.12470E-03    rms(broyden)= 0.12470E-03
  rms(prec ) = 0.16619E-03
  weight for this iteration     100.00

 eigenvalues of (default mixing * dielectric matrix)
  average eigenvalue GAMMA=   1.9742
  2.9602  2.5707  2.2329  2.1346  1.0001  0.9464

 Free energy of the ion-electron system (eV)
  ---------------------------------------------------
  alpha Z        PSCENC =         3.24857844
  Ewald energy   TEWEN  =      -225.91568183
  -Hartree energ DENC   =       -16.28732181
  -exchange      EXHF   =         0.00000000
  -V(xc)+E(xc)   XCENC  =       -19.53440937
  PAW double counting   =       535.00230728     -498.46762640
  entropy T*S    EENTRO =        -0.00065979
  eigenvalues    EBANDS =         5.60795192
  atomic energy  EATOM  =       208.59373829
  Solvation  Ediel_sol  =         0.00000000
  ---------------------------------------------------
  free energy    TOTEN  =        -7.75312328 eV

  energy without entropy =       -7.75246348  energy(sigma->0) =       -7.75279338


--------------------------------------------------------------------------------------------------------




----------------------------------------- Iteration    1(  12)  ---------------------------------------


    POTLOK:  cpu time    1.6320: real time    1.6323
    SETDIJ:  cpu time    0.0040: real time    0.0027
     EDDAV:  cpu time    0.0600: real time    0.0603
       DOS:  cpu time    0.0000: real time    0.0003
    CHARGE:  cpu time    0.0160: real time    0.0157
    MIXING:  cpu time    0.0000: real time    0.0006
    --------------------------------------------
      LOOP:  cpu time    1.7120: real time    1.7646

 eigenvalue-minimisations  :   160
 total energy-change (2. order) : 0.7063027E-05  (-0.4571247E-08)
 number of electron       7.9999999 magnetization 
 augmentation part       -0.4541903 magnetization 

 Broyden mixing:
  rms(total) = 0.35212E-04    rms(broyden)= 0.35212E-04
  rms(prec ) = 0.69739E-04
  weight for this iteration     100.00

 eigenvalues of (default mixing * dielectric matrix)
  average eigenvalue GAMMA=   1.9559
  2.9177  2.7010  2.7010  2.2482  0.9845  0.9845  1.1547

 Free energy of the ion-electron system (eV)
  ---------------------------------------------------
  alpha Z        PSCENC =         3.24857844
  Ewald energy   TEWEN  =      -225.91568183
  -Hartree energ DENC   =       -16.28777044
  -exchange      EXHF   =         0.00000000
  -V(xc)+E(xc)   XCENC  =       -19.53436928
  PAW double counting   =       535.17806836     -498.64337270
  entropy T*S    EENTRO =        -0.00065971
  eigenvalues    EBANDS =         5.60835267
  atomic energy  EATOM  =       208.59373829
  Solvation  Ediel_sol  =         0.00000000
  ---------------------------------------------------
  free energy    TOTEN  =        -7.75311621 eV

  energy without entropy =       -7.75245651  energy(sigma->0) =       -7.75278636


--------------------------------------------------------------------------------------------------------




----------------------------------------- Iteration    1(  13)  ---------------------------------------


    POTLOK:  cpu time    1.6080: real time    1.6049
    SETDIJ:  cpu time    0.0000: real time    0.0026
     EDDAV:  cpu time    0.0920: real time    0.0888
       DOS:  cpu time    0.0000: real time    0.0003
    CHARGE:  cpu time    0.0160: real time    0.0159
    MIXING:  cpu time    0.0000: real time    0.0006
    --------------------------------------------
      LOOP:  cpu time    1.7160: real time    1.7666

 eigenvalue-minimisations  :   160
 total energy-change (2. order) : 0.1407870E-04  (-0.5178065E-09)
 number of electron       7.9999999 magnetization 
 augmentation part       -0.4541916 magnetization 

 Broyden mixing:
  rms(total) = 0.20098E-04    rms(broyden)= 0.20098E-04
  rms(prec ) = 0.21710E-04
  weight for this iteration     100.00

 eigenvalues of (default mixing * dielectric matrix)
  average eigenvalue GAMMA=   1.9506
  3.0558  2.7459  2.5071  2.2282  2.1249  0.9938  0.9938  0.9550

 Free energy of the ion-electron system (eV)
  ---------------------------------------------------
  alpha Z        PSCENC =         3.24857844
  Ewald energy   TEWEN  =      -225.91568183
  -Hartree energ DENC   =       -16.28744736
  -exchange      EXHF   =         0.00000000
  -V(xc)+E(xc)   XCENC  =       -19.53441998
  PAW double counting   =       535.21969667     -498.68494792
  entropy T*S    EENTRO =        -0.00065947
  eigenvalues    EBANDS =         5.60804104
  atomic energy  EATOM  =       208.59373829
  Solvation  Ediel_sol  =         0.00000000
  ---------------------------------------------------
  free energy    TOTEN  =        -7.75310214 eV

  energy without entropy =       -7.75244267  energy(sigma->0) =       -7.75277240


--------------------------------------------------------------------------------------------------------




----------------------------------------- Iteration    1(  14)  ---------------------------------------


    POTLOK:  cpu time    1.6320: real time    1.6330
    SETDIJ:  cpu time    0.0040: real time    0.0027
     EDDAV:  cpu time    0.0480: real time    0.0497
       DOS:  cpu time    0.0040: real time    0.0003
    CHARGE:  cpu time    0.0120: real time    0.0150
    MIXING:  cpu time    0.0000: real time    0.0006
    --------------------------------------------
      LOOP:  cpu time    1.7000: real time    1.7708

 eigenvalue-minimisations  :   128
 total energy-change (2. order) :-0.3792776E-05  (-0.3124224E-10)
 number of electron       7.9999999 magnetization 
 augmentation part       -0.4541914 magnetization 

 Broyden mixing:
  rms(total) = 0.41421E-05    rms(broyden)= 0.41421E-05
  rms(prec ) = 0.44220E-05
  weight for this iteration     100.00

 eigenvalues of (default mixing * dielectric matrix)
  average eigenvalue GAMMA=   1.8625
  3.0235  2.8022  2.4921  2.4921  2.2213  1.0139  0.9855  0.9401  0.7917

 Free energy of the ion-electron system (eV)
  ---------------------------------------------------
  alpha Z        PSCENC =         3.24857844
  Ewald energy   TEWEN  =      -225.91568183
  -Hartree energ DENC   =       -16.28748741
  -exchange      EXHF   =         0.00000000
  -V(xc)+E(xc)   XCENC  =       -19.53441817
  PAW double counting   =       535.18880551     -498.65406987
  entropy T*S    EENTRO =        -0.00065949
  eigenvalues    EBANDS =         5.60808861
  atomic energy  EATOM  =       208.59373829
  Solvation  Ediel_sol  =         0.00000000
  ---------------------------------------------------
  free energy    TOTEN  =        -7.75310593 eV

  energy without entropy =       -7.75244644  energy(sigma->0) =       -7.75277618


--------------------------------------------------------------------------------------------------------




----------------------------------------- Iteration    1(  15)  ---------------------------------------


    POTLOK:  cpu time    1.5960: real time    1.5986
    SETDIJ:  cpu time    0.0040: real time    0.0027
     EDDAV:  cpu time    0.0440: real time    0.0458
       DOS:  cpu time    0.0040: real time    0.0003
    CHARGE:  cpu time    0.0120: real time    0.0156
    MIXING:  cpu time    0.0040: real time    0.0007
    --------------------------------------------
      LOOP:  cpu time    1.6680: real time    1.6711

 eigenvalue-minimisations  :   112
 total energy-change (2. order) :-0.1405930E-06  (-0.1797428E-11)
 number of electron       7.9999999 magnetization 
 augmentation part       -0.4541914 magnetization 

 Broyden mixing:
  rms(total) = 0.94735E-06    rms(broyden)= 0.94735E-06
  rms(prec ) = 0.10570E-05
  weight for this iteration     100.00

 eigenvalues of (default mixing * dielectric matrix)
  average eigenvalue GAMMA=   1.8566
  3.0350  2.7861  2.6985  2.4247  2.2358  1.3953  0.9495  0.9945  0.9945  1.0517

 Free energy of the ion-electron system (eV)
  ---------------------------------------------------
  alpha Z        PSCENC =         3.24857844
  Ewald energy   TEWEN  =      -225.91568183
  -Hartree energ DENC   =       -16.28748558
  -exchange      EXHF   =         0.00000000
  -V(xc)+E(xc)   XCENC  =       -19.53441870
  PAW double counting   =       535.18684410     -498.65210916
  entropy T*S    EENTRO =        -0.00065949
  eigenvalues    EBANDS =         5.60808787
  atomic energy  EATOM  =       208.59373829
  Solvation  Ediel_sol  =         0.00000000
  ---------------------------------------------------
  free energy    TOTEN  =        -7.75310607 eV

  energy without entropy =       -7.75244658  energy(sigma->0) =       -7.75277632


--------------------------------------------------------------------------------------------------------




----------------------------------------- Iteration    1(  16)  ---------------------------------------


    POTLOK:  cpu time    1.5960: real time    1.5961
    SETDIJ:  cpu time    0.0040: real time    0.0027
     EDDAV:  cpu time    0.0240: real time    0.0270
       DOS:  cpu time    0.0000: real time    0.0003
    --------------------------------------------
      LOOP:  cpu time    1.6240: real time    1.6648

 eigenvalue-minimisations  :    64
 total energy-change (2. order) :-0.3852199E-07  (-0.4171471E-12)
 number of electron       7.9999999 magnetization 
 augmentation part       -0.4541914 magnetization 

 Free energy of the ion-electron system (eV)
  ---------------------------------------------------
  alpha Z        PSCENC =         3.24857844
  Ewald energy   TEWEN  =      -225.91568183
  -Hartree energ DENC   =       -16.28748658
  -exchange      EXHF   =         0.00000000
  -V(xc)+E(xc)   XCENC  =       -19.53441873
  PAW double counting   =       535.18603808     -498.65130340
  entropy T*S    EENTRO =        -0.00065949
  eigenvalues    EBANDS =         5.60808911
  atomic energy  EATOM  =       208.59373829
  Solvation  Ediel_sol  =         0.00000000
  ---------------------------------------------------
  free energy    TOTEN  =        -7.75310611 eV

  energy without entropy =       -7.75244661  energy(sigma->0) =       -7.75277636


--------------------------------------------------------------------------------------------------------




 average (electrostatic) potential at core
  the test charge radii are     0.9892
  (the norm of the test charge is              1.0000)
       1 -83.7661       2 -83.7661



 E-fermi :   5.9416     XC(G=0):  -9.2148     alpha+bet :-11.5728


 k-point     1 :       0.0000    0.0000    0.0000
  band No.  band energies     occupation 
      1      -6.1124      2.00000
      2       5.5584      1.99327
      3       5.5584      1.99327
      4       5.5584      1.99327
      5       8.1381      0.00000
      6       8.1381      0.00000
      7       8.1381      0.00000
      8       8.6459      0.00000
      9      13.2635      0.00000
     10      13.2635      0.00000
     11      13.3909      0.00000
     12      16.6813      0.00000
     13      16.6813      0.00000
     14      16.6813      0.00000
     15      20.7809      0.00000
     16      28.2502      0.00000

 k-point     2 :       0.3333    0.0000    0.0000
  band No.  band energies     occupation 
      1      -4.7784      2.00000
      2       0.3627      2.00000
      3       4.5959      2.00000
      4       4.5959      2.00000
      5       7.2561      0.00000
      6       9.0760      0.00000
      7       9.0760      0.00000
      8      13.2978      0.00000
      9      13.4879      0.00000
     10      13.4879      0.00000
     11      14.4674      0.00000
     12      18.8895      0.00000
     13      19.9339      0.00000
     14      19.9339      0.00000
     15      21.9661      0.00000
     16      22.9511      0.00000

 k-point     3 :       0.3333    0.3333    0.0000
  band No.  band energies     occupation 
      1      -4.2643      2.00000
      2       0.6290      2.00000
      3       3.2354      2.00000
      4       3.2354      2.00000
      5       6.3563      0.00337
      6       7.6108      0.00000
      7      12.6843      0.00000
      8      12.6843      0.00000
      9      15.0535      0.00000
     10      15.3599      0.00000
     11      18.3881      0.00000
     12      18.8264      0.00000
     13      18.8264      0.00000
     14      20.5150      0.00000
     15      21.5269      0.00000
     16      21.6792      0.00000

 k-point     4 :      -0.3333    0.3333    0.0000
  band No.  band energies     occupation 
      1      -2.9551      2.00000
      2      -1.0712      2.00000
      3       1.3241      2.00000
      4       3.5284      2.00000
      5       7.1771      0.00000
      6      11.3110      0.00000
      7      11.9495      0.00000
      8      12.4768      0.00000
      9      12.8066      0.00000
     10      13.1776      0.00000
     11      19.7325      0.00000
     12      20.2668      0.00000
     13      20.8577      0.00000
     14      21.0401      0.00000
     15      21.8649      0.00000
     16      22.7510      0.00000


--------------------------------------------------------------------------------------------------------


 soft charge-density along one line, spin component           1
         0         1         2         3         4         5         6         7         8         9
 total charge-density along one line

 pseudopotential strength for first ion, spin component:           1
 18.532  25.850  -0.000  -0.000  -0.000  -0.000  -0.000  -0.000
 25.850  36.064  -0.000  -0.000  -0.000  -0.000  -0.000  -0.000
 -0.000  -0.000   4.199  -0.000  -0.000   7.817  -0.000  -0.000
 -0.000  -0.000  -0.000   4.199  -0.000  -0.000   7.817  -0.000
 -0.000  -0.000  -0.000  -0.000   4.199  -0.000  -0.000   7.817
 -0.000  -0.000   7.817  -0.000  -0.000  14.563  -0.000  -0.000
 -0.000  -0.000  -0.000   7.817  -0.000  -0.000  14.563  -0.000
 -0.000  -0.000  -0.000  -0.000   7.817  -0.000  -0.000  14.563
 total augmentation occupancy for first ion, spin component:           1
  3.183  -0.885   0.000   0.000   0.000   0.000  -0.000   0.000
 -0.885   0.374   0.000  -0.000  -0.000   0.000   0.000   0.000
 -0.000   0.000   2.264   0.000   0.000  -0.395   0.000  -0.000
 -0.000  -0.000   0.000   2.264   0.000   0.000  -0.395  -0.000
 -0.000  -0.000   0.000   0.000   2.264   0.000   0.000  -0.395
 -0.000   0.000  -0.395   0.000   0.000   0.082  -0.000  -0.000
 -0.000   0.000  -0.000  -0.395   0.000  -0.000   0.082   0.000
 -0.000   0.000   0.000  -0.000  -0.395  -0.000   0.000   0.082


------------------------ aborting loop because EDIFF is reached ----------------------------------------


    CHARGE:  cpu time    0.0160: real time    0.0162
    FORLOC:  cpu time    0.0000: real time    0.0005
    FORNL :  cpu time    0.0080: real time    0.0088
    STRESS:  cpu time    0.0720: real time    0.0704
    FORCOR:  cpu time    1.6240: real time    1.6253
    FORHAR:  cpu time    0.0040: real time    0.0040
    MIXING:  cpu time    0.0000: real time    0.0007
    OFIELD:  cpu time    0.0000: real time    0.0000

  FORCE on cell =-STRESS in cart. coord.  units (eV):
  Direction    XX          YY          ZZ          XY          YZ          ZX
  --------------------------------------------------------------------------------------
  Alpha Z     3.24858     3.24858     3.24858
  Ewald     -75.30526   -75.30526   -75.30526     0.00000    -0.00000    -0.00000
  Hartree     5.42916     5.42916     5.42916     0.00000     0.00000     0.00000
  E(xc)     -25.42057   -25.42057   -25.42057    -0.00000    -0.00000    -0.00000
  Local     -30.13604   -30.13604   -30.13604     0.00001     0.00001     0.00001
  n-local    78.78085    78.78085    72.79828     2.89293    -1.22768     1.22768
  augment   -11.63008   -11.63008   -11.63008    -0.00001    -0.00001    -0.00001
  Kinetic    59.15548    59.15548    53.99900     4.52014    -1.73042     1.73042
  Fock        0.00000     0.00000     0.00000     0.00000     0.00000     0.00000
  -------------------------------------------------------------------------------------
  Total       0.40911     0.40911     0.40911    -0.00000     0.00000    -0.00000
  in kB      15.81364    15.81364    15.81364    -0.00000     0.00000    -0.00000
  external pressure =       15.81 kB  Pullay stress =        0.00 kB


 VOLUME and BASIS-vectors are now :
 -----------------------------------------------------------------------------
  energy-cutoff  :      500.00
  volume of cell :       41.45
      direct lattice vectors                 reciprocal lattice vectors
     0.000000000  2.746821138  2.746821138    -0.182028598  0.182028598  0.182028598
     2.746821138  0.000000000  2.746821138     0.182028598 -0.182028598  0.182028598
     2.746821138  2.746821138  0.000000000     0.182028598  0.182028598 -0.182028598

  length of vectors
     3.884591706  3.884591706  3.884591706     0.315282780  0.315282780  0.315282780


 FORCES acting on ions
    electron-ion (+dipol)            ewald-force                    non-local-force                 convergence-correction
 -----------------------------------------------------------------------------------------------
   0.978E-08 0.978E-08 0.106E-07   -.313E-14 -.268E-14 -.153E-14   -.180E-15 -.167E-15 -.193E-15   0.629E-12 0.630E-12 0.628E-12
   -.978E-08 -.978E-08 -.106E-07   0.307E-14 0.301E-14 0.222E-14   0.194E-15 0.167E-15 0.170E-15   -.625E-12 -.625E-12 -.624E-12
 -----------------------------------------------------------------------------------------------
   -.758E-14 0.739E-13 -.124E-12   -.615E-16 0.330E-15 0.690E-15   0.139E-16 0.000E+00 -.230E-16   0.383E-14 0.548E-14 0.430E-14


 POSITION                                       TOTAL-FORCE (eV/Angst)
 -----------------------------------------------------------------------------------
      4.12023      4.12023      4.12023        -0.000000     -0.000000      0.000000
      2.74682      2.74682      2.74682         0.000000      0.000000     -0.000000
 -----------------------------------------------------------------------------------
    total drift:                               -0.000000      0.000000     -0.000000


--------------------------------------------------------------------------------------------------------



  FREE ENERGIE OF THE ION-ELECTRON SYSTEM (eV)
  ---------------------------------------------------
  free  energy   TOTEN  =        -7.75310611 eV

  energy  without entropy=       -7.75244661  energy(sigma->0) =       -7.75277636



--------------------------------------------------------------------------------------------------------


    POTLOK:  cpu time    1.6320: real time    1.6294


--------------------------------------------------------------------------------------------------------




--------------------------------------------------------------------------------------------------------


  
 reached required accuracy - stopping structural energy minimisation
     LOOP+:  cpu time   24.5280: real time   25.6410
    4ORBIT:  cpu time    0.0000: real time    0.0000

 total amount of memory used by VASP on root node    32407. kBytes
========================================================================

   base      :      30000. kBytes
   nonl-proj :        308. kBytes
   fftplans  :        517. kBytes
   grid      :       1507. kBytes
   one-center:          6. kBytes
   wavefun   :         69. kBytes

  
  
 General timing and accounting informations for this job:
 ========================================================
  
                  Total CPU time used (sec):       24.988
                            User time (sec):       24.848
                          System time (sec):        0.140
                         Elapsed time (sec):       27.457
  
                   Maximum memory used (kb):      109784.
                   Average memory used (kb):           0.
  
                          Minor page faults:        83050
                          Major page faults:            6
                 Voluntary context switches:          232
