<?xml version="1.0" encoding="ISO-8859-1"?>
<modeling>
 <generator>
  <i name="program" type="string">vasp </i>
  <i name="version" type="string">5.4.1  </i>
  <i name="subversion" type="string">24Jun15 (build Feb  9 2019 14:16:27) complex                          parallel </i>
  <i name="platform" type="string">IFC91_ompi </i>
  <i name="date" type="string">2020 09 26 </i>
  <i name="time" type="string">22:22:12 </i>
 </generator>
 <incar>
  <i type="string" name="PREC">accurate</i>
  <i type="int" name="NELM">   400</i>
  <i type="int" name="IBRION">     2</i>
  <i name="EDIFF">      0.00000010</i>
  <i type="int" name="NSW">     1</i>
  <i type="int" name="ISIF">     2</i>
  <i name="ENCUT">    500.00000000</i>
  <i type="int" name="ISMEAR">     0</i>
  <i type="logical" name="LWAVE"> F  </i>
  <i type="logical" name="LCHARG"> F  </i>
  <v type="int" name="KPOINT_BSE">    -1     0     0     0</v>
  <i type="int" name="NELM">   400</i>
  <i type="string" name="GGA">BO</i>
  <i name="PARAM1">      0.18333333</i>
  <i name="PARAM2">      0.22000000</i>
  <i type="logical" name="LUSE_VDW"> T  </i>
  <i name="AGGAC">      0.00000000</i>
 </incar>
 <kpoints>
  <generation param="Gamma">
   <v type="int" name="divisions">       3        3        3 </v>
   <v name="usershift">      0.00000000       0.00000000       0.00000000 </v>
   <v name="genvec1">      0.33333333       0.00000000       0.00000000 </v>
   <v name="genvec2">      0.00000000       0.33333333       0.00000000 </v>
   <v name="genvec3">      0.00000000       0.00000000       0.33333333 </v>
   <v name="shift">      0.00000000       0.00000000       0.00000000 </v>
  </generation>
  <varray name="kpointlist" >
   <v>       0.00000000       0.00000000       0.00000000 </v>
   <v>       0.33333333       0.00000000       0.00000000 </v>
   <v>       0.33333333       0.33333333       0.00000000 </v>
   <v>      -0.33333333       0.33333333       0.00000000 </v>
  </varray>
  <varray name="weights" >
   <v>       0.03703704 </v>
   <v>       0.29629630 </v>
   <v>       0.22222222 </v>
   <v>       0.44444444 </v>
  </varray>
 </kpoints>
 <parameters>
  <separator name="general" >
   <i type="string" name="SYSTEM">unknown system</i>
   <i type="logical" name="LCOMPAT"> F  </i>
  </separator>
  <separator name="electronic" >
   <i type="string" name="PREC">accura</i>
   <i name="ENMAX">    500.00000000</i>
   <i name="ENAUG">    322.06900000</i>
   <i name="EDIFF">      0.00000010</i>
   <i type="int" name="IALGO">    38</i>
   <i type="int" name="IWAVPR">    11</i>
   <i type="int" name="NBANDS">    16</i>
   <i name="NELECT">      8.00000000</i>
   <i type="int" name="TURBO">     0</i>
   <i type="int" name="IRESTART">     0</i>
   <i type="int" name="NREBOOT">     0</i>
   <i type="int" name="NMIN">     0</i>
   <i name="EREF">      0.00000000</i>
   <separator name="electronic smearing" >
    <i type="int" name="ISMEAR">     0</i>
    <i name="SIGMA">      0.20000000</i>
    <i name="KSPACING">      0.50000000</i>
    <i type="logical" name="KGAMMA"> T  </i>
   </separator>
   <separator name="electronic projectors" >
    <i type="logical" name="LREAL"> F  </i>
    <v name="ROPT">      0.00000000</v>
    <i type="int" name="LMAXPAW">  -100</i>
    <i type="int" name="LMAXMIX">     2</i>
    <i type="logical" name="NLSPLINE"> F  </i>
   </separator>
   <separator name="electronic startup" >
    <i type="int" name="ISTART">     0</i>
    <i type="int" name="ICHARG">     2</i>
    <i type="int" name="INIWAV">     1</i>
   </separator>
   <separator name="electronic spin" >
    <i type="int" name="ISPIN">     1</i>
    <i type="logical" name="LNONCOLLINEAR"> F  </i>
    <v name="MAGMOM">      1.00000000      1.00000000</v>
    <i name="NUPDOWN">     -1.00000000</i>
    <i type="logical" name="LSORBIT"> F  </i>
    <v name="SAXIS">      0.00000000      0.00000000      1.00000000</v>
    <i type="logical" name="LSPIRAL"> F  </i>
    <v name="QSPIRAL">      0.00000000      0.00000000      0.00000000</v>
    <i type="logical" name="LZEROZ"> F  </i>
   </separator>
   <separator name="electronic exchange-correlation" >
    <i type="logical" name="LASPH"> F  </i>
    <i type="logical" name="LMETAGGA"> F  </i>
   </separator>
   <separator name="electronic convergence" >
    <i type="int" name="NELM">   400</i>
    <i type="int" name="NELMDL">    -5</i>
    <i type="int" name="NELMIN">     2</i>
    <i name="ENINI">    500.00000000</i>
    <separator name="electronic convergence detail" >
     <i type="logical" name="LDIAG"> T  </i>
     <i type="logical" name="LSUBROT"> F  </i>
     <i name="WEIMIN">      0.00100000</i>
     <i name="EBREAK">      0.00000000</i>
     <i name="DEPER">      0.30000000</i>
     <i type="int" name="NRMM">     4</i>
     <i name="TIME">      0.40000000</i>
    </separator>
   </separator>
   <separator name="electronic mixer" >
    <i name="AMIX">      0.40000000</i>
    <i name="BMIX">      1.00000000</i>
    <i name="AMIN">      0.10000000</i>
    <i name="AMIX_MAG">      1.60000000</i>
    <i name="BMIX_MAG">      1.00000000</i>
    <separator name="electronic mixer details" >
     <i type="int" name="IMIX">     4</i>
     <i type="logical" name="MIXFIRST"> F  </i>
     <i type="int" name="MAXMIX">   -45</i>
     <i name="WC">    100.00000000</i>
     <i type="int" name="INIMIX">     1</i>
     <i type="int" name="MIXPRE">     1</i>
     <i type="int" name="MREMOVE">     5</i>
    </separator>
   </separator>
   <separator name="electronic dipolcorrection" >
    <i type="logical" name="LDIPOL"> F  </i>
    <i type="logical" name="LMONO"> F  </i>
    <i type="int" name="IDIPOL">     0</i>
    <i name="EPSILON">      1.00000000</i>
    <v name="DIPOL">   -100.00000000   -100.00000000   -100.00000000</v>
    <i name="EFIELD">      0.00000000</i>
   </separator>
  </separator>
  <separator name="grids" >
   <i type="int" name="NGX">    28</i>
   <i type="int" name="NGY">    28</i>
   <i type="int" name="NGZ">    28</i>
   <i type="int" name="NGXF">    56</i>
   <i type="int" name="NGYF">    56</i>
   <i type="int" name="NGZF">    56</i>
   <i type="logical" name="ADDGRID"> F  </i>
  </separator>
  <separator name="ionic" >
   <i type="int" name="NSW">     1</i>
   <i type="int" name="IBRION">     2</i>
   <i type="int" name="ISIF">     2</i>
   <i name="PSTRESS">      0.00000000</i>
   <i name="EDIFFG">      0.00000100</i>
   <i type="int" name="NFREE">     1</i>
   <i name="POTIM">      0.50000000</i>
   <i name="SMASS">     -3.00000000</i>
   <i name="SCALEE">      1.00000000</i>
  </separator>
  <separator name="ionic md" >
   <i name="TEBEG">      0.00010000</i>
   <i name="TEEND">      0.00010000</i>
   <i type="int" name="NBLOCK">     1</i>
   <i type="int" name="KBLOCK">     1</i>
   <i type="int" name="NPACO">   256</i>
   <i name="APACO">     16.00000000</i>
  </separator>
  <separator name="symmetry" >
   <i type="int" name="ISYM">     2</i>
   <i name="SYMPREC">      0.00001000</i>
  </separator>
  <separator name="dos" >
   <i type="logical" name="LORBIT"> T  </i>
   <v name="RWIGS">     -1.00000000</v>
   <i type="int" name="NEDOS">   301</i>
   <i name="EMIN">     10.00000000</i>
   <i name="EMAX">    -10.00000000</i>
   <i name="EFERMI">      0.00000000</i>
  </separator>
  <separator name="writing" >
   <i type="int" name="NWRITE">     2</i>
   <i type="logical" name="LWAVE"> F  </i>
   <i type="logical" name="LCHARG"> F  </i>
   <i type="logical" name="LPARD"> F  </i>
   <i type="logical" name="LVTOT"> F  </i>
   <i type="logical" name="LVHAR"> F  </i>
   <i type="logical" name="LELF"> F  </i>
   <i type="logical" name="LOPTICS"> F  </i>
   <v name="STM">      0.00000000      0.00000000      0.00000000      0.00000000      0.00000000      0.00000000      0.00000000</v>
  </separator>
  <separator name="performance" >
   <i type="int" name="NPAR">    16</i>
   <i type="int" name="NSIM">     4</i>
   <i type="int" name="NBLK">    -1</i>
   <i type="logical" name="LPLANE"> T  </i>
   <i type="logical" name="LSCALAPACK"> T  </i>
   <i type="logical" name="LSCAAWARE"> F  </i>
   <i type="logical" name="LSCALU"> F  </i>
   <i type="logical" name="LASYNC"> F  </i>
   <i type="logical" name="LORBITALREAL"> F  </i>
  </separator>
  <separator name="miscellaneous" >
   <i type="int" name="IDIOT">     3</i>
   <i type="logical" name="LMUSIC"> F  </i>
   <v name="POMASS">     28.08500000</v>
   <v name="DARWINR">      0.00000000</v>
   <v name="DARWINV">      1.00000000</v>
   <i type="logical" name="LCORR"> T  </i>
  </separator>
  <i type="logical" name="GGA_COMPAT"> T  </i>
  <i type="logical" name="LBERRY"> F  </i>
  <i type="int" name="ICORELEVEL">     0</i>
  <i type="logical" name="LDAU"> F  </i>
  <i type="int" name="I_CONSTRAINED_M">     0</i>
  <separator name="electronic exchange-correlation" >
   <i type="string" name="GGA">BO</i>
   <i type="int" name="VOSKOWN">     0</i>
   <i type="logical" name="LHFCALC"> F  </i>
   <i type="string" name="PRECFOCK"></i>
   <i type="logical" name="LSYMGRAD"> F  </i>
   <i type="logical" name="LHFONE"> F  </i>
   <i type="logical" name="LRHFCALC"> F  </i>
   <i type="logical" name="LTHOMAS"> F  </i>
   <i type="logical" name="LMODELHF"> F  </i>
   <i name="ENCUT4O">     -1.00000000</i>
   <i type="int" name="EXXOEP">     0</i>
   <i type="int" name="FOURORBIT">     0</i>
   <i name="AEXX">      0.00000000</i>
   <i name="HFALPHA">      0.00000000</i>
   <i name="MCALPHA">      0.00000000</i>
   <i name="ALDAX">      1.00000000</i>
   <i name="AGGAX">      1.00000000</i>
   <i name="ALDAC">      1.00000000</i>
   <i name="AGGAC">      0.00000000</i>
   <i type="int" name="NKREDX">     1</i>
   <i type="int" name="NKREDY">     1</i>
   <i type="int" name="NKREDZ">     1</i>
   <i type="logical" name="SHIFTRED"> F  </i>
   <i type="logical" name="ODDONLY"> F  </i>
   <i type="logical" name="EVENONLY"> F  </i>
   <i type="int" name="LMAXFOCK">     0</i>
   <i type="int" name="NMAXFOCKAE">     0</i>
   <i type="logical" name="LFOCKAEDFT"> F  </i>
   <i name="HFSCREEN">      0.00000000</i>
   <i name="HFSCREENC">      0.00000000</i>
   <i type="int" name="NBANDSGWLOW">     0</i>
  </separator>
  <separator name="vdW DFT" >
   <i type="logical" name="LUSE_VDW"> T  </i>
   <i name="Zab_VDW">     -0.84910000</i>
   <i name="PARAM1">      0.18333333</i>
   <i name="PARAM2">      0.22000000</i>
   <i name="PARAM3">      0.00000000</i>
  </separator>
  <separator name="model GW" >
   <i type="int" name="MODEL_GW">     0</i>
   <i name="MODEL_EPS0">     12.43490274</i>
   <i name="MODEL_ALPHA">      1.00000000</i>
  </separator>
  <separator name="linear response parameters" >
   <i type="logical" name="LEPSILON"> F  </i>
   <i type="logical" name="LRPA"> F  </i>
   <i type="logical" name="LNABLA"> F  </i>
   <i type="logical" name="LVEL"> F  </i>
   <i type="int" name="KINTER">     0</i>
   <i name="CSHIFT">      0.10000000</i>
   <i name="OMEGAMAX">     -1.00000000</i>
   <i name="DEG_THRESHOLD">      0.00200000</i>
  </separator>
  <separator name="orbital magnetization" >
   <i type="logical" name="NUCIND"> F  </i>
   <v name="MAGPOS">      0.00000000      0.00000000      0.00000000</v>
   <i type="logical" name="LNICSALL"> T  </i>
   <i type="logical" name="ORBITALMAG"> F  </i>
   <i type="logical" name="LMAGBLOCH"> F  </i>
   <i type="logical" name="LCHIMAG"> F  </i>
   <i type="logical" name="LGAUGE"> T  </i>
   <i type="int" name="MAGATOM">     0</i>
   <v name="MAGDIPOL">      0.00000000      0.00000000      0.00000000</v>
   <v name="AVECCONST">      0.00000000      0.00000000      0.00000000</v>
  </separator>
  <separator name="response functions" >
   <i type="logical" name="LADDER"> F  </i>
   <i type="logical" name="LFXC"> F  </i>
   <i type="logical" name="LHARTREE"> T  </i>
   <i type="int" name="IBSE">     0</i>
   <v type="int" name="KPOINT">    -1     0     0     0</v>
   <i type="logical" name="LTCTE"> F  </i>
   <i type="logical" name="LTETE"> F  </i>
   <i type="logical" name="LTRIPLET"> F  </i>
   <i type="logical" name="LFXCEPS"> F  </i>
   <i type="logical" name="LFXHEG"> F  </i>
   <i type="int" name="NATURALO">     0</i>
   <i type="logical" name="L2ORDER"> F  </i>
   <i type="logical" name="LUSEW"> F  </i>
   <i name="ENCUTGW">     -2.00000000</i>
   <i name="ENCUTGWSOFT">     -2.00000000</i>
   <i name="ENCUTLF">     -1.00000000</i>
   <i type="int" name="LMAXMP2">    -1</i>
   <i name="SCISSOR">      0.00000000</i>
   <i type="int" name="NOMEGA">     0</i>
   <i type="int" name="NOMEGAR">     0</i>
   <i type="int" name="NBANDSGW">    -1</i>
   <i type="int" name="NBANDSO">    -1</i>
   <i type="int" name="NBANDSV">    -1</i>
   <i type="int" name="NELM">   400</i>
   <i type="int" name="NELMHF">     1</i>
   <i type="int" name="DIM">     3</i>
   <i type="int" name="ANTIRES">     0</i>
   <i name="OMEGAMAX">    -30.00000000</i>
   <i name="OMEGAMIN">    -30.00000000</i>
   <i name="OMEGATL">   -200.00000000</i>
   <i type="int" name="OMEGAGRID">     0</i>
   <i name="CSHIFT">     -0.10000000</i>
   <i type="logical" name="SELFENERGY"> F  </i>
   <i type="logical" name="LSPECTRAL"> F  </i>
   <i type="logical" name="LSPECTRALGW"> F  </i>
   <i type="logical" name="LSINGLES"> F  </i>
   <i type="logical" name="LFERMIGW"> F  </i>
   <i type="logical" name="ODDONLYGW"> F  </i>
   <i type="logical" name="EVENONLYGW"> F  </i>
   <i type="int" name="NKREDLFX">     1</i>
   <i type="int" name="NKREDLFY">     1</i>
   <i type="int" name="NKREDLFZ">     1</i>
   <i type="int" name="MAXMEM">  1800</i>
   <i type="int" name="TELESCOPE">     0</i>
   <i type="int" name="TAUPAR">     1</i>
   <i type="int" name="OMEGAPAR">    -1</i>
   <i name="LAMBDA">      1.00000000</i>
  </separator>
  <separator name="External order field" >
   <i name="OFIELD_KAPPA">      0.00000000</i>
   <v name="OFIELD_K">      0.00000000      0.00000000      0.00000000</v>
   <i name="OFIELD_Q6_NEAR">      0.00000000</i>
   <i name="OFIELD_Q6_FAR">      0.00000000</i>
   <i name="OFIELD_A">      0.00000000</i>
  </separator>
 </parameters>
 <atominfo>
  <atoms>       2 </atoms>
  <types>       1 </types>
  <array name="atoms" >
   <dimension dim="1">ion</dimension>
   <field type="string">element</field>
   <field type="int">atomtype</field>
   <set>
    <rc><c>Si</c><c>   1</c></rc>
    <rc><c>Si</c><c>   1</c></rc>
   </set>
  </array>
  <array name="atomtypes" >
   <dimension dim="1">type</dimension>
   <field type="int">atomspertype</field>
   <field type="string">element</field>
   <field>mass</field>
   <field>valence</field>
   <field type="string">pseudopotential</field>
   <set>
    <rc><c>   2</c><c>Si</c><c>     28.08500000</c><c>      4.00000000</c><c>  PAW_PBE Si 05Jan2001                  </c></rc>
   </set>
  </array>
 </atominfo>
 <structure name="initialpos" >
  <crystal>
   <varray name="basis" >
    <v>       0.00000000       2.74682114       2.74682114 </v>
    <v>       2.74682114       0.00000000       2.74682114 </v>
    <v>       2.74682114       2.74682114       0.00000000 </v>
   </varray>
   <i name="volume">     41.44967579 </i>
   <varray name="rec_basis" >
    <v>      -0.18202860       0.18202860       0.18202860 </v>
    <v>       0.18202860      -0.18202860       0.18202860 </v>
    <v>       0.18202860       0.18202860      -0.18202860 </v>
   </varray>
  </crystal>
  <varray name="positions" >
   <v>       0.75000000       0.75000000       0.75000000 </v>
   <v>       0.50000000       0.50000000       0.50000000 </v>
  </varray>
 </structure>
 <calculation>
  <scstep>
   <time name="dav">    0.05    0.05</time>
   <time name="total">    2.15    2.15</time>
   <energy>
    <i name="alphaZ">      3.24857844 </i>
    <i name="ewald">   -225.91568183 </i>
    <i name="hartreedc">    -11.53197166 </i>
    <i name="XCdc">    -20.29573795 </i>
    <i name="pawpsdc">    189.40224250 </i>
    <i name="pawaedc">   -152.61488262 </i>
    <i name="eentropy">     -0.03841412 </i>
    <i name="bandstr">     13.16105836 </i>
    <i name="atom">    208.59373829 </i>
    <i name="e_fr_energy">      4.00892941 </i>
    <i name="e_wo_entrp">      4.04734353 </i>
    <i name="e_0_energy">      4.02813647 </i>
   </energy>
  </scstep>
  <scstep>
   <time name="dav">    0.08    0.08</time>
   <time name="total">    0.08    0.29</time>
   <energy>
    <i name="e_fr_energy">     -7.77876588 </i>
    <i name="e_wo_entrp">     -7.77874403 </i>
    <i name="e_0_energy">     -7.77875496 </i>
   </energy>
  </scstep>
  <scstep>
   <time name="dav">    0.07    0.07</time>
   <time name="total">    0.07    0.08</time>
   <energy>
    <i name="e_fr_energy">     -7.87309991 </i>
    <i name="e_wo_entrp">     -7.87308161 </i>
    <i name="e_0_energy">     -7.87309076 </i>
   </energy>
  </scstep>
  <scstep>
   <time name="dav">    0.11    0.11</time>
   <time name="total">    0.11    0.12</time>
   <energy>
    <i name="e_fr_energy">     -7.87334370 </i>
    <i name="e_wo_entrp">     -7.87332539 </i>
    <i name="e_0_energy">     -7.87333454 </i>
   </energy>
  </scstep>
  <scstep>
   <time name="dav">    0.08    0.07</time>
   <time name="total">    0.10    0.11</time>
   <energy>
    <i name="e_fr_energy">     -7.87334374 </i>
    <i name="e_wo_entrp">     -7.87332544 </i>
    <i name="e_0_energy">     -7.87333459 </i>
   </energy>
  </scstep>
  <scstep>
   <time name="dav">    0.08    0.08</time>
   <time name="total">    1.67    1.67</time>
   <energy>
    <i name="e_fr_energy">     -7.79242794 </i>
    <i name="e_wo_entrp">     -7.79233091 </i>
    <i name="e_0_energy">     -7.79237943 </i>
   </energy>
  </scstep>
  <scstep>
   <time name="dav">    0.06    0.06</time>
   <time name="total">    1.70    1.71</time>
   <energy>
    <i name="e_fr_energy">     -7.77045103 </i>
    <i name="e_wo_entrp">     -7.76954276 </i>
    <i name="e_0_energy">     -7.76999690 </i>
   </energy>
  </scstep>
  <scstep>
   <time name="dav">    0.04    0.04</time>
   <time name="total">    1.67    1.75</time>
   <energy>
    <i name="e_fr_energy">     -7.75257267 </i>
    <i name="e_wo_entrp">     -7.75195339 </i>
    <i name="e_0_energy">     -7.75226303 </i>
   </energy>
  </scstep>
  <scstep>
   <time name="dav">    0.06    0.06</time>
   <time name="total">    1.71    1.75</time>
   <energy>
    <i name="e_fr_energy">     -7.75313964 </i>
    <i name="e_wo_entrp">     -7.75246399 </i>
    <i name="e_0_energy">     -7.75280181 </i>
   </energy>
  </scstep>
  <scstep>
   <time name="dav">    0.09    0.09</time>
   <time name="total">    1.72    1.95</time>
   <energy>
    <i name="e_fr_energy">     -7.75338547 </i>
    <i name="e_wo_entrp">     -7.75272206 </i>
    <i name="e_0_energy">     -7.75305377 </i>
   </energy>
  </scstep>
  <scstep>
   <time name="dav">    0.13    0.13</time>
   <time name="total">    1.76    1.79</time>
   <energy>
    <i name="e_fr_energy">     -7.75312328 </i>
    <i name="e_wo_entrp">     -7.75246348 </i>
    <i name="e_0_energy">     -7.75279338 </i>
   </energy>
  </scstep>
  <scstep>
   <time name="dav">    0.06    0.06</time>
   <time name="total">    1.71    1.76</time>
   <energy>
    <i name="e_fr_energy">     -7.75311621 </i>
    <i name="e_wo_entrp">     -7.75245651 </i>
    <i name="e_0_energy">     -7.75278636 </i>
   </energy>
  </scstep>
  <scstep>
   <time name="dav">    0.09    0.09</time>
   <time name="total">    1.72    1.77</time>
   <energy>
    <i name="e_fr_energy">     -7.75310214 </i>
    <i name="e_wo_entrp">     -7.75244267 </i>
    <i name="e_0_energy">     -7.75277240 </i>
   </energy>
  </scstep>
  <scstep>
   <time name="dav">    0.05    0.05</time>
   <time name="total">    1.70    1.77</time>
   <energy>
    <i name="e_fr_energy">     -7.75310593 </i>
    <i name="e_wo_entrp">     -7.75244644 </i>
    <i name="e_0_energy">     -7.75277618 </i>
   </energy>
  </scstep>
  <scstep>
   <time name="dav">    0.04    0.05</time>
   <time name="total">    1.67    1.67</time>
   <energy>
    <i name="e_fr_energy">     -7.75310607 </i>
    <i name="e_wo_entrp">     -7.75244658 </i>
    <i name="e_0_energy">     -7.75277632 </i>
   </energy>
  </scstep>
  <scstep>
   <time name="dav">    0.02    0.03</time>
   <time name="total">    1.62    1.66</time>
   <energy>
    <i name="alphaZ">      3.24857844 </i>
    <i name="ewald">   -225.91568183 </i>
    <i name="hartreedc">    -16.28748658 </i>
    <i name="XCdc">    -19.53441873 </i>
    <i name="pawpsdc">    535.18603808 </i>
    <i name="pawaedc">   -498.65130340 </i>
    <i name="eentropy">     -0.00065949 </i>
    <i name="bandstr">      5.60808911 </i>
    <i name="atom">    208.59373829 </i>
    <i name="e_fr_energy">     -7.75310611 </i>
    <i name="e_wo_entrp">     -7.75244661 </i>
    <i name="e_0_energy">     -7.75277636 </i>
   </energy>
  </scstep>
  <structure>
   <crystal>
    <varray name="basis" >
     <v>       0.00000000       2.74682114       2.74682114 </v>
     <v>       2.74682114       0.00000000       2.74682114 </v>
     <v>       2.74682114       2.74682114       0.00000000 </v>
    </varray>
    <i name="volume">     41.44967579 </i>
    <varray name="rec_basis" >
     <v>      -0.18202860       0.18202860       0.18202860 </v>
     <v>       0.18202860      -0.18202860       0.18202860 </v>
     <v>       0.18202860       0.18202860      -0.18202860 </v>
    </varray>
   </crystal>
   <varray name="positions" >
    <v>       0.75000000       0.75000000       0.75000000 </v>
    <v>       0.50000000       0.50000000       0.50000000 </v>
   </varray>
  </structure>
  <varray name="forces" >
   <v>      -0.00000000      -0.00000000       0.00000000 </v>
   <v>       0.00000000       0.00000000      -0.00000000 </v>
  </varray>
  <varray name="stress" >
   <v>      15.81364463       0.00000000      -0.00000000 </v>
   <v>      -0.00000000      15.81364463       0.00000000 </v>
   <v>      -0.00000000       0.00000000      15.81364463 </v>
  </varray>
  <energy>
   <i name="e_fr_energy">     -7.75310611 </i>
   <i name="e_wo_entrp">     -7.75277636 </i>
   <i name="e_0_energy">     -0.00065949 </i>
  </energy>
  <time name="totalsc">   24.53   25.64</time>
  <eigenvalues>
   <array>
    <dimension dim="1">band</dimension>
    <dimension dim="2">kpoint</dimension>
    <dimension dim="3">spin</dimension>
    <field>eigene</field>
    <field>occ</field>
    <set>
     <set comment="spin 1">
      <set comment="kpoint 1">
       <r>   -6.1124    1.0000 </r>
       <r>    5.5584    0.9966 </r>
       <r>    5.5584    0.9966 </r>
       <r>    5.5584    0.9966 </r>
       <r>    8.1381    0.0000 </r>
       <r>    8.1381    0.0000 </r>
       <r>    8.1381    0.0000 </r>
       <r>    8.6459    0.0000 </r>
       <r>   13.2635    0.0000 </r>
       <r>   13.2635    0.0000 </r>
       <r>   13.3909    0.0000 </r>
       <r>   16.6813    0.0000 </r>
       <r>   16.6813    0.0000 </r>
       <r>   16.6813    0.0000 </r>
       <r>   20.7809    0.0000 </r>
       <r>   28.2502    0.0000 </r>
      </set>
      <set comment="kpoint 2">
       <r>   -4.7784    1.0000 </r>
       <r>    0.3627    1.0000 </r>
       <r>    4.5959    1.0000 </r>
       <r>    4.5959    1.0000 </r>
       <r>    7.2561    0.0000 </r>
       <r>    9.0760    0.0000 </r>
       <r>    9.0760    0.0000 </r>
       <r>   13.2978    0.0000 </r>
       <r>   13.4879    0.0000 </r>
       <r>   13.4879    0.0000 </r>
       <r>   14.4674    0.0000 </r>
       <r>   18.8895    0.0000 </r>
       <r>   19.9339    0.0000 </r>
       <r>   19.9339    0.0000 </r>
       <r>   21.9661    0.0000 </r>
       <r>   22.9511    0.0000 </r>
      </set>
      <set comment="kpoint 3">
       <r>   -4.2643    1.0000 </r>
       <r>    0.6290    1.0000 </r>
       <r>    3.2354    1.0000 </r>
       <r>    3.2354    1.0000 </r>
       <r>    6.3563    0.0017 </r>
       <r>    7.6108    0.0000 </r>
       <r>   12.6843    0.0000 </r>
       <r>   12.6843    0.0000 </r>
       <r>   15.0535    0.0000 </r>
       <r>   15.3599    0.0000 </r>
       <r>   18.3881    0.0000 </r>
       <r>   18.8264    0.0000 </r>
       <r>   18.8264    0.0000 </r>
       <r>   20.5150    0.0000 </r>
       <r>   21.5269    0.0000 </r>
       <r>   21.6792    0.0000 </r>
      </set>
      <set comment="kpoint 4">
       <r>   -2.9551    1.0000 </r>
       <r>   -1.0712    1.0000 </r>
       <r>    1.3241    1.0000 </r>
       <r>    3.5284    1.0000 </r>
       <r>    7.1771    0.0000 </r>
       <r>   11.3110    0.0000 </r>
       <r>   11.9495    0.0000 </r>
       <r>   12.4768    0.0000 </r>
       <r>   12.8066    0.0000 </r>
       <r>   13.1776    0.0000 </r>
       <r>   19.7325    0.0000 </r>
       <r>   20.2668    0.0000 </r>
       <r>   20.8577    0.0000 </r>
       <r>   21.0401    0.0000 </r>
       <r>   21.8649    0.0000 </r>
       <r>   22.7510    0.0000 </r>
      </set>
     </set>
    </set>
   </array>
  </eigenvalues>
  <separator name="orbital magnetization" >
   <v name="MAGDIPOLOUT">      0.00000000      0.00000000      0.00000000</v>
  </separator>
  <dos>
   <i name="efermi">      5.94162260 </i>
   <total>
    <array>
     <dimension dim="1">gridpoints</dimension>
     <dimension dim="2">spin</dimension>
     <field>energy</field>
     <field>total</field>
     <field>integrated</field>
     <set>
      <set comment="spin 1">
       <r>    -8.1124     0.0000     0.0000 </r>
       <r>    -7.9845     0.0000     0.0000 </r>
       <r>    -7.8567     0.0000     0.0000 </r>
       <r>    -7.7288     0.0000     0.0000 </r>
       <r>    -7.6009     0.0000     0.0000 </r>
       <r>    -7.4730     0.0000     0.0000 </r>
       <r>    -7.3452     0.0000     0.0000 </r>
       <r>    -7.2173     0.0000     0.0000 </r>
       <r>    -7.0894     0.0000     0.0000 </r>
       <r>    -6.9615     0.0000     0.0000 </r>
       <r>    -6.8337     0.0000     0.0000 </r>
       <r>    -6.7058     0.0000     0.0000 </r>
       <r>    -6.5779     0.0003     0.0000 </r>
       <r>    -6.4500     0.0046     0.0006 </r>
       <r>    -6.3222     0.0351     0.0051 </r>
       <r>    -6.1943     0.1230     0.0208 </r>
       <r>    -6.0664     0.2005     0.0465 </r>
       <r>    -5.9385     0.1524     0.0660 </r>
       <r>    -5.8107     0.0539     0.0729 </r>
       <r>    -5.6828     0.0088     0.0740 </r>
       <r>    -5.5549     0.0007     0.0741 </r>
       <r>    -5.4270     0.0000     0.0741 </r>
       <r>    -5.2991     0.0005     0.0741 </r>
       <r>    -5.1713     0.0121     0.0757 </r>
       <r>    -5.0434     0.1285     0.0921 </r>
       <r>    -4.9155     0.6283     0.1725 </r>
       <r>    -4.7876     1.4266     0.3549 </r>
       <r>    -4.6598     1.5162     0.5488 </r>
       <r>    -4.5319     0.8350     0.6555 </r>
       <r>    -4.4040     0.6298     0.7361 </r>
       <r>    -4.2761     1.0782     0.8740 </r>
       <r>    -4.1483     1.1387     1.0196 </r>
       <r>    -4.0204     0.5688     1.0923 </r>
       <r>    -3.8925     0.1321     1.1092 </r>
       <r>    -3.7646     0.0142     1.1110 </r>
       <r>    -3.6368     0.0007     1.1111 </r>
       <r>    -3.5089     0.0003     1.1112 </r>
       <r>    -3.3810     0.0087     1.1123 </r>
       <r>    -3.2531     0.1128     1.1267 </r>
       <r>    -3.1253     0.6733     1.2128 </r>
       <r>    -2.9974     1.8627     1.4510 </r>
       <r>    -2.8695     2.3983     1.7577 </r>
       <r>    -2.7416     1.4387     1.9417 </r>
       <r>    -2.6138     0.4013     1.9930 </r>
       <r>    -2.4859     0.0518     1.9996 </r>
       <r>    -2.3580     0.0031     2.0000 </r>
       <r>    -2.2301     0.0001     2.0000 </r>
       <r>    -2.1023     0.0000     2.0000 </r>
       <r>    -1.9744     0.0000     2.0000 </r>
       <r>    -1.8465     0.0000     2.0000 </r>
       <r>    -1.7186     0.0000     2.0000 </r>
       <r>    -1.5908     0.0008     2.0001 </r>
       <r>    -1.4629     0.0187     2.0025 </r>
       <r>    -1.3350     0.1963     2.0276 </r>
       <r>    -1.2071     0.9532     2.1495 </r>
       <r>    -1.0793     2.1481     2.4242 </r>
       <r>    -0.9514     2.2543     2.7125 </r>
       <r>    -0.8235     1.1020     2.8534 </r>
       <r>    -0.6956     0.2502     2.8854 </r>
       <r>    -0.5678     0.0262     2.8887 </r>
       <r>    -0.4399     0.0013     2.8889 </r>
       <r>    -0.3120     0.0000     2.8889 </r>
       <r>    -0.1841     0.0003     2.8889 </r>
       <r>    -0.0563     0.0068     2.8898 </r>
       <r>     0.0716     0.0847     2.9006 </r>
       <r>     0.1995     0.4879     2.9630 </r>
       <r>     0.3274     1.3370     3.1340 </r>
       <r>     0.4552     1.9095     3.3782 </r>
       <r>     0.5831     1.8273     3.6118 </r>
       <r>     0.7110     1.4473     3.7969 </r>
       <r>     0.8389     0.7696     3.8953 </r>
       <r>     0.9668     0.2498     3.9273 </r>
       <r>     1.0946     0.3516     3.9722 </r>
       <r>     1.2225     1.2802     4.1359 </r>
       <r>     1.3504     2.3458     4.4359 </r>
       <r>     1.4783     2.0050     4.6923 </r>
       <r>     1.6061     0.7978     4.7943 </r>
       <r>     1.7340     0.1473     4.8131 </r>
       <r>     1.8619     0.0125     4.8148 </r>
       <r>     1.9898     0.0005     4.8148 </r>
       <r>     2.1176     0.0000     4.8148 </r>
       <r>     2.2455     0.0000     4.8148 </r>
       <r>     2.3734     0.0000     4.8148 </r>
       <r>     2.5013     0.0000     4.8148 </r>
       <r>     2.6291     0.0001     4.8148 </r>
       <r>     2.7570     0.0024     4.8151 </r>
       <r>     2.8849     0.0433     4.8207 </r>
       <r>     3.0128     0.3560     4.8662 </r>
       <r>     3.1406     1.3663     5.0409 </r>
       <r>     3.2685     2.5799     5.3708 </r>
       <r>     3.3964     2.9353     5.7462 </r>
       <r>     3.5243     2.9198     6.1196 </r>
       <r>     3.6521     2.3621     6.4216 </r>
       <r>     3.7800     1.0754     6.5591 </r>
       <r>     3.9079     0.2364     6.5894 </r>
       <r>     4.0358     0.0245     6.5925 </r>
       <r>     4.1636     0.0112     6.5939 </r>
       <r>     4.2915     0.1349     6.6112 </r>
       <r>     4.4194     0.8366     6.7182 </r>
       <r>     4.5473     2.4043     7.0256 </r>
       <r>     4.6751     3.2153     7.4368 </r>
       <r>     4.8030     2.0035     7.6930 </r>
       <r>     4.9309     0.5805     7.7672 </r>
       <r>     5.0588     0.0782     7.7772 </r>
       <r>     5.1866     0.0119     7.7787 </r>
       <r>     5.3145     0.0662     7.7872 </r>
       <r>     5.4424     0.2845     7.8236 </r>
       <r>     5.5703     0.5690     7.8963 </r>
       <r>     5.6981     0.5300     7.9641 </r>
       <r>     5.8260     0.2302     7.9935 </r>
       <r>     5.9539     0.0537     8.0004 </r>
       <r>     6.0818     0.0874     8.0116 </r>
       <r>     6.2096     0.4303     8.0666 </r>
       <r>     6.3375     1.0334     8.1988 </r>
       <r>     6.4654     1.1560     8.3466 </r>
       <r>     6.5933     0.6025     8.4236 </r>
       <r>     6.7211     0.1505     8.4429 </r>
       <r>     6.8490     0.0915     8.4546 </r>
       <r>     6.9769     0.5779     8.5285 </r>
       <r>     7.1048     2.1193     8.7995 </r>
       <r>     7.2327     3.7857     9.2836 </r>
       <r>     7.3605     3.4138     9.7201 </r>
       <r>     7.4884     1.9527     9.9698 </r>
       <r>     7.6163     1.4169    10.1510 </r>
       <r>     7.7442     1.1180    10.2940 </r>
       <r>     7.8720     0.5371    10.3626 </r>
       <r>     7.9999     0.3355    10.4056 </r>
       <r>     8.1278     0.5429    10.4750 </r>
       <r>     8.2557     0.5688    10.5477 </r>
       <r>     8.3835     0.2975    10.5858 </r>
       <r>     8.5114     0.1454    10.6044 </r>
       <r>     8.6393     0.1958    10.6294 </r>
       <r>     8.7672     0.3124    10.6693 </r>
       <r>     8.8950     0.8864    10.7827 </r>
       <r>     9.0229     2.3685    11.0856 </r>
       <r>     9.1508     3.2261    11.4981 </r>
       <r>     9.2787     2.0627    11.7619 </r>
       <r>     9.4065     0.6136    11.8403 </r>
       <r>     9.5344     0.0845    11.8511 </r>
       <r>     9.6623     0.0054    11.8518 </r>
       <r>     9.7902     0.0002    11.8519 </r>
       <r>     9.9180     0.0000    11.8519 </r>
       <r>    10.0459     0.0000    11.8519 </r>
       <r>    10.1738     0.0000    11.8519 </r>
       <r>    10.3017     0.0000    11.8519 </r>
       <r>    10.4295     0.0000    11.8519 </r>
       <r>    10.5574     0.0000    11.8519 </r>
       <r>    10.6853     0.0000    11.8519 </r>
       <r>    10.8132     0.0015    11.8520 </r>
       <r>    10.9410     0.0294    11.8558 </r>
       <r>    11.0689     0.2712    11.8905 </r>
       <r>    11.1968     1.1553    12.0382 </r>
       <r>    11.3247     2.2858    12.3305 </r>
       <r>    11.4525     2.1081    12.6001 </r>
       <r>    11.5804     0.9340    12.7195 </r>
       <r>    11.7083     0.4546    12.7777 </r>
       <r>    11.8362     1.1801    12.9286 </r>
       <r>    11.9640     2.2920    13.2217 </r>
       <r>    12.0919     2.1218    13.4930 </r>
       <r>    12.2198     1.1181    13.6360 </r>
       <r>    12.3477     1.2534    13.7962 </r>
       <r>    12.4755     2.7010    14.1416 </r>
       <r>    12.6034     4.1559    14.6731 </r>
       <r>    12.7313     4.9940    15.3117 </r>
       <r>    12.8592     4.5485    15.8933 </r>
       <r>    12.9870     3.0514    16.2835 </r>
       <r>    13.1149     2.9527    16.6611 </r>
       <r>    13.2428     4.4473    17.2298 </r>
       <r>    13.3707     5.3234    17.9105 </r>
       <r>    13.4986     4.9849    18.5480 </r>
       <r>    13.6264     3.3805    18.9803 </r>
       <r>    13.7543     1.3200    19.1491 </r>
       <r>    13.8822     0.2578    19.1820 </r>
       <r>    14.0101     0.0265    19.1854 </r>
       <r>    14.1379     0.0441    19.1911 </r>
       <r>    14.2658     0.3109    19.2308 </r>
       <r>    14.3937     1.0383    19.3636 </r>
       <r>    14.5216     1.6131    19.5699 </r>
       <r>    14.6494     1.1744    19.7200 </r>
       <r>    14.7773     0.4740    19.7807 </r>
       <r>    14.9052     0.4866    19.8429 </r>
       <r>    15.0331     1.0650    19.9791 </r>
       <r>    15.1609     1.4011    20.1582 </r>
       <r>    15.2888     1.4027    20.3376 </r>
       <r>    15.4167     1.3602    20.5115 </r>
       <r>    15.5446     0.8793    20.6240 </r>
       <r>    15.6724     0.2867    20.6606 </r>
       <r>    15.8003     0.0439    20.6663 </r>
       <r>    15.9282     0.0031    20.6667 </r>
       <r>    16.0561     0.0001    20.6667 </r>
       <r>    16.1839     0.0004    20.6667 </r>
       <r>    16.3118     0.0074    20.6677 </r>
       <r>    16.4397     0.0682    20.6764 </r>
       <r>    16.5676     0.2899    20.7135 </r>
       <r>    16.6954     0.5720    20.7866 </r>
       <r>    16.8233     0.5258    20.8538 </r>
       <r>    16.9512     0.2251    20.8826 </r>
       <r>    17.0791     0.0447    20.8883 </r>
       <r>    17.2069     0.0041    20.8889 </r>
       <r>    17.3348     0.0002    20.8889 </r>
       <r>    17.4627     0.0000    20.8889 </r>
       <r>    17.5906     0.0000    20.8889 </r>
       <r>    17.7184     0.0000    20.8889 </r>
       <r>    17.8463     0.0002    20.8889 </r>
       <r>    17.9742     0.0057    20.8896 </r>
       <r>    18.1021     0.0690    20.8985 </r>
       <r>    18.2299     0.3828    20.9474 </r>
       <r>    18.3578     0.9888    21.0739 </r>
       <r>    18.4857     1.2427    21.2328 </r>
       <r>    18.6136     1.1722    21.3827 </r>
       <r>    18.7414     2.1820    21.6617 </r>
       <r>    18.8693     3.7909    22.1465 </r>
       <r>    18.9972     3.4036    22.5817 </r>
       <r>    19.1251     1.4808    22.7711 </r>
       <r>    19.2529     0.3122    22.8110 </r>
       <r>    19.3808     0.0737    22.8204 </r>
       <r>    19.5087     0.3630    22.8668 </r>
       <r>    19.6366     1.4871    23.0570 </r>
       <r>    19.7645     3.2738    23.4756 </r>
       <r>    19.8923     4.4760    24.0480 </r>
       <r>    20.0202     4.2028    24.5854 </r>
       <r>    20.1481     3.1703    24.9908 </r>
       <r>    20.2760     2.9433    25.3672 </r>
       <r>    20.4038     2.8080    25.7263 </r>
       <r>    20.5317     2.1891    26.0062 </r>
       <r>    20.6596     1.8358    26.2410 </r>
       <r>    20.7875     2.4689    26.5567 </r>
       <r>    20.9153     3.7441    27.0355 </r>
       <r>    21.0432     4.0305    27.5509 </r>
       <r>    21.1711     2.7867    27.9072 </r>
       <r>    21.2990     1.2638    28.0688 </r>
       <r>    21.4268     0.9886    28.1952 </r>
       <r>    21.5547     1.8253    28.4286 </r>
       <r>    21.6826     2.7932    28.7858 </r>
       <r>    21.8105     3.7557    29.2661 </r>
       <r>    21.9383     4.3177    29.8182 </r>
       <r>    22.0662     3.2395    30.2325 </r>
       <r>    22.1941     1.3407    30.4039 </r>
       <r>    22.3220     0.2938    30.4415 </r>
       <r>    22.4498     0.1380    30.4591 </r>
       <r>    22.5777     0.6702    30.5448 </r>
       <r>    22.7056     2.0057    30.8013 </r>
       <r>    22.8335     3.1537    31.2046 </r>
       <r>    22.9613     2.9815    31.5858 </r>
       <r>    23.0892     1.8394    31.8210 </r>
       <r>    23.2171     0.6777    31.9077 </r>
       <r>    23.3450     0.1299    31.9243 </r>
       <r>    23.4728     0.0120    31.9259 </r>
       <r>    23.6007     0.0005    31.9259 </r>
       <r>    23.7286     0.0000    31.9259 </r>
       <r>    23.8565     0.0000    31.9259 </r>
       <r>    23.9843     0.0000    31.9259 </r>
       <r>    24.1122     0.0000    31.9259 </r>
       <r>    24.2401     0.0000    31.9259 </r>
       <r>    24.3680     0.0000    31.9259 </r>
       <r>    24.4958     0.0000    31.9259 </r>
       <r>    24.6237     0.0000    31.9259 </r>
       <r>    24.7516     0.0000    31.9259 </r>
       <r>    24.8795     0.0000    31.9259 </r>
       <r>    25.0073     0.0000    31.9259 </r>
       <r>    25.1352     0.0000    31.9259 </r>
       <r>    25.2631     0.0000    31.9259 </r>
       <r>    25.3910     0.0000    31.9259 </r>
       <r>    25.5188     0.0000    31.9259 </r>
       <r>    25.6467     0.0000    31.9259 </r>
       <r>    25.7746     0.0000    31.9259 </r>
       <r>    25.9025     0.0000    31.9259 </r>
       <r>    26.0304     0.0000    31.9259 </r>
       <r>    26.1582     0.0000    31.9259 </r>
       <r>    26.2861     0.0000    31.9259 </r>
       <r>    26.4140     0.0000    31.9259 </r>
       <r>    26.5419     0.0000    31.9259 </r>
       <r>    26.6697     0.0000    31.9259 </r>
       <r>    26.7976     0.0000    31.9259 </r>
       <r>    26.9255     0.0000    31.9259 </r>
       <r>    27.0534     0.0000    31.9259 </r>
       <r>    27.1812     0.0000    31.9259 </r>
       <r>    27.3091     0.0000    31.9259 </r>
       <r>    27.4370     0.0000    31.9259 </r>
       <r>    27.5649     0.0000    31.9259 </r>
       <r>    27.6927     0.0000    31.9259 </r>
       <r>    27.8206     0.0007    31.9260 </r>
       <r>    27.9485     0.0088    31.9271 </r>
       <r>    28.0764     0.0539    31.9340 </r>
       <r>    28.2042     0.1524    31.9535 </r>
       <r>    28.3321     0.2005    31.9792 </r>
       <r>    28.4600     0.1230    31.9949 </r>
       <r>    28.5879     0.0351    31.9994 </r>
       <r>    28.7157     0.0046    32.0000 </r>
       <r>    28.8436     0.0003    32.0000 </r>
       <r>    28.9715     0.0000    32.0000 </r>
       <r>    29.0994     0.0000    32.0000 </r>
       <r>    29.2272     0.0000    32.0000 </r>
       <r>    29.3551     0.0000    32.0000 </r>
       <r>    29.4830     0.0000    32.0000 </r>
       <r>    29.6109     0.0000    32.0000 </r>
       <r>    29.7387     0.0000    32.0000 </r>
       <r>    29.8666     0.0000    32.0000 </r>
       <r>    29.9945     0.0000    32.0000 </r>
       <r>    30.1224     0.0000    32.0000 </r>
       <r>    30.2502     0.0000    32.0000 </r>
      </set>
     </set>
    </array>
   </total>
  </dos>
 </calculation>
 <structure name="finalpos" >
  <crystal>
   <varray name="basis" >
    <v>       0.00000000       2.74682114       2.74682114 </v>
    <v>       2.74682114       0.00000000       2.74682114 </v>
    <v>       2.74682114       2.74682114       0.00000000 </v>
   </varray>
   <i name="volume">     41.44967579 </i>
   <varray name="rec_basis" >
    <v>      -0.18202860       0.18202860       0.18202860 </v>
    <v>       0.18202860      -0.18202860       0.18202860 </v>
    <v>       0.18202860       0.18202860      -0.18202860 </v>
   </varray>
  </crystal>
  <varray name="positions" >
   <v>       0.75000000       0.75000000       0.75000000 </v>
   <v>       0.50000000       0.50000000       0.50000000 </v>
  </varray>
 </structure>
</modeling>
