 running on   16 total cores
 distrk:  each k-point on   16 cores,    1 groups
 distr:  one band on    1 cores,   16 groups
 using from now: INCAR     
 vasp.5.4.1 24Jun15 (build Feb  9 2019 14:16:27) complex                         
 POSCAR found type information on POSCAR  Si
 POSCAR found :  1 types and       2 ions
 scaLAPACK will be used

 ----------------------------------------------------------------------------- 
|                                                                             |
|           W    W    AA    RRRRR   N    N  II  N    N   GGGG   !!!           |
|           W    W   A  A   R    R  NN   N  II  NN   N  G    G  !!!           |
|           W    W  A    A  R    R  N N  N  II  N N  N  G       !!!           |
|           W WW W  AAAAAA  RRRRR   N  N N  II  N  N N  G  GGG   !            |
|           WW  WW  A    A  R   R   N   NN  II  N   NN  G    G                |
|           W    W  A    A  R    R  N    N  II  N    N   GGGG   !!!           |
|                                                                             |
|      For optimal performance we recommend to set                            |
|        NCORE= 4 - approx SQRT( number of cores)                             |
|      NCORE specifies how many cores store one orbital (NPAR=cpu/NCORE).     |
|      This setting can  greatly improve the performance of VASP for DFT.     |
|      The default, NPAR=number of cores might be grossly inefficient         |
|      on modern multi-core architectures or massively parallel machines.     |
|      Do your own testing !!!!                                               |
|      Unfortunately you need to use the default for GW and RPA calculations. |
|      (for HF NCORE is supported but not extensively tested yet)             |
|                                                                             |
 ----------------------------------------------------------------------------- 


 ----------------------------------------------------------------------------- 
|                                                                             |
|  ADVICE TO THIS USER RUNNING 'VASP/VAMP'   (HEAR YOUR MASTER'S VOICE ...):  |
|                                                                             |
|      You have switched on vdW-DFT.                                          |
|      This routine was written and supplied by Jiri Klimes.                  |
|      We recommed that you carefully read and cite the following             |
|      publication                                                            |
|      J. Klimes, D.R. Bowler, A. Michelides                                  |
|        J. Phys.: Cond Matt. 22 022201 (2010)                                |
|      J. Klimes, D.R. Bowler, A. Michelides                                  |
|        Phys. Rev. B. 83, 195131 (2011)                                      |
|      and references therein.                                                |
|                                                                             |
 ----------------------------------------------------------------------------- 


 ----------------------------------------------------------------------------- 
|                                                                             |
|  ADVICE TO THIS USER RUNNING 'VASP/VAMP'   (HEAR YOUR MASTER'S VOICE ...):  |
|                                                                             |
|      You enforced a specific xc-type in the INCAR file,                     |
|      a different type was found on the POTCAR file                          |
|          I HOPE YOU KNOW, WHAT YOU ARE  DOING                               |
|                                                                             |
 ----------------------------------------------------------------------------- 

 LDA part: xc-table for Pade appr. of Perdew
 POSCAR, INCAR and KPOINTS ok, starting setup
 WARNING: small aliasing (wrap around) errors must be expected
 FFT: planning ...
 WAVECAR not read
 entering main loop
       N       E                     dE             d eps       ncg     rms          rms(c)
Total vdW correction in eV:      1.0901334
DAV:   1     0.400892940641E+01    0.40089E+01   -0.33045E+03   128   0.391E+02
DAV:   2    -0.777876588219E+01   -0.11788E+02   -0.11039E+02   176   0.392E+01
DAV:   3    -0.787309991415E+01   -0.94334E-01   -0.94334E-01   160   0.459E+00
DAV:   4    -0.787334369815E+01   -0.24378E-03   -0.24378E-03   208   0.258E-01
DAV:   5    -0.787334374298E+01   -0.44832E-07   -0.44982E-07   160   0.340E-03    0.393E+00
Total vdW correction in eV:      1.1466700
DAV:   6    -0.779242794475E+01    0.80916E-01   -0.10788E-01   208   0.967E-01    0.242E+00
Total vdW correction in eV:      1.2588851
DAV:   7    -0.777045103012E+01    0.21977E-01   -0.25649E-01   176   0.147E+00    0.210E-01
Total vdW correction in eV:      1.2546944
DAV:   8    -0.775257267132E+01    0.17878E-01   -0.59454E-03   128   0.274E-01    0.113E-01
Total vdW correction in eV:      1.2624995
DAV:   9    -0.775313963717E+01   -0.56697E-03   -0.74432E-04   160   0.101E-01    0.563E-02
Total vdW correction in eV:      1.2620190
DAV:  10    -0.775338546890E+01   -0.24583E-03   -0.24722E-05   208   0.221E-02    0.414E-03
Total vdW correction in eV:      1.2619650
DAV:  11    -0.775312327678E+01    0.26219E-03   -0.12525E-06   224   0.381E-03    0.125E-03
Total vdW correction in eV:      1.2620082
DAV:  12    -0.775311621375E+01    0.70630E-05   -0.45712E-08   160   0.109E-03    0.352E-04
Total vdW correction in eV:      1.2620023
DAV:  13    -0.775310213505E+01    0.14079E-04   -0.51781E-09   160   0.263E-04    0.201E-04
Total vdW correction in eV:      1.2620046
DAV:  14    -0.775310592783E+01   -0.37928E-05   -0.31242E-10   128   0.858E-05    0.414E-05
Total vdW correction in eV:      1.2620042
DAV:  15    -0.775310606842E+01   -0.14059E-06   -0.17974E-11   112   0.187E-05    0.947E-06
Total vdW correction in eV:      1.2620043
DAV:  16    -0.775310610694E+01   -0.38522E-07   -0.41715E-12    64   0.612E-06
Total vdW correction in eV:      1.2620042
Total vdW correction in eV:      1.2620042
   1 F= -.77531061E+01 E0= -.77527764E+01  d E =-.775311E+01
 curvature:   0.00 expect dE= 0.000E+00 dE for cont linesearch  0.000E+00
 trial: gam= 0.00000 g(F)=  0.155E-49 g(S)=  0.000E+00 ort = 0.000E+00 (trialstep = 0.100E+01)
 search vector abs. value=  0.100E-09
 reached required accuracy - stopping structural energy minimisation
