datafile (written by JARVIS-FF) 

700 	 atoms 
1  atom types
0.0 20.249999838  xlo xhi
0.0 28.637824408  ylo yhi
0.0 45.820519052  zlo zhi
0E-9 0E-9 0E-9  xy xz yz


Atoms 

     1   1 0.000000 0E-9 15.034857814 13.602966594
     2   1 0.000000 0E-9 20.762422696 13.602966594
     3   1 0.000000 0E-9 26.489987578 13.602966594
     4   1 0.000000 0E-9 3.579728051 13.602966594
     5   1 0.000000 0E-9 9.307292933 13.602966594
     6   1 0.000000 4.049999968 15.034857814 13.602966594
     7   1 0.000000 4.049999968 20.762422696 13.602966594
     8   1 0.000000 4.049999968 26.489987578 13.602966594
     9   1 0.000000 4.049999968 3.579728051 13.602966594
    10   1 0.000000 4.049999968 9.307292933 13.602966594
    11   1 0.000000 8.099999935 15.034857814 13.602966594
    12   1 0.000000 8.099999935 20.762422696 13.602966594
    13   1 0.000000 8.099999935 26.489987578 13.602966594
    14   1 0.000000 8.099999935 3.579728051 13.602966594
    15   1 0.000000 8.099999935 9.307292933 13.602966594
    16   1 0.000000 12.149999903 15.034857814 13.602966594
    17   1 0.000000 12.149999903 20.762422696 13.602966594
    18   1 0.000000 12.149999903 26.489987578 13.602966594
    19   1 0.000000 12.149999903 3.579728051 13.602966594
    20   1 0.000000 12.149999903 9.307292933 13.602966594
    21   1 0.000000 16.199999870 15.034857814 13.602966594
    22   1 0.000000 16.199999870 20.762422696 13.602966594
    23   1 0.000000 16.199999870 26.489987578 13.602966594
    24   1 0.000000 16.199999870 3.579728051 13.602966594
    25   1 0.000000 16.199999870 9.307292933 13.602966594
    26   1 0.000000 2.024999984 16.466749035 15.034857814
    27   1 0.000000 2.024999984 22.194313917 15.034857814
    28   1 0.000000 2.024999984 27.921878798 15.034857814
    29   1 0.000000 2.024999984 5.011619271 15.034857814
    30   1 0.000000 2.024999984 10.739184153 15.034857814
    31   1 0.000000 6.074999951 16.466749035 15.034857814
    32   1 0.000000 6.074999951 22.194313917 15.034857814
    33   1 0.000000 6.074999951 27.921878798 15.034857814
    34   1 0.000000 6.074999951 5.011619271 15.034857814
    35   1 0.000000 6.074999951 10.739184153 15.034857814
    36   1 0.000000 10.124999919 16.466749035 15.034857814
    37   1 0.000000 10.124999919 22.194313917 15.034857814
    38   1 0.000000 10.124999919 27.921878798 15.034857814
    39   1 0.000000 10.124999919 5.011619271 15.034857814
    40   1 0.000000 10.124999919 10.739184153 15.034857814
    41   1 0.000000 14.174999886 16.466749035 15.034857814
    42   1 0.000000 14.174999886 22.194313917 15.034857814
    43   1 0.000000 14.174999886 27.921878798 15.034857814
    44   1 0.000000 14.174999886 5.011619271 15.034857814
    45   1 0.000000 14.174999886 10.739184153 15.034857814
    46   1 0.000000 18.224999854 16.466749035 15.034857814
    47   1 0.000000 18.224999854 22.194313917 15.034857814
    48   1 0.000000 18.224999854 27.921878798 15.034857814
    49   1 0.000000 18.224999854 5.011619271 15.034857814
    50   1 0.000000 18.224999854 10.739184153 15.034857814
    51   1 0.000000 2.024999984 13.602966594 15.034857814
    52   1 0.000000 2.024999984 19.330531476 15.034857814
    53   1 0.000000 2.024999984 25.058096357 15.034857814
    54   1 0.000000 2.024999984 2.147836831 15.034857814
    55   1 0.000000 2.024999984 7.875401712 15.034857814
    56   1 0.000000 6.074999951 13.602966594 15.034857814
    57   1 0.000000 6.074999951 19.330531476 15.034857814
    58   1 0.000000 6.074999951 25.058096357 15.034857814
    59   1 0.000000 6.074999951 2.147836831 15.034857814
    60   1 0.000000 6.074999951 7.875401712 15.034857814
    61   1 0.000000 10.124999919 13.602966594 15.034857814
    62   1 0.000000 10.124999919 19.330531476 15.034857814
    63   1 0.000000 10.124999919 25.058096357 15.034857814
    64   1 0.000000 10.124999919 2.147836831 15.034857814
    65   1 0.000000 10.124999919 7.875401712 15.034857814
    66   1 0.000000 14.174999886 13.602966594 15.034857814
    67   1 0.000000 14.174999886 19.330531476 15.034857814
    68   1 0.000000 14.174999886 25.058096357 15.034857814
    69   1 0.000000 14.174999886 2.147836831 15.034857814
    70   1 0.000000 14.174999886 7.875401712 15.034857814
    71   1 0.000000 18.224999854 13.602966594 15.034857814
    72   1 0.000000 18.224999854 19.330531476 15.034857814
    73   1 0.000000 18.224999854 25.058096357 15.034857814
    74   1 0.000000 18.224999854 2.147836831 15.034857814
    75   1 0.000000 18.224999854 7.875401712 15.034857814
    76   1 0.000000 0E-9 17.898640255 13.602966594
    77   1 0.000000 0E-9 23.626205137 13.602966594
    78   1 0.000000 0E-9 0.715945610 13.602966594
    79   1 0.000000 0E-9 6.443510492 13.602966594
    80   1 0.000000 0E-9 12.171075374 13.602966594
    81   1 0.000000 4.049999968 17.898640255 13.602966594
    82   1 0.000000 4.049999968 23.626205137 13.602966594
    83   1 0.000000 4.049999968 0.715945610 13.602966594
    84   1 0.000000 4.049999968 6.443510492 13.602966594
    85   1 0.000000 4.049999968 12.171075374 13.602966594
    86   1 0.000000 8.099999935 17.898640255 13.602966594
    87   1 0.000000 8.099999935 23.626205137 13.602966594
    88   1 0.000000 8.099999935 0.715945610 13.602966594
    89   1 0.000000 8.099999935 6.443510492 13.602966594
    90   1 0.000000 8.099999935 12.171075374 13.602966594
    91   1 0.000000 12.149999903 17.898640255 13.602966594
    92   1 0.000000 12.149999903 23.626205137 13.602966594
    93   1 0.000000 12.149999903 0.715945610 13.602966594
    94   1 0.000000 12.149999903 6.443510492 13.602966594
    95   1 0.000000 12.149999903 12.171075374 13.602966594
    96   1 0.000000 16.199999870 17.898640255 13.602966594
    97   1 0.000000 16.199999870 23.626205137 13.602966594
    98   1 0.000000 16.199999870 0.715945610 13.602966594
    99   1 0.000000 16.199999870 6.443510492 13.602966594
   100   1 0.000000 16.199999870 12.171075374 13.602966594
   101   1 0.000000 0E-9 12.171075374 16.466749035
   102   1 0.000000 0E-9 17.898640255 16.466749035
   103   1 0.000000 0E-9 23.626205137 16.466749035
   104   1 0.000000 0E-9 0.715945610 16.466749035
   105   1 0.000000 0E-9 6.443510492 16.466749035
   106   1 0.000000 4.049999968 12.171075374 16.466749035
   107   1 0.000000 4.049999968 17.898640255 16.466749035
   108   1 0.000000 4.049999968 23.626205137 16.466749035
   109   1 0.000000 4.049999968 0.715945610 16.466749035
   110   1 0.000000 4.049999968 6.443510492 16.466749035
   111   1 0.000000 8.099999935 12.171075374 16.466749035
   112   1 0.000000 8.099999935 17.898640255 16.466749035
   113   1 0.000000 8.099999935 23.626205137 16.466749035
   114   1 0.000000 8.099999935 0.715945610 16.466749035
   115   1 0.000000 8.099999935 6.443510492 16.466749035
   116   1 0.000000 12.149999903 12.171075374 16.466749035
   117   1 0.000000 12.149999903 17.898640255 16.466749035
   118   1 0.000000 12.149999903 23.626205137 16.466749035
   119   1 0.000000 12.149999903 0.715945610 16.466749035
   120   1 0.000000 12.149999903 6.443510492 16.466749035
   121   1 0.000000 16.199999870 12.171075374 16.466749035
   122   1 0.000000 16.199999870 17.898640255 16.466749035
   123   1 0.000000 16.199999870 23.626205137 16.466749035
   124   1 0.000000 16.199999870 0.715945610 16.466749035
   125   1 0.000000 16.199999870 6.443510492 16.466749035
   126   1 0.000000 2.024999984 13.602966594 17.898640255
   127   1 0.000000 2.024999984 19.330531476 17.898640255
   128   1 0.000000 2.024999984 25.058096357 17.898640255
   129   1 0.000000 2.024999984 2.147836831 17.898640255
   130   1 0.000000 2.024999984 7.875401712 17.898640255
   131   1 0.000000 6.074999951 13.602966594 17.898640255
   132   1 0.000000 6.074999951 19.330531476 17.898640255
   133   1 0.000000 6.074999951 25.058096357 17.898640255
   134   1 0.000000 6.074999951 2.147836831 17.898640255
   135   1 0.000000 6.074999951 7.875401712 17.898640255
   136   1 0.000000 10.124999919 13.602966594 17.898640255
   137   1 0.000000 10.124999919 19.330531476 17.898640255
   138   1 0.000000 10.124999919 25.058096357 17.898640255
   139   1 0.000000 10.124999919 2.147836831 17.898640255
   140   1 0.000000 10.124999919 7.875401712 17.898640255
   141   1 0.000000 14.174999886 13.602966594 17.898640255
   142   1 0.000000 14.174999886 19.330531476 17.898640255
   143   1 0.000000 14.174999886 25.058096357 17.898640255
   144   1 0.000000 14.174999886 2.147836831 17.898640255
   145   1 0.000000 14.174999886 7.875401712 17.898640255
   146   1 0.000000 18.224999854 13.602966594 17.898640255
   147   1 0.000000 18.224999854 19.330531476 17.898640255
   148   1 0.000000 18.224999854 25.058096357 17.898640255
   149   1 0.000000 18.224999854 2.147836831 17.898640255
   150   1 0.000000 18.224999854 7.875401712 17.898640255
   151   1 0.000000 2.024999984 10.739184153 17.898640255
   152   1 0.000000 2.024999984 16.466749035 17.898640255
   153   1 0.000000 2.024999984 22.194313917 17.898640255
   154   1 0.000000 2.024999984 27.921878798 17.898640255
   155   1 0.000000 2.024999984 5.011619271 17.898640255
   156   1 0.000000 6.074999951 10.739184153 17.898640255
   157   1 0.000000 6.074999951 16.466749035 17.898640255
   158   1 0.000000 6.074999951 22.194313917 17.898640255
   159   1 0.000000 6.074999951 27.921878798 17.898640255
   160   1 0.000000 6.074999951 5.011619271 17.898640255
   161   1 0.000000 10.124999919 10.739184153 17.898640255
   162   1 0.000000 10.124999919 16.466749035 17.898640255
   163   1 0.000000 10.124999919 22.194313917 17.898640255
   164   1 0.000000 10.124999919 27.921878798 17.898640255
   165   1 0.000000 10.124999919 5.011619271 17.898640255
   166   1 0.000000 14.174999886 10.739184153 17.898640255
   167   1 0.000000 14.174999886 16.466749035 17.898640255
   168   1 0.000000 14.174999886 22.194313917 17.898640255
   169   1 0.000000 14.174999886 27.921878798 17.898640255
   170   1 0.000000 14.174999886 5.011619271 17.898640255
   171   1 0.000000 18.224999854 10.739184153 17.898640255
   172   1 0.000000 18.224999854 16.466749035 17.898640255
   173   1 0.000000 18.224999854 22.194313917 17.898640255
   174   1 0.000000 18.224999854 27.921878798 17.898640255
   175   1 0.000000 18.224999854 5.011619271 17.898640255
   176   1 0.000000 0E-9 15.034857814 16.466749035
   177   1 0.000000 0E-9 20.762422696 16.466749035
   178   1 0.000000 0E-9 26.489987578 16.466749035
   179   1 0.000000 0E-9 3.579728051 16.466749035
   180   1 0.000000 0E-9 9.307292933 16.466749035
   181   1 0.000000 4.049999968 15.034857814 16.466749035
   182   1 0.000000 4.049999968 20.762422696 16.466749035
   183   1 0.000000 4.049999968 26.489987578 16.466749035
   184   1 0.000000 4.049999968 3.579728051 16.466749035
   185   1 0.000000 4.049999968 9.307292933 16.466749035
   186   1 0.000000 8.099999935 15.034857814 16.466749035
   187   1 0.000000 8.099999935 20.762422696 16.466749035
   188   1 0.000000 8.099999935 26.489987578 16.466749035
   189   1 0.000000 8.099999935 3.579728051 16.466749035
   190   1 0.000000 8.099999935 9.307292933 16.466749035
   191   1 0.000000 12.149999903 15.034857814 16.466749035
   192   1 0.000000 12.149999903 20.762422696 16.466749035
   193   1 0.000000 12.149999903 26.489987578 16.466749035
   194   1 0.000000 12.149999903 3.579728051 16.466749035
   195   1 0.000000 12.149999903 9.307292933 16.466749035
   196   1 0.000000 16.199999870 15.034857814 16.466749035
   197   1 0.000000 16.199999870 20.762422696 16.466749035
   198   1 0.000000 16.199999870 26.489987578 16.466749035
   199   1 0.000000 16.199999870 3.579728051 16.466749035
   200   1 0.000000 16.199999870 9.307292933 16.466749035
   201   1 0.000000 0E-9 9.307292933 19.330531476
   202   1 0.000000 0E-9 15.034857814 19.330531476
   203   1 0.000000 0E-9 20.762422696 19.330531476
   204   1 0.000000 0E-9 26.489987578 19.330531476
   205   1 0.000000 0E-9 3.579728051 19.330531476
   206   1 0.000000 4.049999968 9.307292933 19.330531476
   207   1 0.000000 4.049999968 15.034857814 19.330531476
   208   1 0.000000 4.049999968 20.762422696 19.330531476
   209   1 0.000000 4.049999968 26.489987578 19.330531476
   210   1 0.000000 4.049999968 3.579728051 19.330531476
   211   1 0.000000 8.099999935 9.307292933 19.330531476
   212   1 0.000000 8.099999935 15.034857814 19.330531476
   213   1 0.000000 8.099999935 20.762422696 19.330531476
   214   1 0.000000 8.099999935 26.489987578 19.330531476
   215   1 0.000000 8.099999935 3.579728051 19.330531476
   216   1 0.000000 12.149999903 9.307292933 19.330531476
   217   1 0.000000 12.149999903 15.034857814 19.330531476
   218   1 0.000000 12.149999903 20.762422696 19.330531476
   219   1 0.000000 12.149999903 26.489987578 19.330531476
   220   1 0.000000 12.149999903 3.579728051 19.330531476
   221   1 0.000000 16.199999870 9.307292933 19.330531476
   222   1 0.000000 16.199999870 15.034857814 19.330531476
   223   1 0.000000 16.199999870 20.762422696 19.330531476
   224   1 0.000000 16.199999870 26.489987578 19.330531476
   225   1 0.000000 16.199999870 3.579728051 19.330531476
   226   1 0.000000 2.024999984 10.739184153 20.762422696
   227   1 0.000000 2.024999984 16.466749035 20.762422696
   228   1 0.000000 2.024999984 22.194313917 20.762422696
   229   1 0.000000 2.024999984 27.921878798 20.762422696
   230   1 0.000000 2.024999984 5.011619271 20.762422696
   231   1 0.000000 6.074999951 10.739184153 20.762422696
   232   1 0.000000 6.074999951 16.466749035 20.762422696
   233   1 0.000000 6.074999951 22.194313917 20.762422696
   234   1 0.000000 6.074999951 27.921878798 20.762422696
   235   1 0.000000 6.074999951 5.011619271 20.762422696
   236   1 0.000000 10.124999919 10.739184153 20.762422696
   237   1 0.000000 10.124999919 16.466749035 20.762422696
   238   1 0.000000 10.124999919 22.194313917 20.762422696
   239   1 0.000000 10.124999919 27.921878798 20.762422696
   240   1 0.000000 10.124999919 5.011619271 20.762422696
   241   1 0.000000 14.174999886 10.739184153 20.762422696
   242   1 0.000000 14.174999886 16.466749035 20.762422696
   243   1 0.000000 14.174999886 22.194313917 20.762422696
   244   1 0.000000 14.174999886 27.921878798 20.762422696
   245   1 0.000000 14.174999886 5.011619271 20.762422696
   246   1 0.000000 18.224999854 10.739184153 20.762422696
   247   1 0.000000 18.224999854 16.466749035 20.762422696
   248   1 0.000000 18.224999854 22.194313917 20.762422696
   249   1 0.000000 18.224999854 27.921878798 20.762422696
   250   1 0.000000 18.224999854 5.011619271 20.762422696
   251   1 0.000000 2.024999984 7.875401712 20.762422696
   252   1 0.000000 2.024999984 13.602966594 20.762422696
   253   1 0.000000 2.024999984 19.330531476 20.762422696
   254   1 0.000000 2.024999984 25.058096357 20.762422696
   255   1 0.000000 2.024999984 2.147836831 20.762422696
   256   1 0.000000 6.074999951 7.875401712 20.762422696
   257   1 0.000000 6.074999951 13.602966594 20.762422696
   258   1 0.000000 6.074999951 19.330531476 20.762422696
   259   1 0.000000 6.074999951 25.058096357 20.762422696
   260   1 0.000000 6.074999951 2.147836831 20.762422696
   261   1 0.000000 10.124999919 7.875401712 20.762422696
   262   1 0.000000 10.124999919 13.602966594 20.762422696
   263   1 0.000000 10.124999919 19.330531476 20.762422696
   264   1 0.000000 10.124999919 25.058096357 20.762422696
   265   1 0.000000 10.124999919 2.147836831 20.762422696
   266   1 0.000000 14.174999886 7.875401712 20.762422696
   267   1 0.000000 14.174999886 13.602966594 20.762422696
   268   1 0.000000 14.174999886 19.330531476 20.762422696
   269   1 0.000000 14.174999886 25.058096357 20.762422696
   270   1 0.000000 14.174999886 2.147836831 20.762422696
   271   1 0.000000 18.224999854 7.875401712 20.762422696
   272   1 0.000000 18.224999854 13.602966594 20.762422696
   273   1 0.000000 18.224999854 19.330531476 20.762422696
   274   1 0.000000 18.224999854 25.058096357 20.762422696
   275   1 0.000000 18.224999854 2.147836831 20.762422696
   276   1 0.000000 0E-9 12.171075374 19.330531476
   277   1 0.000000 0E-9 17.898640255 19.330531476
   278   1 0.000000 0E-9 23.626205137 19.330531476
   279   1 0.000000 0E-9 0.715945610 19.330531476
   280   1 0.000000 0E-9 6.443510492 19.330531476
   281   1 0.000000 4.049999968 12.171075374 19.330531476
   282   1 0.000000 4.049999968 17.898640255 19.330531476
   283   1 0.000000 4.049999968 23.626205137 19.330531476
   284   1 0.000000 4.049999968 0.715945610 19.330531476
   285   1 0.000000 4.049999968 6.443510492 19.330531476
   286   1 0.000000 8.099999935 12.171075374 19.330531476
   287   1 0.000000 8.099999935 17.898640255 19.330531476
   288   1 0.000000 8.099999935 23.626205137 19.330531476
   289   1 0.000000 8.099999935 0.715945610 19.330531476
   290   1 0.000000 8.099999935 6.443510492 19.330531476
   291   1 0.000000 12.149999903 12.171075374 19.330531476
   292   1 0.000000 12.149999903 17.898640255 19.330531476
   293   1 0.000000 12.149999903 23.626205137 19.330531476
   294   1 0.000000 12.149999903 0.715945610 19.330531476
   295   1 0.000000 12.149999903 6.443510492 19.330531476
   296   1 0.000000 16.199999870 12.171075374 19.330531476
   297   1 0.000000 16.199999870 17.898640255 19.330531476
   298   1 0.000000 16.199999870 23.626205137 19.330531476
   299   1 0.000000 16.199999870 0.715945610 19.330531476
   300   1 0.000000 16.199999870 6.443510492 19.330531476
   301   1 0.000000 0E-9 6.443510492 22.194313917
   302   1 0.000000 0E-9 12.171075374 22.194313917
   303   1 0.000000 0E-9 17.898640255 22.194313917
   304   1 0.000000 0E-9 23.626205137 22.194313917
   305   1 0.000000 0E-9 0.715945610 22.194313917
   306   1 0.000000 4.049999968 6.443510492 22.194313917
   307   1 0.000000 4.049999968 12.171075374 22.194313917
   308   1 0.000000 4.049999968 17.898640255 22.194313917
   309   1 0.000000 4.049999968 23.626205137 22.194313917
   310   1 0.000000 4.049999968 0.715945610 22.194313917
   311   1 0.000000 8.099999935 6.443510492 22.194313917
   312   1 0.000000 8.099999935 12.171075374 22.194313917
   313   1 0.000000 8.099999935 17.898640255 22.194313917
   314   1 0.000000 8.099999935 23.626205137 22.194313917
   315   1 0.000000 8.099999935 0.715945610 22.194313917
   316   1 0.000000 12.149999903 6.443510492 22.194313917
   317   1 0.000000 12.149999903 12.171075374 22.194313917
   318   1 0.000000 12.149999903 17.898640255 22.194313917
   319   1 0.000000 12.149999903 23.626205137 22.194313917
   320   1 0.000000 12.149999903 0.715945610 22.194313917
   321   1 0.000000 16.199999870 6.443510492 22.194313917
   322   1 0.000000 16.199999870 12.171075374 22.194313917
   323   1 0.000000 16.199999870 17.898640255 22.194313917
   324   1 0.000000 16.199999870 23.626205137 22.194313917
   325   1 0.000000 16.199999870 0.715945610 22.194313917
   326   1 0.000000 2.024999984 7.875401712 23.626205137
   327   1 0.000000 2.024999984 13.602966594 23.626205137
   328   1 0.000000 2.024999984 19.330531476 23.626205137
   329   1 0.000000 2.024999984 25.058096357 23.626205137
   330   1 0.000000 2.024999984 2.147836831 23.626205137
   331   1 0.000000 6.074999951 7.875401712 23.626205137
   332   1 0.000000 6.074999951 13.602966594 23.626205137
   333   1 0.000000 6.074999951 19.330531476 23.626205137
   334   1 0.000000 6.074999951 25.058096357 23.626205137
   335   1 0.000000 6.074999951 2.147836831 23.626205137
   336   1 0.000000 10.124999919 7.875401712 23.626205137
   337   1 0.000000 10.124999919 13.602966594 23.626205137
   338   1 0.000000 10.124999919 19.330531476 23.626205137
   339   1 0.000000 10.124999919 25.058096357 23.626205137
   340   1 0.000000 10.124999919 2.147836831 23.626205137
   341   1 0.000000 14.174999886 7.875401712 23.626205137
   342   1 0.000000 14.174999886 13.602966594 23.626205137
   343   1 0.000000 14.174999886 19.330531476 23.626205137
   344   1 0.000000 14.174999886 25.058096357 23.626205137
   345   1 0.000000 14.174999886 2.147836831 23.626205137
   346   1 0.000000 18.224999854 7.875401712 23.626205137
   347   1 0.000000 18.224999854 13.602966594 23.626205137
   348   1 0.000000 18.224999854 19.330531476 23.626205137
   349   1 0.000000 18.224999854 25.058096357 23.626205137
   350   1 0.000000 18.224999854 2.147836831 23.626205137
   351   1 0.000000 2.024999984 5.011619271 23.626205137
   352   1 0.000000 2.024999984 10.739184153 23.626205137
   353   1 0.000000 2.024999984 16.466749035 23.626205137
   354   1 0.000000 2.024999984 22.194313917 23.626205137
   355   1 0.000000 2.024999984 27.921878798 23.626205137
   356   1 0.000000 6.074999951 5.011619271 23.626205137
   357   1 0.000000 6.074999951 10.739184153 23.626205137
   358   1 0.000000 6.074999951 16.466749035 23.626205137
   359   1 0.000000 6.074999951 22.194313917 23.626205137
   360   1 0.000000 6.074999951 27.921878798 23.626205137
   361   1 0.000000 10.124999919 5.011619271 23.626205137
   362   1 0.000000 10.124999919 10.739184153 23.626205137
   363   1 0.000000 10.124999919 16.466749035 23.626205137
   364   1 0.000000 10.124999919 22.194313917 23.626205137
   365   1 0.000000 10.124999919 27.921878798 23.626205137
   366   1 0.000000 14.174999886 5.011619271 23.626205137
   367   1 0.000000 14.174999886 10.739184153 23.626205137
   368   1 0.000000 14.174999886 16.466749035 23.626205137
   369   1 0.000000 14.174999886 22.194313917 23.626205137
   370   1 0.000000 14.174999886 27.921878798 23.626205137
   371   1 0.000000 18.224999854 5.011619271 23.626205137
   372   1 0.000000 18.224999854 10.739184153 23.626205137
   373   1 0.000000 18.224999854 16.466749035 23.626205137
   374   1 0.000000 18.224999854 22.194313917 23.626205137
   375   1 0.000000 18.224999854 27.921878798 23.626205137
   376   1 0.000000 0E-9 9.307292933 22.194313917
   377   1 0.000000 0E-9 15.034857814 22.194313917
   378   1 0.000000 0E-9 20.762422696 22.194313917
   379   1 0.000000 0E-9 26.489987578 22.194313917
   380   1 0.000000 0E-9 3.579728051 22.194313917
   381   1 0.000000 4.049999968 9.307292933 22.194313917
   382   1 0.000000 4.049999968 15.034857814 22.194313917
   383   1 0.000000 4.049999968 20.762422696 22.194313917
   384   1 0.000000 4.049999968 26.489987578 22.194313917
   385   1 0.000000 4.049999968 3.579728051 22.194313917
   386   1 0.000000 8.099999935 9.307292933 22.194313917
   387   1 0.000000 8.099999935 15.034857814 22.194313917
   388   1 0.000000 8.099999935 20.762422696 22.194313917
   389   1 0.000000 8.099999935 26.489987578 22.194313917
   390   1 0.000000 8.099999935 3.579728051 22.194313917
   391   1 0.000000 12.149999903 9.307292933 22.194313917
   392   1 0.000000 12.149999903 15.034857814 22.194313917
   393   1 0.000000 12.149999903 20.762422696 22.194313917
   394   1 0.000000 12.149999903 26.489987578 22.194313917
   395   1 0.000000 12.149999903 3.579728051 22.194313917
   396   1 0.000000 16.199999870 9.307292933 22.194313917
   397   1 0.000000 16.199999870 15.034857814 22.194313917
   398   1 0.000000 16.199999870 20.762422696 22.194313917
   399   1 0.000000 16.199999870 26.489987578 22.194313917
   400   1 0.000000 16.199999870 3.579728051 22.194313917
   401   1 0.000000 0E-9 3.579728051 25.058096357
   402   1 0.000000 0E-9 9.307292933 25.058096357
   403   1 0.000000 0E-9 15.034857814 25.058096357
   404   1 0.000000 0E-9 20.762422696 25.058096357
   405   1 0.000000 0E-9 26.489987578 25.058096357
   406   1 0.000000 4.049999968 3.579728051 25.058096357
   407   1 0.000000 4.049999968 9.307292933 25.058096357
   408   1 0.000000 4.049999968 15.034857814 25.058096357
   409   1 0.000000 4.049999968 20.762422696 25.058096357
   410   1 0.000000 4.049999968 26.489987578 25.058096357
   411   1 0.000000 8.099999935 3.579728051 25.058096357
   412   1 0.000000 8.099999935 9.307292933 25.058096357
   413   1 0.000000 8.099999935 15.034857814 25.058096357
   414   1 0.000000 8.099999935 20.762422696 25.058096357
   415   1 0.000000 8.099999935 26.489987578 25.058096357
   416   1 0.000000 12.149999903 3.579728051 25.058096357
   417   1 0.000000 12.149999903 9.307292933 25.058096357
   418   1 0.000000 12.149999903 15.034857814 25.058096357
   419   1 0.000000 12.149999903 20.762422696 25.058096357
   420   1 0.000000 12.149999903 26.489987578 25.058096357
   421   1 0.000000 16.199999870 3.579728051 25.058096357
   422   1 0.000000 16.199999870 9.307292933 25.058096357
   423   1 0.000000 16.199999870 15.034857814 25.058096357
   424   1 0.000000 16.199999870 20.762422696 25.058096357
   425   1 0.000000 16.199999870 26.489987578 25.058096357
   426   1 0.000000 2.024999984 5.011619271 26.489987578
   427   1 0.000000 2.024999984 10.739184153 26.489987578
   428   1 0.000000 2.024999984 16.466749035 26.489987578
   429   1 0.000000 2.024999984 22.194313917 26.489987578
   430   1 0.000000 2.024999984 27.921878798 26.489987578
   431   1 0.000000 6.074999951 5.011619271 26.489987578
   432   1 0.000000 6.074999951 10.739184153 26.489987578
   433   1 0.000000 6.074999951 16.466749035 26.489987578
   434   1 0.000000 6.074999951 22.194313917 26.489987578
   435   1 0.000000 6.074999951 27.921878798 26.489987578
   436   1 0.000000 10.124999919 5.011619271 26.489987578
   437   1 0.000000 10.124999919 10.739184153 26.489987578
   438   1 0.000000 10.124999919 16.466749035 26.489987578
   439   1 0.000000 10.124999919 22.194313917 26.489987578
   440   1 0.000000 10.124999919 27.921878798 26.489987578
   441   1 0.000000 14.174999886 5.011619271 26.489987578
   442   1 0.000000 14.174999886 10.739184153 26.489987578
   443   1 0.000000 14.174999886 16.466749035 26.489987578
   444   1 0.000000 14.174999886 22.194313917 26.489987578
   445   1 0.000000 14.174999886 27.921878798 26.489987578
   446   1 0.000000 18.224999854 5.011619271 26.489987578
   447   1 0.000000 18.224999854 10.739184153 26.489987578
   448   1 0.000000 18.224999854 16.466749035 26.489987578
   449   1 0.000000 18.224999854 22.194313917 26.489987578
   450   1 0.000000 18.224999854 27.921878798 26.489987578
   451   1 0.000000 2.024999984 2.147836831 26.489987578
   452   1 0.000000 2.024999984 7.875401712 26.489987578
   453   1 0.000000 2.024999984 13.602966594 26.489987578
   454   1 0.000000 2.024999984 19.330531476 26.489987578
   455   1 0.000000 2.024999984 25.058096357 26.489987578
   456   1 0.000000 6.074999951 2.147836831 26.489987578
   457   1 0.000000 6.074999951 7.875401712 26.489987578
   458   1 0.000000 6.074999951 13.602966594 26.489987578
   459   1 0.000000 6.074999951 19.330531476 26.489987578
   460   1 0.000000 6.074999951 25.058096357 26.489987578
   461   1 0.000000 10.124999919 2.147836831 26.489987578
   462   1 0.000000 10.124999919 7.875401712 26.489987578
   463   1 0.000000 10.124999919 13.602966594 26.489987578
   464   1 0.000000 10.124999919 19.330531476 26.489987578
   465   1 0.000000 10.124999919 25.058096357 26.489987578
   466   1 0.000000 14.174999886 2.147836831 26.489987578
   467   1 0.000000 14.174999886 7.875401712 26.489987578
   468   1 0.000000 14.174999886 13.602966594 26.489987578
   469   1 0.000000 14.174999886 19.330531476 26.489987578
   470   1 0.000000 14.174999886 25.058096357 26.489987578
   471   1 0.000000 18.224999854 2.147836831 26.489987578
   472   1 0.000000 18.224999854 7.875401712 26.489987578
   473   1 0.000000 18.224999854 13.602966594 26.489987578
   474   1 0.000000 18.224999854 19.330531476 26.489987578
   475   1 0.000000 18.224999854 25.058096357 26.489987578
   476   1 0.000000 0E-9 6.443510492 25.058096357
   477   1 0.000000 0E-9 12.171075374 25.058096357
   478   1 0.000000 0E-9 17.898640255 25.058096357
   479   1 0.000000 0E-9 23.626205137 25.058096357
   480   1 0.000000 0E-9 0.715945610 25.058096357
   481   1 0.000000 4.049999968 6.443510492 25.058096357
   482   1 0.000000 4.049999968 12.171075374 25.058096357
   483   1 0.000000 4.049999968 17.898640255 25.058096357
   484   1 0.000000 4.049999968 23.626205137 25.058096357
   485   1 0.000000 4.049999968 0.715945610 25.058096357
   486   1 0.000000 8.099999935 6.443510492 25.058096357
   487   1 0.000000 8.099999935 12.171075374 25.058096357
   488   1 0.000000 8.099999935 17.898640255 25.058096357
   489   1 0.000000 8.099999935 23.626205137 25.058096357
   490   1 0.000000 8.099999935 0.715945610 25.058096357
   491   1 0.000000 12.149999903 6.443510492 25.058096357
   492   1 0.000000 12.149999903 12.171075374 25.058096357
   493   1 0.000000 12.149999903 17.898640255 25.058096357
   494   1 0.000000 12.149999903 23.626205137 25.058096357
   495   1 0.000000 12.149999903 0.715945610 25.058096357
   496   1 0.000000 16.199999870 6.443510492 25.058096357
   497   1 0.000000 16.199999870 12.171075374 25.058096357
   498   1 0.000000 16.199999870 17.898640255 25.058096357
   499   1 0.000000 16.199999870 23.626205137 25.058096357
   500   1 0.000000 16.199999870 0.715945610 25.058096357
   501   1 0.000000 0E-9 0.715945610 27.921878798
   502   1 0.000000 0E-9 6.443510492 27.921878798
   503   1 0.000000 0E-9 12.171075374 27.921878798
   504   1 0.000000 0E-9 17.898640255 27.921878798
   505   1 0.000000 0E-9 23.626205137 27.921878798
   506   1 0.000000 4.049999968 0.715945610 27.921878798
   507   1 0.000000 4.049999968 6.443510492 27.921878798
   508   1 0.000000 4.049999968 12.171075374 27.921878798
   509   1 0.000000 4.049999968 17.898640255 27.921878798
   510   1 0.000000 4.049999968 23.626205137 27.921878798
   511   1 0.000000 8.099999935 0.715945610 27.921878798
   512   1 0.000000 8.099999935 6.443510492 27.921878798
   513   1 0.000000 8.099999935 12.171075374 27.921878798
   514   1 0.000000 8.099999935 17.898640255 27.921878798
   515   1 0.000000 8.099999935 23.626205137 27.921878798
   516   1 0.000000 12.149999903 0.715945610 27.921878798
   517   1 0.000000 12.149999903 6.443510492 27.921878798
   518   1 0.000000 12.149999903 12.171075374 27.921878798
   519   1 0.000000 12.149999903 17.898640255 27.921878798