datafile (written by JARVIS-FF) 

1008 	 atoms 
1  atom types
0.0 29.204965097  xlo xhi
0.0 25.217301550  ylo yhi
0.0 48.708360947  zlo zhi
4.493071553 0E-9 0E-9  xy xz yz


Atoms 

     1   1 0.000000 31.482702760 16.523836978 16.191019982
     2   1 0.000000 16.880220211 16.523836978 16.191019982
     3   1 0.000000 25.866363318 12.320953387 16.191019982
     4   1 0.000000 11.263880769 12.320953387 16.191019982
     5   1 0.000000 28.112899095 17.124248920 14.026203940
     6   1 0.000000 13.510416546 17.124248920 14.026203940
     7   1 0.000000 29.236166983 3.915186203 16.191019982
     8   1 0.000000 14.633684434 3.915186203 16.191019982
     9   1 0.000000 2.277737662 8.718481737 14.026203940
    10   1 0.000000 16.880220211 8.718481737 14.026203940
    11   1 0.000000 2.277737662 12.621159357 15.108611961
    12   1 0.000000 16.880220211 12.621159357 15.108611961
    13   1 0.000000 22.496559653 9.018687707 12.943795919
    14   1 0.000000 7.894077104 9.018687707 12.943795919
    15   1 0.000000 22.496559653 12.921365328 14.026203940
    16   1 0.000000 7.894077104 12.921365328 14.026203940
    17   1 0.000000 22.496559653 16.824042949 15.108611961
    18   1 0.000000 7.894077104 16.824042949 15.108611961
    19   1 0.000000 25.866363318 0.612920524 12.943795919
    20   1 0.000000 11.263880769 0.612920524 12.943795919
    21   1 0.000000 25.866363318 4.515598145 14.026203940
    22   1 0.000000 11.263880769 4.515598145 14.026203940
    23   1 0.000000 25.866363318 8.418275766 15.108611961
    24   1 0.000000 11.263880769 8.418275766 15.108611961
    25   1 0.000000 4.524273439 21.327132512 14.026203940
    26   1 0.000000 19.126755988 21.327132512 14.026203940
    27   1 0.000000 0.031201886 0.012508582 15.108611961
    28   1 0.000000 14.633684434 0.012508582 15.108611961
    29   1 0.000000 24.743095430 21.627338483 12.943795919
    30   1 0.000000 10.140612881 21.627338483 12.943795919
    31   1 0.000000 20.250023876 0.312714553 14.026203940
    32   1 0.000000 5.647541328 0.312714553 14.026203940
    33   1 0.000000 20.250023876 4.215392174 15.108611961
    34   1 0.000000 5.647541328 4.215392174 15.108611961
    35   1 0.000000 28.112899095 21.026926541 15.108611961
    36   1 0.000000 13.510416546 21.026926541 15.108611961
    37   1 0.000000 6.209175272 19.075587731 14.567407950
    38   1 0.000000 20.811657820 19.075587731 14.567407950
    39   1 0.000000 29.797800927 14.872704139 14.567407950
    40   1 0.000000 15.195318379 14.872704139 14.567407950
    41   1 0.000000 29.797800927 18.775381760 15.649815971
    42   1 0.000000 15.195318379 18.775381760 15.649815971
    43   1 0.000000 3.962639495 6.466936955 14.567407950
    44   1 0.000000 18.565122044 6.466936955 14.567407950
    45   1 0.000000 3.962639495 10.369614576 15.649815971
    46   1 0.000000 18.565122044 10.369614576 15.649815971
    47   1 0.000000 6.209175272 15.172910110 13.484999929
    48   1 0.000000 20.811657820 15.172910110 13.484999929
    49   1 0.000000 24.181461485 10.669820547 14.567407950
    50   1 0.000000 9.578978937 10.669820547 14.567407950
    51   1 0.000000 24.181461485 14.572498168 15.649815971
    52   1 0.000000 9.578978937 14.572498168 15.649815971
    53   1 0.000000 26.427997262 19.375793701 13.484999929
    54   1 0.000000 11.825514713 19.375793701 13.484999929
    55   1 0.000000 27.551265150 2.264053363 14.567407950
    56   1 0.000000 12.948782602 2.264053363 14.567407950
    57   1 0.000000 27.551265150 6.166730984 15.649815971
    58   1 0.000000 12.948782602 6.166730984 15.649815971
    59   1 0.000000 29.797800927 10.970026518 13.484999929
    60   1 0.000000 15.195318379 10.970026518 13.484999929
    61   1 0.000000 6.209175272 22.978265351 15.649815971
    62   1 0.000000 20.811657820 22.978265351 15.649815971
    63   1 0.000000 3.962639495 2.564259334 13.484999929
    64   1 0.000000 18.565122044 2.564259334 13.484999929
    65   1 0.000000 26.427997262 23.278471322 14.567407950
    66   1 0.000000 11.825514713 23.278471322 14.567407950
    67   1 0.000000 21.934925709 1.963847393 15.649815971
    68   1 0.000000 7.332443160 1.963847393 15.649815971
    69   1 0.000000 24.181461485 6.767142926 13.484999929
    70   1 0.000000 9.578978937 6.767142926 13.484999929
    71   1 0.000000 32.044336704 23.578677293 13.484999929
    72   1 0.000000 17.441854155 23.578677293 13.484999929
    73   1 0.000000 3.401005551 18.925484745 15.108611961
    74   1 0.000000 18.003488099 18.925484745 15.108611961
    75   1 0.000000 26.989631206 14.722601153 15.108611961
    76   1 0.000000 12.387148658 14.722601153 15.108611961
    77   1 0.000000 26.989631206 18.625278774 16.191019982
    78   1 0.000000 12.387148658 18.625278774 16.191019982
    79   1 0.000000 1.154469774 6.316833970 15.108611961
    80   1 0.000000 15.756952323 6.316833970 15.108611961
    81   1 0.000000 30.359434871 10.219511591 16.191019982
    82   1 0.000000 15.756952323 10.219511591 16.191019982
    83   1 0.000000 3.401005551 15.022807124 14.026203940
    84   1 0.000000 18.003488099 15.022807124 14.026203940
    85   1 0.000000 21.373291764 10.519717562 15.108611961
    86   1 0.000000 6.770809216 10.519717562 15.108611961
    87   1 0.000000 23.619827541 15.323013095 12.943795919
    88   1 0.000000 9.017344993 15.323013095 12.943795919
    89   1 0.000000 23.619827541 19.225690716 14.026203940
    90   1 0.000000 9.017344993 19.225690716 14.026203940
    91   1 0.000000 24.743095430 2.113950378 15.108611961
    92   1 0.000000 10.140612881 2.113950378 15.108611961
    93   1 0.000000 24.743095430 6.016627999 16.191019982
    94   1 0.000000 10.140612881 6.016627999 16.191019982
    95   1 0.000000 26.989631206 10.819923532 14.026203940
    96   1 0.000000 12.387148658 10.819923532 14.026203940
    97   1 0.000000 32.605970648 22.828162366 16.191019982
    98   1 0.000000 18.003488099 22.828162366 16.191019982
    99   1 0.000000 1.154469774 2.414156349 14.026203940
   100   1 0.000000 15.756952323 2.414156349 14.026203940
   101   1 0.000000 23.619827541 23.128368337 15.108611961
   102   1 0.000000 9.017344993 23.128368337 15.108611961
   103   1 0.000000 21.373291764 2.714362320 12.943795919
   104   1 0.000000 6.770809216 2.714362320 12.943795919
   105   1 0.000000 21.373291764 6.617039941 14.026203940
   106   1 0.000000 6.770809216 6.617039941 14.026203940
   107   1 0.000000 29.236166983 23.428574308 14.026203940
   108   1 0.000000 14.633684434 23.428574308 14.026203940
   109   1 0.000000 5.085907383 16.673939964 15.649815971
   110   1 0.000000 19.688389932 16.673939964 15.649815971
   111   1 0.000000 28.674533039 12.471056372 15.649815971
   112   1 0.000000 14.072050490 12.471056372 15.649815971
   113   1 0.000000 30.921068815 17.274351905 13.484999929
   114   1 0.000000 16.318586267 17.274351905 13.484999929
   115   1 0.000000 2.839371607 4.065289188 15.649815971
   116   1 0.000000 17.441854155 4.065289188 15.649815971
   117   1 0.000000 5.085907383 8.868584722 13.484999929
   118   1 0.000000 19.688389932 8.868584722 13.484999929
   119   1 0.000000 5.085907383 12.771262343 14.567407950
   120   1 0.000000 19.688389932 12.771262343 14.567407950
   121   1 0.000000 23.058193597 8.268172780 15.649815971
   122   1 0.000000 8.455711048 8.268172780 15.649815971
   123   1 0.000000 25.304729374 13.071468314 13.484999929
   124   1 0.000000 10.702246825 13.071468314 13.484999929
   125   1 0.000000 25.304729374 16.974145935 14.567407950
   126   1 0.000000 10.702246825 16.974145935 14.567407950
   127   1 0.000000 30.921068815 25.079707147 15.649815971
   128   1 0.000000 16.318586267 25.079707147 15.649815971
   129   1 0.000000 28.674533039 4.665701130 13.484999929
   130   1 0.000000 14.072050490 4.665701130 13.484999929
   131   1 0.000000 28.674533039 8.568378751 14.567407950
   132   1 0.000000 14.072050490 8.568378751 14.567407950
   133   1 0.000000 7.332443160 21.477235497 13.484999929
   134   1 0.000000 21.934925709 21.477235497 13.484999929
   135   1 0.000000 2.839371607 0.162611568 14.567407950
   136   1 0.000000 17.441854155 0.162611568 14.567407950
   137   1 0.000000 25.304729374 20.876823556 15.649815971
   138   1 0.000000 10.702246825 20.876823556 15.649815971
   139   1 0.000000 23.058193597 0.462817538 13.484999929
   140   1 0.000000 8.455711048 0.462817538 13.484999929
   141   1 0.000000 23.058193597 4.365495159 14.567407950
   142   1 0.000000 8.455711048 4.365495159 14.567407950
   143   1 0.000000 30.921068815 21.177029526 14.567407950
   144   1 0.000000 16.318586267 21.177029526 14.567407950
   145   1 0.000000 29.236166983 15.623219066 19.438244045
   146   1 0.000000 14.633684434 15.623219066 19.438244045
   147   1 0.000000 23.619827541 11.420335474 19.438244045
   148   1 0.000000 9.017344993 11.420335474 19.438244045
   149   1 0.000000 25.866363318 16.223631008 17.273428003
   150   1 0.000000 11.263880769 16.223631008 17.273428003
   151   1 0.000000 26.989631206 3.014568291 19.438244045
   152   1 0.000000 12.387148658 3.014568291 19.438244045
   153   1 0.000000 29.236166983 7.817863824 17.273428003
   154   1 0.000000 14.633684434 7.817863824 17.273428003
   155   1 0.000000 29.236166983 11.720541445 18.355836024
   156   1 0.000000 14.633684434 11.720541445 18.355836024
   157   1 0.000000 20.250023876 8.118069795 16.191019982
   158   1 0.000000 5.647541328 8.118069795 16.191019982
   159   1 0.000000 20.250023876 12.020747416 17.273428003
   160   1 0.000000 5.647541328 12.020747416 17.273428003
   161   1 0.000000 20.250023876 15.923425037 18.355836024
   162   1 0.000000 5.647541328 15.923425037 18.355836024
   163   1 0.000000 28.112899095 24.929604162 16.191019982
   164   1 0.000000 13.510416546 24.929604162 16.191019982
   165   1 0.000000 23.619827541 3.614980232 17.273428003
   166   1 0.000000 9.017344993 3.614980232 17.273428003
   167   1 0.000000 23.619827541 7.517657853 18.355836024
   168   1 0.000000 9.017344993 7.517657853 18.355836024
   169   1 0.000000 31.482702760 20.426514599 17.273428003
   170   1 0.000000 16.880220211 20.426514599 17.273428003
   171   1 0.000000 31.482702760 24.329192220 18.355836024
   172   1 0.000000 16.880220211 24.329192220 18.355836024
   173   1 0.000000 22.496559653 20.726720570 16.191019982
   174   1 0.000000 7.894077104 20.726720570 16.191019982
   175   1 0.000000 22.496559653 24.629398191 17.273428003
   176   1 0.000000 7.894077104 24.629398191 17.273428003
   177   1 0.000000 18.003488099 3.314774261 18.355836024
   178   1 0.000000 3.401005551 3.314774261 18.355836024
   179   1 0.000000 25.866363318 20.126308628 18.355836024
   180   1 0.000000 11.263880769 20.126308628 18.355836024
   181   1 0.000000 3.962639495 18.174969818 17.814632013
   182   1 0.000000 18.565122044 18.174969818 17.814632013
   183   1 0.000000 27.551265150 13.972086226 17.814632013
   184   1 0.000000 12.948782602 13.972086226 17.814632013
   185   1 0.000000 27.551265150 17.874763847 18.897040034
   186   1 0.000000 12.948782602 17.874763847 18.897040034
   187   1 0.000000 1.716103718 5.566319043 17.814632013
   188   1 0.000000 16.318586267 5.566319043 17.814632013
   189   1 0.000000 1.716103718 9.468996664 18.897040034
   190   1 0.000000 16.318586267 9.468996664 18.897040034
   191   1 0.000000 3.962639495 14.272292197 16.732223992
   192   1 0.000000 18.565122044 14.272292197 16.732223992
   193   1 0.000000 21.934925709 9.769202634 17.814632013
   194   1 0.000000 7.332443160 9.769202634 17.814632013
   195   1 0.000000 21.934925709 13.671880255 18.897040034
   196   1 0.000000 7.332443160 13.671880255 18.897040034
   197   1 0.000000 24.181461485 18.475175789 16.732223992
   198   1 0.000000 9.578978937 18.475175789 16.732223992
   199   1 0.000000 25.304729374 1.363435451 17.814632013
   200   1 0.000000 10.702246825 1.363435451 17.814632013
   201   1 0.000000 25.304729374 5.266113072 18.897040034
   202   1 0.000000 10.702246825 5.266113072 18.897040034
   203   1 0.000000 27.551265150 10.069408605 16.732223992
   204   1 0.000000 12.948782602 10.069408605 16.732223992
   205   1 0.000000 3.962639495 22.077647439 18.897040034
   206   1 0.000000 18.565122044 22.077647439 18.897040034
   207   1 0.000000 1.716103718 1.663641422 16.732223992
   208   1 0.000000 16.318586267 1.663641422 16.732223992
   209   1 0.000000 24.181461485 22.377853410 17.814632013
   210   1 0.000000 9.578978937 22.377853410 17.814632013
   211   1 0.000000 19.688389932 1.063229480 18.897040034
   212   1 0.000000 5.085907383 1.063229480 18.897040034
   213   1 0.000000 21.934925709 5.866525014 16.732223992
   214   1 0.000000 7.332443160 5.866525014 16.732223992
   215   1 0.000000 29.797800927 22.678059381 16.732223992
   216   1 0.000000 15.195318379 22.678059381 16.732223992
   217   1 0.000000 30.359434871 18.024866833 18.355836024
   218   1 0.000000 15.756952323 18.024866833 18.355836024
   219   1 0.000000 24.743095430 13.821983241 18.355836024
   220   1 0.000000 10.140612881 13.821983241 18.355836024
   221   1 0.000000 24.743095430 17.724660862 19.438244045
   222   1 0.000000 10.140612881 17.724660862 19.438244045
   223   1 0.000000 28.112899095 5.416216057 18.355836024
   224   1 0.000000 13.510416546 5.416216057 18.355836024
   225   1 0.000000 28.112899095 9.318893678 19.438244045
   226   1 0.000000 13.510416546 9.318893678 19.438244045
   227   1 0.000000 30.359434871 14.122189212 17.273428003
   228   1 0.000000 15.756952323 14.122189212 17.273428003
   229   1 0.000000 19.126755988 9.619099649 18.355836024
   230   1 0.000000 4.524273439 9.619099649 18.355836024
   231   1 0.000000 21.373291764 14.422395182 16.191019982
   232   1 0.000000 6.770809216 14.422395182 16.191019982
   233   1 0.000000 21.373291764 18.325072803 17.273428003
   234   1 0.000000 6.770809216 18.325072803 17.273428003
   235   1 0.000000 22.496559653 1.213332465 18.355836024
   236   1 0.000000 7.894077104 1.213332465 18.355836024
   237   1 0.000000 22.496559653 5.116010086 19.438244045
   238   1 0.000000 7.894077104 5.116010086 19.438244045
   239   1 0.000000 24.743095430 9.919305620 17.273428003
   240   1 0.000000 10.140612881 9.919305620 17.273428003
   241   1 0.000000 30.359434871 21.927544454 19.438244045
   242   1 0.000000 15.756952323 21.927544454 19.438244045
   243   1 0.000000 28.112899095 1.513538436 17.273428003
   244   1 0.000000 13.510416546 1.513538436 17.273428003
   245   1 0.000000 21.373291764 22.227750424 18.355836024
   246   1 0.000000 6.770809216 22.227750424 18.355836024
   247   1 0.000000 19.126755988 1.813744407 16.191019982
   248   1 0.000000 4.524273439 1.813744407 16.191019982
   249   1 0.000000 19.126755988 5.716422028 17.273428003
   250   1 0.000000 4.524273439 5.716422028 17.273428003
   251   1 0.000000 26.989631206 22.527956395 17.273428003
   252   1 0.000000 12.387148658 22.527956395 17.273428003
   253   1 0.000000 2.839371607 15.773322051 18.897040034
   254   1 0.000000 17.441854155 15.773322051 18.897040034
   255   1 0.000000 26.427997262 11.570438460 18.897040034
   256   1 0.000000 11.825514713 11.570438460 18.897040034
   257   1 0.000000 28.674533039 16.373733993 16.732223992
   258   1 0.000000 14.072050490 16.373733993 16.732223992
   259   1 0.000000 0.592835830 3.164671276 18.897040034
   260   1 0.000000 15.195318379 3.164671276 18.897040034
   261   1 0.000000 2.839371607 7.967966809 16.732223992
   262   1 0.000000 17.441854155 7.967966809 16.732223992
   263   1 0.000000 2.839371607 11.870644430 17.814632013
   264   1 0.000000 17.441854155 11.870644430 17.814632013
   265   1 0.000000 20.811657820 7.367554868 18.897040034
   266   1 0.000000 6.209175272 7.367554868 18.897040034
   267   1 0.000000 23.058193597 12.170850401 16.732223992
   268   1 0.000000 8.455711048 12.170850401 16.732223992
   269   1 0.000000 23.058193597 16.073528022 17.814632013
   270   1 0.000000 8.455711048 16.073528022 17.814632013
   271   1 0.000000 28.674533039 24.179089235 18.897040034
   272   1 0.000000 14.072050490 24.179089235 18.897040034
   273   1 0.000000 26.427997262 3.765083218 16.732223992
   274   1 0.000000 11.825514713 3.765083218 16.732223992
   275   1 0.000000 26.427997262 7.667760839 17.814632013
   276   1 0.000000 11.825514713 7.667760839 17.814632013
   277   1 0.000000 5.085907383 20.576617585 16.732223992
   278   1 0.000000 19.688389932 20.576617585 16.732223992
   279   1 0.000000 5.085907383 24.479295206 17.814632013
   280   1 0.000000 19.688389932 24.479295206 17.814632013
   281   1 0.000000 23.058193597 19.976205643 18.897040034
   282   1 0.000000 8.455711048 19.976205643 18.897040034
   283   1 0.000000 25.304729374 24.779501177 16.732223992
   284   1 0.000000 10.702246825 24.779501177 16.732223992
   285   1 0.000000 20.811657820 3.464877247 17.814632013
   286   1 0.000000 6.209175272 3.464877247 17.814632013
   287   1 0.000000 28.674533039 20.276411614 17.814632013
   288   1 0.000000 14.072050490 20.276411614 17.814632013
   289   1 0.000000 26.989631206 14.722601153 22.685468108
   290   1 0.000000 12.387148658 14.722601153 22.685468108
   291   1 0.000000 21.373291764 10.519717562 22.685468108
   292   1 0.000000 6.770809216 10.519717562 22.685468108
   293   1 0.000000 23.619827541 15.323013095 20.520652066
   294   1 0.000000 9.017344993 15.323013095 20.520652066
   295   1 0.000000 24.743095430 2.113950378 22.685468108
   296   1 0.000000 10.140612881 2.113950378 22.685468108
   297   1 0.000000 26.989631206 6.917245911 20.520652066
   298   1 0.000000 12.387148658 6.917245911 20.520652066
   299   1 0.000000 26.989631206 10.819923532 21.603060087
   300   1 0.000000 12.387148658 10.819923532 21.603060087
   301   1 0.000000 18.003488099 7.217451882 19.438244045
   302   1 0.000000 3.401005551 7.217451882 19.438244045
   303   1 0.000000 18.003488099 11.120129503 20.520652066
   304   1 0.000000 3.401005551 11.120129503 20.520652066
   305   1 0.000000 18.003488099 15.022807124 21.603060087
   306   1 0.000000 3.401005551 15.022807124 21.603060087
   307   1 0.000000 25.866363318 24.028986249 19.438244045
   308   1 0.000000 11.263880769 24.028986249 19.438244045
   309   1 0.000000 21.373291764 2.714362320 20.520652066
   310   1 0.000000 6.770809216 2.714362320 20.520652066
   311   1 0.000000 21.373291764 6.617039941 21.603060087
   312   1 0.000000 6.770809216 6.617039941 21.603060087
   313   1 0.000000 29.236166983 19.525896687 20.520652066
   314   1 0.000000 14.633684434 19.525896687 20.520652066
   315   1 0.000000 29.236166983 23.428574308 21.603060087
   316   1 0.000000 14.633684434 23.428574308 21.603060087
   317   1 0.000000 20.250023876 19.826102658 19.438244045
   318   1 0.000000 5.647541328 19.826102658 19.438244045
   319   1 0.000000 20.250023876 23.728780279 20.520652066
   320   1 0.000000 5.647541328 23.728780279 20.520652066
   321   1 0.000000 15.756952323 2.414156349 21.603060087
   322   1 0.000000 1.154469774 2.414156349 21.603060087
   323   1 0.000000 23.619827541 19.225690716 21.603060087
   324   1 0.000000 9.017344993 19.225690716 21.603060087
   325   1 0.000000 30.921068815 17.274351905 21.061856077
   326   1 0.000000 16.318586267 17.274351905 21.061856077
   327   1 0.000000 25.304729374 13.071468314 21.061856077
   328   1 0.000000 10.702246825 13.071468314 21.061856077
   329   1 0.000000 25.304729374 16.974145935 22.144264098
   330   1 0.000000 10.702246825 16.974145935 22.144264098
   331   1 0.000000 28.674533039 4.665701130 21.061856077
   332   1 0.000000 14.072050490 4.665701130 21.061856077
   333   1 0.000000 28.674533039 8.568378751 22.144264098
   334   1 0.000000 14.072050490 8.568378751 22.144264098
   335   1 0.000000 30.921068815 13.371674285 19.979448056
   336   1 0.000000 16.318586267 13.371674285 19.979448056
   337   1 0.000000 19.688389932 8.868584722 21.061856077
   338   1 0.000000 5.085907383 8.868584722 21.061856077
   339   1 0.000000 19.688389932 12.771262343 22.144264098
   340   1 0.000000 5.085907383 12.771262343 22.144264098
   341   1 0.000000 21.934925709 17.574557876 19.979448056
   342   1 0.000000 7.332443160 17.574557876 19.979448056
   343   1 0.000000 23.058193597 0.462817538 21.061856077
   344   1 0.000000 8.455711048 0.462817538 21.061856077
   345   1 0.000000 23.058193597 4.365495159 22.144264098
   346   1 0.000000 8.455711048 4.365495159 22.144264098
   347   1 0.000000 25.304729374 9.168790693 19.979448056
   348   1 0.000000 10.702246825 9.168790693 19.979448056
   349   1 0.000000 30.921068815 21.177029526 22.144264098
   350   1 0.000000 16.318586267 21.177029526 22.144264098
   351   1 0.000000 28.674533039 0.763023509 19.979448056
   352   1 0.000000 14.072050490 0.763023509 19.979448056
   353   1 0.000000 21.934925709 21.477235497 21.061856077
   354   1 0.000000 7.332443160 21.477235497 21.061856077
   355   1 0.000000 17.441854155 0.162611568 22.144264098
   356   1 0.000000 2.839371607 0.162611568 22.144264098
   357   1 0.000000 19.688389932 4.965907101 19.979448056
   358   1 0.000000 5.085907383 4.965907101 19.979448056
   359   1 0.000000 27.551265150 21.777441468 19.979448056
   360   1 0.000000 12.948782602 21.777441468 19.979448056
   361   1 0.000000 28.112899095 17.124248920 21.603060087
   362   1 0.000000 13.510416546 17.124248920 21.603060087
   363   1 0.000000 22.496559653 12.921365328 21.603060087
   364   1 0.000000 7.894077104 12.921365328 21.603060087
   365   1 0.000000 22.496559653 16.824042949 22.685468108
   366   1 0.000000 7.894077104 16.824042949 22.685468108
   367   1 0.000000 25.866363318 4.515598145 21.603060087
   368   1 0.000000 11.263880769 4.515598145 21.603060087
   369   1 0.000000 25.866363318 8.418275766 22.685468108
   370   1 0.000000 11.263880769 8.418275766 22.685468108
   371   1 0.000000 28.112899095 13.221571299 20.520652066
   372   1 0.000000 13.510416546 13.221571299 20.520652066
   373   1 0.000000 16.880220211 8.718481737 21.603060087
   374   1 0.000000 2.277737662 8.718481737 21.603060087
   375   1 0.000000 19.126755988 13.521777270 19.438244045
   376   1 0.000000 4.524273439 13.521777270 19.438244045
   377   1 0.000000 19.126755988 17.424454891 20.520652066
   378   1 0.000000 4.524273439 17.424454891 20.520652066
   379   1 0.000000 20.250023876 0.312714553 21.603060087
   380   1 0.000000 5.647541328 0.312714553 21.603060087
   381   1 0.000000 20.250023876 4.215392174 22.685468108
   382   1 0.000000 5.647541328 4.215392174 22.685468108
   383   1 0.000000 22.496559653 9.018687707 20.520652066
   384   1 0.000000 7.894077104 9.018687707 20.520652066
   385   1 0.000000 28.112899095 21.026926541 22.685468108
   386   1 0.000000 13.510416546 21.026926541 22.685468108
   387   1 0.000000 25.866363318 0.612920524 20.520652066
   388   1 0.000000 11.263880769 0.612920524 20.520652066
   389   1 0.000000 19.126755988 21.327132512 21.603060087
   390   1 0.000000 4.524273439 21.327132512 21.603060087
   391   1 0.000000 16.880220211 0.913126495 19.438244045
   392   1 0.000000 2.277737662 0.913126495 19.438244045
   393   1 0.000000 16.880220211 4.815804116 20.520652066
   394   1 0.000000 2.277737662 4.815804116 20.520652066
   395   1 0.000000 24.743095430 21.627338483 20.520652066
   396   1 0.000000 10.140612881 21.627338483 20.520652066
   397   1 0.000000 29.797800927 14.872704139 22.144264098
   398   1 0.000000 15.195318379 14.872704139 22.144264098
   399   1 0.000000 24.181461485 10.669820547 22.144264098
   400   1 0.000000 9.578978937 10.669820547 22.144264098
   401   1 0.000000 26.427997262 15.473116080 19.979448056
   402   1 0.000000 11.825514713 15.473116080 19.979448056
   403   1 0.000000 27.551265150 2.264053363 22.144264098
   404   1 0.000000 12.948782602 2.264053363 22.144264098
   405   1 0.000000 29.797800927 7.067348897 19.979448056
   406   1 0.000000 15.195318379 7.067348897 19.979448056
   407   1 0.000000 29.797800927 10.970026518 21.061856077
   408   1 0.000000 15.195318379 10.970026518 21.061856077
   409   1 0.000000 18.565122044 6.466936955 22.144264098
   410   1 0.000000 3.962639495 6.466936955 22.144264098
   411   1 0.000000 20.811657820 11.270232489 19.979448056
   412   1 0.000000 6.209175272 11.270232489 19.979448056
   413   1 0.000000 20.811657820 15.172910110 21.061856077
   414   1 0.000000 6.209175272 15.172910110 21.061856077
   415   1 0.000000 26.427997262 23.278471322 22.144264098
   416   1 0.000000 11.825514713 23.278471322 22.144264098
   417   1 0.000000 24.181461485 2.864465305 19.979448056
   418   1 0.000000 9.578978937 2.864465305 19.979448056
   419   1 0.000000 24.181461485 6.767142926 21.061856077
   420   1 0.000000 9.578978937 6.767142926 21.061856077
   421   1 0.000000 32.044336704 19.675999672 19.979448056
   422   1 0.000000 17.441854155 19.675999672 19.979448056
   423   1 0.000000 32.044336704 23.578677293 21.061856077
   424   1 0.000000 17.441854155 23.578677293 21.061856077
   425   1 0.000000 20.811657820 19.075587731 22.144264098
   426   1 0.000000 6.209175272 19.075587731 22.144264098
   427   1 0.000000 23.058193597 23.878883264 19.979448056
   428   1 0.000000 8.455711048 23.878883264 19.979448056
   429   1 0.000000 18.565122044 2.564259334 21.061856077
   430   1 0.000000 3.962639495 2.564259334 21.061856077
   431   1 0.000000 26.427997262 19.375793701 21.061856077
   432   1 0.000000 11.825514713 19.375793701 21.061856077
   433   1 0.000000 24.743095430 13.821983241 25.932692171
   434   1 0.000000 10.140612881 13.821983241 25.932692171
   435   1 0.000000 19.126755988 9.619099649 25.932692171
   436   1 0.000000 4.524273439 9.619099649 25.932692171
   437   1 0.000000 21.373291764 14.422395182 23.767876129
   438   1 0.000000 6.770809216 14.422395182 23.767876129
   439   1 0.000000 22.496559653 1.213332465 25.932692171
   440   1 0.000000 7.894077104 1.213332465 25.932692171
   441   1 0.000000 24.743095430 6.016627999 23.767876129
   442   1 0.000000 10.140612881 6.016627999 23.767876129
   443   1 0.000000 24.743095430 9.919305620 24.850284150
   444   1 0.000000 10.140612881 9.919305620 24.850284150
   445   1 0.000000 15.756952323 6.316833970 22.685468108
   446   1 0.000000 1.154469774 6.316833970 22.685468108
   447   1 0.000000 15.756952323 10.219511591 23.767876129
   448   1 0.000000 30.359434871 10.219511591 23.767876129
   449   1 0.000000 15.756952323 14.122189212 24.850284150
   450   1 0.000000 30.359434871 14.122189212 24.850284150
   451   1 0.000000 23.619827541 23.128368337 22.685468108
   452   1 0.000000 9.017344993 23.128368337 22.685468108
   453   1 0.000000 19.126755988 1.813744407 23.767876129
   454   1 0.000000 4.524273439 1.813744407 23.767876129
   455   1 0.000000 19.126755988 5.716422028 24.850284150
   456   1 0.000000 4.524273439 5.716422028 24.850284150
   457   1 0.000000 26.989631206 18.625278774 23.767876129
   458   1 0.000000 12.387148658 18.625278774 23.767876129
   459   1 0.000000 26.989631206 22.527956395 24.850284150
   460   1 0.000000 12.387148658 22.527956395 24.850284150
   461   1 0.000000 18.003488099 18.925484745 22.685468108
   462   1 0.000000 3.401005551 18.925484745 22.685468108
   463   1 0.000000 18.003488099 22.828162366 23.767876129
   464   1 0.000000 32.605970648 22.828162366 23.767876129
   465   1 0.000000 13.510416546 1.513538436 24.850284150
   466   1 0.000000 28.112899095 1.513538436 24.850284150
   467   1 0.000000 21.373291764 18.325072803 24.850284150
   468   1 0.000000 6.770809216 18.325072803 24.850284150
   469   1 0.000000 28.674533039 16.373733993 24.309080140
   470   1 0.000000 14.072050490 16.373733993 24.309080140
   471   1 0.000000 23.058193597 12.170850401 24.309080140
   472   1 0.000000 8.455711048 12.170850401 24.309080140
   473   1 0.000000 23.058193597 16.073528022 25.391488161
   474   1 0.000000 8.455711048 16.073528022 25.391488161
   475   1 0.000000 26.427997262 3.765083218 24.309080140
   476   1 0.000000 11.825514713 3.765083218 24.309080140
   477   1 0.000000 26.427997262 7.667760839 25.391488161
   478   1 0.000000 11.825514713 7.667760839 25.391488161
   479   1 0.000000 28.674533039 12.471056372 23.226672119
   480   1 0.000000 14.072050490 12.471056372 23.226672119
   481   1 0.000000 17.441854155 7.967966809 24.309080140
   482   1 0.000000 2.839371607 7.967966809 24.309080140
   483   1 0.000000 17.441854155 11.870644430 25.391488161
   484   1 0.000000 2.839371607 11.870644430 25.391488161
   485   1 0.000000 19.688389932 16.673939964 23.226672119
   486   1 0.000000 5.085907383 16.673939964 23.226672119
   487   1 0.000000 25.304729374 24.779501177 24.309080140
   488   1 0.000000 10.702246825 24.779501177 24.309080140
   489   1 0.000000 20.811657820 3.464877247 25.391488161
   490   1 0.000000 6.209175272 3.464877247 25.391488161
   491   1 0.000000 23.058193597 8.268172780 23.226672119
   492   1 0.000000 8.455711048 8.268172780 23.226672119
   493   1 0.000000 28.674533039 20.276411614 25.391488161
   494   1 0.000000 14.072050490 20.276411614 25.391488161
   495   1 0.000000 30.921068815 25.079707147 23.226672119
   496   1 0.000000 16.318586267 25.079707147 23.226672119
   497   1 0.000000 19.688389932 20.576617585 24.309080140
   498   1 0.000000 5.085907383 20.576617585 24.309080140
   499   1 0.000000 19.688389932 24.479295206 25.391488161
   500   1 0.000000 5.085907383 24.479295206 25.391488161
   501   1 0.000000 17.441854155 4.065289188 23.226672119
   502   1 0.000000 2.839371607 4.065289188 23.226672119
   503   1 0.000000 25.304729374 20.876823556 23.226672119
   504   1 0.000000 10.702246825 20.876823556 23.226672119
   505   1 0.000000 25.866363318 16.223631008 24.850284150
   506   1 0.000000 11.263880769 16.223631008 24.850284150
   507   1 0.000000 20.250023876 12.020747416 24.850284150
   508   1 0.000000 5.647541328 12.020747416 24.850284150
   509   1 0.000000 20.250023876 15.923425037 25.932692171
   510   1 0.000000 5.647541328 15.923425037 25.932692171
   511   1 0.000000 23.619827541 3.614980232 24.850284150