LAMMPS data file via write_data, version 13 Jan 2016, timestep = 253

900 atoms
1 atom types

1.7004754476038902e-01 2.8467776863239589e+01 xlo xhi
1.4726549339064837e-01 2.4653817952609380e+01 ylo yhi
-3.0684657500917412e-02 4.6796056085500872e+01 zlo zhi
-1.4148864659494091e+01 0.0000000000000000e+00 0.0000000000000000e+00 xy xz yz

Masses

1 26.982

Atoms # charge

1 1 0.0000000000000000e+00 2.9998204768172601e+00 1.4851196969319737e+01 1.4071699345752380e+01 1 0 0
2 1 0.0000000000000000e+00 5.8295934086142251e+00 1.9752507461162185e+01 1.4071699345754002e+01 1 0 0
3 1 0.0000000000000000e+00 2.2808230999905014e+01 1.4726549378754186e-01 1.4071699345754782e+01 0 0 0
4 1 0.0000000000000000e+00 -2.6597253867772634e+00 5.0485759856323789e+00 1.4071699345752398e+01 1 0 0
5 1 0.0000000000000000e+00 1.7004754501990144e-01 9.9498864774768219e+00 1.4071699345750643e+01 1 0 0
6 1 0.0000000000000000e+00 8.6593663405132233e+00 1.4851196969319288e+01 1.4071699345752796e+01 1 0 0
7 1 0.0000000000000000e+00 1.1489139272310046e+01 1.9752507461161898e+01 1.4071699345754514e+01 0 0 0
8 1 0.0000000000000000e+00 1.7004754512171641e-01 1.4726549378757706e-01 1.4071699345754787e+01 0 0 0
9 1 0.0000000000000000e+00 2.9998204769188304e+00 5.0485759856324615e+00 1.4071699345752005e+01 1 0 0
10 1 0.0000000000000000e+00 5.8295934087157208e+00 9.9498864774768023e+00 1.4071699345750901e+01 0 0 0
11 1 0.0000000000000000e+00 1.4318912204209544e+01 1.4851196969319096e+01 1.4071699345751387e+01 0 0 0
12 1 0.0000000000000000e+00 -1.1149044182473141e+01 1.9752507461162008e+01 1.4071699345753212e+01 1 0 0
13 1 0.0000000000000000e+00 5.8295934088179990e+00 1.4726549378749396e-01 1.4071699345753402e+01 0 0 0
14 1 0.0000000000000000e+00 8.6593663406149002e+00 5.0485759856324979e+00 1.4071699345751343e+01 0 0 0
15 1 0.0000000000000000e+00 1.1489139272411860e+01 9.9498864774766531e+00 1.4071699345750137e+01 0 0 0
16 1 0.0000000000000000e+00 -8.3192712505734150e+00 1.4851196969319455e+01 1.4071699345751231e+01 1 0 0
17 1 0.0000000000000000e+00 -5.4894983187770876e+00 1.9752507461162160e+01 1.4071699345753082e+01 1 0 0
18 1 0.0000000000000000e+00 1.1489139272513880e+01 1.4726549378757470e-01 1.4071699345752741e+01 0 0 0
19 1 0.0000000000000000e+00 1.4318912204310681e+01 5.0485759856326471e+00 1.4071699345750474e+01 0 0 0
20 1 0.0000000000000000e+00 1.7148685136108291e+01 9.9498864774766780e+00 1.4071699345749105e+01 0 0 0
21 1 0.0000000000000000e+00 -2.6597253868779660e+00 1.4851196969319977e+01 1.4071699345752213e+01 1 0 0
22 1 0.0000000000000000e+00 1.7004754491863400e-01 1.9752507461162580e+01 1.4071699345753206e+01 1 0 0
23 1 0.0000000000000000e+00 1.7148685136209533e+01 1.4726549378794943e-01 1.4071699345753061e+01 0 0 0
24 1 0.0000000000000000e+00 1.9978458068006518e+01 5.0485759856327110e+00 1.4071699345751265e+01 0 0 0
25 1 0.0000000000000000e+00 -5.4894983186751629e+00 9.9498864774769569e+00 1.4071699345750222e+01 1 0 0
26 1 0.0000000000000000e+00 7.2444798745637504e+00 1.7301852215240537e+01 1.4071699345753705e+01 1 0 0
27 1 0.0000000000000000e+00 1.0074252806360402e+01 2.2203162707083884e+01 1.4071699345755174e+01 1 0 0
28 1 0.0000000000000000e+00 -1.2448389208278261e+00 2.5979207397099304e+00 1.4071699345754046e+01 1 0 0
29 1 0.0000000000000000e+00 1.5849340109691674e+00 7.4992312315547167e+00 1.4071699345750940e+01 1 0 0
30 1 0.0000000000000000e+00 4.4147069427664274e+00 1.2400541723398367e+01 1.4071699345751551e+01 1 0 0
31 1 0.0000000000000000e+00 1.2904025738259811e+01 1.7301852215240331e+01 1.4071699345753116e+01 0 0 0
32 1 0.0000000000000000e+00 -1.2563930648422835e+01 2.2203162707084040e+01 1.4071699345754324e+01 1 0 0
33 1 0.0000000000000000e+00 4.4147069428685288e+00 2.5979207397100281e+00 1.4071699345753032e+01 0 0 0
34 1 0.0000000000000000e+00 7.2444798746652523e+00 7.4992312315548553e+00 1.4071699345750828e+01 0 0 0
35 1 0.0000000000000000e+00 1.0074252806462566e+01 1.2400541723398117e+01 1.4071699345751410e+01 0 0 0
36 1 0.0000000000000000e+00 -9.7341577165232440e+00 1.7301852215240494e+01 1.4071699345752117e+01 1 0 0
37 1 0.0000000000000000e+00 -6.9043847847266875e+00 2.2203162707083894e+01 1.4071699345753274e+01 1 0 0
38 1 0.0000000000000000e+00 1.0074252806564452e+01 2.5979207397099637e+00 1.4071699345752094e+01 0 0 0
39 1 0.0000000000000000e+00 1.2904025738361224e+01 7.4992312315548011e+00 1.4071699345749749e+01 0 0 0
40 1 0.0000000000000000e+00 1.5733798670159034e+01 1.2400541723397973e+01 1.4071699345749851e+01 0 0 0
41 1 0.0000000000000000e+00 -4.0746118528273829e+00 1.7301852215240984e+01 1.4071699345752819e+01 1 0 0
42 1 0.0000000000000000e+00 -1.2448389210308042e+00 2.2203162707084267e+01 1.4071699345753110e+01 1 0 0
43 1 0.0000000000000000e+00 1.5733798670260144e+01 2.5979207397103412e+00 1.4071699345751831e+01 0 0 0
44 1 0.0000000000000000e+00 1.8563571602057401e+01 7.4992312315549361e+00 1.4071699345749604e+01 0 0 0
45 1 0.0000000000000000e+00 -6.9043847846240443e+00 1.2400541723398455e+01 1.4071699345750501e+01 1 0 0
46 1 0.0000000000000000e+00 1.5849340108680225e+00 1.7301852215241102e+01 1.4071699345752981e+01 1 0 0
47 1 0.0000000000000000e+00 4.4147069426648029e+00 2.2203162707084303e+01 1.4071699345753791e+01 1 0 0
48 1 0.0000000000000000e+00 2.1393344533955705e+01 2.5979207397101431e+00 1.4071699345753290e+01 0 0 0
49 1 0.0000000000000000e+00 -4.0746118527263677e+00 7.4992312315548322e+00 1.4071699345750849e+01 1 0 0
50 1 0.0000000000000000e+00 -1.2448389209289825e+00 1.2400541723398621e+01 1.4071699345751281e+01 1 0 0
51 1 0.0000000000000000e+00 4.4147069427158199e+00 1.7301852215240835e+01 1.4071699345753267e+01 1 0 0
52 1 0.0000000000000000e+00 7.2444798745125611e+00 2.2203162707084026e+01 1.4071699345754626e+01 1 0 0
53 1 0.0000000000000000e+00 2.4223117465803437e+01 2.5979207397099455e+00 1.4071699345753968e+01 0 0 0
54 1 0.0000000000000000e+00 -1.2448389208787218e+00 7.4992312315547185e+00 1.4071699345751000e+01 1 0 0
55 1 0.0000000000000000e+00 1.5849340109185981e+00 1.2400541723398495e+01 1.4071699345751327e+01 1 0 0
56 1 0.0000000000000000e+00 1.0074252806411764e+01 1.7301852215240363e+01 1.4071699345753727e+01 1 0 0
57 1 0.0000000000000000e+00 1.2904025738208324e+01 2.2203162707083955e+01 1.4071699345755006e+01 1 0 0
58 1 0.0000000000000000e+00 1.5849340110203305e+00 2.5979207397100130e+00 1.4071699345753615e+01 1 0 0
59 1 0.0000000000000000e+00 4.4147069428172214e+00 7.4992312315548011e+00 1.4071699345750906e+01 1 0 0
60 1 0.0000000000000000e+00 7.2444798746144468e+00 1.2400541723398254e+01 1.4071699345751741e+01 1 0 0
61 1 0.0000000000000000e+00 1.5733798670107889e+01 1.7301852215240377e+01 1.4071699345752364e+01 0 0 0
62 1 0.0000000000000000e+00 -9.7341577165747406e+00 2.2203162707083969e+01 1.4071699345753638e+01 1 0 0
63 1 0.0000000000000000e+00 7.2444798747165757e+00 2.5979207397099575e+00 1.4071699345752522e+01 0 0 0
64 1 0.0000000000000000e+00 1.0074252806513211e+01 7.4992312315548260e+00 1.4071699345750417e+01 0 0 0
65 1 0.0000000000000000e+00 1.2904025738310773e+01 1.2400541723397982e+01 1.4071699345750552e+01 0 0 0
66 1 0.0000000000000000e+00 -6.9043847846752522e+00 1.7301852215240714e+01 1.4071699345752432e+01 1 0 0
67 1 0.0000000000000000e+00 -4.0746118528786974e+00 2.2203162707084005e+01 1.4071699345753155e+01 1 0 0
68 1 0.0000000000000000e+00 1.2904025738412294e+01 2.5979207397101400e+00 1.4071699345751792e+01 0 0 0
69 1 0.0000000000000000e+00 1.5733798670209341e+01 7.4992312315548526e+00 1.4071699345749352e+01 0 0 0
70 1 0.0000000000000000e+00 1.8563571602007229e+01 1.2400541723398167e+01 1.4071699345749890e+01 0 0 0
71 1 0.0000000000000000e+00 -1.2448389209796664e+00 1.7301852215241173e+01 1.4071699345752947e+01 1 0 0
72 1 0.0000000000000000e+00 1.5849340108170233e+00 2.2203162707084427e+01 1.4071699345753245e+01 1 0 0
73 1 0.0000000000000000e+00 1.8563571602107974e+01 2.5979207397103488e+00 1.4071699345752398e+01 0 0 0
74 1 0.0000000000000000e+00 2.1393344533905225e+01 7.4992312315549468e+00 1.4071699345750289e+01 0 0 0
75 1 0.0000000000000000e+00 -4.0746118527764397e+00 1.2400541723398641e+01 1.4071699345751080e+01 1 0 0
76 1 0.0000000000000000e+00 5.8295934086651675e+00 1.4851196969319497e+01 1.4071699345752707e+01 1 0 0
77 1 0.0000000000000000e+00 8.6593663404621122e+00 1.9752507461161940e+01 1.4071699345754546e+01 1 0 0
78 1 0.0000000000000000e+00 2.5638003931752863e+01 1.4726549378748052e-01 1.4071699345755141e+01 0 0 0
79 1 0.0000000000000000e+00 1.7004754507068259e-01 5.0485759856323744e+00 1.4071699345752302e+01 1 0 0
80 1 0.0000000000000000e+00 2.9998204768677237e+00 9.9498864774767881e+00 1.4071699345750726e+01 1 0 0
81 1 0.0000000000000000e+00 1.1489139272361365e+01 1.4851196969319144e+01 1.4071699345752268e+01 0 0 0
82 1 0.0000000000000000e+00 1.4318912204158018e+01 1.9752507461161972e+01 1.4071699345753879e+01 0 0 0
83 1 0.0000000000000000e+00 2.9998204769698775e+00 1.4726549378760961e-01 1.4071699345754059e+01 0 0 0
84 1 0.0000000000000000e+00 5.8295934087669519e+00 5.0485759856325076e+00 1.4071699345751707e+01 0 0 0
85 1 0.0000000000000000e+00 8.6593663405637677e+00 9.9498864774767597e+00 1.4071699345750789e+01 0 0 0
86 1 0.0000000000000000e+00 1.7148685136057718e+01 1.4851196969319190e+01 1.4071699345750934e+01 0 0 0
87 1 0.0000000000000000e+00 -8.3192712506250892e+00 1.9752507461162025e+01 1.4071699345752970e+01 1 0 0
88 1 0.0000000000000000e+00 8.6593663406659971e+00 1.4726549378742393e-01 1.4071699345752981e+01 0 0 0
89 1 0.0000000000000000e+00 1.1489139272462753e+01 5.0485759856325299e+00 1.4071699345750849e+01 0 0 0
90 1 0.0000000000000000e+00 1.4318912204260064e+01 9.9498864774765927e+00 1.4071699345749352e+01 0 0 0
91 1 0.0000000000000000e+00 -5.4894983187255812e+00 1.4851196969319776e+01 1.4071699345751842e+01 1 0 0
92 1 0.0000000000000000e+00 -2.6597253869291775e+00 1.9752507461162409e+01 1.4071699345753183e+01 1 0 0
93 1 0.0000000000000000e+00 1.4318912204361729e+01 1.4726549378784751e-01 1.4071699345752696e+01 0 0 0
94 1 0.0000000000000000e+00 1.7148685136158658e+01 5.0485759856327537e+00 1.4071699345750591e+01 0 0 0
95 1 0.0000000000000000e+00 1.9978458067956339e+01 9.9498864774768485e+00 1.4071699345749547e+01 0 0 0
96 1 0.0000000000000000e+00 1.7004754496958169e-01 1.4851196969319941e+01 1.4071699345752263e+01 1 0 0
97 1 0.0000000000000000e+00 2.9998204767664154e+00 1.9752507461162487e+01 1.4071699345753419e+01 1 0 0
98 1 0.0000000000000000e+00 1.9978458068057275e+01 1.4726549378776799e-01 1.4071699345753895e+01 0 0 0
99 1 0.0000000000000000e+00 2.2808230999854214e+01 5.0485759856325316e+00 1.4071699345752021e+01 0 0 0
100 1 0.0000000000000000e+00 -2.6597253868276587e+00 9.9498864774769178e+00 1.4071699345750591e+01 1 0 0
101 1 0.0000000000000000e+00 5.8295934086858248e+00 1.3217426805371280e+01 1.6326489109043528e+01 1 0 0
102 1 0.0000000000000000e+00 8.6593663404831407e+00 1.8118737297213656e+01 1.6326489109045283e+01 1 0 0
103 1 0.0000000000000000e+00 1.1489139272279818e+01 2.3020047789058083e+01 1.6326489109046030e+01 1 0 0
104 1 0.0000000000000000e+00 1.7004754509186076e-01 3.4148058216846868e+00 1.6326489109044211e+01 1 0 0
105 1 0.0000000000000000e+00 2.9998204768886660e+00 8.3161163135287239e+00 1.6326489109042047e+01 1 0 0
106 1 0.0000000000000000e+00 1.1489139272382348e+01 1.3217426805370884e+01 1.6326489109042939e+01 0 0 0
107 1 0.0000000000000000e+00 1.4318912204179407e+01 1.8118737297213514e+01 1.6326489109044402e+01 0 0 0
108 1 0.0000000000000000e+00 -1.1149044182503092e+01 2.3020047789058101e+01 1.6326489109044918e+01 1 0 0
109 1 0.0000000000000000e+00 5.8295934087882424e+00 3.4148058216846238e+00 1.6326489109043344e+01 0 0 0
110 1 0.0000000000000000e+00 8.6593663405848407e+00 8.3161163135286706e+00 1.6326489109041951e+01 0 0 0
111 1 0.0000000000000000e+00 1.7148685136078424e+01 1.3217426805370957e+01 1.6326489109041784e+01 0 0 0
112 1 0.0000000000000000e+00 -8.3192712506040767e+00 1.8118737297213773e+01 1.6326489109043916e+01 1 0 0
113 1 0.0000000000000000e+00 -5.4894983188072448e+00 2.3020047789058072e+01 1.6326489109044161e+01 1 0 0
114 1 0.0000000000000000e+00 1.1489139272483852e+01 3.4148058216847019e+00 1.6326489109042630e+01 0 0 0
115 1 0.0000000000000000e+00 1.4318912204280791e+01 8.3161163135286476e+00 1.6326489109040818e+01 0 0 0
116 1 0.0000000000000000e+00 -5.4894983187051691e+00 1.3217426805371598e+01 1.6326489109042853e+01 1 0 0
117 1 0.0000000000000000e+00 -2.6597253869083470e+00 1.8118737297214370e+01 1.6326489109044516e+01 1 0 0
118 1 0.0000000000000000e+00 1.7004754488835244e-01 2.3020047789058605e+01 1.6326489109044104e+01 1 0 0
119 1 0.0000000000000000e+00 1.7148685136179239e+01 3.4148058216851132e+00 1.6326489109042686e+01 0 0 0
120 1 0.0000000000000000e+00 1.9978458067976486e+01 8.3161163135289584e+00 1.6326489109041173e+01 0 0 0
121 1 0.0000000000000000e+00 1.7004754499013502e-01 1.3217426805371735e+01 1.6326489109043258e+01 1 0 0
122 1 0.0000000000000000e+00 2.9998204767871615e+00 1.8118737297214388e+01 1.6326489109044644e+01 1 0 0
123 1 0.0000000000000000e+00 5.8295934085838104e+00 2.3020047789058491e+01 1.6326489109045099e+01 1 0 0
124 1 0.0000000000000000e+00 2.2808230999874787e+01 3.4148058216849404e+00 1.6326489109044104e+01 0 0 0
125 1 0.0000000000000000e+00 -2.6597253868071711e+00 8.3161163135289371e+00 1.6326489109042086e+01 1 0 0
126 1 0.0000000000000000e+00 1.0074252806432863e+01 1.5668082051292062e+01 1.6326489109044399e+01 0 0 0
127 1 0.0000000000000000e+00 1.2904025738229594e+01 2.0569392543135550e+01 1.6326489109045518e+01 0 0 0
128 1 0.0000000000000000e+00 1.5849340110415246e+00 9.6415057576208829e-01 1.6326489109044996e+01 0 0 0
129 1 0.0000000000000000e+00 4.4147069428384906e+00 5.8654610676069057e+00 1.6326489109042555e+01 0 0 0
130 1 0.0000000000000000e+00 7.2444798746352514e+00 1.0766771559450042e+01 1.6326489109042562e+01 0 0 0
131 1 0.0000000000000000e+00 1.5733798670129067e+01 1.5668082051292011e+01 1.6326489109043045e+01 0 0 0
132 1 0.0000000000000000e+00 -9.7341577165536588e+00 2.0569392543135635e+01 1.6326489109044381e+01 1 0 0
133 1 0.0000000000000000e+00 7.2444798747376344e+00 9.6415057576195795e-01 1.6326489109043887e+01 0 0 0
134 1 0.0000000000000000e+00 1.0074252806534423e+01 5.8654610676069012e+00 1.6326489109042008e+01 0 0 0
135 1 0.0000000000000000e+00 1.2904025738331628e+01 1.0766771559449824e+01 1.6326489109041475e+01 0 0 0
136 1 0.0000000000000000e+00 -6.9043847846544830e+00 1.5668082051292542e+01 1.6326489109043493e+01 1 0 0
137 1 0.0000000000000000e+00 -4.0746118528578821e+00 2.0569392543135937e+01 1.6326489109044395e+01 1 0 0
138 1 0.0000000000000000e+00 1.2904025738433145e+01 9.6415057576228125e-01 1.6326489109043433e+01 0 0 0
139 1 0.0000000000000000e+00 1.5733798670229989e+01 5.8654610676071357e+00 1.6326489109041322e+01 0 0 0
140 1 0.0000000000000000e+00 1.8563571602027508e+01 1.0766771559450074e+01 1.6326489109041024e+01 0 0 0
141 1 0.0000000000000000e+00 -1.2448389209589612e+00 1.5668082051293071e+01 1.6326489109044157e+01 1 0 0
142 1 0.0000000000000000e+00 1.5849340108377481e+00 2.0569392543136377e+01 1.6326489109044520e+01 1 0 0
143 1 0.0000000000000000e+00 1.8563571602128516e+01 9.6415057576257746e-01 1.6326489109044129e+01 0 0 0
144 1 0.0000000000000000e+00 2.1393344533925546e+01 5.8654610676072760e+00 1.6326489109042367e+01 0 0 0
145 1 0.0000000000000000e+00 -4.0746118527561750e+00 1.0766771559450476e+01 1.6326489109042175e+01 1 0 0
146 1 0.0000000000000000e+00 4.4147069427365127e+00 1.5668082051292686e+01 1.6326489109044328e+01 1 0 0
147 1 0.0000000000000000e+00 7.2444798745333925e+00 2.0569392543135827e+01 1.6326489109045497e+01 1 0 0
148 1 0.0000000000000000e+00 2.4223117465824252e+01 9.6415057576217156e-01 1.6326489109045536e+01 0 0 0
149 1 0.0000000000000000e+00 -1.2448389208578108e+00 5.8654610676069883e+00 1.6326489109042928e+01 1 0 0
150 1 0.0000000000000000e+00 1.5849340109392092e+00 1.0766771559450287e+01 1.6326489109042310e+01 1 0 0
151 1 0.0000000000000000e+00 7.2444798745845764e+00 1.5668082051292323e+01 1.6326489109044559e+01 1 0 0
152 1 0.0000000000000000e+00 1.0074252806381475e+01 2.0569392543135578e+01 1.6326489109045816e+01 1 0 0
153 1 0.0000000000000000e+00 2.7052890397672449e+01 9.6415057576209229e-01 1.6326489109045525e+01 0 0 0
154 1 0.0000000000000000e+00 1.5849340109903238e+00 5.8654610676069083e+00 1.6326489109042743e+01 1 0 0
155 1 0.0000000000000000e+00 4.4147069427871255e+00 1.0766771559450152e+01 1.6326489109042456e+01 1 0 0
156 1 0.0000000000000000e+00 1.2904025738281060e+01 1.5668082051291965e+01 1.6326489109043724e+01 0 0 0
157 1 0.0000000000000000e+00 1.5733798670077640e+01 2.0569392543135610e+01 1.6326489109044864e+01 0 0 0
158 1 0.0000000000000000e+00 4.4147069428896843e+00 9.6415057576204122e-01 1.6326489109044353e+01 0 0 0
159 1 0.0000000000000000e+00 7.2444798746865340e+00 5.8654610676069039e+00 1.6326489109042367e+01 0 0 0
160 1 0.0000000000000000e+00 1.0074252806483479e+01 1.0766771559449914e+01 1.6326489109042235e+01 0 0 0
161 1 0.0000000000000000e+00 1.8563571601976893e+01 1.5668082051292211e+01 1.6326489109042988e+01 0 0 0
162 1 0.0000000000000000e+00 -6.9043847847057860e+00 2.0569392543135709e+01 1.6326489109044289e+01 1 0 0
163 1 0.0000000000000000e+00 1.0074252806585426e+01 9.6415057576202923e-01 1.6326489109043582e+01 0 0 0
164 1 0.0000000000000000e+00 1.2904025738382222e+01 5.8654610676069741e+00 1.6326489109041535e+01 0 0 0
165 1 0.0000000000000000e+00 1.5733798670179619e+01 1.0766771559449865e+01 1.6326489109040903e+01 0 0 0
166 1 0.0000000000000000e+00 -4.0746118528066813e+00 1.5668082051292879e+01 1.6326489109044008e+01 1 0 0
167 1 0.0000000000000000e+00 -1.2448389210100226e+00 2.0569392543136246e+01 1.6326489109044434e+01 1 0 0
168 1 0.0000000000000000e+00 1.5733798670280821e+01 9.6415057576253616e-01 1.6326489109043560e+01 0 0 0
169 1 0.0000000000000000e+00 1.8563571602077758e+01 5.8654610676072707e+00 1.6326489109041681e+01 0 0 0
170 1 0.0000000000000000e+00 2.1393344533875311e+01 1.0766771559450332e+01 1.6326489109041649e+01 0 0 0
171 1 0.0000000000000000e+00 1.5849340108887153e+00 1.5668082051292988e+01 1.6326489109044150e+01 1 0 0
172 1 0.0000000000000000e+00 4.4147069426854975e+00 2.0569392543136193e+01 1.6326489109044903e+01 1 0 0
173 1 0.0000000000000000e+00 2.1393344533976276e+01 9.6415057576238006e-01 1.6326489109044953e+01 0 0 0
174 1 0.0000000000000000e+00 2.4223117465773388e+01 5.8654610676071446e+00 1.6326489109042871e+01 0 0 0
175 1 0.0000000000000000e+00 -1.2448389209085144e+00 1.0766771559450428e+01 1.6326489109042317e+01 1 0 0
176 1 0.0000000000000000e+00 8.6593663405340582e+00 1.3217426805371044e+01 1.6326489109043514e+01 0 0 0
177 1 0.0000000000000000e+00 1.1489139272331336e+01 1.8118737297213503e+01 1.6326489109045053e+01 0 0 0
178 1 0.0000000000000000e+00 1.4318912204128001e+01 2.3020047789058108e+01 1.6326489109045607e+01 0 0 0
179 1 0.0000000000000000e+00 2.9998204769401307e+00 3.4148058216846637e+00 1.6326489109043770e+01 0 0 0
180 1 0.0000000000000000e+00 5.8295934087367511e+00 8.3161163135287044e+00 1.6326489109042097e+01 0 0 0
181 1 0.0000000000000000e+00 1.4318912204230474e+01 1.3217426805370829e+01 1.6326489109042125e+01 0 0 0
182 1 0.0000000000000000e+00 1.7148685136027293e+01 1.8118737297213599e+01 1.6326489109043887e+01 0 0 0
183 1 0.0000000000000000e+00 -8.3192712506551185e+00 2.3020047789058037e+01 1.6326489109044385e+01 1 0 0
184 1 0.0000000000000000e+00 8.6593663406361294e+00 3.4148058216846078e+00 1.6326489109042978e+01 0 0 0
185 1 0.0000000000000000e+00 1.1489139272432856e+01 8.3161163135286227e+00 1.6326489109041411e+01 0 0 0
186 1 0.0000000000000000e+00 1.9978458067926251e+01 1.3217426805371264e+01 1.6326489109042193e+01 0 0 0
187 1 0.0000000000000000e+00 -5.4894983187562172e+00 1.8118737297214054e+01 1.6326489109044278e+01 1 0 0
188 1 0.0000000000000000e+00 -2.6597253869594093e+00 2.3020047789058307e+01 1.6326489109044079e+01 1 0 0
189 1 0.0000000000000000e+00 1.4318912204331539e+01 3.4148058216849271e+00 1.6326489109042438e+01 0 0 0
190 1 0.0000000000000000e+00 1.7148685136128663e+01 8.3161163135287861e+00 1.6326489109040693e+01 0 0 0
191 1 0.0000000000000000e+00 -2.6597253868574890e+00 1.3217426805371780e+01 1.6326489109043219e+01 1 0 0
192 1 0.0000000000000000e+00 1.7004754493942270e-01 1.8118737297214533e+01 1.6326489109044541e+01 1 0 0
193 1 0.0000000000000000e+00 2.9998204767360646e+00 2.3020047789058690e+01 1.6326489109044420e+01 1 0 0
194 1 0.0000000000000000e+00 1.9978458068026953e+01 3.4148058216851047e+00 1.6326489109043383e+01 0 0 0
195 1 0.0000000000000000e+00 2.2808230999824250e+01 8.3161163135290277e+00 1.6326489109041795e+01 0 0 0
196 1 0.0000000000000000e+00 2.9998204768378427e+00 1.3217426805371540e+01 1.6326489109043315e+01 1 0 0
197 1 0.0000000000000000e+00 5.8295934086350423e+00 1.8118737297214015e+01 1.6326489109044996e+01 1 0 0
198 1 0.0000000000000000e+00 8.6593663404317223e+00 2.3020047789058211e+01 1.6326489109045816e+01 1 0 0
199 1 0.0000000000000000e+00 2.5638003931722821e+01 3.4148058216847685e+00 1.6326489109044410e+01 0 0 0
200 1 0.0000000000000000e+00 1.7004754504067771e-01 8.3161163135287985e+00 1.6326489109042065e+01 1 0 0
201 1 0.0000000000000000e+00 8.6593663405508554e+00 1.1583656641423111e+01 1.8652569272591666e+01 0 0 0
202 1 0.0000000000000000e+00 1.1489139272348330e+01 1.6484967133265375e+01 1.8652569272593034e+01 0 0 0
203 1 0.0000000000000000e+00 1.4318912204145057e+01 2.1386277625109486e+01 1.8652569272593311e+01 0 0 0
204 1 0.0000000000000000e+00 2.9998204769572325e+00 1.7810356577361035e+00 1.8652569272592231e+01 0 0 0
205 1 0.0000000000000000e+00 5.8295934087539845e+00 6.6823461495804910e+00 1.8652569272590796e+01 0 0 0
206 1 0.0000000000000000e+00 1.4318912204247100e+01 1.1583656641422950e+01 1.8652569272590611e+01 0 0 0
207 1 0.0000000000000000e+00 1.7148685136044204e+01 1.6484967133265439e+01 1.8652569272592203e+01 0 0 0
208 1 0.0000000000000000e+00 -8.3192712506383284e+00 2.1386277625109493e+01 1.8652569272592558e+01 1 0 0
209 1 0.0000000000000000e+00 8.6593663406530634e+00 1.7810356577360160e+00 1.8652569272591549e+01 0 0 0
210 1 0.0000000000000000e+00 1.1489139272449824e+01 6.6823461495804910e+00 1.8652569272590330e+01 0 0 0
211 1 0.0000000000000000e+00 1.9978458067942690e+01 1.1583656641423275e+01 1.8652569272590814e+01 0 0 0
212 1 0.0000000000000000e+00 -5.4894983187394555e+00 1.6484967133265936e+01 1.8652569272592924e+01 1 0 0
213 1 0.0000000000000000e+00 -2.6597253869426405e+00 2.1386277625109841e+01 1.8652569272592643e+01 1 0 0
214 1 0.0000000000000000e+00 1.4318912204348369e+01 1.7810356577363780e+00 1.8652569272591379e+01 0 0 0
215 1 0.0000000000000000e+00 1.7148685136145271e+01 6.6823461495807033e+00 1.8652569272590029e+01 0 0 0
216 1 0.0000000000000000e+00 -2.6597253868409498e+00 1.1583656641423591e+01 1.8652569272591641e+01 1 0 0
217 1 0.0000000000000000e+00 1.7004754495614888e-01 1.6484967133266320e+01 1.8652569272593265e+01 1 0 0
218 1 0.0000000000000000e+00 2.9998204767528760e+00 2.1386277625110129e+01 1.8652569272592878e+01 1 0 0
219 1 0.0000000000000000e+00 1.9978458068043714e+01 1.7810356577365360e+00 1.8652569272592217e+01 0 0 0
220 1 0.0000000000000000e+00 2.2808230999840891e+01 6.6823461495807956e+00 1.8652569272590910e+01 0 0 0
221 1 0.0000000000000000e+00 2.9998204768545866e+00 1.1583656641423380e+01 1.8652569272591627e+01 1 0 0
222 1 0.0000000000000000e+00 5.8295934086518342e+00 1.6484967133265851e+01 1.8652569272593333e+01 1 0 0
223 1 0.0000000000000000e+00 8.6593663404487007e+00 2.1386277625109621e+01 1.8652569272593642e+01 1 0 0
224 1 0.0000000000000000e+00 2.5638003931739856e+01 1.7810356577362181e+00 1.8652569272592928e+01 0 0 0
225 1 0.0000000000000000e+00 1.7004754505777336e-01 6.6823461495805363e+00 1.8652569272590959e+01 1 0 0
226 1 0.0000000000000000e+00 1.2904025738297868e+01 1.4034311887344030e+01 1.8652569272591890e+01 0 0 0
227 1 0.0000000000000000e+00 1.5733798670094663e+01 1.8935622379187198e+01 1.8652569272592828e+01 0 0 0
228 1 0.0000000000000000e+00 -9.7341577165875250e+00 2.3836932871032101e+01 1.8652569272592462e+01 1 0 0
229 1 0.0000000000000000e+00 7.2444798747037185e+00 4.2316909036584889e+00 1.8652569272591123e+01 0 0 0
230 1 0.0000000000000000e+00 1.0074252806500366e+01 9.1330013955019371e+00 1.8652569272590700e+01 0 0 0
231 1 0.0000000000000000e+00 1.8563571601993544e+01 1.4034311887344218e+01 1.8652569272591492e+01 0 0 0
232 1 0.0000000000000000e+00 -6.9043847846889621e+00 1.8935622379187414e+01 1.8652569272592782e+01 1 0 0
233 1 0.0000000000000000e+00 -4.0746118528918887e+00 2.3836932871032140e+01 1.8652569272592029e+01 1 0 0
234 1 0.0000000000000000e+00 1.2904025738399142e+01 4.2316909036586319e+00 1.8652569272590650e+01 0 0 0
235 1 0.0000000000000000e+00 1.5733798670196174e+01 9.1330013955019478e+00 1.8652569272589837e+01 0 0 0
236 1 0.0000000000000000e+00 -4.0746118527900883e+00 1.4034311887344781e+01 1.8652569272592530e+01 1 0 0
237 1 0.0000000000000000e+00 -1.2448389209932200e+00 1.8935622379187940e+01 1.8652569272593190e+01 1 0 0
238 1 0.0000000000000000e+00 1.5849340108035195e+00 2.3836932871032634e+01 1.8652569272592189e+01 1 0 0
239 1 0.0000000000000000e+00 1.8563571602094427e+01 4.2316909036589392e+00 1.8652569272591002e+01 0 0 0
240 1 0.0000000000000000e+00 2.1393344533891742e+01 9.1330013955022533e+00 1.8652569272590497e+01 0 0 0
241 1 0.0000000000000000e+00 1.5849340109053491e+00 1.4034311887344803e+01 1.8652569272592618e+01 1 0 0
242 1 0.0000000000000000e+00 4.4147069427023409e+00 1.8935622379187802e+01 1.8652569272593333e+01 1 0 0
243 1 0.0000000000000000e+00 7.2444798744990626e+00 2.3836932871032431e+01 1.8652569272593148e+01 1 0 0
244 1 0.0000000000000000e+00 2.4223117465790267e+01 4.2316909036587500e+00 1.8652569272591897e+01 0 0 0
245 1 0.0000000000000000e+00 -1.2448389208917678e+00 9.1330013955021876e+00 1.8652569272590931e+01 1 0 0
246 1 0.0000000000000000e+00 7.2444798746013346e+00 1.4034311887344332e+01 1.8652569272592721e+01 1 0 0
247 1 0.0000000000000000e+00 1.0074252806398524e+01 1.8935622379187230e+01 1.8652569272593631e+01 1 0 0
248 1 0.0000000000000000e+00 1.2904025738195418e+01 2.3836932871032168e+01 1.8652569272593432e+01 1 0 0
249 1 0.0000000000000000e+00 1.5849340110075638e+00 4.2316909036585368e+00 1.8652569272591617e+01 1 0 0
250 1 0.0000000000000000e+00 4.4147069428041394e+00 9.1330013955020188e+00 1.8652569272590913e+01 1 0 0
251 1 0.0000000000000000e+00 1.0074252806449657e+01 1.4034311887344133e+01 1.8652569272592469e+01 0 0 0
252 1 0.0000000000000000e+00 1.2904025738246720e+01 1.8935622379187169e+01 1.8652569272593304e+01 0 0 0
253 1 0.0000000000000000e+00 -1.2563930648435555e+01 2.3836932871032150e+01 1.8652569272592967e+01 1 0 0
254 1 0.0000000000000000e+00 4.4147069428557435e+00 4.2316909036585120e+00 1.8652569272591347e+01 0 0 0
255 1 0.0000000000000000e+00 7.2444798746522636e+00 9.1330013955019851e+00 1.8652569272590952e+01 0 0 0
256 1 0.0000000000000000e+00 1.5733798670145797e+01 1.4034311887344039e+01 1.8652569272591418e+01 0 0 0
257 1 0.0000000000000000e+00 -9.7341577165367497e+00 1.8935622379187254e+01 1.8652569272592626e+01 1 0 0
258 1 0.0000000000000000e+00 -6.9043847847396558e+00 2.3836932871032047e+01 1.8652569272592135e+01 1 0 0
259 1 0.0000000000000000e+00 1.0074252806551486e+01 4.2316909036585111e+00 1.8652569272590874e+01 0 0 0
260 1 0.0000000000000000e+00 1.2904025738348361e+01 9.1330013955018963e+00 1.8652569272590185e+01 0 0 0
261 1 0.0000000000000000e+00 -6.9043847846378847e+00 1.4034311887344501e+01 1.8652569272592036e+01 1 0 0
262 1 0.0000000000000000e+00 -4.0746118528410893e+00 1.8935622379187677e+01 1.8652569272593063e+01 1 0 0
263 1 0.0000000000000000e+00 -1.2448389210441571e+00 2.3836932871032396e+01 1.8652569272592036e+01 1 0 0
264 1 0.0000000000000000e+00 1.5733798670246768e+01 4.2316909036588113e+00 1.8652569272590640e+01 0 0 0
265 1 0.0000000000000000e+00 1.8563571602043947e+01 9.1330013955020917e+00 1.8652569272590011e+01 0 0 0
266 1 0.0000000000000000e+00 -1.2448389209423469e+00 1.4034311887344895e+01 1.8652569272592675e+01 1 0 0
267 1 0.0000000000000000e+00 1.5849340108545507e+00 1.8935622379188011e+01 1.8652569272593198e+01 1 0 0
268 1 0.0000000000000000e+00 4.4147069426512155e+00 2.3836932871032637e+01 1.8652569272592597e+01 1 0 0
269 1 0.0000000000000000e+00 2.1393344533942251e+01 4.2316909036589054e+00 1.8652569272591549e+01 0 0 0
270 1 0.0000000000000000e+00 -4.0746118527396264e+00 9.1330013955022746e+00 1.8652569272590881e+01 1 0 0
271 1 0.0000000000000000e+00 4.4147069427531962e+00 1.4034311887344586e+01 1.8652569272592654e+01 1 0 0
272 1 0.0000000000000000e+00 7.2444798745503372e+00 1.8935622379187471e+01 1.8652569272593578e+01 1 0 0
273 1 0.0000000000000000e+00 1.0074252806347156e+01 2.3836932871032250e+01 1.8652569272593510e+01 1 0 0
274 1 0.0000000000000000e+00 -1.2448389208407091e+00 4.2316909036586017e+00 1.8652569272591869e+01 1 0 0
275 1 0.0000000000000000e+00 1.5849340109561414e+00 9.1330013955020792e+00 1.8652569272590863e+01 1 0 0
276 1 0.0000000000000000e+00 1.1489139272399081e+01 1.1583656641422998e+01 1.8652569272591190e+01 0 0 0
277 1 0.0000000000000000e+00 1.4318912204196392e+01 1.6484967133265364e+01 1.8652569272592491e+01 0 0 0
278 1 0.0000000000000000e+00 -1.1149044182486159e+01 2.1386277625109500e+01 1.8652569272592821e+01 1 0 0
279 1 0.0000000000000000e+00 5.8295934088052617e+00 1.7810356577360364e+00 1.8652569272591830e+01 0 0 0
280 1 0.0000000000000000e+00 8.6593663406019683e+00 6.6823461495804883e+00 1.8652569272590672e+01 0 0 0
281 1 0.0000000000000000e+00 1.7148685136094930e+01 1.1583656641423053e+01 1.8652569272590430e+01 0 0 0
282 1 0.0000000000000000e+00 -8.3192712505872741e+00 1.6484967133265638e+01 1.8652569272592434e+01 1 0 0
283 1 0.0000000000000000e+00 -5.4894983187904902e+00 2.1386277625109592e+01 1.8652569272592551e+01 1 0 0
284 1 0.0000000000000000e+00 1.1489139272500738e+01 1.7810356577361459e+00 1.8652569272591375e+01 0 0 0
285 1 0.0000000000000000e+00 1.4318912204297554e+01 6.6823461495805700e+00 1.8652569272589989e+01 0 0 0