LAMMPS (13 Jan 2016)
include /users/knc6/inelast.mod
# Compute elastic constant tensor for a crystal
#
# Written by Aidan Thompson (Sandia, athomps@sandia.gov)
#
#  This script uses the following three include files.
#
#   init.mod      (must be modified for different crystal structures)
# 	       	  Define units, deformation parameters and initial
#		  configuration of the atoms and simulation cell.
#
#
#   potential.mod    (must be modified for different pair styles)
# 		     Define pair style and other attributes
#		     not stored in restart file
#
#
#   displace.mod    (displace.mod should not need to be modified)
# 		    Perform positive and negative box displacements
# 		    in direction ${dir} and size ${up}.
# 		    It uses the resultant changes
#		    in stress to compute one
# 		    row of the elastic stiffness tensor
#
#		    Inputs variables:
#		    	   dir = the Voigt deformation component
#		    		    (1,2,3,4,5,6)
#		    Global constants:
#       	    	   up = the deformation magnitude (strain units)
#       		   cfac = conversion from LAMMPS pressure units to
#               	   output units for elastic constants
#
#
#  To run this on a different system, it should only be necessary to
#  modify the files init.mod and potential.mod. In order to calculate
#  the elastic constants correctly, care must be taken to specify
#  the correct units in init.mod (units, cfac and cunits). It is also
#  important to verify that the minimization of energy w.r.t atom
#  positions in the deformed cell is fully converged.
#  One indication of this is that the elastic constants are insensitive
#  to the choice of the variable ${up} in init.mod. Another is to check
#  the final max and two-norm forces reported in the log file. If you know
#  that minimization is not required, you can set maxiter = 0.0 in
#  init.mod.
#
#  There are two alternate versions of displace.mod provided.
#  They are displace_restart.mod and displace_reverse.mod.
#  The former resets the box using a restart file while
#  the latter reverses the deformation. Copy whichever
#  one you like best to displace.mod.
#

include init.mod
variable dump_file string "None"
variable up  equal 1.0e-6
variable cfac  equal 1.0e-4
variable cunits  string GPa
variable etol  equal 0
variable ftol  equal 1.0e-10
variable maxiter equal 1000
variable maxeval equal 10000
variable dmax equal 1.0e-2
variable data_file string "data"
units metal
atom_style charge
boundary p p p
atom_modify sort 0 0.0

read_data data
  triclinic box = (0 0 0) to (28.6378 24.8011 46.7654) with tilt (-14.3189 0 0)
  1 by 1 by 1 MPI processor grid
  reading atoms ...
  900 atoms

### interactions
mass 1 26.98154
include potential.mod
pair_style eam/alloy
pair_coeff * * /users/knc6/Software/jarvis/jarvis/lammps/examples/Al03.eam.alloy  Al
neighbor 1.0 nsq
neigh_modify once no every 1 delay 0 check yes
min_style  cg
min_modify           dmax ${dmax} line quadratic
min_modify           dmax 0.01 line quadratic
thermo          1
thermo_style custom step temp press cpu pxx pyy pzz pxy pxz pyz ke pe etotal vol lx ly lz atoms
thermo_modify norm no
#fix 3 all nph aniso 0.0 0.0 1.0
#fix langevin all langevin 0.0 0.0 1.0 12233

#fix 3 all box/relax tri 0.0 vmax 0.001
fix            3 all box/relax aniso 0.0 vmax 0.001
#fix 3 all box/relax  aniso 0.0
#dump            2a all cfg 100 *.cfg mass type xs ys zs  vx vy vz fx fy fz
#dump_modify     2a element  Mo S

#fix 1a all qeq/comb 1 0.0001 file fq.out
#fix             2 all qeq/reax 1 0.0 10.0 1e-6 /scratch/lfs/kamal/JARVIS/All2/ReaxFF/param.qeq
minimize ${etol} ${ftol} ${maxiter} ${maxeval}
minimize 0 ${ftol} ${maxiter} ${maxeval}
minimize 0 1e-10 ${maxiter} ${maxeval}
minimize 0 1e-10 1000 ${maxeval}
minimize 0 1e-10 1000 10000
Neighbor list info ...
  1 neighbor list requests
  update every 1 steps, delay 0 steps, check yes
  max neighbors/atom: 2000, page size: 100000
  master list distance cutoff = 7.72488
  ghost atom cutoff = 7.72488
Memory usage per processor = 3.38681 Mbytes
Step Temp Press CPU Pxx Pyy Pzz Pxy Pxz Pyz KinEng PotEng TotEng Volume Lx Ly Lz Atoms 
       0            0   -10344.524            0   -11070.447   -11070.447   -8892.6778 -1.304421e-09 -5.5599243e-08 -8.3618452e-07            0   -2967.0034   -2967.0034    33215.062    28.637824    24.801083    46.765371      900 
       1            0   -9429.9468 0.0031399727   -10116.091   -10116.091   -8057.6573 3.3160975e-08 -5.4937015e-08 -8.4704258e-07            0   -2967.5834   -2967.5834    33122.037    28.609187    24.776282    46.727806      900 
       2            0   -8504.9662 0.0062870979   -9149.7625   -9149.7625   -7215.3736 7.1708609e-08 -5.4030935e-08 -8.5732675e-07            0   -2968.1077   -2968.1077    33029.414    28.580549    24.751481    46.690564      900 
       3            0    -7569.764 0.0094470978    -8171.493    -8171.493    -6366.306 1.1502904e-07 -5.2831791e-08 -8.6729077e-07            0   -2968.5758   -2968.5758    32937.231    28.551911     24.72668      46.6537      900 
       4            0   -6624.7309  0.012589931   -7181.4913   -7181.4913   -5511.2101 1.6407694e-07 -5.1278494e-08 -8.7719048e-07            0   -2968.9875   -2968.9875    32845.536    28.523273    24.701879    46.617288      900 
       5            0     -5670.75   0.01573205   -6180.3842   -6180.3842   -4651.4816 2.2010954e-07 -4.9297418e-08 -8.8595506e-07            0   -2969.3426   -2969.3426      32754.4    28.494635    24.677078    46.581429      900 
       6            0   -4708.9711  0.018877983   -5168.9823   -5168.9823   -3788.9487 2.849419e-07 -4.6783292e-08 -8.9418552e-07            0   -2969.6409   -2969.6409    32663.922    28.465997    24.652277     46.54627      900 
       7            0   -3740.8705  0.022027016   -4148.2216   -4148.2216   -2926.1682 3.6140889e-07 -4.3557613e-08 -9.0127114e-07            0   -2969.8824   -2969.8824    32574.257     28.43736    24.627476    46.512036      900 
       8            0   -2769.2525  0.025171995   -3120.0498   -3120.0498   -2067.6578 4.5394473e-07 -3.9382638e-08 -9.0632078e-07            0   -2970.0673   -2970.0673    32485.663    28.408722    24.602675      46.4791      900 
       9            0   -1799.6562  0.040489912   -2088.4172   -2088.4172   -1222.1341 5.7135318e-07 -3.3761349e-08 -9.0907014e-07            0   -2970.1963   -2970.1963    32398.624    28.380084    24.577874    46.448167      900 
      10            0   -844.56802  0.043648958   -1062.1516   -1062.1516   -409.40083 7.3295667e-07 -2.5712873e-08 -9.0674063e-07            0   -2970.2707   -2970.2707    32314.263    28.351446    24.553073    46.420861      900 
      11            0    52.634537  0.046808004   -72.060496   -72.060493     302.0246 1.0068064e-06 -1.1752178e-08 -8.9271959e-07            0   -2970.2952   -2970.2952    32236.526    28.322808    24.528272    46.402884      900 
      12            0   -25.278106  0.049962997   -2.1729011   -2.1729014   -71.488514 1.7301797e-06 2.2475524e-08 -8.2733426e-07            0   -2970.3016   -2970.3016    32245.999    28.312706    24.519523    46.449649      900 
      13            0    922.85597  0.056216002    970.90618    970.90617    826.75555 2.1755224e-06 4.7491569e-08 -7.9774963e-07            0   -2970.3263   -2970.3263    32165.539    28.288559    24.498611    46.412884      900 
      14            0    1719.8763  0.059377909    1598.4743    1598.4743    1962.6802 5.297774e-06 2.2487018e-07 -5.1204451e-07            0   -2970.7469   -2970.7469    32115.806    28.280932    24.492006    46.366119      900 
      15            0     709.7633  0.062539101    562.58034    562.58033    1004.1292 4.8870075e-06 1.9472807e-07 -5.5085408e-07            0   -2970.8567   -2970.8567    32205.022    28.305916    24.513642    46.412884      900 
      16            0   -64.534374  0.068804979   -186.30306   -186.30306      179.003 3.8377361e-06 1.3306067e-07 -6.4446653e-07            0   -2970.8734   -2970.8734    32273.369    28.321838    24.527431    46.459102      900 
      17            0    4.6100715  0.075076103    48.448602    48.448605   -83.066993 9.8440826e-07 -1.4352299e-08 -8.9569121e-07            0   -2970.8784   -2970.8784    32270.331    28.306861    24.514461    46.503899      900 
      18            0   -445.66753  0.078253031   -395.73044   -395.73039   -545.54177 -1.1174131e-05 -6.1378916e-07 -1.9281471e-06            0   -2971.0888   -2971.0888    32322.298     28.31541    24.521865    46.550664      900 
      19            0    459.46065   0.08475709    509.06121    509.06124     360.2595 -4.7069113e-06 -3.0474814e-07 -1.4062337e-06            0   -2971.1116   -2971.1116    32243.729    28.294388    24.503659     46.50654      900 
      20            0    1020.5884  0.091037989    1022.6163    1022.6163    1016.5327 7.4074215e-06 3.2601037e-07 -3.2383836e-07            0   -2971.1211   -2971.1211    32195.776    28.285118    24.495631    46.467816      900 
      21            0    777.53417  0.094211102    530.66093    530.66077    1271.2808 4.7627931e-05 2.5419873e-06 3.5092153e-06            0   -2971.2332   -2971.2332    32219.644     28.30985    24.517049    46.421051      900 
      22            0    104.16129  0.097377062   -97.797832   -97.797951    508.07964 3.583479e-05 1.8363054e-06 2.2979801e-06            0   -2971.2552   -2971.2552    32279.459    28.321854    24.527445    46.467816      900 
      23            0   -94.880483   0.10053802   -171.25064   -171.25069    57.859878 1.4564992e-05 6.851038e-07 3.1146484e-07            0   -2971.2629   -2971.2629    32299.309    28.316315    24.522648    46.514582      900 
      24            0    114.55728    0.1068151    91.845218    91.845199    159.98141 6.9753601e-06 2.9416633e-07 -3.6679045e-07            0   -2971.2645   -2971.2645    32281.848    28.307127    24.514691    46.519621      900 
      25            0   -40.129058   0.11308908    33.677033    33.677078   -187.74128 -1.1419999e-05 -6.3661267e-07 -1.9733491e-06            0   -2971.2671   -2971.2671    32297.501    28.302899    24.511029    46.556085      900 
      26            0    265.98002   0.11624408    434.98038    434.98073   -72.021065 -9.9911058e-05 -5.1062394e-06 -9.7158355e-06            0   -2971.5379   -2971.5379    32291.899    28.286241    24.496603     46.60285      900 
      27            0   -415.58778   0.12252903   -391.24719   -391.24708   -464.26907 -3.1278931e-05 -1.6420997e-06 -3.7103855e-06            0   -2971.5535   -2971.5535    32350.576    28.313476    24.520189    46.597758      900 
      28            0    -677.1527   0.12880397    -852.0085   -852.00879    -327.4408 8.4520819e-05 4.322508e-06 6.6172754e-06            0   -2971.5623   -2971.5623    32371.802    28.335621    24.539367    46.555477      900 
      29            0   -187.44196   0.13197303    -444.0006   -444.00112    325.67586 0.0001517979 8.0834569e-06 1.3122249e-05            0    -2971.583    -2971.583     32328.07    28.330707    24.535112    46.508712      900 
      30            0    247.49385   0.13825011    165.22733    165.22712    412.02708 6.2869001e-05 3.2575781e-06 4.7633931e-06            0    -2971.593    -2971.593    32292.836    28.306482    24.514133    46.537576      900 
      31            0   -11.926733   0.14452696    1.7768595    1.7768742   -39.333933 -2.5863179e-06 -1.9768987e-07 -1.2147847e-06            0   -2971.5969   -2971.5969    32317.621    28.304711    24.512599    46.579122      900 
      32            0    282.53155   0.14768696    413.10803    413.11139    21.375234 -0.00096776279 -4.9765639e-05 -8.7065277e-05            0   -2971.7774   -2971.7774    32309.915     28.28714    24.497381    46.625887      900 
      33            0   -387.44583   0.15398002    -364.0262   -364.02488    -434.2864 -0.00037854586 -1.9387858e-05 -3.4443553e-05            0   -2971.7911   -2971.7911    32368.495    28.311074    24.518109    46.631478      900 
      34            0   -736.22653   0.16025305   -854.08996   -854.09208   -500.49754 0.00061435837 3.1730758e-05 5.4096854e-05            0   -2971.7977   -2971.7977    32398.728    28.330526    24.534956    46.610958      900 
      35            0   -404.24795   0.16342211   -635.18229   -635.18804    57.626495 0.0016597305 8.8859527e-05 0.00015303928            0   -2971.8241   -2971.8241    32369.202     28.33183    24.536085    46.564193      900 
      36            0    148.46337   0.16970301    24.754116    24.750461    395.88552 0.0010566307 5.6633239e-05 9.7217106e-05            0    -2971.834    -2971.834    32322.174    28.310278     24.51742    46.567366      900 
      37            0   -1.3106304   0.17286396    7.2602285    7.2603171   -18.452437 -2.3904195e-05 -1.3095546e-06 -3.1358798e-06            0   -2971.8383   -2971.8383    32338.048    28.303021    24.511135    46.614131      900 
      38            0   -701.50521   0.17602801   -853.29937   -853.28349   -397.93278 -0.0045831714 -0.0002404449 -0.00041732283            0   -2971.9045   -2971.9045    32405.698    28.331658    24.535935    46.617264      900 
      39            0    409.25656   0.17919612     286.9108    286.92947    653.92941 -0.0053854451 -0.00029368862 -0.0005095543            0   -2971.9774   -2971.9774    32314.546    28.303021    24.511134    46.580256      900 
      40            0    358.17608   0.18236208    341.03739    341.04183    392.44903 -0.0012798099 -6.8645445e-05 -0.00011975952            0   -2972.0476   -2972.0476    32328.949    28.295127    24.504298    46.627022      900 
      41            0   -9.0689626   0.18863893   -34.041545   -34.038424    40.873081 -0.0008993855 -4.7654355e-05 -8.3397276e-05            0   -2972.0512   -2972.0512    32361.356    28.304185    24.512143     46.64389      900 
      42            0   -3.3892648   0.19492102    41.216907    41.211378    -92.59608 0.0015978866 8.3439227e-05 0.00014366584            0   -2972.0521   -2972.0521    32362.393     28.29841    24.507143    46.664424      900 
      43            0    1118.0023   0.19808412    1119.1052    1119.0384    1115.8634  0.019299717 0.0010768886 0.0018643945            0   -2972.3012   -2972.3012    32305.816     28.27381    24.485843     46.66393      900 
      44            0    203.84838   0.20125604    154.28742    154.22904    303.02867  0.016854589 0.00091987072 0.0015924638            0     -2972.37     -2972.37    32394.029     28.29821    24.506973    46.710696      900 
      45            0   -23.362534   0.20753193   -64.846784   -64.886118      59.6453  0.011356266 0.00061329856 0.0010614549            0   -2972.3714   -2972.3714    32414.458    28.302759    24.510912    46.725131      900 
      46            0 -0.095286265   0.21381807    7.9561247    7.9630285   -16.205012 -0.0019912945 -0.00010672853 -0.00018566698            0   -2972.3719   -2972.3719    32413.451    28.298199    24.506959    46.738747      900 
      47            0    901.49962   0.21698093    862.47807    862.85528     979.1655  -0.10888829 -0.0060976777   -0.0105623            0   -2972.4114   -2972.4114     32342.56    28.281405    24.492386    46.691981      900 
      48            0     109.5097   0.22014499   -60.832929   -60.140827    449.50286  -0.19979144 -0.011137264 -0.019291088            0    -2972.501    -2972.501    32426.716    28.310043    24.517162     46.71886      900 
      49            0   -126.88415   0.22331405   -182.56985   -182.36588   -15.716713 -0.058879057 -0.0031860844 -0.0055191875            0   -2972.5061   -2972.5061    32450.245    28.306127    24.513809    46.765626      900 
      50            0    21.661619   0.22959113     11.20713    11.262914    42.514812 -0.016101624 -0.0008691646 -0.001506157            0    -2972.507    -2972.507     32437.92    28.299035    24.507679    46.771271      900 
      51            0   -4.4193789   0.23586297  -0.26609958  -0.28070983   -12.711327 0.0042192797 0.00022685691 0.00039220902            0   -2972.5071   -2972.5071    32440.575    28.298443    24.507172    46.777047      900 
      52            0    109.14599   0.24214292    148.22334    147.96055    31.254078  0.075862009 0.0040717721 0.0070517953            0   -2972.5076   -2972.5076    32431.554     28.29299    24.502469     46.78203      900 
      53            0   -107.39462   0.24841905    29.048177    27.773412   -379.00545   0.36799164   0.01924436  0.033331213            0   -2972.5113   -2972.5113    32455.661     28.28989    24.499864    46.826913      900 
      54            0    310.58188   0.25470591    436.85877    435.40278    59.484078    0.4203085  0.022484585  0.038943678            0   -2972.5456   -2972.5456    32443.291    28.279991    24.491305    46.841816      900 
      55            0   -50.617679   0.26098394    9.7419796     8.809994   -170.40501   0.26904207  0.014371948  0.024892261            0   -2972.5502   -2972.5502    32477.611    28.293391    24.502869    46.847039      900 
      56            0     13.94914   0.26725197    19.500545    19.394433     2.952442  0.030633474 0.0016585337 0.0028720937            0    -2972.551    -2972.551    32471.189    28.296356    24.505372    46.828084      900 
      57            0   -7.7497548   0.27353096    -6.625373   -6.6686375   -9.9552538  0.012491039 0.00067637777 0.0011709513            0    -2972.551    -2972.551    32473.047    28.297213    24.506108    46.827938      900 
      58            0    8.2446301   0.27980113   -4.7774811   -4.4874799    33.998851 -0.083714637 -0.0045457022 -0.0078739648            0    -2972.551    -2972.551     32471.32    28.298004    24.506768    46.822878      900 
      59            0   -138.71998   0.28608298   -177.28408   -176.38439   -62.491463  -0.25971957 -0.014077583 -0.024383809            0   -2972.5518   -2972.5518    32484.137    28.303524      24.5115    46.823183      900 
      60            0    30.377441   0.29235411   -40.175211   -37.414348    168.72188  -0.79700036 -0.043672283  -0.07564415            0   -2972.5566   -2972.5566    32469.436    28.302701     24.51064    46.804994      900 
      61            0   -25.480334   0.29863095   -30.358387   -30.120405    -15.96221 -0.068697912 -0.0037095889 -0.0064257232            0   -2972.5576   -2972.5576    32476.075    28.298701    24.507375     46.82742      900 
      62            0    0.1725775   0.30489802  -0.77371715  -0.66060577    1.9520554 -0.032650825 -0.0017634961 -0.003054984            0   -2972.5577   -2972.5577    32473.863    28.297795    24.506601     46.82721      900 
      63            0    -0.165668   0.31117105  -0.12928362   -0.1329105  -0.23480989 0.0010486292 5.7012351e-05 9.8230947e-05            0   -2972.5577   -2972.5577    32473.914    28.297723    24.506547    46.827506      900 
      64            0    0.5389344   0.31744194   0.64098779   0.63201051    0.3438049 0.0025931558 0.00014043753 0.00024272764            0   -2972.5577   -2972.5577    32473.852    28.297701    24.506529    46.827487      900 
      65            0   -3.9484338   0.32371998   -3.9455316   -5.8993946   -2.0003751   0.56402733  0.030465944  0.052767029            0   -2972.5577   -2972.5577    32474.008    28.297806    24.506774     46.82707      900 
      66            0   0.37980478   0.33000398   0.55976044  -0.85932787    1.4389818   0.40965394  0.022129658  0.038328908            0   -2972.5577   -2972.5577    32473.619    28.297696    24.506636    46.826955      900 
      67            0 -0.021862117   0.33631992 -0.018397512  0.015448181 -0.062637019 -0.0097687808 -0.00052732309 -0.00091380512            0   -2972.5577   -2972.5577    32473.665    28.297727    24.506547     46.82714      900 
      68            0    1.8948954   0.34261298    1.6269783    2.4136924    1.6440155  -0.22710417 -0.012266737 -0.021247165            0   -2972.5577   -2972.5577     32473.49    28.297708    24.506472    46.827061      900 
      69            0  -0.60030074     0.348948   -4.4309423    3.0335219  -0.40348176   -2.1548921  -0.11637983  -0.20158525            0   -2972.5577   -2972.5577    32473.636    28.298086    24.506272     46.82703      900 
      70            0   0.61279356   0.35527205   0.40918191   0.80203009   0.62716868  -0.11340412 -0.0061248883 -0.010609041            0   -2972.5577   -2972.5577    32473.429    28.297725    24.506518    46.826858      900 
      71            0  -0.03978503   0.36157799  -0.19188232  0.052354167  0.020173068 -0.070503473 -0.0038076709 -0.0065954867            0   -2972.5577   -2972.5577    32473.487    28.297735    24.506538    46.826885      900 
      72            0 0.0082642599   0.36789393  0.079534075 -0.035569786 -0.019171509  0.033229225 0.0017949635 0.0031085683            0   -2972.5577   -2972.5577    32473.483    28.297714    24.506549    46.826895      900 
      73            0    -1.444091   0.37417197    -1.314316   -1.6442775   -1.3736795  0.095253126 0.0051445936 0.0089102854            0   -2972.5577   -2972.5577    32473.601    28.297743     24.50659    46.826938      900 
      74            0 -0.018911486     0.380476   0.67109179   -0.4010679  -0.32675835   0.30950564  0.016715693  0.028951871            0   -2972.5577   -2972.5577    32473.396    28.297668    24.506584    46.826778      900 
      75            0  0.051036704   0.38681006  0.050711149  0.051967907  0.050431057 -0.00036117375 -1.9285791e-05 -3.3774939e-05            0   -2972.5577   -2972.5577    32473.384    28.297728    24.506551    46.826723      900 
      76            0 -0.00086529913   0.39310002 -0.0060298198 -0.0006237755 0.0040576979 -0.0015589698 -8.3976493e-05 -0.00014582252            0   -2972.5577   -2972.5577    32473.388     28.29773    24.506553    46.826725      900 
      77            0 -0.0028503507   0.39937401  0.010677376 -0.0030187311 -0.016209697 0.0039553461 0.00021384097 0.00037001251            0   -2972.5577   -2972.5577    32473.388    28.297728    24.506553    46.826728      900 
      78            0  0.086160224     0.405653   0.10705343  0.086367783  0.065059459  0.005973052 0.00032281333 0.0005587591            0   -2972.5577   -2972.5577    32473.381    28.297726    24.506551    46.826724      900 
      79            0  0.013373431   0.41192412 -0.026532358 -0.064890835   0.13154348  0.011074755 0.00059832981 0.0010359904            0   -2972.5577   -2972.5577    32473.388    28.297732    24.506558     46.82671      900 
      80            0 -0.029391363   0.41821909 -0.033397258 -0.031254912 -0.023521919 -0.00061682423 -3.3120976e-05 -5.7710772e-05            0   -2972.5577   -2972.5577    32473.393    28.297731    24.506553     46.82673      900 
      81            0 0.00011183591   0.42448592 -0.00029480768 0.0025565324 -0.001926217 -0.00082149314 -4.4174877e-05 -7.6856584e-05            0   -2972.5577   -2972.5577    32473.391     28.29773    24.506552    46.826729      900 
      82            0 0.0038015264   0.43076706  0.006313769 -0.0069736172  0.012064427 0.0038373556 0.00020744071 0.00035895449            0   -2972.5577   -2972.5577     32473.39    28.297729    24.506553    46.826727      900 
      83            0 -0.031120166   0.43703914 -0.029756899 -0.047837035 -0.015766564  0.005220903 0.00028216285 0.00048837749            0   -2972.5577   -2972.5577    32473.393     28.29773    24.506555    46.826728      900 
      84            0 -0.010131053   0.44331312 -0.019209542   0.02083205 -0.032015666   -0.0115574 -0.0006240309 -0.0010811658            0   -2972.5577   -2972.5577    32473.397    28.297731     24.50655    46.826741      900 
      85            0  0.015019522     0.449615  0.013516739  0.023832762 0.0077090643 -0.0029763647 -0.00016058722 -0.00027845696            0   -2972.5577   -2972.5577    32473.395    28.297729    24.506552    46.826738      900 
      86            0 -0.00012155198   0.45591211 -0.00017697003 -0.00054107631 0.00035339039 0.00010672303 5.9245683e-06 9.9500917e-06            0   -2972.5577   -2972.5577    32473.396    28.297729    24.506553    46.826737      900 
      87            0 -0.012172617     0.462183 0.0016018135 -0.0071808431  -0.03093882 0.0025369489 0.0001371746 0.00023728363            0   -2972.5577   -2972.5577    32473.398    28.297729    24.506553    46.826741      900 
      88            0  0.022157454   0.46846104  0.040625297  0.030602283 -0.0047552184 0.0028950091 0.00015651017 0.00027077665            0   -2972.5577   -2972.5577    32473.395    28.297727    24.506552    46.826742      900 
      89            0 0.0005079774   0.47474599 -0.00087759243 0.0010041366  0.001397388 -0.00054159509 -2.9102817e-05 -5.0705598e-05            0   -2972.5577   -2972.5577    32473.398    28.297729    24.506552    46.826741      900 
      90            0 -0.00077543449   0.48102593 -0.0012226199 -0.00071133324 -0.00039235032 -0.00014598245 -7.7365098e-06 -1.3698026e-05            0   -2972.5577   -2972.5577    32473.398    28.297729    24.506552    46.826741      900 
      91            0 2.7084162e-05   0.48729491 0.00018751135 -4.7714421e-05 -5.8544446e-05 6.951712e-05 3.9022213e-06 6.4608598e-06            0   -2972.5577   -2972.5577    32473.398    28.297729    24.506552    46.826741      900 
      92            0 0.0017488606     0.493572 0.00041548983 0.0031119566 0.0017191355 -0.00077678967 -4.1805727e-05 -7.2707169e-05            0   -2972.5577   -2972.5577    32473.398    28.297729    24.506552    46.826741      900 
      93            0 -0.0013733035   0.49984312 -0.0042782663 0.00094904279 -0.00079068695 -0.0015073811 -8.1264446e-05 -0.00014105081            0   -2972.5577   -2972.5577    32473.398     28.29773    24.506552    46.826741      900 
      94            0 -0.00073077755   0.50612092 -0.00028072538 -0.0015695516 -0.00034205563 0.00037366468 2.0321691e-05 3.4907871e-05            0   -2972.5577   -2972.5577    32473.398    28.297729    24.506553    46.826741      900 
      95            0 0.00032498102   0.51239109 0.00067545494 -0.00017137398 0.00047086211 0.00024607104 1.3430511e-05 2.2972085e-05            0   -2972.5577   -2972.5577    32473.398    28.297729    24.506552    46.826741      900 
      96            0 6.3437004e-06   0.51866794 -4.7693813e-05 0.0001215995 -5.4874589e-05 -4.7258185e-05 -2.4117315e-06 -4.4674258e-06            0   -2972.5577   -2972.5577    32473.398    28.297729    24.506552    46.826741      900 
      97            0 -0.0011051782   0.52493691 -0.0012271754 -0.0014018155 -0.00068654383 5.2026823e-05  2.95025e-06 4.8200571e-06            0   -2972.5577   -2972.5577    32473.398    28.297729    24.506552    46.826741      900 
      98            0 0.00045281362   0.53120995 0.00051419937 -0.0015340294 0.0023782708 0.0005928851 3.2159534e-05 5.5413691e-05            0   -2972.5577   -2972.5577    32473.398    28.297729    24.506553    46.826741      900 
      99            0 0.0010927651   0.53748512 0.0015367419 0.0012614742 0.00048007929 8.1074625e-05 4.5105125e-06 7.5319902e-06            0   -2972.5577   -2972.5577    32473.398    28.297729    24.506552    46.826741      900 
     100            0 -0.0001261004     0.543751 0.00013999954 8.0543434e-06 -0.00052635509 3.9700976e-05 2.2757698e-06 3.6615468e-06            0   -2972.5577   -2972.5577    32473.398    28.297729    24.506552    46.826741      900 
     101            0 -2.7992827e-05   0.55002809 -7.1931338e-05 -3.101507e-05 1.8967927e-05 -1.0199821e-05 -4.1934809e-07 -1.0064605e-06            0   -2972.5577   -2972.5577    32473.398    28.297729    24.506552    46.826741      900 
     102            0 0.00023870219   0.55629706 0.00024892548 0.00022730751 0.00023987357 7.8522555e-06 5.5557426e-07 6.8220596e-07            0   -2972.5577   -2972.5577    32473.398    28.297729    24.506552    46.826741      900 
     103            0 -4.6611024e-05     0.562572 0.00081253611 -0.0003833725 -0.00056899668 0.00034684068 1.8863017e-05 3.2392434e-05            0   -2972.5577   -2972.5577    32473.398    28.297729    24.506552    46.826741      900 
     104            0 -0.0011052591   0.56884003 -0.0012190928 -0.0010368299 -0.0010598546 -5.1003575e-05 -2.6279254e-06 -4.8263686e-06            0   -2972.5577   -2972.5577    32473.398    28.297729    24.506552    46.826741      900 
     105            0 1.1000457e-05   0.57511806 -0.00017081109 0.00017169773 3.2114734e-05 -9.7262644e-05 -5.1269513e-06 -9.1540709e-06            0   -2972.5577   -2972.5577    32473.398    28.297729    24.506552    46.826741      900 
     106            0 3.5470179e-05    0.5813911 4.8908823e-05 2.3080696e-05 3.4421017e-05 9.0670731e-06 6.1567723e-07 7.9251097e-07            0   -2972.5577   -2972.5577    32473.398    28.297729    24.506552    46.826741      900 
     107            0 -3.5154306e-05   0.58766413 -2.0267231e-05 -5.3815142e-05 -3.1380545e-05 1.1295553e-05 7.3603282e-07 1.0009768e-06            0   -2972.5577   -2972.5577    32473.398    28.297729    24.506552    46.826741      900 
     108            0 -6.6676203e-05   0.59393811 -0.00026771251 0.00027488744 -0.00020720353 -0.00015502404 -8.2471683e-06 -1.4557726e-05            0   -2972.5577   -2972.5577    32473.398    28.297729    24.506552    46.826741      900 
     109            0 0.00070233992   0.60021091 0.00057723083 0.00096729358 0.00056249535 -0.00011099055 -5.8711553e-06 -1.0439881e-05            0   -2972.5577   -2972.5577    32473.398    28.297729    24.506552    46.826741      900 
     110            0 1.8777947e-05   0.60648203 1.8224449e-05 -7.8203378e-05 0.00011631277 2.9446888e-05 1.7106297e-06 2.6955818e-06            0   -2972.5577   -2972.5577    32473.398    28.297729    24.506552    46.826741      900 
     111            0 -4.6694107e-05   0.61275506 -4.5265149e-05 -5.2021988e-05 -4.2795183e-05 3.5611027e-06 3.125176e-07 2.7405945e-07            0   -2972.5577   -2972.5577    32473.398    28.297729    24.506552    46.826741      900 
     112            0 1.0611436e-05   0.61902714 1.4367417e-05 2.4120018e-05 -6.6531279e-06 -1.2047683e-06 5.511073e-08 -1.717708e-07            0   -2972.5577   -2972.5577    32473.398    28.297729    24.506552    46.826741      900 
     113            0 0.00011501406   0.62530398 -5.6828896e-05 6.2160446e-05 0.00033971062 -3.273877e-05 -1.6487332e-06 -3.1220538e-06            0   -2972.5577   -2972.5577    32473.398    28.297729    24.506552    46.826741      900 
     114            0 -0.00034584843   0.63157201 -0.00056810599 -0.00045296618 -1.647311e-05 -3.162764e-05 -1.590192e-06 -3.0189572e-06            0   -2972.5577   -2972.5577    32473.398    28.297729    24.506552    46.826741      900 
     115            0 -3.6963438e-05     0.637851 7.1450253e-05 -8.451023e-05 -9.7830337e-05 4.6631542e-05 2.6286775e-06 4.2973147e-06            0   -2972.5577   -2972.5577    32473.398    28.297729    24.506552    46.826741      900 
     116            0 5.9593796e-05   0.64411998 9.2999808e-05 5.2428537e-05 3.3353043e-05 1.3321518e-05 8.2955026e-07 1.1812623e-06            0   -2972.5577   -2972.5577    32473.398    28.297729    24.506552    46.826741      900 
     117            0 -2.1697169e-06   0.65039706 -1.3765793e-05 4.1438668e-06 3.1127752e-06 -3.5604893e-06 -8.2262497e-08 -3.9798943e-07            0   -2972.5577   -2972.5577    32473.398    28.297729    24.506552    46.826741      900 
     118            0 -0.00012622577   0.65666509 -2.9242422e-05 -0.00023364081 -0.00011579409 6.0614289e-05 3.3832019e-06 5.604953e-06            0   -2972.5577   -2972.5577    32473.398    28.297729    24.506552    46.826741      900 
     119            0 0.00010520402   0.66294312 0.0003099579 -7.3617374e-05 7.9271539e-05 0.00011233813 6.175833e-06 1.0442967e-05            0   -2972.5577   -2972.5577    32473.398    28.297729    24.506552    46.826741      900 
     120            0 4.7500913e-05   0.66922092 2.0053433e-05 0.0001059721 1.647721e-05 -2.3193685e-05 -1.1501187e-06 -2.238786e-06            0   -2972.5577   -2972.5577    32473.398    28.297729    24.506552    46.826741      900 
     121            0 -2.3044005e-05     0.675488 -4.4506605e-05 1.1172802e-05 -3.5798212e-05 -1.4464376e-05 -6.7873194e-07 -1.4222392e-06            0   -2972.5577   -2972.5577    32473.398    28.297729    24.506552    46.826741      900 
     122            0 -5.3229176e-07   0.68176603 1.8789846e-06 -6.9377946e-06 3.4619347e-06 4.1540561e-06 3.267746e-07 3.193984e-07            0   -2972.5577   -2972.5577    32473.398    28.297729    24.506552    46.826741      900 
     123            0 6.0229204e-05   0.68803406 6.8830817e-05 7.6581843e-05 3.5274953e-05 -6.2866622e-07 6.8344526e-08 -1.2806539e-07            0   -2972.5577   -2972.5577    32473.398    28.297729    24.506552    46.826741      900 
     124            0 -2.736573e-05   0.69431806 -1.7537036e-05 7.5306762e-05 -0.00013986692 -2.5192905e-05 -1.2591069e-06 -2.4263443e-06            0   -2972.5577   -2972.5577    32473.398    28.297729    24.506552    46.826741      900 
     125            0 -7.5313543e-05   0.70058513 -0.00011048274 -8.3965325e-05 -3.1492561e-05 -6.0465958e-06 -2.3018713e-07 -6.3806682e-07            0   -2972.5577   -2972.5577    32473.398    28.297729    24.506552    46.826741      900 
     126            0 1.0031597e-05   0.70685697 -1.2016191e-05 3.3924111e-06 3.871857e-05 -2.8397754e-06 -5.7193629e-08 -3.381921e-07            0   -2972.5577   -2972.5577    32473.398    28.297729    24.506552    46.826741      900 
     127            0 1.8505501e-06   0.71313596 5.8742263e-06 1.8726854e-06 -2.1952614e-06 2.7634439e-06 2.4536323e-07 1.8593142e-07            0   -2972.5577   -2972.5577    32473.398    28.297729    24.506552    46.826741      900 
     128            0 -2.3963826e-05   0.71940804 -2.5436983e-05 -2.2789584e-05 -2.366491e-05 8.4406139e-07 1.416688e-07 6.3651298e-09            0   -2972.5577   -2972.5577    32473.398    28.297729    24.506552    46.826741      900 
     129            0 4.8419176e-06   0.72568297 -7.8945489e-05 4.4331384e-05 4.9139857e-05 -3.3978738e-05 -1.7398249e-06 -3.2515308e-06            0   -2972.5577   -2972.5577    32473.398    28.297729    24.506552    46.826741      900 
     130            0 0.00010795346   0.73195505 0.0001199555 0.00010032993 0.00010357494 7.2732247e-06 4.8342685e-07 6.0494445e-07            0   -2972.5577   -2972.5577    32473.398    28.297729    24.506552    46.826741      900 
     131            0 -1.211149e-06   0.73822594 1.6524415e-05 -1.8330154e-05 -1.8277079e-06 1.1669376e-05 7.2014121e-07 1.0158054e-06            0   -2972.5577   -2972.5577    32473.398    28.297729    24.506552    46.826741      900 
     132            0 -3.4764741e-06   0.74449897 -4.8899839e-06 -2.0027326e-06 -3.5367059e-06 7.7426359e-07 1.3166167e-07 -3.4008854e-09            0   -2972.5577   -2972.5577    32473.398    28.297729    24.506552    46.826741      900 
     133            0 4.1556878e-06   0.75077009 2.6350044e-06 6.2759993e-06 3.5560596e-06 5.5665684e-07 1.1990224e-07 -2.3761507e-08            0   -2972.5577   -2972.5577    32473.398    28.297729    24.506552    46.826741      900 
     134            0 6.8598627e-06   0.75704694 2.5645386e-05 -2.9998994e-05 2.4933196e-05 1.7670839e-05 1.0437744e-06 1.5769674e-06            0   -2972.5577   -2972.5577    32473.398    28.297729    24.506552    46.826741      900 
     135            0 -6.5035714e-05   0.76331401 -5.5381757e-05 -8.8330529e-05 -5.1394855e-05 1.1119051e-05 6.8850805e-07 9.6338156e-07            0   -2972.5577   -2972.5577    32473.398    28.297729    24.506552    46.826741      900 
     136            0 -1.3884865e-06    0.7695899 -3.188367e-07 5.6826307e-06 -9.5292536e-06 -1.2501081e-07 7.9951371e-08 -8.9081468e-08            0   -2972.5577   -2972.5577    32473.398    28.297729    24.506552    46.826741      900 
     137            0 3.3020277e-06   0.77585912 3.2072855e-06 3.8414677e-06  2.85733e-06 1.4243905e-06 1.636086e-07 5.5838782e-08            0   -2972.5577   -2972.5577    32473.398    28.297729    24.506552    46.826741      900 
     138            0 -4.9261331e-07   0.78213596 -8.5389731e-07 -1.0604175e-06 4.3647492e-07 1.6670707e-06 1.7671528e-07 7.8542572e-08            0   -2972.5577   -2972.5577    32473.398    28.297729    24.506552    46.826741      900 
     139            0 -4.8186251e-06   0.78840494 3.7658518e-06 -3.6936593e-06 -1.4528068e-05 3.7608222e-06 2.8960508e-07 2.7431106e-07            0   -2972.5577   -2972.5577    32473.398    28.297729    24.506552    46.826741      900 
     140            0 1.6917457e-05    0.7946949 2.7965588e-05 2.030966e-05 2.4771247e-06 3.8174769e-06 2.9225866e-07 2.7940574e-07            0   -2972.5577   -2972.5577    32473.398    28.297729    24.506552    46.826741      900 
     141            0 1.7708207e-06   0.80097294 -3.8582172e-06 4.6900876e-06 4.4805917e-06 -8.6049433e-07 3.7270866e-08 -1.593016e-07            0   -2972.5577   -2972.5577    32473.398    28.297729    24.506552    46.826741      900 
     142            0 -3.0496509e-06   0.80724192 -4.6718701e-06 -2.605349e-06 -1.8717336e-06 1.0106404e-06 1.3828814e-07 1.5706852e-08            0   -2972.5577   -2972.5577    32473.398    28.297729    24.506552    46.826741      900 
     143            0 1.2280656e-07   0.81351995 6.8343438e-07 -2.3743652e-07 -7.7578165e-08 1.8730375e-06 1.8484371e-07 9.6370362e-08            0   -2972.5577   -2972.5577    32473.398    28.297729    24.506552    46.826741      900 
     144            0 6.1806668e-06   0.81978893 1.3700052e-06 1.1957763e-05 5.214232e-06 -1.4492473e-06 5.1691752e-09 -2.1452027e-07            0   -2972.5577   -2972.5577    32473.398    28.297729    24.506552    46.826741      900 
     145            0 -5.8087284e-06   0.82606912 -1.6010838e-05 3.9155307e-06 -5.3308776e-06 -4.1451039e-06 -1.408536e-07 -4.6690684e-07            0   -2972.5577   -2972.5577    32473.398    28.297729    24.506552    46.826741      900 
     146            0 -3.1853455e-06    0.8323369 -1.5199121e-06 -7.37289e-06 -6.6323437e-07 3.296395e-06 2.5680303e-07 2.2719033e-07            0   -2972.5577   -2972.5577    32473.398    28.297729    24.506552    46.826741      900 
     147            0 1.718765e-06   0.83861303 3.0448977e-06 -6.9866452e-07 2.8100618e-06 2.6874806e-06 2.2384782e-07 1.701978e-07            0   -2972.5577   -2972.5577    32473.398    28.297729    24.506552    46.826741      900 
     148            0 3.2313474e-08   0.84488297 -8.1299258e-08 4.4799474e-07 -2.6975506e-07 1.4539867e-06 1.5719411e-07 5.4796762e-08            0   -2972.5577   -2972.5577    32473.398    28.297729    24.506552    46.826741      900 
     149            0 -3.9490734e-06    0.8511579 -4.6740152e-06 -5.0180367e-06 -2.1551684e-06 1.7060712e-06 1.7071618e-07 7.8337908e-08            0   -2972.5577   -2972.5577    32473.398    28.297729    24.506552    46.826741      900 
     150            0 1.8928577e-06   0.85743093 3.638072e-07 -4.0233578e-06 9.3381237e-06 2.8731932e-06 2.3326041e-07 1.8727237e-07            0   -2972.5577   -2972.5577    32473.398    28.297729    24.506552    46.826741      900 
     151            0 4.4550962e-06   0.86370301 6.8501548e-06 4.7395567e-06 1.775577e-06 2.2157349e-06 1.943724e-07 1.2419427e-07            0   -2972.5577   -2972.5577    32473.398    28.297729    24.506552    46.826741      900 
     152            0 -6.68573e-07   0.86997414 8.7270268e-07 -4.7314181e-07 -2.4052799e-06 1.994943e-06 1.8233545e-07 1.0348901e-07            0   -2972.5577   -2972.5577    32473.398    28.297729    24.506552    46.826741      900 
     153            0 -1.1147493e-07   0.87624693 -3.302587e-07 -7.7460614e-08 7.3294525e-08 1.5334674e-06 1.5737172e-07 6.0294533e-08            0   -2972.5577   -2972.5577    32473.398    28.297729    24.506552    46.826741      900 
     154            0 1.1961423e-06   0.88251996 1.2693791e-06 1.1513127e-06 1.167735e-06  1.64053e-06 1.6313288e-07 7.0306675e-08            0   -2972.5577   -2972.5577    32473.398    28.297729    24.506552    46.826741      900 
     155            0 -2.5948641e-07   0.88879514 3.8617721e-06 -2.5309425e-06 -2.1092889e-06 3.4518294e-06 2.606019e-07 2.3958218e-07            0   -2972.5577   -2972.5577    32473.398    28.297729    24.506552    46.826741      900 
     156            0 -6.7936944e-06   0.89507294 -7.605459e-06 -6.2235424e-06 -6.5520817e-06 1.207233e-06 1.3630361e-07 2.8205779e-08            0   -2972.5577   -2972.5577    32473.398    28.297729    24.506552    46.826741      900 
     157            0 9.0137209e-08   0.90135312 -1.0549464e-06 1.3152847e-06 1.0073278e-08 9.2189471e-07 1.2030973e-07 1.2466568e-09            0   -2972.5577   -2972.5577    32473.398    28.297729    24.506552    46.826741      900 
     158            0 2.2885736e-07    0.9076221 3.5218005e-07 8.978428e-08 2.4460775e-07 1.6818674e-06 1.6130539e-07 7.2312961e-08            0   -2972.5577   -2972.5577    32473.398    28.297729    24.506552    46.826741      900 
     159            0 -4.3213053e-07   0.91390705 -3.0386617e-07 -6.2319641e-07 -3.6932903e-07 1.6982854e-06 1.6218771e-07 7.3844288e-08            0   -2972.5577   -2972.5577    32473.398    28.297729    24.506552    46.826741      900 
     160            0 -6.3915114e-07   0.92017412 -2.1305419e-06 2.9777361e-06 -2.7646476e-06 1.3144996e-07 7.697774e-08 -7.298899e-08            0   -2972.5577   -2972.5577    32473.398    28.297729    24.506552    46.826741      900 
     161            0 6.486912e-06   0.92644906 5.7355301e-06 8.6457496e-06 5.0794563e-06 7.6580552e-07 1.0918529e-07 -1.4576991e-08            0   -2972.5577   -2972.5577    32473.398    28.297729    24.506552    46.826741      900 
     162            0 1.2822624e-07   0.93271804 -1.0398251e-07 -5.151034e-07 1.0037646e-06 1.7244519e-06 1.592886e-07 7.4354578e-08            0   -2972.5577   -2972.5577    32473.398    28.297729    24.506552    46.826741      900 
     163            0 -3.1826968e-07   0.93899512 -3.0417131e-07 -3.5688902e-07 -2.9374873e-07 1.6209948e-06 1.536729e-07 6.4654586e-08            0   -2972.5577   -2972.5577    32473.398    28.297729    24.506552    46.826741      900 
     164            0 6.8561923e-08   0.94527197 1.2036785e-07 1.2607398e-07 -4.0756064e-08 1.6041162e-06 1.5275018e-07 6.3074393e-08            0   -2972.5577   -2972.5577    32473.398    28.297729    24.506552    46.826741      900 
     165            0 5.2164835e-07   0.95153999 -6.1345594e-07 5.6059927e-07 1.6178017e-06 1.2668375e-06 1.3432966e-07 3.1435385e-08            0   -2972.5577   -2972.5577    32473.398    28.297729    24.506552    46.826741      900 
     166            0 -2.0404629e-06   0.95781898 -3.3465574e-06 -2.2335101e-06 -5.4132114e-07 1.2844086e-06 1.3485293e-07 3.288787e-08            0   -2972.5577   -2972.5577    32473.398    28.297729    24.506552    46.826741      900 
     167            0 -1.2546244e-07   0.96408606 3.1536949e-07 -3.9702536e-07 -2.9473145e-07 1.811252e-06 1.6184137e-07 8.1522009e-08            0   -2972.5577   -2972.5577    32473.398    28.297729    24.506552    46.826741      900 
     168            0 2.3120474e-07   0.97036195 3.4786884e-07 1.8979802e-07 1.5594737e-07 1.6512541e-06 1.5317564e-07 6.6546701e-08            0   -2972.5577   -2972.5577    32473.398    28.297729    24.506552    46.826741      900 
     169            0 -6.885901e-09   0.97663093 -4.0148063e-08 1.8426958e-08 1.0634022e-09 1.5887101e-06 1.4979122e-07 6.0697534e-08            0   -2972.5577   -2972.5577    32473.398    28.297729    24.506552    46.826741      900 
     170            0 -3.3161373e-07   0.98291397 -7.0494679e-08 -6.8135533e-07 -2.4299118e-07 1.781954e-06 1.6012329e-07 7.8726994e-08            0   -2972.5577   -2972.5577    32473.398    28.297729    24.506552    46.826741      900 
     171            0 3.5141293e-07     0.989187 8.8090523e-07 -2.1214121e-07 3.8547476e-07 1.921134e-06 1.6747424e-07 9.1674796e-08            0   -2972.5577   -2972.5577    32473.398    28.297729    24.506552    46.826741      900 
     172            0 1.5438058e-07   0.99546099 8.8228054e-08 3.7598236e-07 -1.0686772e-09 1.5224043e-06 1.443085e-07 5.3672883e-08            0   -2972.5577   -2972.5577    32473.398    28.297729    24.506552    46.826741      900 
     173            0 -9.8335438e-08    1.0017321 -1.5323458e-07 2.4630186e-08 -1.6640192e-07 1.5541292e-06 1.4600238e-07 5.6624172e-08            0   -2972.5577   -2972.5577    32473.398    28.297729    24.506552    46.826741      900 
     174            0 -1.583688e-10     1.008004 3.1042552e-09 -2.2850813e-08 1.9271452e-08 1.6129761e-06 1.4916029e-07 6.2128319e-08            0   -2972.5577   -2972.5577    32473.398    28.297729    24.506552    46.826741      900 
     175            0 2.4570587e-07    1.0142751 3.1104832e-07 3.1182278e-07 1.1424651e-07 1.6052608e-06 1.4866948e-07 6.1370746e-08            0   -2972.5577   -2972.5577    32473.398    28.297729    24.506552    46.826741      900 
     176            0 -1.3292691e-07    1.0205481 4.1196922e-08 1.5975419e-07 -5.9973185e-07 1.571207e-06 1.4650971e-07 5.804743e-08            0   -2972.5577   -2972.5577    32473.398    28.297729    24.506552    46.826741      900 
     177            0 -2.4895245e-07     1.026819 -4.1918211e-07 -2.367202e-07 -9.0955051e-08 1.5525942e-06 1.4293501e-07 5.5199602e-08            0   -2972.5577   -2972.5577    32473.398    28.297729    24.506552    46.826741      900 
     178            0 4.9442772e-08    1.0330951 -6.1233896e-08 6.1756324e-08 1.4780589e-07 1.5697606e-06 1.4379083e-07 5.677169e-08            0   -2972.5577   -2972.5577    32473.398    28.297729    24.506552    46.826741      900 
     179            0 5.6924638e-09    1.0393629 2.1201041e-08 8.3314097e-10 -4.9567906e-09 1.6111246e-06 1.4599668e-07 6.062832e-08            0   -2972.5577   -2972.5577    32473.398    28.297729    24.506552    46.826741      900 
     180            0 -1.0074261e-07     1.045639 -1.119076e-07 -9.5018721e-08 -9.5301522e-08 1.6003639e-06 1.4539363e-07 5.9613229e-08            0   -2972.5577   -2972.5577    32473.398    28.297729    24.506552    46.826741      900 
     181            0 2.219715e-08    1.0519071 -2.6965539e-07 2.2605683e-07 1.1019001e-07 1.4621334e-06 1.3760298e-07 4.6546738e-08            0   -2972.5577   -2972.5577    32473.398    28.297729    24.506552    46.826741      900 
     182            0 3.3597366e-07    1.0581839 3.8231549e-07 2.972447e-07 3.2836079e-07 1.6296413e-06 1.445935e-07 6.1330791e-08            0   -2972.5577   -2972.5577    32473.398    28.297729    24.506552    46.826741      900 
     183            0 -5.6662312e-09    1.0644519 4.7780454e-08 -7.280835e-08 8.0292018e-09 1.6398871e-06 1.4492531e-07 6.2187724e-08            0   -2972.5577   -2972.5577    32473.398    28.297729    24.506552    46.826741      900 
     184            0 -1.1066866e-08      1.07073 -1.6922845e-08 -2.7450838e-09 -1.3532669e-08 1.6009753e-06 1.4279545e-07 5.8535032e-08            0   -2972.5577   -2972.5577    32473.398    28.297729    24.506552    46.826741      900 
     185            0 2.5820361e-08    1.0770061 2.0013205e-08 3.6654785e-08 2.0793092e-08 1.6002737e-06 1.4275756e-07 5.8466692e-08            0   -2972.5577   -2972.5577    32473.398    28.297729    24.506552    46.826741      900 
     186            0 2.8484327e-08    1.0832741 8.0126087e-08 -1.6200517e-07 1.6733206e-07 1.6749383e-06 1.4643285e-07 6.5300469e-08            0   -2972.5577   -2972.5577    32473.398    28.297729    24.506552    46.826741      900 
     187            0 -3.8976118e-07    1.0895491 -3.5863915e-07 -4.9500062e-07 -3.1564377e-07 1.6442965e-06 1.430714e-07 6.1699318e-08            0   -2972.5577   -2972.5577    32473.398    28.297729    24.506552    46.826741      900 
     188            0 -5.8079568e-09     1.095818 2.2559265e-08 2.5173531e-08 -6.5156666e-08 1.6040818e-06 1.3971871e-07 5.7440399e-08            0   -2972.5577   -2972.5577    32473.398    28.297729    24.506552    46.826741      900 
     189            0 1.7479852e-08     1.102092 1.3904583e-08 1.7678183e-08 2.0856789e-08 1.6037601e-06 1.3965618e-07 5.738999e-08            0   -2972.5577   -2972.5577    32473.398    28.297729    24.506552    46.826741      900 
     190            0 -1.2417865e-08     1.108361 -1.9258197e-08 -1.7411157e-08 -5.8424005e-10 1.6043191e-06 1.3967877e-07 5.7443495e-08            0   -2972.5577   -2972.5577    32473.398    28.297729    24.506552    46.826741      900 
     191            0 -5.2880742e-08    1.1146371 1.2071635e-07 -1.0835589e-07 -1.7100269e-07 1.6709442e-06 1.4274565e-07 6.3454857e-08            0   -2972.5577   -2972.5577    32473.398    28.297729    24.506552    46.826741      900 
     192            0 2.9717037e-07    1.1209061 4.5767745e-07 2.8230749e-07 1.5152616e-07 1.655354e-06 1.4060477e-07 6.1447469e-08            0   -2972.5577   -2972.5577    32473.398    28.297729    24.506552    46.826741      900 
     193            0 9.0416623e-09    1.1271811 -3.2098024e-08 4.4212225e-08 1.5010786e-08 1.5825394e-06 1.3429276e-07 5.3617012e-08            0   -2972.5577   -2972.5577    32473.398    28.297729    24.506552    46.826741      900 
     194            0 -2.2722758e-08     1.133455 -2.8924015e-08 -2.0696581e-08 -1.8547677e-08 1.6021956e-06 1.3533017e-07 5.5440794e-08            0   -2972.5577   -2972.5577    32473.398    28.297729    24.506552    46.826741      900 
     195            0 2.9849471e-09    1.1397281 9.0693026e-09 -2.4560709e-09 2.3416095e-09 1.6078984e-06 1.356326e-07 5.5977133e-08            0   -2972.5577   -2972.5577    32473.398    28.297729    24.506552    46.826741      900 
     196            0 6.6985088e-08     1.145999 1.3792148e-08 1.6531983e-07 2.1843283e-08 1.5607903e-06 1.3274851e-07 5.1426828e-08            0   -2972.5577   -2972.5577    32473.398    28.297729    24.506552    46.826741      900 
     197            0 -9.4024812e-08    1.1522729 -1.8118767e-07 3.0999133e-08 -1.318859e-07 1.5432506e-06 1.3135767e-07 4.9598807e-08            0   -2972.5577   -2972.5577    32473.398    28.297729    24.506552    46.826741      900 
     198            0 -1.1319008e-08     1.158545 -1.1047775e-08 -3.2987286e-08 1.0078037e-08 1.6107495e-06 1.3323809e-07 5.5159948e-08            0   -2972.5577   -2972.5577    32473.398    28.297729    24.506552    46.826741      900 
     199            0 1.3701707e-08     1.164818 1.5623363e-08 4.2244915e-09 2.1257268e-08 1.6077091e-06 1.3305755e-07 5.4874216e-08            0   -2972.5577   -2972.5577    32473.398    28.297729    24.506552    46.826741      900 
     200            0 -9.9894334e-10    1.1710901 -4.7647729e-10 3.1125706e-09 -5.6329233e-09 1.6033707e-06 1.3281347e-07 5.4458051e-08            0   -2972.5577   -2972.5577    32473.398    28.297729    24.506552    46.826741      900 
     201            0 -5.7411444e-08    1.1773701 -9.5840223e-08 -6.6329013e-08 -1.0065097e-08 1.5958647e-06  1.32176e-07 5.3662647e-08            0   -2972.5577   -2972.5577    32473.398    28.297729    24.506552    46.826741      900 
     202            0 4.473479e-08     1.183639 -3.0739935e-08 2.5431136e-08 1.3951317e-07 1.5881554e-06 1.3123029e-07 5.2723555e-08            0   -2972.5577   -2972.5577    32473.398    28.297729    24.506552    46.826741      900 
     203            0 2.3469221e-08    1.1899149 5.2982929e-08 7.9068275e-09 9.517908e-09 1.6171438e-06 1.2919451e-07 5.392426e-08            0   -2972.5577   -2972.5577    32473.398    28.297729    24.506552    46.826741      900 
     204            0 -1.3541554e-08    1.1961851 3.0538459e-09 -2.3781873e-08 -1.9896636e-08  1.61189e-06 1.2886043e-07 5.3415418e-08            0   -2972.5577   -2972.5577    32473.398    28.297729    24.506552    46.826741      900 
     205            0 3.9142869e-10     1.202461 -7.2063034e-09 5.521959e-09 2.8586305e-09 1.6004687e-06 1.2821125e-07 5.2326894e-08            0   -2972.5577   -2972.5577    32473.398    28.297729    24.506552    46.826741      900 
     206            0 9.3062294e-08      1.20873 1.1663825e-07 6.6446274e-08 9.6102357e-08 1.6186094e-06 1.2877935e-07 5.3856981e-08            0   -2972.5577   -2972.5577    32473.398    28.297729    24.506552    46.826741      900 
     207            0 -2.6488197e-08    1.2150061 9.2775304e-08 -1.930226e-07 2.0782709e-08 1.6864829e-06 1.3029864e-07 5.930231e-08            0   -2972.5577   -2972.5577    32473.398    28.297729    24.506552    46.826741      900 
     208            0 -6.9785173e-08     1.221282 -7.3212443e-08 -4.4119331e-08 -9.2023745e-08 1.5950555e-06 1.1639628e-07 4.7003796e-08            0   -2972.5577   -2972.5577    32473.398    28.297729    24.506552    46.826741      900 
     209            0 6.895435e-09      1.22755 4.540416e-09 3.1859566e-08 -1.5713677e-08 1.5955444e-06 1.1621367e-07 4.6961377e-08            0   -2972.5577   -2972.5577    32473.398    28.297729    24.506552    46.826741      900 
     210            0 2.4482923e-09    1.2338281 1.8076887e-09 -5.3738281e-09 1.0911016e-08 1.605516e-06 1.1666208e-07 4.7859988e-08            0   -2972.5577   -2972.5577    32473.398    28.297729    24.506552    46.826741      900 
     211            0 -6.1690534e-08     1.240097 -5.5805355e-08 -7.1497057e-08 -5.776919e-08 1.6079601e-06 1.1663085e-07 4.8022145e-08            0   -2972.5577   -2972.5577    32473.398    28.297729    24.506552    46.826741      900 
     212            0 -3.1139218e-09    1.2463751 1.185851e-07 4.5879542e-08 -1.7380641e-07 1.6242557e-06 1.1483019e-07 4.8429897e-08            0   -2972.5577   -2972.5577    32473.398    28.297729    24.506552    46.826741      900 
     213            0 1.2395235e-07    1.2526431 1.0538388e-07 1.5090545e-07 1.1556771e-07 1.5896049e-06 1.0413208e-07 4.1509424e-08            0   -2972.5577   -2972.5577    32473.398    28.297729    24.506552    46.826741      900 
     214            0 -2.552919e-09     1.258919 -3.1271917e-08 9.0395929e-09 1.4573567e-08 1.5910761e-06 1.0353829e-07 4.1365678e-08            0   -2972.5577   -2972.5577    32473.398    28.297729    24.506552    46.826741      900 
     215            0 -4.8294297e-09    1.2651911 2.5146038e-09 -9.2511137e-09 -7.7517792e-09 1.6061229e-06 1.0425808e-07 4.2731271e-08            0   -2972.5577   -2972.5577    32473.398    28.297729    24.506552    46.826741      900 
     216            0 2.5707964e-08    1.2714629 3.5044486e-08 2.4416948e-08 1.7662458e-08 1.6057754e-06 1.0420133e-07 4.268719e-08            0   -2972.5577   -2972.5577    32473.398    28.297729    24.506552    46.826741      900 
     217            0 1.1935808e-08     1.277735 -1.1771659e-07 1.4913296e-07 4.3910585e-09 1.5255222e-06 9.7534072e-08 3.4206784e-08            0   -2972.5577   -2972.5577    32473.398    28.297729    24.506552    46.826741      900 
     218            0 -2.0070456e-07    1.2840071 -2.4722829e-07 -1.9149459e-07 -1.6339079e-07 1.5861009e-06 9.3692074e-08 3.6930899e-08            0   -2972.5577   -2972.5577    32473.398    28.297729    24.506552    46.826741      900 
     219            0 3.9937339e-10    1.2902801 9.7497631e-09 -2.5412846e-08 1.6861203e-08 1.6122051e-06 9.2756709e-08 3.8397721e-08            0   -2972.5577   -2972.5577    32473.398    28.297729    24.506552    46.826741      900 
     220            0 8.6311948e-09    1.2965531 8.3344241e-09 1.4640629e-08 2.9185312e-09 1.6002237e-06 9.203147e-08 3.724714e-08            0   -2972.5577   -2972.5577    32473.398    28.297729    24.506552    46.826741      900 
     221            0 -1.2490302e-08    1.3028231 -1.5830504e-08 -4.0055478e-09 -1.7634853e-08 1.5986352e-06 9.191944e-08 3.7089733e-08            0   -2972.5577   -2972.5577    32473.398    28.297729    24.506552    46.826741      900 
     222            0 -2.4779262e-08    1.3090999 -8.8159197e-08 -9.8973699e-08 1.1279511e-07 1.6050661e-06 9.0268664e-08 3.6873459e-08            0   -2972.5577   -2972.5577    32473.398    28.297729    24.506552    46.826741      900 
     223            0 1.7157965e-07    1.3153691 1.5211285e-07 1.2752818e-07 2.3509793e-07 1.6088797e-06 8.7358617e-08 3.5949062e-08            0   -2972.5577   -2972.5577    32473.398    28.297729    24.506552    46.826741      900 
     224            0 2.2381555e-09     1.321645 2.1557092e-08 -1.1827748e-09 -1.3659851e-08 1.6082097e-06 8.444854e-08 3.4699849e-08            0   -2972.5577   -2972.5577    32473.398    28.297729    24.506552    46.826741      900 
     225            0 -1.0191277e-08    1.3279121 -1.0558418e-08 -1.0192073e-08 -9.8233394e-09 1.6015107e-06 8.4057874e-08 3.4063895e-08            0   -2972.5577   -2972.5577    32473.398    28.297729    24.506552    46.826741      900 
     226            0 2.9671227e-09    1.3341889 -1.2858806e-09 4.4126803e-09 5.7745683e-09 1.599987e-06 8.3967134e-08 3.3916835e-08            0   -2972.5577   -2972.5577    32473.398    28.297729    24.506552    46.826741      900 
     227            0 3.6379155e-08    1.3404579 1.0239592e-07 -1.7742462e-08 2.4484006e-08 1.6363006e-06 8.5340808e-08 3.7071648e-08            0   -2972.5577   -2972.5577    32473.398    28.297729    24.506552    46.826741      900 
     228            0 -6.7111017e-08     1.346736 -5.6667369e-09 -1.2537963e-07 -7.0286679e-08 1.6361636e-06 8.4751073e-08 3.6825764e-08            0   -2972.5577   -2972.5577    32473.398    28.297729    24.506552    46.826741      900 
     229            0 -2.7624642e-09     1.353019 -6.5269206e-09 4.6229009e-09 -6.3833727e-09 1.5983301e-06 8.1615034e-08 3.2847095e-08            0   -2972.5577   -2972.5577    32473.398    28.297729    24.506552    46.826741      900 
     230            0 5.6624728e-09     1.359287 4.9037391e-09 7.4673893e-09 4.6162901e-09 1.6008257e-06 8.1730708e-08 3.3076277e-08            0   -2972.5577   -2972.5577    32473.398    28.297729    24.506552    46.826741      900 
     231            0 -7.301593e-10     1.365567  5.59207e-10 -4.4047535e-09 1.6550686e-09 1.6029715e-06 8.184814e-08 3.327961e-08            0   -2972.5577   -2972.5577    32473.398    28.297729    24.506552    46.826741      900 
     232            0 -2.4582041e-08     1.371835 -2.1705095e-08 -1.0199669e-08 -4.1841358e-08 1.5982233e-06 8.1466714e-08 3.2786358e-08            0   -2972.5577   -2972.5577    32473.398    28.297729    24.506552    46.826741      900 
     233            0 1.4439186e-08    1.3781121 1.9849509e-08 4.5298169e-08 -2.1830119e-08 1.5941832e-06 8.1073862e-08 3.2344596e-08            0   -2972.5577   -2972.5577    32473.398    28.297729    24.506552    46.826741      900 
     234            0 1.2222824e-08    1.3843801 2.851861e-09 9.6262172e-09 2.4190393e-08 1.5995618e-06 8.0526858e-08 3.2522228e-08            0   -2972.5577   -2972.5577    32473.398    28.297729    24.506552    46.826741      900 
     235            0 -5.5544403e-09    1.3906531 -1.1944263e-08 -8.7090856e-09 3.990028e-09 1.6005957e-06 8.0551792e-08 3.2608787e-08            0   -2972.5577   -2972.5577    32473.398    28.297729    24.506552    46.826741      900 
     236            0 -5.3125989e-10    1.3969221 1.8430718e-09 -5.1385049e-10 -2.923001e-09 1.6022066e-06 8.0626313e-08 3.2744977e-08            0   -2972.5577   -2972.5577    32473.398    28.297729    24.506552    46.826741      900 
     237            0 1.4763463e-08    1.4031961 1.2056094e-08 1.842447e-08 1.3809825e-08 1.5996899e-06 8.0467556e-08 3.2502551e-08            0   -2972.5577   -2972.5577    32473.398    28.297729    24.506552    46.826741      900 
     238            0 -3.4358419e-09    1.4094691 -3.2247869e-08 9.0753906e-09 1.2864953e-08 1.5896055e-06 7.9787617e-08 3.1509246e-08            0   -2972.5577   -2972.5577    32473.398    28.297729    24.506552    46.826741      900 
     239            0 -3.3901478e-08     1.415741 -2.3784113e-08 -5.1970332e-08 -2.594999e-08 1.609662e-06 7.9600321e-08 3.2902203e-08            0   -2972.5577   -2972.5577    32473.398    28.297729    24.506552    46.826741      900 
     240            0 4.0087904e-09     1.422014 1.645653e-08 -9.5031266e-09 5.072968e-09 1.6090134e-06 7.9432681e-08 3.2787125e-08            0   -2972.5577   -2972.5577    32473.398    28.297729    24.506552    46.826741      900 
     241            0 1.3602253e-09     1.428288 2.1551127e-10 3.7715037e-09 9.3660848e-11 1.6005156e-06 7.8925966e-08 3.1972275e-08            0   -2972.5577   -2972.5577    32473.398    28.297729    24.506552    46.826741      900 
     242            0 -8.106225e-09    1.4345601 -1.0028874e-08 -7.5123696e-09 -6.7774314e-09 1.6008068e-06 7.893832e-08 3.1995774e-08            0   -2972.5577   -2972.5577    32473.398    28.297729    24.506552    46.826741      900 
     243            0 1.1764396e-09     1.440835 3.2876186e-09 -2.2168324e-08 2.2410024e-08 1.6088982e-06 7.9239268e-08 3.2700408e-08            0   -2972.5577   -2972.5577    32473.398    28.297729    24.506552    46.826741      900 
     244            0 5.3775042e-08     1.447108 6.7174011e-08 5.2710382e-08 4.1440732e-08 1.6057015e-06 7.8243737e-08 3.2092053e-08            0   -2972.5577   -2972.5577    32473.398    28.297729    24.506552    46.826741      900 
     245            0 -2.471944e-09    1.4533851 7.5981828e-09 5.3547865e-09 -2.0368801e-08 1.6021978e-06 7.761757e-08 3.1602654e-08            0   -2972.5577   -2972.5577    32473.398    28.297729    24.506552    46.826741      900 
     246            0 -4.1761806e-09    1.4596541 -6.1724381e-09 -3.920511e-09 -2.4355929e-09 1.6008867e-06 7.748364e-08 3.1450482e-08            0   -2972.5577   -2972.5577    32473.398    28.297729    24.506552    46.826741      900 
     247            0 2.0188331e-09    1.4659321 4.5887903e-10 1.978244e-09 3.6193762e-09 1.6011022e-06 7.7494212e-08 3.1466847e-08            0   -2972.5577   -2972.5577    32473.398    28.297729    24.506552    46.826741      900 
     248            0 1.5134729e-09    1.4722011 1.2572566e-08 -2.2829353e-09 -5.7492124e-09 1.6058391e-06 7.7712131e-08 3.1894909e-08            0   -2972.5577   -2972.5577    32473.398    28.297729    24.506552    46.826741      900 
     249            0 -3.0150208e-08     1.478477 -2.3063833e-08 -3.2368354e-08 -3.5018437e-08 1.6042316e-06 7.7491812e-08 3.1696571e-08            0   -2972.5577   -2972.5577    32473.398    28.297729    24.506552    46.826741      900 
     250            0 -2.1209723e-09     1.484746 -1.9358817e-08 1.3706199e-08 -7.1029929e-10 1.5920108e-06 7.620431e-08 3.0319492e-08            0   -2972.5577   -2972.5577    32473.398    28.297729    24.506552    46.826741      900 
     251            0 9.3950145e-09     1.491024 7.9190248e-09 1.0874053e-08 9.391966e-09 1.6006933e-06 7.6596437e-08 3.1104064e-08            0   -2972.5577   -2972.5577    32473.398    28.297729    24.506552    46.826741      900 
     252            0 -1.3042523e-10    1.5004001 9.5800428e-10 -1.8837946e-09 5.3451462e-10 1.6023848e-06 7.6672372e-08 3.1258796e-08            0   -2972.5577   -2972.5577    32473.398    28.297729    24.506552    46.826741      900 
Loop time of 1.50042 on 1 procs for 252 steps with 900 atoms

100.0% CPU use with 1 MPI tasks x no OpenMP threads

Minimization stats:
  Stopping criterion = force tolerance
  Energy initial, next-to-last, final = 
        -2967.00340377     -2972.55768349     -2972.55768349
  Force two-norm initial, final = 373.311 7.90837e-11
  Force max component initial, final = 229.504 3.86402e-11
  Final line search alpha, max atom move = 1 3.86402e-11
  Iterations, force evaluations = 252 473

MPI task timing breakdown:
Section |  min time  |  avg time  |  max time  |%varavg| %total
---------------------------------------------------------------
Pair    | 1.4396     | 1.4396     | 1.4396     |   0.0 | 95.94
Neigh   | 0.012095   | 0.012095   | 0.012095   |   0.0 |  0.81
Comm    | 0.0056663  | 0.0056663  | 0.0056663  |   0.0 |  0.38
Output  | 0.0074139  | 0.0074139  | 0.0074139  |   0.0 |  0.49
Modify  | 0          | 0          | 0          |   0.0 |  0.00
Other   |            | 0.03569    |            |       |  2.38

Nlocal:    900 ave 900 max 900 min
Histogram: 1 0 0 0 0 0 0 0 0 0
Nghost:    1503 ave 1503 max 1503 min
Histogram: 1 0 0 0 0 0 0 0 0 0
Neighs:    51900 ave 51900 max 51900 min
Histogram: 1 0 0 0 0 0 0 0 0 0

Total # of neighbors = 51900
Ave neighs/atom = 57.6667
Neighbor list builds = 1
Dangerous builds = 0
#minimize ${etol} ${ftol} ${maxiter} ${maxeval}
#minimize ${etol} ${ftol} ${maxiter} ${maxeval}

variable tmp equal pxx
variable pxx0 equal ${tmp}
variable pxx0 equal 9.5800427882078e-10
variable tmp equal pyy
variable pyy0 equal ${tmp}
variable pyy0 equal -1.88379460410119e-09
variable tmp equal pzz
variable pzz0 equal ${tmp}
variable pzz0 equal 5.34514623513368e-10
variable tmp equal pyz
variable pyz0 equal ${tmp}
variable pyz0 equal 3.12587956146824e-08
variable tmp equal pxz
variable pxz0 equal ${tmp}
variable pxz0 equal 7.66723717322367e-08
variable tmp equal pxy
variable pxy0 equal ${tmp}
variable pxy0 equal 1.60238477551558e-06

variable tmp equal lx
variable lx0 equal ${tmp}
variable lx0 equal 28.2977293184792
variable tmp equal ly
variable ly0 equal ${tmp}
variable ly0 equal 24.5065524592187
variable tmp equal lz
variable lz0 equal ${tmp}
variable lz0 equal 46.8267407430018

# These formulas define the derivatives w.r.t. strain components
# Constants uses $, variables use v_
variable d1 equal -(v_pxx1-${pxx0})/(v_delta/v_len0)*${cfac}
variable d1 equal -(v_pxx1-9.5800427882078e-10)/(v_delta/v_len0)*${cfac}
variable d1 equal -(v_pxx1-9.5800427882078e-10)/(v_delta/v_len0)*0.0001
variable d2 equal -(v_pyy1-${pyy0})/(v_delta/v_len0)*${cfac}
variable d2 equal -(v_pyy1--1.88379460410119e-09)/(v_delta/v_len0)*${cfac}
variable d2 equal -(v_pyy1--1.88379460410119e-09)/(v_delta/v_len0)*0.0001
variable d3 equal -(v_pzz1-${pzz0})/(v_delta/v_len0)*${cfac}
variable d3 equal -(v_pzz1-5.34514623513368e-10)/(v_delta/v_len0)*${cfac}
variable d3 equal -(v_pzz1-5.34514623513368e-10)/(v_delta/v_len0)*0.0001
variable d4 equal -(v_pyz1-${pyz0})/(v_delta/v_len0)*${cfac}
variable d4 equal -(v_pyz1-3.12587956146824e-08)/(v_delta/v_len0)*${cfac}
variable d4 equal -(v_pyz1-3.12587956146824e-08)/(v_delta/v_len0)*0.0001
variable d5 equal -(v_pxz1-${pxz0})/(v_delta/v_len0)*${cfac}
variable d5 equal -(v_pxz1-7.66723717322367e-08)/(v_delta/v_len0)*${cfac}
variable d5 equal -(v_pxz1-7.66723717322367e-08)/(v_delta/v_len0)*0.0001
variable d6 equal -(v_pxy1-${pxy0})/(v_delta/v_len0)*${cfac}
variable d6 equal -(v_pxy1-1.60238477551558e-06)/(v_delta/v_len0)*${cfac}
variable d6 equal -(v_pxy1-1.60238477551558e-06)/(v_delta/v_len0)*0.0001

# Write restart
unfix 3
minimize ${etol} ${ftol} ${maxiter} ${maxeval}
minimize 0 ${ftol} ${maxiter} ${maxeval}
minimize 0 1e-10 ${maxiter} ${maxeval}
minimize 0 1e-10 1000 ${maxeval}
minimize 0 1e-10 1000 10000
Memory usage per processor = 3.38681 Mbytes
Step Temp Press CPU Pxx Pyy Pzz Pxy Pxz Pyz KinEng PotEng TotEng Volume Lx Ly Lz Atoms 
     252            0 -1.4883225e-10            0 9.2869587e-10 -1.9008252e-09 5.2563264e-10 1.6023783e-06 7.6668494e-08 3.1255964e-08            0   -2972.5577   -2972.5577    32473.398    28.297729    24.506552    46.826741      900 
     253            0 -6.8021454e-09 0.0092859268 -3.1912557e-09 -6.0477658e-09 -1.1167415e-08 1.6024175e-06 7.6162048e-08 3.1065934e-08            0   -2972.5577   -2972.5577    32473.398    28.297729    24.506552    46.826741      900 
Loop time of 0.00930285 on 1 procs for 1 steps with 900 atoms

86.0% CPU use with 1 MPI tasks x no OpenMP threads

Minimization stats:
  Stopping criterion = force tolerance
  Energy initial, next-to-last, final = 
        -2972.55768349     -2972.55768349     -2972.55768349
  Force two-norm initial, final = 6.52656e-11 2.89598e-11
  Force max component initial, final = 4.33994e-12 1.80639e-12
  Final line search alpha, max atom move = 1 1.80639e-12
  Iterations, force evaluations = 1 2

MPI task timing breakdown:
Section |  min time  |  avg time  |  max time  |%varavg| %total
---------------------------------------------------------------
Pair    | 0.0091829  | 0.0091829  | 0.0091829  |   0.0 | 98.71
Neigh   | 0          | 0          | 0          |   0.0 |  0.00
Comm    | 3.6001e-05 | 3.6001e-05 | 3.6001e-05 |   0.0 |  0.39
Output  | 0          | 0          | 0          |   0.0 |  0.00
Modify  | 0          | 0          | 0          |   0.0 |  0.00
Other   |            | 8.392e-05  |            |       |  0.90

Nlocal:    900 ave 900 max 900 min
Histogram: 1 0 0 0 0 0 0 0 0 0
Nghost:    1503 ave 1503 max 1503 min
Histogram: 1 0 0 0 0 0 0 0 0 0
Neighs:    51900 ave 51900 max 51900 min
Histogram: 1 0 0 0 0 0 0 0 0 0

Total # of neighbors = 51900
Ave neighs/atom = 57.6667
Neighbor list builds = 0
Dangerous builds = 0
#fix 1a all qeq/comb 1 0.0001 file fq.out
write_restart restart.equil
write_data data0

# uxx Perturbation

variable dir equal 1
include /users/knc6/displace.mod
# NOTE: This script should not need to be
# modified. See in.elastic for more info.
#
# Find which reference length to use

if "${dir} == 1" then    "variable len0 equal ${lx0}"
variable len0 equal ${lx0}
variable len0 equal 28.2977293184792
if "${dir} == 2" then    "variable len0 equal ${ly0}"
if "${dir} == 3" then    "variable len0 equal ${lz0}"
if "${dir} == 4" then    "variable len0 equal ${lz0}"
if "${dir} == 5" then    "variable len0 equal ${lz0}"
if "${dir} == 6" then    "variable len0 equal ${ly0}"

# Reset box and simulation parameters

clear
box tilt large
read_restart restart.equil
  triclinic box = (0.170048 0.147265 -0.0306847) to (28.4678 24.6538 46.7961) with tilt (-14.1489 0 0)
WARNING: Triclinic box skew is large (../domain.cpp:185)
  1 by 1 by 1 MPI processor grid
  900 atoms
include potential.mod
pair_style eam/alloy
pair_coeff * * /users/knc6/Software/jarvis/jarvis/lammps/examples/Al03.eam.alloy  Al
neighbor 1.0 nsq
neigh_modify once no every 1 delay 0 check yes
min_style  cg
min_modify           dmax ${dmax} line quadratic
min_modify           dmax 0.01 line quadratic
thermo          1
thermo_style custom step temp press cpu pxx pyy pzz pxy pxz pyz ke pe etotal vol lx ly lz atoms
thermo_modify norm no
# Negative deformation

variable delta equal -${up}*${len0}
variable delta equal -1e-06*${len0}
variable delta equal -1e-06*28.2977293184792
if "${dir} == 1" then    "change_box all x delta 0 ${delta} remap units box"
change_box all x delta 0 ${delta} remap units box
change_box all x delta 0 -2.82977293184792e-05 remap units box
WARNING: Triclinic box skew is large (../domain.cpp:185)
  triclinic box = (0.170048 0.147265 -0.0306847) to (28.4677 24.6538 46.7961) with tilt (-14.1489 0 0)
if "${dir} == 2" then    "change_box all y delta 0 ${delta} remap units box"
if "${dir} == 3" then    "change_box all z delta 0 ${delta} remap units box"
if "${dir} == 4" then    "change_box all yz delta ${delta} remap units box"
if "${dir} == 5" then    "change_box all xz delta ${delta} remap units box"
if "${dir} == 6" then    "change_box all xy delta ${delta} remap units box"

# Relax atoms positions

minimize ${etol} ${ftol} ${maxiter} ${maxeval}
minimize 0 ${ftol} ${maxiter} ${maxeval}
minimize 0 1e-10 ${maxiter} ${maxeval}
minimize 0 1e-10 1000 ${maxeval}
minimize 0 1e-10 1000 10000
Neighbor list info ...
  1 neighbor list requests
  update every 1 steps, delay 0 steps, check yes
  max neighbors/atom: 2000, page size: 100000
  master list distance cutoff = 7.72488
  ghost atom cutoff = 7.72488
Memory usage per processor = 3.38681 Mbytes
Step Temp Press CPU Pxx Pyy Pzz Pxy Pxz Pyz KinEng PotEng TotEng Volume Lx Ly Lz Atoms 
     253            0   0.37854301            0   0.60103005   0.29091367   0.24368532  0.089524335 0.0048347835 0.0083739742            0   -2972.5577   -2972.5577    32473.366    28.297701    24.506552    46.826741      900 
     254            0   0.34169881  0.006223917     0.576169   0.26656919   0.18235824  0.089375216 0.0042804428  0.007413833            0   -2972.5577   -2972.5577    32473.366    28.297701    24.506552    46.826741      900 
     255            0   0.31227289  0.012461901   0.55323563   0.24447147   0.13911155  0.089133979  0.003334413 0.0057752675            0   -2972.5577   -2972.5577    32473.366    28.297701    24.506552    46.826741      900 
     256            0   0.28096749  0.018691063   0.53005391   0.22218612  0.090662429  0.088875219 0.0021929316 0.0037981695            0   -2972.5577   -2972.5577    32473.366    28.297701    24.506552    46.826741      900 
     257            0   0.22479096  0.024926901   0.48835612   0.18156014 0.0044566096  0.088565809 0.00038735845 0.00067083959            0   -2972.5577   -2972.5577    32473.366    28.297701    24.506552    46.826741      900 
     258            0    0.2221149  0.031155109   0.48709134   0.17893533 0.00031801804  0.088958421 0.0015075966 0.0026111636            0   -2972.5577   -2972.5577    32473.366    28.297701    24.506552    46.826741      900 
     259            0    0.2221149  0.040453911   0.48709134   0.17893533 0.00031801804  0.088958421 0.0015075966 0.0026111636            0   -2972.5577   -2972.5577    32473.366    28.297701    24.506552    46.826741      900 
Loop time of 0.0404711 on 1 procs for 6 steps with 900 atoms

98.8% CPU use with 1 MPI tasks x no OpenMP threads

Minimization stats:
  Stopping criterion = linesearch alpha is zero
  Energy initial, next-to-last, final = 
        -2972.55768348     -2972.55768348     -2972.55768348
  Force two-norm initial, final = 4.11018e-05 1.35438e-06
  Force max component initial, final = 2.86699e-06 7.9366e-08
  Final line search alpha, max atom move = 0.5 3.9683e-08
  Iterations, force evaluations = 6 12

MPI task timing breakdown:
Section |  min time  |  avg time  |  max time  |%varavg| %total
---------------------------------------------------------------
Pair    | 0.039866   | 0.039866   | 0.039866   |   0.0 | 98.50
Neigh   | 0          | 0          | 0          |   0.0 |  0.00
Comm    | 0.00015473 | 0.00015473 | 0.00015473 |   0.0 |  0.38
Output  | 0.00014925 | 0.00014925 | 0.00014925 |   0.0 |  0.37
Modify  | 0          | 0          | 0          |   0.0 |  0.00
Other   |            | 0.0003011  |            |       |  0.74

Nlocal:    900 ave 900 max 900 min
Histogram: 1 0 0 0 0 0 0 0 0 0
Nghost:    1503 ave 1503 max 1503 min
Histogram: 1 0 0 0 0 0 0 0 0 0
Neighs:    51900 ave 51900 max 51900 min
Histogram: 1 0 0 0 0 0 0 0 0 0

Total # of neighbors = 51900
Ave neighs/atom = 57.6667
Neighbor list builds = 0
Dangerous builds = 0

# Obtain new stress tensor

variable tmp equal pxx
variable pxx1 equal ${tmp}
variable pxx1 equal 0.487091344412535
variable tmp equal pyy
variable pyy1 equal ${tmp}
variable pyy1 equal 0.17893532982446
variable tmp equal pzz
variable pzz1 equal ${tmp}
variable pzz1 equal 0.000318018038503248
variable tmp equal pxy
variable pxy1 equal ${tmp}
variable pxy1 equal 0.0889584212269386
variable tmp equal pxz
variable pxz1 equal ${tmp}
variable pxz1 equal 0.00150759659350579
variable tmp equal pyz
variable pyz1 equal ${tmp}
variable pyz1 equal 0.00261116359434011

# Compute elastic constant from pressure tensor

variable C1neg equal ${d1}
variable C1neg equal 48.7091343454531
variable C2neg equal ${d2}
variable C2neg equal 17.8935331708255
variable C3neg equal ${d3}
variable C3neg equal 0.0318017503988624
variable C4neg equal ${d4}
variable C4neg equal 0.26111323355445
variable C5neg equal ${d5}
variable C5neg equal 0.150751992113406
variable C6neg equal ${d6}
variable C6neg equal 8.89568188421631

# Reset box and simulation parameters

clear
box tilt large
read_restart restart.equil
  triclinic box = (0.170048 0.147265 -0.0306847) to (28.4678 24.6538 46.7961) with tilt (-14.1489 0 0)
WARNING: Triclinic box skew is large (../domain.cpp:185)
  1 by 1 by 1 MPI processor grid
  900 atoms
include potential.mod
pair_style eam/alloy
pair_coeff * * /users/knc6/Software/jarvis/jarvis/lammps/examples/Al03.eam.alloy  Al
neighbor 1.0 nsq
neigh_modify once no every 1 delay 0 check yes
min_style  cg
min_modify           dmax ${dmax} line quadratic
min_modify           dmax 0.01 line quadratic
thermo          1
thermo_style custom step temp press cpu pxx pyy pzz pxy pxz pyz ke pe etotal vol lx ly lz atoms
thermo_modify norm no

# Positive deformation

variable delta equal ${up}*${len0}
variable delta equal 1e-06*${len0}
variable delta equal 1e-06*28.2977293184792
if "${dir} == 1" then    "change_box all x delta 0 ${delta} remap units box"
change_box all x delta 0 ${delta} remap units box
change_box all x delta 0 2.82977293184792e-05 remap units box
  triclinic box = (0.170048 0.147265 -0.0306847) to (28.4678 24.6538 46.7961) with tilt (-14.1489 0 0)
if "${dir} == 2" then    "change_box all y delta 0 ${delta} remap units box"
if "${dir} == 3" then    "change_box all z delta 0 ${delta} remap units box"
if "${dir} == 4" then    "change_box all yz delta ${delta} remap units box"
if "${dir} == 5" then    "change_box all xz delta ${delta} remap units box"
if "${dir} == 6" then    "change_box all xy delta ${delta} remap units box"

# Relax atoms positions

minimize ${etol} ${ftol} ${maxiter} ${maxeval}
minimize 0 ${ftol} ${maxiter} ${maxeval}
minimize 0 1e-10 ${maxiter} ${maxeval}
minimize 0 1e-10 1000 ${maxeval}
minimize 0 1e-10 1000 10000
Neighbor list info ...
  1 neighbor list requests
  update every 1 steps, delay 0 steps, check yes
  max neighbors/atom: 2000, page size: 100000
  master list distance cutoff = 7.72488
  ghost atom cutoff = 7.72488
Memory usage per processor = 3.38681 Mbytes
Step Temp Press CPU Pxx Pyy Pzz Pxy Pxz Pyz KinEng PotEng TotEng Volume Lx Ly Lz Atoms 
     253            0  -0.37854015            0  -0.60102437  -0.29091194  -0.24368413 -0.089520298 -0.0048345303 -0.0083737685            0   -2972.5577   -2972.5577    32473.431    28.297758    24.506552    46.826741      900 
     254            0  -0.34169618 0.0062119961  -0.57616351  -0.26656758  -0.18235746 -0.089371199 -0.0042802516 -0.0074137246            0   -2972.5577   -2972.5577    32473.431    28.297758    24.506552    46.826741      900 
     255            0  -0.31227069  0.012437105  -0.55323048  -0.24447014  -0.13911145 -0.089129991 -0.0033342702 -0.0057752306            0   -2972.5577   -2972.5577    32473.431    28.297758    24.506552    46.826741      900 
     256            0  -0.28096545  0.018655062  -0.53004893  -0.22218486 -0.090662564  -0.08887126 -0.0021928343 -0.0037981999            0   -2972.5577   -2972.5577    32473.431    28.297758    24.506552    46.826741      900 
     257            0  -0.22478891   0.02545023  -0.48835119   -0.1815588 -0.0044567367 -0.088561896 -0.00038732403 -0.00067094983            0   -2972.5577   -2972.5577    32473.431    28.297758    24.506552    46.826741      900 
     258            0  -0.22211273  0.031673193  -0.48708639  -0.17893396 -0.00031783658 -0.088954502 -0.0015075711  -0.00261126            0   -2972.5577   -2972.5577    32473.431    28.297758    24.506552    46.826741      900 
     259            0  -0.22211273  0.040962219  -0.48708639  -0.17893396 -0.00031783658 -0.088954502 -0.0015075711  -0.00261126            0   -2972.5577   -2972.5577    32473.431    28.297758    24.506552    46.826741      900 
Loop time of 0.0409791 on 1 procs for 6 steps with 900 atoms

97.6% CPU use with 1 MPI tasks x no OpenMP threads

Minimization stats:
  Stopping criterion = linesearch alpha is zero
  Energy initial, next-to-last, final = 
        -2972.55768348     -2972.55768348     -2972.55768348
  Force two-norm initial, final = 4.11017e-05 1.35438e-06
  Force max component initial, final = 2.86698e-06 7.93649e-08
  Final line search alpha, max atom move = 0.5 3.96824e-08
  Iterations, force evaluations = 6 12

MPI task timing breakdown:
[...]
variable pzz1 equal 4.53110943343675e-07
variable tmp equal pxy
variable pxy1 equal ${tmp}
variable pxy1 equal -0.00837226892111526
variable tmp equal pxz
variable pxz1 equal ${tmp}
variable pxz1 equal -0.125912479301965
variable tmp equal pyz
variable pyz1 equal ${tmp}
variable pyz1 equal 1.71554583820975e-07

# Compute elastic constant from pressure tensor

variable C1pos equal ${d1}
variable C1pos equal -1.33739118943105e-05
variable C2pos equal ${d2}
variable C2pos equal -8.45386706032305e-06
variable C3pos equal ${d3}
variable C3pos equal -4.52576428720162e-05
variable C4pos equal ${d4}
variable C4pos equal -1.40295788206293e-05
variable C5pos equal ${d5}
variable C5pos equal 12.5912555974337
variable C6pos equal ${d6}
variable C6pos equal 0.837387130589077

# Combine positive and negative

variable C1${dir} equal 0.5*(${C1neg}+${C1pos})
variable C15 equal 0.5*(${C1neg}+${C1pos})
variable C15 equal 0.5*(3.95498214709701e-06+${C1pos})
variable C15 equal 0.5*(3.95498214709701e-06+-1.33739118943105e-05)
variable C2${dir} equal 0.5*(${C2neg}+${C2pos})
variable C25 equal 0.5*(${C2neg}+${C2pos})
variable C25 equal 0.5*(4.22443946162581e-07+${C2pos})
variable C25 equal 0.5*(4.22443946162581e-07+-8.45386706032305e-06)
variable C3${dir} equal 0.5*(${C3neg}+${C3pos})
variable C35 equal 0.5*(${C3neg}+${C3pos})
variable C35 equal 0.5*(2.23304729989002e-05+${C3pos})
variable C35 equal 0.5*(2.23304729989002e-05+-4.52576428720162e-05)
variable C4${dir} equal 0.5*(${C4neg}+${C4pos})
variable C45 equal 0.5*(${C4neg}+${C4pos})
variable C45 equal 0.5*(6.3342719668237e-06+${C4pos})
variable C45 equal 0.5*(6.3342719668237e-06+-1.40295788206293e-05)
variable C5${dir} equal 0.5*(${C5neg}+${C5pos})
variable C55 equal 0.5*(${C5neg}+${C5pos})
variable C55 equal 0.5*(10.6296560591587+${C5pos})
variable C55 equal 0.5*(10.6296560591587+12.5912555974337)
variable C6${dir} equal 0.5*(${C6neg}+${C6pos})
variable C65 equal 0.5*(${C6neg}+${C6pos})
variable C65 equal 0.5*(0.516614501971887+${C6pos})
variable C65 equal 0.5*(0.516614501971887+0.837387130589077)

# Delete dir to make sure it is not reused

variable dir delete

# uxy Perturbation

variable dir equal 6
include /users/knc6/displace.mod
# NOTE: This script should not need to be
# modified. See in.elastic for more info.
#
# Find which reference length to use

if "${dir} == 1" then    "variable len0 equal ${lx0}"
if "${dir} == 2" then    "variable len0 equal ${ly0}"
if "${dir} == 3" then    "variable len0 equal ${lz0}"
if "${dir} == 4" then    "variable len0 equal ${lz0}"
if "${dir} == 5" then    "variable len0 equal ${lz0}"
if "${dir} == 6" then    "variable len0 equal ${ly0}"
variable len0 equal ${ly0}
variable len0 equal 24.5065524592187

# Reset box and simulation parameters

clear
box tilt large
read_restart restart.equil
  triclinic box = (0.170048 0.147265 -0.0306847) to (28.4678 24.6538 46.7961) with tilt (-14.1489 0 0)
WARNING: Triclinic box skew is large (../domain.cpp:185)
  1 by 1 by 1 MPI processor grid
  900 atoms
include potential.mod
pair_style eam/alloy
pair_coeff * * /users/knc6/Software/jarvis/jarvis/lammps/examples/Al03.eam.alloy  Al
neighbor 1.0 nsq
neigh_modify once no every 1 delay 0 check yes
min_style  cg
min_modify           dmax ${dmax} line quadratic
min_modify           dmax 0.01 line quadratic
thermo          1
thermo_style custom step temp press cpu pxx pyy pzz pxy pxz pyz ke pe etotal vol lx ly lz atoms
thermo_modify norm no
# Negative deformation

variable delta equal -${up}*${len0}
variable delta equal -1e-06*${len0}
variable delta equal -1e-06*24.5065524592187
if "${dir} == 1" then    "change_box all x delta 0 ${delta} remap units box"
if "${dir} == 2" then    "change_box all y delta 0 ${delta} remap units box"
if "${dir} == 3" then    "change_box all z delta 0 ${delta} remap units box"
if "${dir} == 4" then    "change_box all yz delta ${delta} remap units box"
if "${dir} == 5" then    "change_box all xz delta ${delta} remap units box"
if "${dir} == 6" then    "change_box all xy delta ${delta} remap units box"
change_box all xy delta ${delta} remap units box
change_box all xy delta -2.45065524592187e-05 remap units box
WARNING: Triclinic box skew is large (../domain.cpp:185)
  triclinic box = (0.170048 0.147265 -0.0306847) to (28.4678 24.6538 46.7961) with tilt (-14.1489 0 0)

# Relax atoms positions

minimize ${etol} ${ftol} ${maxiter} ${maxeval}
minimize 0 ${ftol} ${maxiter} ${maxeval}
minimize 0 1e-10 ${maxiter} ${maxeval}
minimize 0 1e-10 1000 ${maxeval}
minimize 0 1e-10 1000 10000
Neighbor list info ...
  1 neighbor list requests
  update every 1 steps, delay 0 steps, check yes
  max neighbors/atom: 2000, page size: 100000
  master list distance cutoff = 7.72488
  ghost atom cutoff = 7.72488
Memory usage per processor = 3.38681 Mbytes
Step Temp Press CPU Pxx Pyy Pzz Pxy Pxz Pyz KinEng PotEng TotEng Volume Lx Ly Lz Atoms 
     253            0 2.5410726e-07            0 1.2464574e-07 5.5284386e-07 8.4832191e-08    0.1550588 0.0083739475 4.9479376e-08            0   -2972.5577   -2972.5577    32473.398    28.297729    24.506552    46.826741      900 
     254            0 2.3314697e-07 0.0061831474 1.0954302e-07 5.4311517e-07 4.6782717e-08   0.15433463 0.0056818573 4.161976e-08            0   -2972.5577   -2972.5577    32473.398    28.297729    24.506552    46.826741      900 
     255            0 2.3314697e-07  0.015429974 1.0954302e-07 5.4311517e-07 4.6782717e-08   0.15433463 0.0056818573 4.161976e-08            0   -2972.5577   -2972.5577    32473.398    28.297729    24.506552    46.826741      900 
Loop time of 0.0154471 on 1 procs for 2 steps with 900 atoms

103.6% CPU use with 1 MPI tasks x no OpenMP threads

Minimization stats:
  Stopping criterion = linesearch alpha is zero
  Energy initial, next-to-last, final = 
        -2972.55768348     -2972.55768348     -2972.55768348
  Force two-norm initial, final = 4.18199e-06 1.48512e-06
  Force max component initial, final = 2.36806e-07 7.05125e-08
  Final line search alpha, max atom move = 0.5 3.52562e-08
  Iterations, force evaluations = 2 4

MPI task timing breakdown:
Section |  min time  |  avg time  |  max time  |%varavg| %total
---------------------------------------------------------------
Pair    | 0.015232   | 0.015232   | 0.015232   |   0.0 | 98.60
Neigh   | 0          | 0          | 0          |   0.0 |  0.00
Comm    | 6.1035e-05 | 6.1035e-05 | 6.1035e-05 |   0.0 |  0.40
Output  | 3.0994e-05 | 3.0994e-05 | 3.0994e-05 |   0.0 |  0.20
Modify  | 0          | 0          | 0          |   0.0 |  0.00
Other   |            | 0.0001235  |            |       |  0.80

Nlocal:    900 ave 900 max 900 min
Histogram: 1 0 0 0 0 0 0 0 0 0
Nghost:    1503 ave 1503 max 1503 min
Histogram: 1 0 0 0 0 0 0 0 0 0
Neighs:    51900 ave 51900 max 51900 min
Histogram: 1 0 0 0 0 0 0 0 0 0

Total # of neighbors = 51900
Ave neighs/atom = 57.6667
Neighbor list builds = 0
Dangerous builds = 0

# Obtain new stress tensor

variable tmp equal pxx
variable pxx1 equal ${tmp}
variable pxx1 equal 1.09543022819003e-07
variable tmp equal pyy
variable pyy1 equal ${tmp}
variable pyy1 equal 5.43115174403922e-07
variable tmp equal pzz
variable pzz1 equal ${tmp}
variable pzz1 equal 4.67827166106543e-08
variable tmp equal pxy
variable pxy1 equal ${tmp}
variable pxy1 equal 0.154334634447076
variable tmp equal pxz
variable pxz1 equal ${tmp}
variable pxz1 equal 0.00568185725146178
variable tmp equal pyz
variable pyz1 equal ${tmp}
variable pyz1 equal 4.1619760009608e-08

# Compute elastic constant from pressure tensor

variable C1neg equal ${d1}
variable C1neg equal 1.08585018540182e-05
variable C2neg equal ${d2}
variable C2neg equal 5.44998969008023e-05
variable C3neg equal ${d3}
variable C3neg equal 4.62482019871409e-06
variable C4neg equal ${d4}
variable C4neg equal 1.03609643949256e-06
variable C5neg equal ${d5}
variable C5neg equal 0.568178057909005
variable C6neg equal ${d6}
variable C6neg equal 15.4333032062301

# Reset box and simulation parameters

clear
box tilt large
read_restart restart.equil
  triclinic box = (0.170048 0.147265 -0.0306847) to (28.4678 24.6538 46.7961) with tilt (-14.1489 0 0)
WARNING: Triclinic box skew is large (../domain.cpp:185)
  1 by 1 by 1 MPI processor grid
  900 atoms
include potential.mod
pair_style eam/alloy
pair_coeff * * /users/knc6/Software/jarvis/jarvis/lammps/examples/Al03.eam.alloy  Al
neighbor 1.0 nsq
neigh_modify once no every 1 delay 0 check yes
min_style  cg
min_modify           dmax ${dmax} line quadratic
min_modify           dmax 0.01 line quadratic
thermo          1
thermo_style custom step temp press cpu pxx pyy pzz pxy pxz pyz ke pe etotal vol lx ly lz atoms
thermo_modify norm no

# Positive deformation

variable delta equal ${up}*${len0}
variable delta equal 1e-06*${len0}
variable delta equal 1e-06*24.5065524592187
if "${dir} == 1" then    "change_box all x delta 0 ${delta} remap units box"
if "${dir} == 2" then    "change_box all y delta 0 ${delta} remap units box"
if "${dir} == 3" then    "change_box all z delta 0 ${delta} remap units box"
if "${dir} == 4" then    "change_box all yz delta ${delta} remap units box"
if "${dir} == 5" then    "change_box all xz delta ${delta} remap units box"
if "${dir} == 6" then    "change_box all xy delta ${delta} remap units box"
change_box all xy delta ${delta} remap units box
change_box all xy delta 2.45065524592187e-05 remap units box
  triclinic box = (0.170048 0.147265 -0.0306847) to (28.4678 24.6538 46.7961) with tilt (-14.1488 0 0)

# Relax atoms positions

minimize ${etol} ${ftol} ${maxiter} ${maxeval}
minimize 0 ${ftol} ${maxiter} ${maxeval}
minimize 0 1e-10 ${maxiter} ${maxeval}
minimize 0 1e-10 1000 ${maxeval}
minimize 0 1e-10 1000 10000
Neighbor list info ...
  1 neighbor list requests
  update every 1 steps, delay 0 steps, check yes
  max neighbors/atom: 2000, page size: 100000
  master list distance cutoff = 7.72488
  ghost atom cutoff = 7.72488
Memory usage per processor = 3.38681 Mbytes
Step Temp Press CPU Pxx Pyy Pzz Pxy Pxz Pyz KinEng PotEng TotEng Volume Lx Ly Lz Atoms 
     253            0 2.5409137e-07            0 1.2462193e-07 5.5282134e-07 8.4830844e-08   -0.1550556 -0.0083737952 4.9474232e-08            0   -2972.5577   -2972.5577    32473.398    28.297729    24.506552    46.826741      900 
     254            0 2.3313157e-07 0.0061759949 1.0952606e-07 5.4308144e-07 4.6787208e-08  -0.15433143 -0.0056817104 4.161715e-08            0   -2972.5577   -2972.5577    32473.398    28.297729    24.506552    46.826741      900 
     255            0 2.3313157e-07     0.015414 1.0952606e-07 5.4308144e-07 4.6787208e-08  -0.15433143 -0.0056817104 4.161715e-08            0   -2972.5577   -2972.5577    32473.398    28.297729    24.506552    46.826741      900 
Loop time of 0.0154319 on 1 procs for 2 steps with 900 atoms

103.7% CPU use with 1 MPI tasks x no OpenMP threads

Minimization stats:
  Stopping criterion = linesearch alpha is zero
  Energy initial, next-to-last, final = 
        -2972.55768348     -2972.55768348     -2972.55768348
  Force two-norm initial, final = 4.18199e-06 1.48512e-06
  Force max component initial, final = 2.36805e-07 7.05117e-08
  Final line search alpha, max atom move = 0.5 3.52559e-08
  Iterations, force evaluations = 2 4

MPI task timing breakdown:
Section |  min time  |  avg time  |  max time  |%varavg| %total
---------------------------------------------------------------
Pair    | 0.01522    | 0.01522    | 0.01522    |   0.0 | 98.63
Neigh   | 0          | 0          | 0          |   0.0 |  0.00
Comm    | 5.8174e-05 | 5.8174e-05 | 5.8174e-05 |   0.0 |  0.38
Output  | 3.0041e-05 | 3.0041e-05 | 3.0041e-05 |   0.0 |  0.19
Modify  | 0          | 0          | 0          |   0.0 |  0.00
Other   |            | 0.0001237  |            |       |  0.80

Nlocal:    900 ave 900 max 900 min
Histogram: 1 0 0 0 0 0 0 0 0 0
Nghost:    1503 ave 1503 max 1503 min
Histogram: 1 0 0 0 0 0 0 0 0 0
Neighs:    51900 ave 51900 max 51900 min
Histogram: 1 0 0 0 0 0 0 0 0 0

Total # of neighbors = 51900
Ave neighs/atom = 57.6667
Neighbor list builds = 0
Dangerous builds = 0

# Obtain new stress tensor

variable tmp equal pe
variable e1 equal ${tmp}
variable e1 equal -2972.55768348384
variable tmp equal press
variable p1 equal ${tmp}
variable p1 equal 2.33131568811102e-07
variable tmp equal pxx
variable pxx1 equal ${tmp}
variable pxx1 equal 1.09526061674e-07
variable tmp equal pyy
variable pyy1 equal ${tmp}
variable pyy1 equal 5.4308143629929e-07
variable tmp equal pzz
variable pzz1 equal ${tmp}
variable pzz1 equal 4.6787208460017e-08
variable tmp equal pxy
variable pxy1 equal ${tmp}
variable pxy1 equal -0.154331429509893
variable tmp equal pxz
variable pxz1 equal ${tmp}
variable pxz1 equal -0.00568171040102776
variable tmp equal pyz
variable pyz1 equal ${tmp}
variable pyz1 equal 4.16171495736085e-08

# Compute elastic constant from pressure tensor

variable C1pos equal ${d1}
variable C1pos equal -1.08568057395179e-05
variable C2pos equal ${d2}
variable C2pos equal -5.44965230903391e-05
variable C3pos equal ${d3}
variable C3pos equal -4.62526938365036e-06
variable C4pos equal ${d4}
variable C4pos equal -1.03583539589261e-06
variable C5pos equal ${d5}
variable C5pos equal 0.568178707339949
variable C6pos equal ${d6}
variable C6pos equal 15.4333031894669

# Combine positive and negative

variable C1${dir} equal 0.5*(${C1neg}+${C1pos})
variable C16 equal 0.5*(${C1neg}+${C1pos})
variable C16 equal 0.5*(1.08585018540182e-05+${C1pos})
variable C16 equal 0.5*(1.08585018540182e-05+-1.08568057395179e-05)
variable C2${dir} equal 0.5*(${C2neg}+${C2pos})
variable C26 equal 0.5*(${C2neg}+${C2pos})
variable C26 equal 0.5*(5.44998969008023e-05+${C2pos})
variable C26 equal 0.5*(5.44998969008023e-05+-5.44965230903391e-05)
variable C3${dir} equal 0.5*(${C3neg}+${C3pos})
variable C36 equal 0.5*(${C3neg}+${C3pos})
variable C36 equal 0.5*(4.62482019871409e-06+${C3pos})
variable C36 equal 0.5*(4.62482019871409e-06+-4.62526938365036e-06)
variable C4${dir} equal 0.5*(${C4neg}+${C4pos})
variable C46 equal 0.5*(${C4neg}+${C4pos})
variable C46 equal 0.5*(1.03609643949256e-06+${C4pos})
variable C46 equal 0.5*(1.03609643949256e-06+-1.03583539589261e-06)
variable C5${dir} equal 0.5*(${C5neg}+${C5pos})
variable C56 equal 0.5*(${C5neg}+${C5pos})
variable C56 equal 0.5*(0.568178057909005+${C5pos})
variable C56 equal 0.5*(0.568178057909005+0.568178707339949)
variable C6${dir} equal 0.5*(${C6neg}+${C6pos})
variable C66 equal 0.5*(${C6neg}+${C6pos})
variable C66 equal 0.5*(15.4333032062301+${C6pos})
variable C66 equal 0.5*(15.4333032062301+15.4333031894669)

# Delete dir to make sure it is not reused

variable dir delete

# Output final values

variable C11all equal ${C11}
variable C11all equal 48.7088867581795
variable C22all equal ${C22}
variable C22all equal 48.6907542286448
variable C33all equal ${C33}
variable C33all equal -4.40448262839488e-08

variable C12all equal 0.5*(${C12}+${C21})
variable C12all equal 0.5*(17.8759504188739+${C21})
variable C12all equal 0.5*(17.8759504188739+17.8934645672647)
variable C13all equal 0.5*(${C13}+${C31})
variable C13all equal 0.5*(-2.05715898500497e-08+${C31})
variable C13all equal 0.5*(-2.05715898500497e-08+0.0317927307765367)
variable C23all equal 0.5*(${C23}+${C32})
variable C23all equal 0.5*(-2.05071142471992e-08+${C32})
variable C23all equal 0.5*(-2.05071142471992e-08+-0.00554745249968003)

variable C44all equal ${C44}
variable C44all equal 11.1638454844155
variable C55all equal ${C55}
variable C55all equal 11.6104558282962
variable C66all equal ${C66}
variable C66all equal 15.4333031978485

variable C14all equal 0.5*(${C14}+${C41})
variable C14all equal 0.5*(0.663504870388626+${C41})
variable C14all equal 0.5*(0.663504870388626+0.261121178818124)
variable C15all equal 0.5*(${C15}+${C51})
variable C15all equal 0.5*(-4.70946487360675e-06+${C51})
variable C15all equal 0.5*(-4.70946487360675e-06+0.150758382997699)
variable C16all equal 0.5*(${C16}+${C61})
variable C16all equal 0.5*(8.48057250150221e-10+${C61})
variable C16all equal 0.5*(8.48057250150221e-10+8.89564614836405)

variable C24all equal 0.5*(${C24}+${C42})
variable C24all equal 0.5*(-0.663501390788964+${C42})
variable C24all equal 0.5*(-0.663501390788964+-0.146957918027579)
variable C25all equal 0.5*(${C25}+${C52})
variable C25all equal 0.5*(-4.01571155708024e-06+${C52})
variable C25all equal 0.5*(-4.01571155708024e-06+2.54567757977361e-06)
variable C26all equal 0.5*(${C26}+${C62})
variable C26all equal 0.5*(1.68690523160057e-09+${C62})
variable C26all equal 0.5*(1.68690523160057e-09+1.21091282175999e-07)

variable C34all equal 0.5*(${C34}+${C43})
variable C34all equal 0.5*(2.3699221667936e-06+${C43})
variable C34all equal 0.5*(2.3699221667936e-06+-2.97972632014982e-10)
variable C35all equal 0.5*(${C35}+${C53})
variable C35all equal 0.5*(-1.1463584936558e-05+${C53})
variable C35all equal 0.5*(-1.1463584936558e-05+2.65961565314978e-10)
variable C36all equal 0.5*(${C36}+${C63})
variable C36all equal 0.5*(-2.24592468135065e-10+${C63})
variable C36all equal 0.5*(-2.24592468135065e-10+8.62077285037e-11)

variable C45all equal 0.5*(${C45}+${C54})
variable C45all equal 0.5*(-3.8476534269028e-06+${C54})
variable C45all equal 0.5*(-3.8476534269028e-06+3.52451958368515e-07)
variable C46all equal 0.5*(${C46}+${C64})
variable C46all equal 0.5*(1.30521799975052e-10+${C64})
variable C46all equal 0.5*(1.30521799975052e-10+-3.30924287649813e-09)
variable C56all equal 0.5*(${C56}+${C65})
variable C56all equal 0.5*(0.568178382624477+${C65})
variable C56all equal 0.5*(0.568178382624477+0.677000816280482)

# For Stillinger-Weber silicon, the analytical results
# are known to be (E. R. Cowley, 1988):
#               C11 = 151.4 GPa
#               C12 = 76.4 GPa
#               C44 = 56.4 GPa

print "Elastic Constant C11all = ${C11all} ${cunits}"
Elastic Constant C11all = 48.7088867581795 GPa
print "Elastic Constant C22all = ${C22all} ${cunits}"
Elastic Constant C22all = 48.6907542286448 GPa
print "Elastic Constant C33all = ${C33all} ${cunits}"
Elastic Constant C33all = -4.40448262839488e-08 GPa

print "Elastic Constant C12all = ${C12all} ${cunits}"
Elastic Constant C12all = 17.8847074930693 GPa
print "Elastic Constant C13all = ${C13all} ${cunits}"
Elastic Constant C13all = 0.0158963551024734 GPa
print "Elastic Constant C23all = ${C23all} ${cunits}"
Elastic Constant C23all = -0.00277373650339714 GPa

print "Elastic Constant C44all = ${C44all} ${cunits}"
Elastic Constant C44all = 11.1638454844155 GPa
print "Elastic Constant C55all = ${C55all} ${cunits}"
Elastic Constant C55all = 11.6104558282962 GPa
print "Elastic Constant C66all = ${C66all} ${cunits}"
Elastic Constant C66all = 15.4333031978485 GPa

print "Elastic Constant C14all = ${C14all} ${cunits}"
Elastic Constant C14all = 0.462313024603375 GPa
print "Elastic Constant C15all = ${C15all} ${cunits}"
Elastic Constant C15all = 0.0753768367664127 GPa
print "Elastic Constant C16all = ${C16all} ${cunits}"
Elastic Constant C16all = 4.44782307460605 GPa

print "Elastic Constant C24all = ${C24all} ${cunits}"
Elastic Constant C24all = -0.405229654408271 GPa
print "Elastic Constant C25all = ${C25all} ${cunits}"
Elastic Constant C25all = -7.35016988653315e-07 GPa
print "Elastic Constant C26all = ${C26all} ${cunits}"
Elastic Constant C26all = 6.13890937037998e-08 GPa

print "Elastic Constant C34all = ${C34all} ${cunits}"
Elastic Constant C34all = 1.18481209708079e-06 GPa
print "Elastic Constant C35all = ${C35all} ${cunits}"
Elastic Constant C35all = -5.73165948749634e-06 GPa
print "Elastic Constant C36all = ${C36all} ${cunits}"
Elastic Constant C36all = -6.91923698156825e-11 GPa

print "Elastic Constant C45all = ${C45all} ${cunits}"
Elastic Constant C45all = -1.74760073426714e-06 GPa
print "Elastic Constant C46all = ${C46all} ${cunits}"
Elastic Constant C46all = -1.58936053826154e-09 GPa
print "Elastic Constant C56all = ${C56all} ${cunits}"
Elastic Constant C56all = 0.622589599452479 GPa

Total wall time: 0:00:02
