LAMMPS (13 Jan 2016)
Reading data file ...
  triclinic box = (0 0 0) to (29.205 27.7881 47.1489) with tilt (8.98614 0 0)
  1 by 1 by 1 MPI processor grid
  reading atoms ...
  1008 atoms
Neighbor list info ...
  1 neighbor list requests
  update every 1 steps, delay 0 steps, check yes
  max neighbors/atom: 2000, page size: 100000
  master list distance cutoff = 7.72488
  ghost atom cutoff = 7.72488
Setting up cg style minimization ...
  Unit style: metal
Memory usage per processor = 3.38257 Mbytes
Step Temp Press CPU Pxx Pyy Pzz Pxy Pxz Pyz KinEng PotEng TotEng Volume Lx Ly Lz Atoms 
       0            0   -11133.544            0   -11814.001   -11731.041   -9855.5914   -128.26907   -147.90661   -107.61787            0   -3306.2843   -3306.2843    38263.751    29.204965    27.788113    47.148925     1008 
       1            0   -10246.999 0.0034618378    -10896.08   -10810.297   -9034.6203   -135.71552   -150.37926   -109.34314            0   -3307.0105   -3307.0105    38155.673     29.17576     27.76052    47.109592     1008 
       2            0   -9349.8633 0.0069248676   -9966.2216   -9877.8865   -8205.4819   -143.21718   -152.91569    -111.1008            0   -3307.6737   -3307.6737    38048.029    29.146555    27.732951    47.070504     1008 
       3            0   -8442.2711  0.010396004   -9024.4489   -8933.8847   -7368.4797    -150.7769   -155.53099   -112.89875            0   -3308.2736   -3308.2736    37940.852     29.11735    27.705409    47.031698     1008 
       4            0   -7524.4735  0.013875961   -8070.8803   -7978.4733   -6524.0669    -158.4017   -158.24106   -114.74458            0   -3308.8098   -3308.8098    37834.186    29.088145    27.677901    46.993221     1008 
       5            0   -6597.1143  0.017359972   -7105.9771   -7012.1965   -5673.1692   -166.09576   -161.06706   -116.65002            0   -3309.2819   -3309.2819    37728.087     29.05894    27.650432    46.955135     1008 
       6            0   -5660.9523  0.020843029   -6130.2769   -6035.7072   -4816.8729   -173.87094   -164.03064   -118.62412            0   -3309.6897   -3309.6897    37622.635    29.029735    27.623012    46.917527     1008 
       7            0   -4716.9001  0.024327993   -5144.3519   -5049.7358   -3956.6127   -181.74372   -167.17284   -120.68666            0    -3310.033    -3310.033    37517.945     29.00053    27.595654     46.88052     1008 
       8            0   -3766.5823  0.027822971   -4149.3354   -4055.6542   -3094.7573   -189.75079   -170.56314   -122.87737            0   -3310.3118   -3310.3118    37414.193    28.971325    27.568379    46.844305     1008 
       9            0   -2812.9138  0.041661024   -3147.3687   -3056.0011   -2235.3714   -197.92933   -174.26669   -125.21923            0   -3310.5263   -3310.5263     37311.67     28.94212    27.541221    46.809193     1008 
      10            0   -1861.1655   0.04516983   -2142.2158   -2055.2723   -1386.0085   -206.37821    -178.4583   -127.80424            0   -3310.6772   -3310.6772    37210.916    28.912915    27.514242    46.775767     1008 
      11            0   -922.87076  0.048676014   -1142.2159    -1063.392   -563.00443   -215.29844   -183.47518   -130.79217            0   -3310.7661   -3310.7661    37113.146     28.88371    27.487586    46.745326     1008 
      12            0    -36.33241   0.05219388   -175.15514   -113.40572    179.56363   -225.38481   -190.41975   -134.72427            0   -3310.7976   -3310.7976    37022.363    28.854506     27.46172    46.722143     1008 
      13            0    174.85069  0.059204817    236.67095    216.31978    71.561336   -242.77813   -210.13652    -144.8226            0   -3310.8039   -3310.8039    37003.709    28.831387    27.447482    46.760291     1008 
      14            0   -169.74911  0.066231012   -29.125908   -93.349465   -386.77194   -248.58274   -218.09398   -148.55225            0   -3310.8084   -3310.8084    37040.596    28.832681    27.452746    46.795829     1008 
      15            0    -140.2041  0.069795847    149.85161    -209.9326    -360.5313    -290.0692   -205.80581   -124.95361            0   -3311.2342   -3311.2342    37050.622    28.816314    27.464192    46.815564     1008 
      16            0    263.25009  0.076835871    319.09185    257.12526    213.53316   -243.11953    -187.6401   -126.48849            0   -3311.2452   -3311.2452    37007.411    28.828361    27.448102    46.768821     1008 
      17            0    41.262299  0.080368996   -158.45279    76.505341    205.73435   -191.72604   -168.23227   -127.52151            0   -3311.2534   -3311.2534    37028.481    28.857566    27.448257    46.747827     1008 
      18            0   -383.72759  0.084233999   -386.20858   -385.04951   -379.92469   -227.93424    -183.3916   -126.84107            0   -3311.2623   -3311.2623    37074.399    28.849531    27.462251    46.794976     1008 
      19            0   -112.72962  0.087837934    127.88816   -133.32883    -332.7482   -273.83909   -201.47916   -126.73001            0   -3311.2764   -3311.2764    37049.017    28.820326     27.45886    46.816108     1008 
      20            0    232.23749  0.094871998    284.01187    232.54714    180.15348   -240.68604   -185.77391    -125.6902            0   -3311.2843   -3311.2843    37011.842    28.829417    27.448105    46.772703     1008 
      21            0   -27.530686   0.10188198   -201.59309   -26.613901    145.61493   -200.35622    -167.5478   -124.01783            0   -3311.2912   -3311.2912    37036.692    28.856615    27.452855    46.751903     1008 
      22            0   -358.98581   0.10541892    -393.2075   -316.13809   -367.61183   -214.97606   -179.04917    -127.4997            0   -3311.3315   -3311.3315    37074.122    28.851898    27.457401    46.799052     1008 
      23            0    382.89631   0.11246181    449.77467    439.06715    259.84711     -234.743   -185.40135   -127.44765            0   -3311.3491   -3311.3491     36999.19     28.82446    27.439628    46.779203     1008 
      24            0    1011.3405   0.11602497    1228.3984    1020.1368    785.48638   -270.82745   -192.82537    -122.4449            0    -3311.364    -3311.364     36937.39    28.795255        27.43    46.764841     1008 
      25            0    689.92013   0.11960292    1174.6333    473.54226    421.58478   -346.01532   -201.27142    -103.5947            0   -3311.5109   -3311.5109    36975.512    28.777126    27.457788    46.795191     1008 
      26            0    38.407602   0.12317586    375.35409   -141.65436   -118.47693   -311.41272   -191.28911   -106.34652            0   -3311.5342   -3311.5342     37041.39    28.806331    27.468959    46.811991     1008 
      27            0   -88.394454   0.12673402    -28.32496   -131.84954   -105.00886   -242.88144   -173.13524   -114.09713            0   -3311.5457   -3311.5457    37053.113    28.835536    27.458496    46.797206     1008 
      28            0    167.37818   0.13375998    173.68402    171.77367    156.67684   -228.08143   -169.66033    -116.6138            0   -3311.5487   -3311.5487     37026.71    28.834487    27.448127    46.783228     1008 
      29            0    82.575368    0.1373229   -196.16954    253.13435    190.76129   -153.16086   -151.18337   -126.18087            0   -3311.5655   -3311.5655    37034.967    28.863692    27.434024    46.770345     1008 
      30            0   -416.74234    0.1408689   -446.73793   -418.23645   -385.25263   -218.47362   -166.01238   -115.71061            0   -3311.5792   -3311.5792     37087.98    28.852018    27.461812    46.808831     1008 
      31            0   -238.68247   0.14443994   -7.9011265   -379.77207   -328.37421   -284.92913   -181.57387   -106.82208            0   -3311.5936   -3311.5936    37071.299    28.822813    27.471246    46.819103     1008 
      32            0    125.42615   0.15150499    267.55866    53.355441    55.364355   -261.76472   -175.79363   -110.32935            0   -3311.5996   -3311.5996     37033.43    28.822486    27.456298     46.79727     1008 
      33            0    -8.389207   0.15503883   -140.16836      57.8004    57.200336   -193.12578   -157.95375   -118.33466            0   -3311.6076   -3311.6076    37046.076    28.851691    27.445856    46.783655     1008 
      34            0   -286.96274    0.1585989   -167.44816   -287.60987    -405.8302   -243.20601    -173.0065   -113.30243            0   -3311.6829   -3311.6829    37079.528    28.834704    27.459149    46.830804     1008 
      35            0    434.52478   0.16566801    538.13887    440.36863    325.06683   -243.85553   -169.41125   -111.48458            0      -3311.7      -3311.7    37005.557    28.818635    27.441838     46.79294     1008 
      36            0    977.54596   0.17272282    986.68374    969.75641    976.19773   -232.91398   -158.21287   -107.29662            0   -3311.7112   -3311.7112     36950.12    28.814005    27.430035    46.750456     1008 
      37            0    797.10674   0.17626381    528.75044    713.95299    1148.6168   -195.17336   -128.94337   -96.668441            0   -3311.7985   -3311.7985    36968.239     28.84321    27.439004    46.710748     1008 
      38            0    43.300821   0.17980099   -170.52456   -36.904391    337.33141   -198.82416   -135.20068   -98.671645            0   -3311.8231   -3311.8231    37046.239    28.856696    27.456334    46.757897     1008 
      39            0   -68.155421   0.18335581   -88.522607   -73.142885   -42.800769   -219.38398   -153.67667   -106.06425            0   -3311.8302   -3311.8302    37060.434    28.841879    27.453282    46.805046     1008 
      40            0    187.57725   0.19040585    211.08292    201.81326    149.83556   -225.53042   -157.20588   -107.28143            0   -3311.8323   -3311.8323     37034.74    28.831678    27.445932    46.801674     1008 
      41            0    189.96424   0.19397783    456.94776    254.51734   -141.57237   -258.83972   -177.21443   -112.00719            0   -3311.8625   -3311.8625    37038.848    28.809376     27.44258    46.848823     1008 
      42            0   -389.48178   0.19754887   -290.65268   -386.43924   -491.35343   -235.63254   -161.75193   -106.45191            0   -3311.8777   -3311.8777    37097.024    28.838581    27.460414    46.844446     1008 
      43            0   -385.87967   0.20109582   -536.87612   -443.43206   -177.33082   -202.07625    -138.2546   -98.957607            0    -3311.896    -3311.896    37094.235    28.861349    27.464331    46.797297     1008 
      44            0    123.05474   0.20813298    7.4091483    94.795668     266.9594   -206.91681   -140.77677   -100.34994            0   -3311.9045   -3311.9045    37042.235     28.84569    27.450182    46.781165     1008 
      45            0    148.95714   0.21169901    269.28983    196.73954   -19.157949   -235.48367   -162.25854   -107.76537            0    -3311.913    -3311.913    37043.007    28.823635    27.444097    46.828314     1008 
      46            0   -228.64982   0.21877193   -125.64414   -203.15112   -357.15421   -233.44024   -160.63789   -106.50267            0   -3311.9176   -3311.9176     37081.91     28.83428    27.454622    46.842225     1008 
      47            0   -460.41782   0.22232389    -618.2536   -558.20899   -204.79088   -205.84819   -133.88911   -94.141825            0   -3311.9443   -3311.9443    37103.427    28.863485    27.469401    46.796791     1008 
      48            0    342.44402    0.2293489    151.09898    259.23018     617.0029   -203.02019   -128.73046   -92.659176            0   -3311.9656   -3311.9656    37020.866    28.846853    27.449336    46.753731     1008 
      49            0    938.06732   0.23290491    912.24977    993.17917    908.77304   -212.73269    -141.9972    -100.7283            0   -3312.0134   -3312.0134    36965.229    28.817648    27.424309    46.773425     1008 
      50            0    367.57574   0.23646283    412.01727    454.41682    236.29313   -215.65436   -148.34699   -103.51091            0   -3312.0724   -3312.0724    37026.105    28.825058    27.434757    46.820574     1008 
      51            0   -43.751836   0.24352884   -25.408771    2.7281308   -108.57487   -214.73736   -145.74686   -101.02668            0   -3312.0779   -3312.0779    37067.955    28.837261    27.447559    46.831804     1008 
      52            0    12.030813   0.24708891   -57.018169   -145.28975    238.40035   -231.24548   -131.05914   -84.405794            0   -3312.0848   -3312.0848    37059.715    28.842955     27.46369    46.784655     1008 
      53            0    129.99796   0.25065184     175.2702    181.58918    33.134515   -218.65697   -144.03712   -98.637995            0   -3312.1472   -3312.1472    37052.985    28.830376    27.443026    46.831804     1008 
      54            0   -336.74783   0.25772786   -338.46343   -328.22454   -343.55553   -214.08671   -139.27602   -95.545844            0   -3312.1544   -3312.1544    37100.871    28.845866    27.457259    46.842854     1008 
      55            0   -709.80387   0.26480389   -780.35051   -765.95414   -583.10696   -209.53594   -131.34227    -90.13072            0   -3312.1597   -3312.1597    37139.171    28.861071    27.471188    46.842743     1008 
      56            0   -548.74531   0.26836586   -760.14855   -736.36518   -149.72219   -205.97887   -111.97064   -76.524524            0   -3312.2169   -3312.2169    37121.961    28.869431    27.478165    46.795594     1008 
      57            0    102.30449   0.27542782   -22.055398   -3.5777444    332.54661   -212.51787   -120.15484   -81.977849            0   -3312.2315   -3312.2315    37056.001    28.845708    27.456307    46.788081     1008 
      58            0    4.2927531   0.27899098    25.824197    24.603695   -37.549632   -217.30577   -136.51001   -92.863924            0   -3312.2374   -3312.2374    37068.935     28.83522     27.44822     46.83523     1008 
      59            0   -647.80081   0.28256202   -752.19147   -781.23364   -409.97733   -214.31548   -119.45813   -79.329495            0   -3312.2789   -3312.2789     37136.29    28.861982    27.476008    46.829415     1008 
      60            0    56.648642   0.28612995   -90.382632   -130.85402    391.18258   -219.09635   -108.65166   -70.648759            0   -3312.3576   -3312.3576    37064.905    28.848161    27.463982    46.782266     1008 
      61            0    26.975883   0.28969693    7.6363992    2.2058419    71.085409   -215.38961   -123.85806   -83.505051            0   -3312.3781   -3312.3781    37071.389    28.837828    27.450963    46.829415     1008 
      62            0   -290.30983   0.29678202   -250.03433   -236.97849   -383.91668   -211.50197   -131.82087   -90.331978            0   -3312.3828   -3312.3828     37106.06    28.840399     27.45167    46.867827     1008 
      63            0    44.472159     0.300354     264.2723    324.35189   -455.20771   -209.53932   -152.32097   -107.47151            0   -3312.4013   -3312.4013    37076.799    28.816691    27.424998    46.914976     1008 
      64            0    173.90828   0.30393195    271.50627    296.94271   -46.724138   -212.52977   -133.65755   -92.164856            0   -3312.4577   -3312.4577    37062.331    28.823946    27.434969    46.867827     1008 
      65            0   -118.68325   0.31101489   -75.158596   -62.241486   -218.64967   -211.60359   -127.56089   -87.200904            0    -3312.461    -3312.461    37091.438    28.835715    27.447211    46.864581     1008 
      66            0    25.395371   0.31810188   -30.329234   -45.332556     151.8479   -215.01104   -114.46593   -76.225966            0   -3312.4646   -3312.4646    37074.344    28.840761    27.454553    46.822262     1008 
      67            0    234.04057   0.32168293    245.16096    217.90535    239.05541   -215.37357   -104.89131   -68.651169            0   -3312.7466   -3312.7466     37066.35    28.828959     27.44433    46.848774     1008 
      68            0   -227.68745   0.32879186   -234.92894   -248.45216   -199.68125   -209.93192   -104.06395   -68.929689            0   -3312.7535   -3312.7535    37114.315     28.84184    27.455213    46.869861     1008 
      69            0   -594.87633   0.33588886   -617.62854   -594.97988   -572.02058   -201.61166   -103.64033    -70.59429            0   -3312.7582   -3312.7582     37153.35    28.852318    27.461723       46.891     1008 
      70            0    -499.9196   0.33949089   -528.26873   -217.06539   -754.42469   -156.41442   -105.25795    -86.41067            0   -3312.8802   -3312.8802    37152.263    28.851483    27.434129    46.938149     1008 
      71            0    90.942736   0.34658885    87.954175    298.78417   -113.91014   -175.79369   -102.90561   -79.571933            0   -3312.8917   -3312.8917    37090.194    28.834367    27.427404    46.899042     1008 
      72            0     2.220695   0.35370803  -0.56397982   -50.662185     57.88825    -215.0809   -94.104162   -59.773231            0   -3312.8956   -3312.8956     37096.75    28.835248    27.452269    46.863415     1008 
      73            0   -511.03829   0.35730481   -418.05654   -557.38106   -557.67728   -226.35014   -100.24614   -59.899898            0   -3312.9449   -3312.9449    37154.119     28.83871    27.463792    46.910563     1008 
      74            0    408.67096   0.36090183    545.11927    439.34543    241.54819   -227.15466   -101.29501   -61.965831            0   -3312.9908   -3312.9908     37061.91      28.8127    27.436004     46.88382     1008 
      75            0    1058.0957    0.3644948    1015.5206    1223.1903     935.5762   -178.06727   -79.007465    -62.12058            0   -3313.1177   -3313.1177    37002.454    28.813707    27.408216    46.854428     1008 
      76            0     315.3254   0.36809182    147.38184    472.11312    326.48123   -152.21658   -64.745745   -58.037693            0   -3313.2374   -3313.2374    37082.073    28.842912    27.424731    46.879452     1008 
      77            0   -57.368569   0.37520289   -181.05883    35.610289   -26.657171   -167.22321   -67.435513     -54.3719            0   -3313.2417   -3313.2417    37120.538     28.84759    27.438999     46.89607     1008 
      78            0    6.9879802   0.38235688    89.385762   -56.609475   -11.812346    -226.5793   -79.009543   -43.934518            0   -3313.2427   -3313.2427    37114.507    28.826169    27.452311    46.900542     1008 
      79            0   -116.36711   0.38596702   -102.09012   -290.40368    43.392468   -228.51389   -55.957768   -25.074718            0   -3313.4566   -3313.4566    37137.214    28.834299    27.463818    46.896346     1008 
      80            0    278.66495    0.3931129    292.66227    273.37516    269.95743   -205.05335   -59.904677    -36.60663            0   -3313.4643   -3313.4643     37098.35    28.825558    27.439891    46.902338     1008 
      81            0    408.81041   0.40026593    401.21683    645.00502    180.20939   -165.05008    -65.27497   -54.234876            0   -3313.4699   -3313.4699    37087.898    28.825523    27.415702    46.930551     1008 
      82            0   -143.55629    0.4074409    -193.9647    218.93153   -455.63569   -134.95006   -67.273721   -64.419996            0   -3313.4818   -3313.4818    37146.956    28.843427    27.416857    46.974127     1008 
      83            0   -289.45517     0.411026   -320.63465   -205.54991   -342.18095   -179.71683   -58.282748   -42.595024            0   -3313.5054   -3313.5054    37160.311    28.843821    27.444645    46.942793     1008 
      84            0     91.60379   0.41816998     85.37422    132.70239    56.734758   -192.84107   -57.483662   -38.406122            0     -3313.51     -3313.51    37120.519    28.832043    27.439836    46.919904     1008 
      85            0     188.5474   0.42534089    233.70295    -19.99832    351.93758   -240.25691   -52.513611    -18.97731            0   -3313.5127   -3313.5127     37108.83    28.823726    27.459796    46.884558     1008 
      86            0   -209.75242   0.43251181   -164.03181   -506.11515    40.889693   -251.13308    -50.35009   -13.029296            0   -3313.5177   -3313.5177    37149.836    28.832856    27.476736    46.892577     1008 
      87            0   -319.13807   0.43612194   -304.67871     -340.372    -312.3635   -202.72457   -54.868222   -32.341505            0   -3313.5605   -3313.5605     37166.01    28.839631    27.454636    46.939726     1008 
      88            0     92.01565   0.44326401    112.32144    107.97468    55.750834   -200.55721   -55.094751   -33.989865            0   -3313.5662   -3313.5662    37123.763    28.829294    27.441978    46.924816     1008 
      89            0    622.97061   0.45040798    459.65885    704.88549     704.3675   -162.28844   -38.319987   -34.878501            0    -3313.579    -3313.579    37069.032    28.833657    27.423164    46.880686     1008 
      90            0    427.96124   0.45402384    1.3282698    545.25233    737.30311   -110.40137   -15.155939   -34.015441            0   -3313.6201   -3313.6201      37089.4    28.862862    27.423011    46.859244     1008 
      91            0   -159.52054   0.46119499   -435.03822   -104.92024    61.396843   -142.00396   -27.750829   -31.744782            0   -3313.6322   -3313.6322    37151.313    28.862912    27.442602    46.903876     1008 
      92            0   -9.7157937   0.46479797   -13.215363   -4.0674631   -11.864555   -196.68454   -48.322162   -29.834568            0   -3313.6372   -3313.6372    37138.159    28.833707    27.444853    46.930911     1008 
      93            0    435.07191   0.47196889    486.26056    381.53071    437.42445   -217.63696   -48.550923   -23.850368            0   -3313.6434   -3313.6434    37092.732    28.817602    27.440139    46.907759     1008 
      94            0    338.14756   0.47559285    511.80193   -1.6750508     504.3158   -280.75242   -45.373173   0.02328237            0   -3313.7007   -3313.7007    37104.962    28.807098    27.467927    46.892846     1008 
      95            0   -162.53137   0.48276901    -72.93678   -382.79482   -31.862499   -245.18806   -43.750482   -9.9245875            0   -3313.7111   -3313.7111    37157.455    28.827467    27.468505    46.925019     1008 
      96            0   -58.107836   0.48636985   -85.988357    2.7997463   -91.134897   -182.95694   -42.940852   -30.122906            0   -3313.7187   -3313.7187    37148.447    28.837176    27.440717    46.945338     1008 
      97            0    92.086394   0.49352288    83.125939    125.83922    67.294019   -191.24899   -43.016716    -27.73076            0   -3313.7193   -3313.7193    37132.765    28.831653    27.439776    46.936121     1008 
      98            0    5.8281771   0.50071192    87.457451   -212.59712     142.6242   -244.53959   -41.964383   -9.0224823            0   -3313.7213   -3313.7213    37140.409    28.824124    27.464391    46.915958     1008 
      99            0   -631.07437   0.50432897   -589.04439   -755.16475   -549.01396   -218.95516   -40.484669   -15.323041            0    -3313.764    -3313.764    37210.871    28.843534    27.470372    46.963107     1008 
     100            0   -57.258309   0.50794196   -30.581883   -18.279062   -122.91398   -194.63788   -40.114157   -24.102587            0   -3313.8176   -3313.8176    37154.922    28.831709    27.442584    46.959231     1008 
     101            0    82.882295       0.5151    94.428056    98.253102    55.965726   -196.53333   -37.463379   -21.691219            0   -3313.8183   -3313.8183    37139.928    28.829611    27.441391    46.945737     1008 
     102            0   -21.285523   0.52226186   -84.608874   -110.78567    131.53798   -199.24839   -27.710864   -13.076811            0   -3313.8203   -3313.8203    37148.994    28.838567    27.452622    46.923409     1008 
     103            0    61.970558   0.52587891   -11.122764   -68.460953    265.49539   -202.94409   -13.404908   -1.0522074            0   -3313.9879   -3313.9879    37150.921     28.83678    27.453754    46.926814     1008 
     104            0   -160.93098   0.52948785   -155.06003   -147.73985   -179.99305   -192.86255   -25.620455   -13.401466            0   -3313.9933   -3313.9933     37176.88     28.83552    27.446561    46.973963     1008 
     105            0   -4.7594617   0.53664589    53.344107    95.904523   -163.52702   -189.30424   -32.379104   -20.097652            0   -3313.9953   -3313.9953     37162.33    28.827305    27.435559    46.987795     1008 
     106            0    309.41477   0.54382086    305.31693    299.01438    323.91298   -197.61114   -21.515125   -9.5515101            0   -3314.0004   -3314.0004    37128.151    28.824948    27.437852    46.944495     1008 
     107            0   -14.863306   0.55098891   -140.38692   -220.56085    316.35785    -205.0163   -5.0235443    6.2112815            0   -3314.0085   -3314.0085    37159.213    28.843085    27.461833    46.913224     1008 
     108            0   -335.39875   0.55460501   -391.82941    -430.4451   -183.92173    -197.4729   -14.416688   -2.9359493            0   -3314.0299   -3314.0299    37196.024    28.844923    27.459687    46.960373     1008 
     109            0    229.07363   0.56177592    261.56269     266.9033    158.75491   -195.60435   -23.729248   -11.808589            0   -3314.0424   -3314.0424     37140.27    28.823613      27.4355     46.96602     1008 
     110            0    477.67918   0.56893396    634.06775    727.76964    71.200143    -185.5489   -39.372472   -27.734913            0   -3314.0509   -3314.0509    37119.881    28.807156    27.411875    47.007532     1008 
     111            0     65.47233   0.57254291    266.54831     413.7998   -483.93112   -175.74536   -46.888606    -36.05178            0   -3314.0716   -3314.0716    37166.099    28.813265    27.412692    47.054681     1008 
     112            0   -172.75065    0.5761528    -113.6216   -64.123563   -340.50678   -186.53862   -26.776529   -16.463634            0   -3314.0876   -3314.0876     37186.57    28.831028    27.438385    47.007532     1008 
     113            0    79.198079   0.58332491    115.33638    140.45868    -18.20083   -191.37806   -22.116899   -11.738092            0     -3314.09     -3314.09    37159.467    28.826861    27.436718    46.982915     1008 
     114            0    1.3426412   0.59049392   -17.339655   -30.471439    51.839017   -195.85479   -14.448816   -4.1880841            0   -3314.0912   -3314.0912    37165.961    28.833382    27.446407    46.963914     1008 
     115            0   -495.33275   0.59411287   -469.73568   -455.02671   -561.23586   -189.16212   -21.262148   -10.754028            0   -3314.1041   -3314.1041      37220.8    28.841575    27.451537    47.011063     1008 
     116            0   -35.839653   0.59772587    131.83555    207.69797   -447.05248   -184.87026   -35.275677   -23.966922            0   -3314.1564   -3314.1564     37180.58    28.818083    27.423749    47.046168     1008 
     117            0      100.184   0.60134482    163.01743    190.15425   -52.619668   -191.13456   -19.482892   -9.9420984            0   -3314.1742   -3314.1742    37164.025    28.823786    27.433608    46.999019     1008 
     118            0   -79.023511   0.60852003   -52.347546   -38.656799   -146.06619   -191.49357   -15.336161   -6.2839973            0   -3314.1754   -3314.1754    37181.759    28.831223     27.44186    46.995182     1008 
     119            0     11.48067   0.61570191   -9.4815507   -18.996853    62.920413   -194.82002   -8.3799768  0.012922672            0   -3314.1765   -3314.1765    37171.011    28.833123    27.445805    46.971746     1008 
     120            0    458.23336   0.61932397     565.4207    568.68677     240.5926   -196.99291   -12.592538   -3.5923205            0   -3314.3083   -3314.3083     37138.29    28.810812    27.423547    47.004862     1008 
     121            0   -489.50727   0.62293983   -456.24905   -455.03707   -557.23571   -190.22152   -5.1960193    1.5652892            0     -3314.34     -3314.34    37238.131    28.840017    27.451272    47.035947     1008 
     122            0   -1162.4998     0.630126   -1245.2851     -1246.19    -996.0242   -184.17566    10.192251    12.610498            0    -3314.358    -3314.358    37311.154     28.86659    27.476516     47.04154     1008 
     123            0   -1042.9308   0.63375092   -1297.0996   -1297.8668   -533.82598   -181.89077    40.421855    34.563724            0   -3314.4683   -3314.4683    37304.733    28.878637    27.487878    46.994391     1008 
     124            0   -164.50606   0.63737583   -332.53088   -330.48612    169.49882   -188.41284    33.939047    30.001789            0   -3314.5085   -3314.5085    37214.094    28.849438     27.46009    46.975144     1008 
     125            0     152.5991   0.64457297    79.706534    82.022934    296.06784   -191.74572    23.933445    22.830915            0   -3314.5135   -3314.5135    37183.125    28.833348     27.44488    46.988273     1008 
     126            0   -5.5554295   0.65176702    1.1172372    1.7157195   -19.499245   -192.24544    13.681987     15.43033            0   -3314.5158   -3314.5158    37201.506    28.830137    27.441997    47.021675     1008 
     127            0     455.4784   0.65540886    661.55022     550.9216    153.96338   -215.47194  -0.95739084    10.883353            0   -3314.5647   -3314.5647    37162.089    28.800932    27.424671     47.04919     1008 
     128            0   -546.09635   0.65904093   -401.14367   -511.59909    -725.5463   -208.61618    4.9324203    14.698555            0   -3314.6088   -3314.6088    37269.719    28.830137    27.452345    47.090138     1008 
     129            0   -1051.7489   0.66266894   -1095.1206   -1115.7307   -944.39554   -188.95151    28.567161    26.978442            0   -3314.6752   -3314.6752    37328.616    28.859342     27.47158    47.083834     1008 
     130            0   -259.88818   0.66630101   -371.80578    -327.3804   -80.478366   -183.19108    42.362733    33.819609            0   -3314.7604   -3314.7604    37249.588    28.846328     27.45328    47.036685     1008 
     131            0    39.581231   0.67350483   -27.343214    4.4244202    141.66249   -187.69582    38.789309    31.989941            0   -3314.7635   -3314.7635    37219.092    28.835037    27.443823    47.032779     1008 
     132            0   -3.2346043   0.68071985    8.2173359    3.7408115    -21.66196   -194.19871    30.294561    27.743832            0   -3314.7642   -3314.7642    37225.046    28.828974    27.441455    47.054257     1008 
     133            0     491.5644    0.6843698     686.3403    434.97414    353.37876   -238.57551    21.625813    34.872658            0    -3314.808    -3314.808    37180.395    28.799769    27.436659    47.053698     1008 
     134            0   -502.41977   0.68802381   -356.58938   -620.67784   -529.99208   -234.27735    25.571117    37.810457            0   -3314.8522   -3314.8522     37288.13    28.827625    27.464447    47.096743     1008 
     135            0   -960.90747   0.69166493   -974.23585    -1052.411   -856.07554   -201.71975    40.591194    38.751192            0   -3314.9115   -3314.9115    37344.652    28.853524    27.471689    47.113373     1008 
     136            0   -118.65833   0.69529295   -198.42883   -118.65526   -38.890909   -182.74389    50.686228    38.025022            0   -3314.9911   -3314.9911    37262.578    28.839612    27.443901    47.080128     1008 
     137            0    24.761522   0.70250583    -24.03185    30.393562    67.922855   -188.01509    48.541588    37.861589            0   -3314.9917   -3314.9917    37247.964    28.833291    27.440305     47.07815     1008 
     138            0    24.761522   0.83853483    -24.03185    30.393562    67.922855   -188.01509    48.541588    37.861589            0   -3314.9917   -3314.9917    37247.964    28.833291    27.440305     47.07815     1008 
Loop time of 0.838555 on 1 procs for 138 steps with 1008 atoms

99.7% CPU use with 1 MPI tasks x no OpenMP threads

Minimization stats:
  Stopping criterion = linesearch alpha is zero
  Energy initial, next-to-last, final = 
        -3306.28429558     -3314.99168563     -3314.99168563
  Force two-norm initial, final = 462.106 2.05197
  Force max component initial, final = 282.146 1.58147
  Final line search alpha, max atom move = 2.60809e-09 4.1246e-09
  Iterations, force evaluations = 138 231

MPI task timing breakdown:
Section |  min time  |  avg time  |  max time  |%varavg| %total
---------------------------------------------------------------
Pair    | 0.80215    | 0.80215    | 0.80215    |   0.0 | 95.66
Neigh   | 0.010255   | 0.010255   | 0.010255   |   0.0 |  1.22
Comm    | 0.0027297  | 0.0027297  | 0.0027297  |   0.0 |  0.33
Output  | 0.0044351  | 0.0044351  | 0.0044351  |   0.0 |  0.53
Modify  | 0          | 0          | 0          |   0.0 |  0.00
Other   |            | 0.01898    |            |       |  2.26

Nlocal:    1008 ave 1008 max 1008 min
Histogram: 1 0 0 0 0 0 0 0 0 0
Nghost:    1445 ave 1445 max 1445 min
Histogram: 1 0 0 0 0 0 0 0 0 0
Neighs:    57584 ave 57584 max 57584 min
Histogram: 1 0 0 0 0 0 0 0 0 0

Total # of neighbors = 57584
Ave neighs/atom = 57.127
Neighbor list builds = 1
Dangerous builds = 0
Setting up cg style minimization ...
  Unit style: metal
Memory usage per processor = 3.38257 Mbytes
Step Temp Press CPU Pxx Pyy Pzz Pxy Pxz Pyz KinEng PotEng TotEng Volume Lx Ly Lz Atoms 
     138            0    24.761522            0    -24.03185    30.393562    67.922855   -188.01509    48.541588    37.861589            0   -3314.9917   -3314.9917    37247.964    28.833291    27.440305     47.07815     1008 
     139            0    98.955466 0.0035829544    28.768295    84.375607    183.72249   -189.94193    51.706681    40.178892            0   -3315.0575   -3315.0575    37247.964    28.833291    27.440305     47.07815     1008 
     140            0    166.15327 0.0071709156    76.876912    133.81235    287.77054   -192.02739    52.868843    41.016514            0   -3315.1145   -3315.1145    37247.964    28.833291    27.440305     47.07815     1008 
     141            0    225.44337   0.01076293    119.58153     177.9559    378.79266   -194.23454    51.719311    40.156325            0   -3315.1633   -3315.1633    37247.964    28.833291    27.440305     47.07815     1008 
     142            0     274.7281  0.014361858    155.39351    215.28059    453.51021   -196.51335     47.71516    37.204279            0   -3315.2047   -3315.2047    37247.964    28.833291    27.440305     47.07815     1008 
     143            0    310.07119  0.017961025     181.5734    242.99382    505.64635    -198.7793     39.92616    31.479176            0   -3315.2397   -3315.2397    37247.964    28.833291    27.440305     47.07815     1008 
     144            0    321.55111  0.021563053    190.94664    253.60541    520.10127   -200.55355    28.660902    23.206888            0   -3315.2654   -3315.2654    37247.964    28.833291    27.440305     47.07815     1008 
     145            0    309.51011  0.025173903    183.66251    247.25843    497.60938   -201.81851    14.097175    12.510349            0   -3315.2848   -3315.2848    37247.964    28.833291    27.440305     47.07815     1008 
     146            0    271.12654  0.028782845    157.45325    221.75091    434.17545   -202.66003   -3.9605602  -0.77080886            0   -3315.2995   -3315.2995    37247.964    28.833291    27.440305     47.07815     1008 
     147            0    194.72292  0.032392025    102.90216     168.0001     313.2665   -203.53507   -25.522575   -16.695509            0   -3315.3093   -3315.3093    37247.964    28.833291    27.440305     47.07815     1008 
     148            0    139.21615  0.036007881    61.818365    127.54923    228.28085   -204.28666   -31.733134   -21.416582            0   -3315.3115   -3315.3115    37247.964    28.833291    27.440305     47.07815     1008 
     149            0    126.54741  0.043184996    51.710497    117.72965    210.20207   -204.70935   -31.719175   -21.421036            0   -3315.3118   -3315.3118    37247.964    28.833291    27.440305     47.07815     1008 
     150            0    49.258984  0.050366879   -6.5287614    60.415571    93.890144   -205.91483    -34.71052   -23.842987            0   -3315.3126   -3315.3126    37247.964    28.833291    27.440305     47.07815     1008 
     151            0    22.045727  0.057544947   -25.800608    41.114816    50.822973   -205.74934    -36.52058   -25.298162            0   -3315.3131   -3315.3131    37247.964    28.833291    27.440305     47.07815     1008 
     152            0    16.469914  0.064725876   -29.773079    37.067391    42.115431   -205.60879   -35.901416   -24.881519            0   -3315.3131   -3315.3131    37247.964    28.833291    27.440305     47.07815     1008 
     153            0    4.3127606  0.071898937   -39.460437    27.474295    24.924423   -205.73883   -31.632006   -21.863672            0   -3315.3132   -3315.3132    37247.964    28.833291    27.440305     47.07815     1008 
     154            0   -3.3815769  0.079077959   -45.766318    21.292533    14.329054   -205.91329   -27.760431   -19.136831            0   -3315.3133   -3315.3133    37247.964    28.833291    27.440305     47.07815     1008 
     155            0   -8.5768479  0.086257935   -49.706911    17.227771    6.7485968   -205.71545   -25.928507   -17.853138            0   -3315.3133   -3315.3133    37247.964    28.833291    27.440305     47.07815     1008 
     156            0   -14.771302   0.09343195   -54.058446    12.625294    -2.880754   -205.33228   -24.647804    -16.96194            0   -3315.3134   -3315.3134    37247.964    28.833291    27.440305     47.07815     1008 
     157            0   -18.091805   0.10061383   -56.291177    10.265288   -8.2495254   -205.12422   -23.887124   -16.445365            0   -3315.3134   -3315.3134    37247.964    28.833291    27.440305     47.07815     1008 
     158            0   -20.393178   0.10778594   -58.014001    8.4746573   -11.640191   -204.98335   -21.297234   -14.669583            0   -3315.3134   -3315.3134    37247.964    28.833291    27.440305     47.07815     1008 
     159            0   -20.757665   0.11496186   -58.773863    7.6267414   -11.125873   -204.81394   -14.296022   -9.8148654            0   -3315.3134   -3315.3134    37247.964    28.833291    27.440305     47.07815     1008 
     160            0   -20.356121   0.12213683   -58.573563    7.7497165   -10.244518   -204.68664    -11.51425   -7.8935631            0   -3315.3134   -3315.3134    37247.964    28.833291    27.440305     47.07815     1008 
     161            0   -20.446028   0.12930989   -58.701139    7.6011265   -10.238072   -204.63611   -9.3550731   -6.4194277            0   -3315.3134   -3315.3134    37247.964    28.833291    27.440305     47.07815     1008 
     162            0   -20.216197   0.13648605   -58.714634    7.6318147   -9.5657734   -204.67155   -6.9284142   -4.7583388            0   -3315.3134   -3315.3134    37247.964    28.833291    27.440305     47.07815     1008 
     163            0   -19.244305   0.14366889   -58.212127    8.1695821   -7.6903715   -204.69199   -4.3855538   -3.0191411            0   -3315.3134   -3315.3134    37247.964    28.833291    27.440305     47.07815     1008 
     164            0   -18.404272   0.15084696   -57.828527    8.6214113   -6.0057014   -204.78205   -2.6897549     -1.85382            0   -3315.3135   -3315.3135    37247.964    28.833291    27.440305     47.07815     1008 
     165            0   -17.694112   0.15802693   -57.438989    9.0251043   -4.6684498   -204.79124   -1.7705363   -1.2184006            0   -3315.3135   -3315.3135    37247.964    28.833291    27.440305     47.07815     1008 
     166            0   -16.967294   0.16519785   -56.916331    9.5004752   -3.4860259   -204.71065   -1.1356554  -0.77907469            0   -3315.3135   -3315.3135    37247.964    28.833291    27.440305     47.07815     1008 
     167            0   -16.384884   0.17237401   -56.464898    9.9114347   -2.6011897   -204.64634   -0.6919515  -0.46929219            0   -3315.3135   -3315.3135    37247.964    28.833291    27.440305     47.07815     1008 
     168            0   -16.008564   0.17954683   -56.181624    10.165973   -2.0100401   -204.59983  -0.44322142  -0.29460595            0   -3315.3135   -3315.3135    37247.964    28.833291    27.440305     47.07815     1008 
     169            0   -15.813383   0.18672395   -56.021461    10.297556   -1.7162443   -204.55546  -0.28008932   -0.1790677            0   -3315.3135   -3315.3135    37247.964    28.833291    27.440305     47.07815     1008 
     170            0   -15.685016   0.19390202   -55.912971    10.392186   -1.5342634   -204.53399  -0.19676432  -0.12056082            0   -3315.3135   -3315.3135    37247.964    28.833291    27.440305     47.07815     1008 
     171            0   -15.452245   0.20107603   -55.729083     10.56532   -1.1929708   -204.51682  -0.14444189 -0.084505675            0   -3315.3135   -3315.3135    37247.964    28.833291    27.440305     47.07815     1008 
     172            0   -15.278132   0.20825505   -55.585457    10.702635  -0.95157454   -204.50717  -0.11477605 -0.063922169            0   -3315.3135   -3315.3135    37247.964    28.833291    27.440305     47.07815     1008 
     173            0   -15.170424   0.21542597     -55.5009    10.784282  -0.79465505   -204.50298 -0.097018359 -0.051753174            0   -3315.3135   -3315.3135    37247.964    28.833291    27.440305     47.07815     1008 
     174            0   -15.064175   0.22260284   -55.424286    10.861825  -0.63006524   -204.50478 -0.086523365 -0.044636117            0   -3315.3135   -3315.3135    37247.964    28.833291    27.440305     47.07815     1008 
     175            0   -14.950004   0.22977591   -55.340693    10.949041  -0.45835913   -204.51038 -0.080138458 -0.040735251            0   -3315.3135   -3315.3135    37247.964    28.833291    27.440305     47.07815     1008 
     176            0   -14.854351   0.23695397   -55.271799    11.018568  -0.30982221   -204.51107 -0.073541148 -0.036994864            0   -3315.3135   -3315.3135    37247.964    28.833291    27.440305     47.07815     1008 
     177            0   -14.790405    0.2441299   -55.226642    11.064681  -0.20925325   -204.51252 -0.068344439 -0.034106689            0   -3315.3135   -3315.3135    37247.964    28.833291    27.440305     47.07815     1008 
     178            0   -14.742586   0.25130486   -55.192234    11.099919  -0.13544298   -204.51384 -0.063704793 -0.031473748            0   -3315.3135   -3315.3135    37247.964    28.833291    27.440305     47.07815     1008 
     179            0   -14.704422   0.25848484   -55.165944    11.126241 -0.073563904   -204.51383 -0.058698995 -0.028440462            0   -3315.3135   -3315.3135    37247.964    28.833291    27.440305     47.07815     1008 
     180            0   -14.685179   0.26566386   -55.152841     11.14009 -0.042785657   -204.51489 -0.056150683 -0.027114199            0   -3315.3135   -3315.3135    37247.964    28.833291    27.440305     47.07815     1008 
     181            0   -14.675672   0.27283692   -55.146259    11.146969 -0.027726444   -204.51526 -0.054508837 -0.026411074            0   -3315.3135   -3315.3135    37247.964    28.833291    27.440305     47.07815     1008 
     182            0   -14.669254   0.28001189   -55.141703    11.151418 -0.017477599   -204.51499 -0.052209352 -0.025266382            0   -3315.3135   -3315.3135    37247.964    28.833291    27.440305     47.07815     1008 
     183            0   -14.662876     0.287184   -55.136451    11.156396 -0.0085729015    -204.5144  -0.04910027  -0.02370301            0   -3315.3135   -3315.3135    37247.964    28.833291    27.440305     47.07815     1008 
     184            0   -14.656573   0.29436398   -55.131189    11.161104 0.00036514311    -204.5134  -0.04561495 -0.021860505            0   -3315.3135   -3315.3135    37247.964    28.833291    27.440305     47.07815     1008 
     185            0   -14.653357   0.30154085   -55.128474    11.163529 0.0048740545   -204.51282 -0.042763039 -0.020360299            0   -3315.3135   -3315.3135    37247.964    28.833291    27.440305     47.07815     1008 
     186            0   -14.651316   0.30871391   -55.126787    11.165029 0.0078098254   -204.51238  -0.03972534 -0.018814677            0   -3315.3135   -3315.3135    37247.964    28.833291    27.440305     47.07815     1008 
     187            0   -14.649382   0.31588984   -55.125603    11.166058  0.011399756   -204.51197 -0.035947057 -0.016863971            0   -3315.3135   -3315.3135    37247.964    28.833291    27.440305     47.07815     1008 
     188            0    -14.64791   0.32306194   -55.125084    11.166738  0.014614769   -204.51191 -0.029683287 -0.013771829            0   -3315.3135   -3315.3135    37247.964    28.833291    27.440305     47.07815     1008 
     189            0   -14.647441   0.33024192   -55.125391    11.166637  0.016431727   -204.51179 -0.021166627 -0.0096774571            0   -3315.3135   -3315.3135    37247.964    28.833291    27.440305     47.07815     1008 
     190            0   -14.648707   0.33741903   -55.126843    11.165237  0.015486054    -204.5115 -0.013936793 -0.0062044871            0   -3315.3135   -3315.3135    37247.964    28.833291    27.440305     47.07815     1008 
     191            0   -14.650414   0.34459186   -55.128471    11.163788  0.013441596   -204.51151 -0.0091233551 -0.0039720359            0   -3315.3135   -3315.3135    37247.964    28.833291    27.440305     47.07815     1008 
     192            0   -14.651223   0.35176682   -55.129266    11.162998  0.012597986   -204.51134 -0.0057569899 -0.0023900271            0   -3315.3135   -3315.3135    37247.964    28.833291    27.440305     47.07815     1008 
     193            0   -14.652197   0.35894084   -55.130041    11.162213  0.011236061   -204.51121 -0.003251301 -0.0011899675            0   -3315.3135   -3315.3135    37247.964    28.833291    27.440305     47.07815     1008 
     194            0   -14.653346   0.36612105    -55.13097    11.161387  0.009545563   -204.51131 -0.0018689314 -0.00054301558            0   -3315.3135   -3315.3135    37247.964    28.833291    27.440305     47.07815     1008 
     195            0   -14.654211   0.37329984   -55.131719    11.160705 0.0083821191   -204.51138 -0.001237911 -0.00025913035            0   -3315.3135   -3315.3135    37247.964    28.833291    27.440305     47.07815     1008 
     196            0   -14.655142   0.38047099   -55.132517    11.159975 0.0071142461   -204.51146 -0.00087864336 -0.00010845646            0   -3315.3135   -3315.3135    37247.964    28.833291    27.440305     47.07815     1008 
     197            0   -14.656056   0.38764882   -55.133259     11.15928   0.00581242   -204.51152 -0.0006683955 -2.3739614e-05            0   -3315.3135   -3315.3135    37247.964    28.833291    27.440305     47.07815     1008 
     198            0   -14.656963   0.39482284   -55.133959    11.158596 0.0044732144   -204.51153 -0.00049345174 4.674084e-05            0   -3315.3135   -3315.3135    37247.964    28.833291    27.440305     47.07815     1008 
     199            0   -14.657672   0.40200996   -55.134502    11.158059 0.0034273628   -204.51153 -0.0003583294 0.00010429345            0   -3315.3135   -3315.3135    37247.964    28.833291    27.440305     47.07815     1008 
     200            0   -14.658265   0.40919089   -55.134942    11.157621  0.002524997   -204.51153 -0.00025829927 0.00014403425            0   -3315.3135   -3315.3135    37247.964    28.833291    27.440305     47.07815     1008 
     201            0   -14.658666    0.4163599   -55.135227    11.157329 0.0019009724   -204.51151 -0.00020411118 0.00016049093            0   -3315.3135   -3315.3135    37247.964    28.833291    27.440305     47.07815     1008 
     202            0    -14.65901   0.42353702   -55.135473    11.157078 0.0013640034    -204.5115 -0.00017329073 0.00016431982            0   -3315.3135   -3315.3135    37247.964    28.833291    27.440305     47.07815     1008 
     203            0   -14.659307   0.43070889   -55.135684    11.156868 0.00089562081   -204.51149 -0.00015968568 0.00015520836            0   -3315.3135   -3315.3135    37247.964    28.833291    27.440305     47.07815     1008 
     204            0   -14.659477   0.43789101   -55.135806    11.156745 0.00063067319   -204.51149 -0.00015684003 0.00014359378            0   -3315.3135   -3315.3135    37247.964    28.833291    27.440305     47.07815     1008 
     205            0   -14.659613   0.44507384   -55.135903    11.156649 0.00041459382   -204.51149 -0.00015902186 0.00013013732            0   -3315.3135   -3315.3135    37247.964    28.833291    27.440305     47.07815     1008 
     206            0   -14.659718   0.45224404    -55.13598    11.156574 0.00024967845   -204.51149 -0.00015794957 0.00011868266            0   -3315.3135   -3315.3135    37247.964    28.833291    27.440305     47.07815     1008 
     207            0   -14.659785   0.45941997   -55.136031    11.156524 0.00015317289   -204.51148 -0.00015461031 0.0001105745            0   -3315.3135   -3315.3135    37247.964    28.833291    27.440305     47.07815     1008 
     208            0    -14.65983   0.46659398   -55.136069    11.156489 8.8276913e-05   -204.51149 -0.00015254835 0.00010261788            0   -3315.3135   -3315.3135    37247.964    28.833291    27.440305     47.07815     1008 
     209            0   -14.659856     0.473773   -55.136091    11.156469 5.5109003e-05   -204.51149 -0.00014962619 9.6796664e-05            0   -3315.3135   -3315.3135    37247.964    28.833291    27.440305     47.07815     1008 
     210            0   -14.659874   0.48094988   -55.136108    11.156453 3.1782789e-05   -204.51149 -0.00014602938 9.2278867e-05            0   -3315.3135   -3315.3135    37247.964    28.833291    27.440305     47.07815     1008 
     211            0   -14.659888   0.48812103   -55.136121    11.156442 1.3515735e-05   -204.51149 -0.00014111041 8.8695151e-05            0   -3315.3135   -3315.3135    37247.964    28.833291    27.440305     47.07815     1008 
     212            0   -14.659897   0.49530005   -55.136129    11.156435 3.6772962e-06   -204.51149 -0.00013354399 8.5157036e-05            0   -3315.3135   -3315.3135    37247.964    28.833291    27.440305     47.07815     1008 
     213            0   -14.659905   0.50247502   -55.136137    11.156429 -8.2260105e-06   -204.51149 -0.00012100185 7.8338885e-05            0   -3315.3135   -3315.3135    37247.964    28.833291    27.440305     47.07815     1008 
     214            0   -14.659915     0.509655   -55.136146    11.156422 -2.2944799e-05   -204.51149 -0.00010512529 6.9171518e-05            0   -3315.3135   -3315.3135    37247.964    28.833291    27.440305     47.07815     1008 
     215            0   -14.659926   0.51683402   -55.136155    11.156416 -3.7690787e-05   -204.51149 -8.3800804e-05 5.687415e-05            0   -3315.3135   -3315.3135    37247.964    28.833291    27.440305     47.07815     1008 
     216            0   -14.659934   0.52400184   -55.136164    11.156411 -5.1038881e-05   -204.51149 -6.0511161e-05 4.2382393e-05            0   -3315.3135   -3315.3135    37247.964    28.833291    27.440305     47.07815     1008 
     217            0   -14.659938   0.53117895   -55.136168     11.15641 -5.6917591e-05   -204.51148 -4.0140327e-05 2.9571333e-05            0   -3315.3135   -3315.3135    37247.964    28.833291    27.440305     47.07815     1008 
     218            0   -14.659939   0.53835297    -55.13617    11.156411 -5.6795194e-05   -204.51148 -2.6211945e-05 2.0648535e-05            0   -3315.3135   -3315.3135    37247.964    28.833291    27.440305     47.07815     1008 
     219            0   -14.659937   0.54553199   -55.136169    11.156413 -5.3888967e-05   -204.51148 -1.6451117e-05 1.4303229e-05            0   -3315.3135   -3315.3135    37247.964    28.833291    27.440305     47.07815     1008 
     220            0   -14.659933   0.55271006   -55.136167    11.156416 -4.7407182e-05   -204.51148 -9.6315717e-06 1.0020292e-05            0   -3315.3135   -3315.3135    37247.964    28.833291    27.440305     47.07815     1008 
     221            0   -14.659927   0.55988002   -55.136163     11.15642 -3.8865526e-05   -204.51148 -5.8148351e-06 7.2444521e-06            0   -3315.3135   -3315.3135    37247.964    28.833291    27.440305     47.07815     1008 
     222            0   -14.659923   0.56705403    -55.13616    11.156424 -3.1768843e-05   -204.51148 -3.6774659e-06 5.1677839e-06            0   -3315.3135   -3315.3135    37247.964    28.833291    27.440305     47.07815     1008 
     223            0   -14.659919   0.57423496   -55.136158    11.156427 -2.6760595e-05   -204.51148 -2.4470618e-06 3.8845012e-06            0   -3315.3135   -3315.3135    37247.964    28.833291    27.440305     47.07815     1008 
     224            0   -14.659915   0.58141494   -55.136155    11.156429 -2.0906772e-05   -204.51148 -1.4273937e-06 3.0312688e-06            0   -3315.3135   -3315.3135    37247.964    28.833291    27.440305     47.07815     1008 
     225            0   -14.659912   0.58858991   -55.136152    11.156432 -1.564208e-05   -204.51148 -7.9574892e-07 2.4544967e-06            0   -3315.3135   -3315.3135    37247.964    28.833291    27.440305     47.07815     1008 
     226            0   -14.659909   0.59576297    -55.13615    11.156434 -1.1746369e-05   -204.51148 -4.2444843e-07 2.0871153e-06            0   -3315.3135   -3315.3135    37247.964    28.833291    27.440305     47.07815     1008 
     227            0   -14.659907   0.60294199   -55.136149    11.156436 -8.5756028e-06   -204.51148 -1.6030087e-07 1.8464795e-06            0   -3315.3135   -3315.3135    37247.964    28.833291    27.440305     47.07815     1008 
     228            0   -14.659905   0.61011696   -55.136147    11.156437 -6.1899431e-06   -204.51148 2.8900328e-08 1.6944893e-06            0   -3315.3135   -3315.3135    37247.964    28.833291    27.440305     47.07815     1008 
     229            0   -14.659904   0.61729503   -55.136146    11.156438 -4.2819202e-06   -204.51148 1.9469986e-07 1.6177089e-06            0   -3315.3135   -3315.3135    37247.964    28.833291    27.440305     47.07815     1008 
     230            0   -14.659903   0.62446594   -55.136146    11.156439 -2.8451236e-06   -204.51148 3.2404922e-07 1.5607123e-06            0   -3315.3135   -3315.3135    37247.964    28.833291    27.440305     47.07815     1008 
     231            0   -14.659903   0.63164401   -55.136145    11.156439 -1.9120215e-06   -204.51148 4.2297067e-07 1.5214943e-06            0   -3315.3135   -3315.3135    37247.964    28.833291    27.440305     47.07815     1008 
     232            0   -14.659902   0.63882184   -55.136145     11.15644 -1.1539018e-06   -204.51148 4.9826312e-07 1.4888874e-06            0   -3315.3135   -3315.3135    37247.964    28.833291    27.440305     47.07815     1008 
     233            0   -14.659902   0.64599586   -55.136145     11.15644 -6.3142397e-07   -204.51148 5.3350684e-07 1.4488676e-06            0   -3315.3135   -3315.3135    37247.964    28.833291    27.440305     47.07815     1008 
     234            0   -14.659902   0.65317583   -55.136145     11.15644 -2.900517e-07   -204.51148 5.4274177e-07 1.4009766e-06            0   -3315.3135   -3315.3135    37247.964    28.833291    27.440305     47.07815     1008 
     235            0   -14.659902   0.66035795   -55.136145     11.15644 -1.1686631e-07   -204.51148 5.2443416e-07 1.3408915e-06            0   -3315.3135   -3315.3135    37247.964    28.833291    27.440305     47.07815     1008 
     236            0   -14.659901   0.66753888   -55.136145     11.15644 -4.5160793e-09   -204.51148 5.0226786e-07 1.278554e-06            0   -3315.3135   -3315.3135    37247.964    28.833291    27.440305     47.07815     1008 
     237            0   -14.659901   0.67471695   -55.136144     11.15644 1.4500881e-07   -204.51148 4.7520884e-07 1.1941531e-06            0   -3315.3135   -3315.3135    37247.964    28.833291    27.440305     47.07815     1008 
     238            0   -14.659901   0.68189502   -55.136144     11.15644 2.5015775e-07   -204.51148 4.2628039e-07 1.0703861e-06            0   -3315.3135   -3315.3135    37247.964    28.833291    27.440305     47.07815     1008 
     239            0   -14.659901   0.68907499   -55.136144     11.15644 3.2287151e-07   -204.51148 3.7233673e-07 9.2774431e-07            0   -3315.3135   -3315.3135    37247.964    28.833291    27.440305     47.07815     1008 
     240            0   -14.659901   0.69624805   -55.136144     11.15644 3.8593666e-07   -204.51148 3.1596301e-07 7.783936e-07            0   -3315.3135   -3315.3135    37247.964    28.833291    27.440305     47.07815     1008 
     241            0   -14.659901   0.70342302   -55.136144     11.15644 4.0341713e-07   -204.51148 2.4423282e-07 6.0187175e-07            0   -3315.3135   -3315.3135    37247.964    28.833291    27.440305     47.07815     1008 
     242            0   -14.659901     0.710603   -55.136144     11.15644 4.0586394e-07   -204.51148 1.7649895e-07 4.2962268e-07            0   -3315.3135   -3315.3135    37247.964    28.833291    27.440305     47.07815     1008 
     243            0   -14.659901   0.71777701   -55.136144     11.15644 3.508524e-07   -204.51148 1.0657596e-07 2.5608114e-07            0   -3315.3135   -3315.3135    37247.964    28.833291    27.440305     47.07815     1008 
     244            0   -14.659901   0.72495484   -55.136144     11.15644 2.7109918e-07   -204.51148 5.6985334e-08 1.3435473e-07            0   -3315.3135   -3315.3135    37247.964    28.833291    27.440305     47.07815     1008 
     245            0   -14.659901   0.73212385   -55.136144     11.15644 2.4041963e-07   -204.51148 3.4937391e-08 7.4245522e-08            0   -3315.3135   -3315.3135    37247.964    28.833291    27.440305     47.07815     1008 
     246            0   -14.659901   0.73930192   -55.136144     11.15644 2.1216715e-07   -204.51148 2.5530387e-08 4.8730638e-08            0   -3315.3135   -3315.3135    37247.964    28.833291    27.440305     47.07815     1008 
     247            0   -14.659901   0.75002193   -55.136144     11.15644 1.7925491e-07   -204.51148 1.8631935e-08 3.3838361e-08            0   -3315.3135   -3315.3135    37247.964    28.833291    27.440305     47.07815     1008 
Loop time of 0.75004 on 1 procs for 109 steps with 1008 atoms

100.3% CPU use with 1 MPI tasks x no OpenMP threads

Minimization stats:
  Stopping criterion = force tolerance
  Energy initial, next-to-last, final = 
        -3314.99168563     -3315.31346003     -3315.31346003
  Force two-norm initial, final = 0.936634 9.59045e-11
  Force max component initial, final = 0.123656 6.40926e-12
  Final line search alpha, max atom move = 1 6.40926e-12
  Iterations, force evaluations = 109 208

MPI task timing breakdown:
Section |  min time  |  avg time  |  max time  |%varavg| %total
---------------------------------------------------------------
Pair    | 0.73885    | 0.73885    | 0.73885    |   0.0 | 98.51
Neigh   | 0          | 0          | 0          |   0.0 |  0.00
Comm    | 0.0024822  | 0.0024822  | 0.0024822  |   0.0 |  0.33
Output  | 0.0034411  | 0.0034411  | 0.0034411  |   0.0 |  0.46
Modify  | 0          | 0          | 0          |   0.0 |  0.00
Other   |            | 0.00527    |            |       |  0.70

Nlocal:    1008 ave 1008 max 1008 min
Histogram: 1 0 0 0 0 0 0 0 0 0
Nghost:    1463 ave 1463 max 1463 min
Histogram: 1 0 0 0 0 0 0 0 0 0
Neighs:    57584 ave 57584 max 57584 min
Histogram: 1 0 0 0 0 0 0 0 0 0

Total # of neighbors = 57584
Ave neighs/atom = 57.127
Neighbor list builds = 0
Dangerous builds = 0
System init for write_restart ...
System init for write_data ...
Reading restart file ...
  restart file = 13 Jan 2016, LAMMPS = 13 Jan 2016
  triclinic box = (0.185837 0.173904 0.0353877) to (29.0191 27.6142 47.1135) with tilt (8.87367 0 0)
  1 by 1 by 1 MPI processor grid
  1008 atoms
Changing box ...
  triclinic box = (0.185837 0.173904 0.0353877) to (29.0191 27.6142 47.1135) with tilt (8.87367 0 0)
Neighbor list info ...
  1 neighbor list requests
  update every 1 steps, delay 0 steps, check yes
  max neighbors/atom: 2000, page size: 100000
  master list distance cutoff = 7.72488
  ghost atom cutoff = 7.72488
Setting up cg style minimization ...
  Unit style: metal
Memory usage per processor = 3.38289 Mbytes
Step Temp Press CPU Pxx Pyy Pzz Pxy Pxz Pyz KinEng PotEng TotEng Volume Lx Ly Lz Atoms 
     247            0   -14.289981            0   -54.555969    11.443457   0.24256948   -204.56219 -0.013214688 0.0061298708            0   -3315.3135   -3315.3135    37247.927    28.833263    27.440305     47.07815     1008 
     248            0   -14.330336  0.007240057    -54.58981    11.415122   0.18368004   -204.56226 -0.014563319 0.0035115726            0   -3315.3135   -3315.3135    37247.927    28.833263    27.440305     47.07815     1008 
     249            0   -14.362105  0.014482975   -54.618767    11.391344   0.14110708   -204.56235 -0.014630587 0.0018714609            0   -3315.3135   -3315.3135    37247.927    28.833263    27.440305     47.07815     1008 
     250            0   -14.391282  0.021721125   -54.644346    11.370254   0.10024686   -204.56263 -0.013092576 0.00076334978            0   -3315.3135   -3315.3135    37247.927    28.833263    27.440305     47.07815     1008 
     251            0   -14.424953   0.02895689   -54.672702    11.345145  0.052696762   -204.56194 -0.0098734163 0.00036696692            0   -3315.3135   -3315.3135    37247.927    28.833263    27.440305     47.07815     1008 
     252            0    -14.43864   0.03619194   -54.683272    11.335048  0.032304243   -204.56194 -0.0089125829 0.00014891875            0   -3315.3135   -3315.3135    37247.927    28.833263    27.440305     47.07815     1008 
     253            0   -14.445642  0.043432951   -54.687709     11.32974  0.021043287   -204.56207 -0.0088681728 -3.9243703e-05            0   -3315.3135   -3315.3135    37247.927    28.833263    27.440305     47.07815     1008 
     254            0   -14.450577  0.050674915   -54.690428     11.32589  0.012806307   -204.56223 -0.0084986569 9.1705305e-05            0   -3315.3135   -3315.3135    37247.927    28.833263    27.440305     47.07815     1008 
     255            0   -14.454051  0.057913065   -54.691616    11.323493  0.005971358   -204.56208 -0.0085914929 2.1512398e-05            0   -3315.3135   -3315.3135    37247.927    28.833263    27.440305     47.07815     1008 
     256            0   -14.456014   0.06515193   -54.692108    11.322273 0.0017922605   -204.56195 -0.0088429603 -0.00012875488            0   -3315.3135   -3315.3135    37247.927    28.833263    27.440305     47.07815     1008 
     257            0   -14.456764   0.07238698   -54.692462    11.321825 0.00034393843   -204.56207 -0.0087967575 -0.0002107244            0   -3315.3135   -3315.3135    37247.927    28.833263    27.440305     47.07815     1008 
     258            0   -14.457135  0.079628944   -54.692669    11.321567 -0.00030256376   -204.56212 -0.0085608342 -0.00020171899            0   -3315.3135   -3315.3135    37247.927    28.833263    27.440305     47.07815     1008 
     259            0   -14.457432  0.086869955   -54.692845    11.321332 -0.00078180352    -204.5622 -0.0083015858 -0.00024589248            0   -3315.3135   -3315.3135    37247.927    28.833263    27.440305     47.07815     1008 
     260            0    -14.45757  0.094106913   -54.692948    11.321154 -0.0009158957   -204.56226 -0.0080123109 -0.00024913262            0   -3315.3135   -3315.3135    37247.927    28.833263    27.440305     47.07815     1008 
     261            0   -14.457827   0.10134697   -54.693027    11.320874 -0.0013272853   -204.56222 -0.0074854266 -0.00021107345            0   -3315.3135   -3315.3135    37247.927    28.833263    27.440305     47.07815     1008 
     262            0   -14.458018   0.10979199   -54.693081    11.320675 -0.0016474015   -204.56216 -0.0068816376 -0.00018383469            0   -3315.3135   -3315.3135    37247.927    28.833263    27.440305     47.07815     1008 
     263            0   -14.458107   0.11703897    -54.69315    11.320542 -0.0017129852   -204.56208 -0.0059189674 -0.00010575045            0   -3315.3135   -3315.3135    37247.927    28.833263    27.440305     47.07815     1008 
     264            0   -14.458037   0.12428594   -54.693234    11.320564 -0.0014409756   -204.56202 -0.0045699685 3.5601059e-06            0   -3315.3135   -3315.3135    37247.927    28.833263    27.440305     47.07815     1008 
     265            0   -14.457796     0.131531   -54.693349    11.320773 -0.00081028254   -204.56202 -0.0029098827 0.00013389077            0   -3315.3135   -3315.3135    37247.927    28.833263    27.440305     47.07815     1008 
     266            0    -14.45758   0.13878107   -54.693422    11.320983 -0.00030138088     -204.562 -0.0016391856 0.0001822849            0   -3315.3135   -3315.3135    37247.927    28.833263    27.440305     47.07815     1008 
     267            0   -14.457539   0.14603209   -54.693451    11.321074 -0.00023869996   -204.56196 -0.00094531482 0.00015998736            0   -3315.3135   -3315.3135    37247.927    28.833263    27.440305     47.07815     1008 
     268            0   -14.457491   0.15327191   -54.693466    11.321104 -0.00010988548   -204.56194 -0.00051638316 0.00016570424            0   -3315.3135   -3315.3135    37247.927    28.833263    27.440305     47.07815     1008 
     269            0   -14.457467   0.16052008   -54.693473     11.32112 -4.9049202e-05   -204.56193 -0.00024352515 0.00015426277            0   -3315.3135   -3315.3135    37247.927    28.833263    27.440305     47.07815     1008 
     270            0   -14.457472   0.16776299   -54.693473    11.321123 -6.4250738e-05   -204.56191 -0.00011722067 0.00012916215            0   -3315.3135   -3315.3135    37247.927    28.833263    27.440305     47.07815     1008 
     271            0   -14.457465   0.17502809   -54.693473     11.32112 -4.2867614e-05    -204.5619 -4.5718025e-05 0.00011922902            0   -3315.3135   -3315.3135    37247.927    28.833263    27.440305     47.07815     1008 
     272            0    -14.45746   0.18227601   -54.693472    11.321122 -2.8459429e-05    -204.5619 -1.5832891e-05 0.00011221885            0   -3315.3135   -3315.3135    37247.927    28.833263    27.440305     47.07815     1008 
     273            0   -14.457451   0.18952012   -54.693471    11.321127 -8.2769043e-06    -204.5619 -4.1108977e-07 0.0001051425            0   -3315.3135   -3315.3135    37247.927    28.833263    27.440305     47.07815     1008 
     274            0   -14.457447   0.19676399   -54.693471    11.321127 2.3454574e-06   -204.56189 5.9413009e-06 0.00010033131            0   -3315.3135   -3315.3135    37247.927    28.833263    27.440305     47.07815     1008 
     275            0    -14.45745   0.20400906   -54.693471    11.321124 -3.5967674e-06   -204.56189 4.3738054e-06 9.5481823e-05            0   -3315.3135   -3315.3135    37247.927    28.833263    27.440305     47.07815     1008 
     276            0    -14.45745   0.21125793   -54.693471    11.321123 -2.814391e-06   -204.56189 2.5989313e-06 9.1244624e-05            0   -3315.3135   -3315.3135    37247.927    28.833263    27.440305     47.07815     1008 
     277            0    -14.45745   0.21850801   -54.693471    11.321123 -1.6849808e-06   -204.56189 7.6605989e-07 8.6808712e-05            0   -3315.3135   -3315.3135    37247.927    28.833263    27.440305     47.07815     1008 
     278            0    -14.45745   0.22575307   -54.693471    11.321124 -2.0655982e-06   -204.56189 -8.6675887e-07 8.2892041e-05            0   -3315.3135   -3315.3135    37247.927    28.833263    27.440305     47.07815     1008 
     279            0   -14.457449   0.23299909   -54.693471    11.321125 -1.5227599e-06   -204.56189 -1.6531486e-06 7.8288995e-05            0   -3315.3135   -3315.3135    37247.927    28.833263    27.440305     47.07815     1008 
     280            0   -14.457448   0.24024606   -54.693471    11.321127 -5.2994539e-07   -204.56189 -1.8252047e-06 7.3209039e-05            0   -3315.3135   -3315.3135    37247.927    28.833263    27.440305     47.07815     1008 
     281            0   -14.457447   0.24749494   -54.693471     11.32113 8.3383385e-07   -204.56189 -1.7307017e-06 6.7023828e-05            0   -3315.3135   -3315.3135    37247.927    28.833263    27.440305     47.07815     1008 
     282            0   -14.457446   0.25474501   -54.693471    11.321132 1.0231125e-06   -204.56189 -1.5627269e-06 6.1161345e-05            0   -3315.3135   -3315.3135    37247.927    28.833263    27.440305     47.07815     1008 
     283            0   -14.457446   0.26198912   -54.693471    11.321133 -9.922305e-07   -204.56189 -1.5105695e-06 5.3393983e-05            0   -3315.3135   -3315.3135    37247.927    28.833263    27.440305     47.07815     1008 
     284            0   -14.457446    0.2692349   -54.693471    11.321134 -1.2372746e-06   -204.56189 -1.5427306e-06 4.3405233e-05            0   -3315.3135   -3315.3135    37247.927    28.833263    27.440305     47.07815     1008 
     285            0   -14.457446   0.27647901   -54.693471    11.321135 -8.2191522e-07   -204.56189 -1.3878978e-06 3.4672801e-05            0   -3315.3135   -3315.3135    37247.927    28.833263    27.440305     47.07815     1008 
     286            0   -14.457445   0.28373289   -54.693471    11.321135 -2.3497801e-07   -204.56189 -9.1989498e-07 2.6397071e-05            0   -3315.3135   -3315.3135    37247.927    28.833263    27.440305     47.07815     1008 
     287            0   -14.457445    0.2909801   -54.693471    11.321136 -8.7938296e-08   -204.56189 -3.4732586e-07 1.8858667e-05            0   -3315.3135   -3315.3135    37247.927    28.833263    27.440305     47.07815     1008 
     288            0   -14.457445   0.29822397   -54.693471    11.321136 1.7699379e-07   -204.56189 6.6962305e-07 1.295436e-05            0   -3315.3135   -3315.3135    37247.927    28.833263    27.440305     47.07815     1008 
     289            0   -14.457445   0.30547094   -54.693471    11.321136 -3.1751231e-07   -204.56189 1.2592908e-06 8.259081e-06            0   -3315.3135   -3315.3135    37247.927    28.833263    27.440305     47.07815     1008 
     290            0   -14.457445     0.312711   -54.693471    11.321136 -8.1848717e-07   -204.56189 1.2594085e-06 5.113268e-06            0   -3315.3135   -3315.3135    37247.927    28.833263    27.440305     47.07815     1008 
     291            0   -14.457445   0.31996894   -54.693471    11.321137 -7.5677404e-07   -204.56189 9.3845825e-07 3.0300541e-06            0   -3315.3135   -3315.3135    37247.927    28.833263    27.440305     47.07815     1008 
     292            0   -14.457445    0.3272171   -54.693471    11.321137 -4.559576e-07   -204.56189 5.2374273e-07 1.7348003e-06            0   -3315.3135   -3315.3135    37247.927    28.833263    27.440305     47.07815     1008 
     293            0   -14.457445   0.33446407   -54.693471    11.321137 -2.6218332e-07   -204.56189 1.9229253e-07 1.0094747e-06            0   -3315.3135   -3315.3135    37247.927    28.833263    27.440305     47.07815     1008 
     294            0   -14.457445   0.34171295   -54.693471    11.321137 -1.6345829e-07   -204.56189 -7.1801193e-09 6.2122307e-07            0   -3315.3135   -3315.3135    37247.927    28.833263    27.440305     47.07815     1008 
     295            0   -14.457445   0.34895301   -54.693471    11.321137 -1.2192376e-07   -204.56189 -9.213137e-08 4.1942623e-07            0   -3315.3135   -3315.3135    37247.927    28.833263    27.440305     47.07815     1008 
     296            0   -14.457445   0.35620213   -54.693471    11.321137 -1.323847e-07   -204.56189 -9.8878434e-08 2.8340426e-07            0   -3315.3135   -3315.3135    37247.927    28.833263    27.440305     47.07815     1008 
     297            0   -14.457445     0.363451   -54.693471    11.321138 -1.3674328e-07   -204.56189 -7.0450316e-08 1.9194213e-07            0   -3315.3135   -3315.3135    37247.927    28.833263    27.440305     47.07815     1008 
     298            0   -14.457445   0.37069511   -54.693471    11.321138 -1.1332324e-07   -204.56189 -5.8985914e-08 1.1983769e-07            0   -3315.3135   -3315.3135    37247.927    28.833263    27.440305     47.07815     1008 
     299            0   -14.457445    0.3779459   -54.693471    11.321138 -9.2070397e-08   -204.56189 -4.898813e-08 7.2999769e-08            0   -3315.3135   -3315.3135    37247.927    28.833263    27.440305     47.07815     1008 
     300            0   -14.457445   0.38518596   -54.693471    11.321138 -6.3156199e-08   -204.56189 -3.206558e-08  5.09491e-08            0   -3315.3135   -3315.3135    37247.927    28.833263    27.440305     47.07815     1008 
     301            0   -14.457444   0.39243102   -54.693471    11.321138 -5.2507695e-08   -204.56189 -2.0466256e-08 3.2189761e-08            0   -3315.3135   -3315.3135    37247.927    28.833263    27.440305     47.07815     1008 
     302            0   -14.457444    0.3996799   -54.693471    11.321138 -4.0808583e-08   -204.56189 -8.4193832e-09 1.7733205e-08            0   -3315.3135   -3315.3135    37247.927    28.833263    27.440305     47.07815     1008 
     303            0   -14.457444   0.40692496   -54.693471    11.321138 -3.7106146e-08   -204.56189 -3.4099575e-09 4.3849131e-09            0   -3315.3135   -3315.3135    37247.927    28.833263    27.440305     47.07815     1008 
     304            0   -14.457444   0.41417503   -54.693471    11.321138 -2.9144152e-08   -204.56189 -2.117634e-11 -2.4531573e-09            0   -3315.3135   -3315.3135    37247.927    28.833263    27.440305     47.07815     1008 
     305            0   -14.457444   0.42501211   -54.693471    11.321138 -2.0593307e-08   -204.56189 2.8701808e-09 -6.2309249e-09            0   -3315.3135   -3315.3135    37247.927    28.833263    27.440305     47.07815     1008 
Loop time of 0.42503 on 1 procs for 58 steps with 1008 atoms

99.8% CPU use with 1 MPI tasks x no OpenMP threads

Minimization stats:
  Stopping criterion = force tolerance
  Energy initial, next-to-last, final = 
        -3315.31345977     -3315.31345977     -3315.31345977
  Force two-norm initial, final = 5.16546e-05 9.87056e-11
  Force max component initial, final = 4.56529e-06 1.00456e-11
  Final line search alpha, max atom move = 1 1.00456e-11
  Iterations, force evaluations = 58 116

MPI task timing breakdown:
Section |  min time  |  avg time  |  max time  |%varavg| %total
---------------------------------------------------------------
Pair    | 0.41888    | 0.41888    | 0.41888    |   0.0 | 98.55
Neigh   | 0          | 0          | 0          |   0.0 |  0.00
Comm    | 0.0013852  | 0.0013852  | 0.0013852  |   0.0 |  0.33
Output  | 0.0018313  | 0.0018313  | 0.0018313  |   0.0 |  0.43
Modify  | 0          | 0          | 0          |   0.0 |  0.00
Other   |            | 0.002935   |            |       |  0.69

Nlocal:    1008 ave 1008 max 1008 min
Histogram: 1 0 0 0 0 0 0 0 0 0
Nghost:    1463 ave 1463 max 1463 min
Histogram: 1 0 0 0 0 0 0 0 0 0
Neighs:    57584 ave 57584 max 57584 min
Histogram: 1 0 0 0 0 0 0 0 0 0

Total # of neighbors = 57584
Ave neighs/atom = 57.127
Neighbor list builds = 0
Dangerous builds = 0
Reading restart file ...
  restart file = 13 Jan 2016, LAMMPS = 13 Jan 2016
  triclinic box = (0.185837 0.173904 0.0353877) to (29.0191 27.6142 47.1135) with tilt (8.87367 0 0)
  1 by 1 by 1 MPI processor grid
  1008 atoms
Changing box ...
  triclinic box = (0.185837 0.173904 0.0353877) to (29.0192 27.6142 47.1135) with tilt (8.87367 0 0)
Neighbor list info ...
  1 neighbor list requests
  update every 1 steps, delay 0 steps, check yes
  max neighbors/atom: 2000, page size: 100000
  master list distance cutoff = 7.72488
  ghost atom cutoff = 7.72488
Setting up cg style minimization ...
  Unit style: metal
Memory usage per processor = 3.38289 Mbytes
Step Temp Press CPU Pxx Pyy Pzz Pxy Pxz Pyz KinEng PotEng TotEng Volume Lx Ly Lz Atoms 
     247            0   -15.029819            0   -55.716314    10.869426  -0.24256797   -204.46077  0.013214367 -0.0061297196            0   -3315.3135   -3315.3135    37248.001     28.83332    27.440305     47.07815     1008 
     248            0   -14.989464 0.0072240829   -55.682474     10.89776  -0.18367903   -204.46071  0.014563025 -0.0035114886            0   -3315.3135   -3315.3135    37248.001     28.83332    27.440305     47.07815     1008 
     249            0   -14.957696  0.014448166   -55.653518    10.921538  -0.14110675   -204.46062    0.0146303 -0.0018714293            0   -3315.3135   -3315.3135    37248.001     28.83332    27.440305     47.07815     1008 
     250            0   -14.928519  0.021676064   -55.627939    10.942628   -0.1002464   -204.46034  0.013092346 -0.00076332442            0   -3315.3135   -3315.3135    37248.001     28.83332    27.440305     47.07815     1008 
     251            0   -14.894847  0.028894186   -55.599582    10.967737 -0.052696352   -204.46102 0.0098732308 -0.00036692851            0   -3315.3135   -3315.3135    37248.001     28.83332    27.440305     47.07815     1008 
     252            0   -14.881161  0.036122084   -55.589012    10.977834  -0.03230398   -204.46103  0.008912413 -0.00014890803            0   -3315.3135   -3315.3135    37248.001     28.83332    27.440305     47.07815     1008 
     253            0   -14.874159   0.04334712   -55.584575    10.983142 -0.021043168    -204.4609 0.0088680027 3.9220013e-05            0   -3315.3135   -3315.3135    37248.001     28.83332    27.440305     47.07815     1008 
     254            0   -14.869224  0.050569057   -55.581857    10.986992 -0.012806193   -204.46073 0.0084984802 -9.1757383e-05            0   -3315.3135   -3315.3135    37248.001     28.83332    27.440305     47.07815     1008 
     255            0    -14.86575  0.057796001   -55.580669    10.989389 -0.005971245   -204.46088 0.0085913231 -2.1568936e-05            0   -3315.3135   -3315.3135    37248.001     28.83332    27.440305     47.07815     1008 
     256            0   -14.863787  0.065015078   -55.580177    10.990609 -0.001792263   -204.46101   0.00884278 0.00012868986            0   -3315.3135   -3315.3135    37248.001     28.83332    27.440305     47.07815     1008 
     257            0   -14.863037  0.072240114   -55.579822    10.991057 -0.0003439709   -204.46089 0.0087965788 0.00021065902            0   -3315.3135   -3315.3135    37248.001     28.83332    27.440305     47.07815     1008 
     258            0   -14.862666  0.079462051   -55.579616    10.991315 0.00030259446   -204.46085 0.0085606633 0.00020165813            0   -3315.3135   -3315.3135    37248.001     28.83332    27.440305     47.07815     1008 
     259            0   -14.862369  0.086690187   -55.579439    10.991549 0.00078183556   -204.46077 0.0083014246 0.00024583629            0   -3315.3135   -3315.3135    37248.001     28.83332    27.440305     47.07815     1008 
     260            0   -14.862231  0.093919039   -55.579337    10.991728 0.00091589621   -204.46071 0.0080121545 0.00024907712            0   -3315.3135   -3315.3135    37248.001     28.83332    27.440305     47.07815     1008 
[...]
     290            0   -14.663121   0.31822085   -55.138138    11.148777 -5.719043e-08   -204.36303 -2.6080823e-07 -1.8787616e-06            0   -3315.3135   -3315.3135    37247.964    28.833291    27.440305     47.07815     1008 
     291            0   -14.663121   0.32562399   -55.138138    11.148776 -2.2138606e-08   -204.36303 -8.4769603e-08 -1.0184181e-06            0   -3315.3135   -3315.3135    37247.964    28.833291    27.440305     47.07815     1008 
     292            0   -14.663121   0.33302402   -55.138139    11.148776 -4.0352146e-07   -204.36303 -3.9338583e-08 -5.3874809e-07            0   -3315.3135   -3315.3135    37247.964    28.833291    27.440305     47.07815     1008 
     293            0   -14.663121   0.34042692   -55.138139    11.148776 -4.8787042e-07   -204.36303 -2.3322367e-08 -3.1241705e-07            0   -3315.3135   -3315.3135    37247.964    28.833291    27.440305     47.07815     1008 
     294            0   -14.663121   0.34781981   -55.138139    11.148776 -3.7018586e-07   -204.36303  1.43523e-09 -1.7879216e-07            0   -3315.3135   -3315.3135    37247.964    28.833291    27.440305     47.07815     1008 
     295            0   -14.663121   0.35521984   -55.138139    11.148776 -3.1076869e-07   -204.36303 1.5754286e-08 -1.0640156e-07            0   -3315.3135   -3315.3135    37247.964    28.833291    27.440305     47.07815     1008 
     296            0   -14.663121   0.36262989   -55.138139    11.148776 -2.2305294e-07   -204.36303 2.4177105e-08 -6.5156831e-08            0   -3315.3135   -3315.3135    37247.964    28.833291    27.440305     47.07815     1008 
     297            0   -14.663121   0.37002897   -55.138139    11.148776 -1.5246288e-07   -204.36303 2.1019967e-08 -4.2626478e-08            0   -3315.3135   -3315.3135    37247.964    28.833291    27.440305     47.07815     1008 
     298            0   -14.663121   0.37743497   -55.138138    11.148776 -1.2701515e-07   -204.36303 1.0508889e-08 -3.3723332e-08            0   -3315.3135   -3315.3135    37247.964    28.833291    27.440305     47.07815     1008 
     299            0   -14.663121   0.38483882   -55.138138    11.148776 -1.1294303e-07   -204.36303 1.8532255e-09 -2.7627554e-08            0   -3315.3135   -3315.3135    37247.964    28.833291    27.440305     47.07815     1008 
     300            0   -14.663121   0.39223385   -55.138138    11.148776 -1.1034601e-07   -204.36303 -2.7915068e-09 -2.1717736e-08            0   -3315.3135   -3315.3135    37247.964    28.833291    27.440305     47.07815     1008 
     301            0   -14.663121     0.403234   -55.138138    11.148776 -9.6694916e-08   -204.36303 -3.7830116e-09 -1.5123369e-08            0   -3315.3135   -3315.3135    37247.964    28.833291    27.440305     47.07815     1008 
Loop time of 0.403252 on 1 procs for 54 steps with 1008 atoms

100.2% CPU use with 1 MPI tasks x no OpenMP threads

Minimization stats:
  Stopping criterion = force tolerance
  Energy initial, next-to-last, final = 
        -3315.31346479     -3315.31346479     -3315.31346479
  Force two-norm initial, final = 1.53152e-05 8.85114e-11
  Force max component initial, final = 2.69506e-06 5.13529e-12
  Final line search alpha, max atom move = 1 5.13529e-12
  Iterations, force evaluations = 54 108

MPI task timing breakdown:
Section |  min time  |  avg time  |  max time  |%varavg| %total
---------------------------------------------------------------
Pair    | 0.39758    | 0.39758    | 0.39758    |   0.0 | 98.59
Neigh   | 0          | 0          | 0          |   0.0 |  0.00
Comm    | 0.0012808  | 0.0012808  | 0.0012808  |   0.0 |  0.32
Output  | 0.0017037  | 0.0017037  | 0.0017037  |   0.0 |  0.42
Modify  | 0          | 0          | 0          |   0.0 |  0.00
Other   |            | 0.002684   |            |       |  0.67

Nlocal:    1008 ave 1008 max 1008 min
Histogram: 1 0 0 0 0 0 0 0 0 0
Nghost:    1463 ave 1463 max 1463 min
Histogram: 1 0 0 0 0 0 0 0 0 0
Neighs:    57584 ave 57584 max 57584 min
Histogram: 1 0 0 0 0 0 0 0 0 0

Total # of neighbors = 57584
Ave neighs/atom = 57.127
Neighbor list builds = 0
Dangerous builds = 0
Reading restart file ...
  restart file = 13 Jan 2016, LAMMPS = 13 Jan 2016
  triclinic box = (0.185837 0.173904 0.0353877) to (29.0191 27.6142 47.1135) with tilt (8.87367 0 0)
  1 by 1 by 1 MPI processor grid
  1008 atoms
Changing box ...
  triclinic box = (0.185837 0.173904 0.0353877) to (29.0191 27.6142 47.1135) with tilt (8.8737 0 0)
Neighbor list info ...
  1 neighbor list requests
  update every 1 steps, delay 0 steps, check yes
  max neighbors/atom: 2000, page size: 100000
  master list distance cutoff = 7.72488
  ghost atom cutoff = 7.72488
Setting up cg style minimization ...
  Unit style: metal
Memory usage per processor = 3.38289 Mbytes
Step Temp Press CPU Pxx Pyy Pzz Pxy Pxz Pyz KinEng PotEng TotEng Volume Lx Ly Lz Atoms 
     247            0   -14.657687            0    -55.13539    11.161451 0.0008793424    -204.6647 -0.0061636542 0.00010599864            0   -3315.3135   -3315.3135    37247.964    28.833291    27.440305     47.07815     1008 
     248            0   -14.657921 0.0073988438   -55.134573    11.162011 -0.0012001496   -204.66234 -0.0054451233 0.00024913009            0   -3315.3135   -3315.3135    37247.964    28.833291    27.440305     47.07815     1008 
     249            0    -14.65775   0.01480484   -55.134093    11.162686 -0.0018430714   -204.66104 -0.0046825048 0.00048565666            0   -3315.3135   -3315.3135    37247.964    28.833291    27.440305     47.07815     1008 
     250            0   -14.657252  0.022203922   -55.133811    11.163192 -0.0011372761   -204.66054 -0.0041020984 0.00062563422            0   -3315.3135   -3315.3135    37247.964    28.833291    27.440305     47.07815     1008 
     251            0   -14.657229  0.029601812   -55.133883      11.1634 -0.0012036654   -204.66029  -0.00377821 0.00057616945            0   -3315.3135   -3315.3135    37247.964    28.833291    27.440305     47.07815     1008 
     252            0   -14.657109  0.036996841   -55.133951    11.163568 -0.00094573667   -204.66016 -0.003530263 0.00049817287            0   -3315.3135   -3315.3135    37247.964    28.833291    27.440305     47.07815     1008 
     253            0   -14.656989  0.044395924   -55.133935    11.163719 -0.0007498731   -204.66009 -0.0033242569 0.00045246349            0   -3315.3135   -3315.3135    37247.964    28.833291    27.440305     47.07815     1008 
     254            0   -14.656797   0.05179882   -55.133859    11.163896 -0.00042705198   -204.66006 -0.0031226833 0.00041062731            0   -3315.3135   -3315.3135    37247.964    28.833291    27.440305     47.07815     1008 
     255            0   -14.656789  0.059195995   -55.133908    11.163928 -0.0003867658   -204.66004 -0.002956235 0.00037216566            0   -3315.3135   -3315.3135    37247.964    28.833291    27.440305     47.07815     1008 
     256            0   -14.656857    0.0666008   -55.133992    11.163926 -0.00050544267   -204.66002 -0.0028077585 0.0003120145            0   -3315.3135   -3315.3135    37247.964    28.833291    27.440305     47.07815     1008 
     257            0   -14.656747  0.073996782   -55.133968     11.16403 -0.00030272278   -204.66001 -0.0026053788 0.00027445243            0   -3315.3135   -3315.3135    37247.964    28.833291    27.440305     47.07815     1008 
     258            0   -14.656575  0.081394911   -55.133919    11.164194 -1.3485014e-06      -204.66 -0.0022822885 0.00021324163            0   -3315.3135   -3315.3135    37247.964    28.833291    27.440305     47.07815     1008 
     259            0   -14.656476  0.088796854   -55.133903    11.164316 0.00015771703   -204.65999 -0.0019503673 0.00014264057            0   -3315.3135   -3315.3135    37247.964    28.833291    27.440305     47.07815     1008 
     260            0    -14.65636   0.09619379   -55.133861    11.164413 0.00036737957   -204.65998 -0.0016598749 9.7698515e-05            0   -3315.3135   -3315.3135    37247.964    28.833291    27.440305     47.07815     1008 
     261            0   -14.656296   0.10360098   -55.133847    11.164459 0.00050044313   -204.65997 -0.0012914698 6.4611036e-05            0   -3315.3135   -3315.3135    37247.964    28.833291    27.440305     47.07815     1008 
     262            0   -14.656289   0.11100483   -55.133869    11.164447 0.00055366184   -204.65996 -0.00094286786 5.138486e-05            0   -3315.3135   -3315.3135    37247.964    28.833291    27.440305     47.07815     1008 
     263            0   -14.656346    0.1183989   -55.133919    11.164393 0.00048628756   -204.65995 -0.00070563867 4.6753567e-05            0   -3315.3135   -3315.3135    37247.964    28.833291    27.440305     47.07815     1008 
     264            0   -14.656405   0.12579679   -55.133958    11.164346 0.00039497777   -204.65995 -0.0005340548 4.4470786e-05            0   -3315.3135   -3315.3135    37247.964    28.833291    27.440305     47.07815     1008 
     265            0     -14.6564   0.13319278   -55.133948    11.164338 0.00041016645   -204.65994 -0.00037659604 6.0996311e-05            0   -3315.3135   -3315.3135    37247.964    28.833291    27.440305     47.07815     1008 
     266            0    -14.65643   0.14059496   -55.133965    11.164305 0.00036956613   -204.65994 -0.00024104413 8.0838474e-05            0   -3315.3135   -3315.3135    37247.964    28.833291    27.440305     47.07815     1008 
     267            0   -14.656492   0.14799786   -55.134006    11.164253 0.00027675782   -204.65994 -0.00015133533 9.0515016e-05            0   -3315.3135   -3315.3135    37247.964    28.833291    27.440305     47.07815     1008 
     268            0   -14.656535   0.15539479   -55.134033    11.164216 0.00021311341   -204.65994 -0.00010059616 8.6492897e-05            0   -3315.3135   -3315.3135    37247.964    28.833291    27.440305     47.07815     1008 
     269            0   -14.656586   0.16279697   -55.134065    11.164175 0.00013293529   -204.65994 -5.9603471e-05 7.3900849e-05            0   -3315.3135   -3315.3135    37247.964    28.833291    27.440305     47.07815     1008 
     270            0   -14.656638   0.17021084   -55.134105    11.164134 5.8290099e-05   -204.65994 -2.5194937e-05 5.7126683e-05            0   -3315.3135   -3315.3135    37247.964    28.833291    27.440305     47.07815     1008 
     271            0   -14.656661   0.17760587   -55.134126    11.164117 2.6965047e-05   -204.65994 -8.5274256e-06 4.4504217e-05            0   -3315.3135   -3315.3135    37247.964    28.833291    27.440305     47.07815     1008 
     272            0   -14.656669   0.18500495   -55.134135    11.164112 1.6287758e-05   -204.65994 -1.4547767e-06 3.6272945e-05            0   -3315.3135   -3315.3135    37247.964    28.833291    27.440305     47.07815     1008 
     273            0   -14.656671   0.19240093   -55.134141    11.164111 1.5685466e-05   -204.65994 2.3870248e-06 3.1034656e-05            0   -3315.3135   -3315.3135    37247.964    28.833291    27.440305     47.07815     1008 
     274            0   -14.656674   0.19980288   -55.134144    11.164109 1.249415e-05   -204.65994 3.0818503e-06 2.8045024e-05            0   -3315.3135   -3315.3135    37247.964    28.833291    27.440305     47.07815     1008 
     275            0   -14.656679   0.20720601   -55.134148    11.164105 4.6430866e-06   -204.65994 2.3707309e-06 2.5788094e-05            0   -3315.3135   -3315.3135    37247.964    28.833291    27.440305     47.07815     1008 
     276            0   -14.656682   0.21460199    -55.13415    11.164103 1.1373943e-07   -204.65994 2.0563869e-06 2.4011788e-05            0   -3315.3135   -3315.3135    37247.964    28.833291    27.440305     47.07815     1008 
     277            0   -14.656683   0.22199988   -55.134151    11.164102 -1.2674297e-06   -204.65994 1.874639e-06 2.2695691e-05            0   -3315.3135   -3315.3135    37247.964    28.833291    27.440305     47.07815     1008 
     278            0   -14.656684   0.22939897   -55.134151    11.164102 -1.3506091e-06   -204.65994 1.9358751e-06 2.1720506e-05            0   -3315.3135   -3315.3135    37247.964    28.833291    27.440305     47.07815     1008 
     279            0   -14.656683   0.23680401   -55.134151    11.164102 -9.3823863e-07   -204.65994 2.062113e-06 2.0823444e-05            0   -3315.3135   -3315.3135    37247.964    28.833291    27.440305     47.07815     1008 
     280            0   -14.656683   0.24420691   -55.134151    11.164102 -5.8788955e-07   -204.65994 2.1745981e-06 1.9864339e-05            0   -3315.3135   -3315.3135    37247.964    28.833291    27.440305     47.07815     1008 
     281            0   -14.656683   0.25160384   -55.134151    11.164103 -5.9571709e-07   -204.65994 2.2375221e-06 1.858203e-05            0   -3315.3135   -3315.3135    37247.964    28.833291    27.440305     47.07815     1008 
     282            0   -14.656683   0.25900793   -55.134151    11.164103 -1.0944939e-06   -204.65994 2.1256346e-06 1.6907863e-05            0   -3315.3135   -3315.3135    37247.964    28.833291    27.440305     47.07815     1008 
     283            0   -14.656684   0.26640987   -55.134151    11.164103 -2.210049e-06   -204.65994 1.8829167e-06 1.5157601e-05            0   -3315.3135   -3315.3135    37247.964    28.833291    27.440305     47.07815     1008 
     284            0   -14.656683    0.2738049   -55.134151    11.164103 -2.1231658e-06   -204.65994 1.6951797e-06 1.3359902e-05            0   -3315.3135   -3315.3135    37247.964    28.833291    27.440305     47.07815     1008 
     285            0   -14.656683   0.28120494   -55.134151    11.164104 -9.1570342e-07   -204.65994 1.480631e-06 1.1481674e-05            0   -3315.3135   -3315.3135    37247.964    28.833291    27.440305     47.07815     1008 
     286            0   -14.656682   0.28860497    -55.13415    11.164104 -5.588039e-07   -204.65994 1.3119518e-06 9.5965347e-06            0   -3315.3135   -3315.3135    37247.964    28.833291    27.440305     47.07815     1008 
     287            0   -14.656682   0.29600787    -55.13415    11.164104 6.2230977e-09   -204.65994 1.1463557e-06 7.4320047e-06            0   -3315.3135   -3315.3135    37247.964    28.833291    27.440305     47.07815     1008 
     288            0   -14.656682   0.30341101    -55.13415    11.164105 1.197874e-07   -204.65994 7.8300363e-07 5.1558414e-06            0   -3315.3135   -3315.3135    37247.964    28.833291    27.440305     47.07815     1008 
     289            0   -14.656682    0.3108089   -55.134151    11.164105 1.6666654e-07   -204.65994 4.7810676e-07 3.2058386e-06            0   -3315.3135   -3315.3135    37247.964    28.833291    27.440305     47.07815     1008 
     290            0   -14.656682   0.31821084    -55.13415    11.164105 5.6792495e-08   -204.65994 2.6088471e-07 1.8791223e-06            0   -3315.3135   -3315.3135    37247.964    28.833291    27.440305     47.07815     1008 
     291            0   -14.656682   0.32560492    -55.13415    11.164105 2.1896659e-08   -204.65994 8.4835597e-08 1.0187162e-06            0   -3315.3135   -3315.3135    37247.964    28.833291    27.440305     47.07815     1008 
     292            0   -14.656681     0.333004    -55.13415    11.164106 4.0310093e-07   -204.65994 3.9359765e-08 5.3892765e-07            0   -3315.3135   -3315.3135    37247.964    28.833291    27.440305     47.07815     1008 
     293            0   -14.656681   0.34040689    -55.13415    11.164106 4.8780411e-07   -204.65994 2.3350272e-08 3.1254129e-07            0   -3315.3135   -3315.3135    37247.964    28.833291    27.440305     47.07815     1008 
     294            0   -14.656681   0.34780383    -55.13415    11.164106 3.700004e-07   -204.65994 -1.419179e-09 1.7885836e-07            0   -3315.3135   -3315.3135    37247.964    28.833291    27.440305     47.07815     1008 
     295            0   -14.656681   0.35520792    -55.13415    11.164106 3.1069287e-07   -204.65994 -1.5751024e-08 1.0643491e-07            0   -3315.3135   -3315.3135    37247.964    28.833291    27.440305     47.07815     1008 
     296            0   -14.656681   0.36261296    -55.13415    11.164106 2.2295571e-07   -204.65994 -2.4175659e-08 6.5172271e-08            0   -3315.3135   -3315.3135    37247.964    28.833291    27.440305     47.07815     1008 
     297            0   -14.656681   0.37000585    -55.13415    11.164106 1.5243068e-07   -204.65994 -2.1019374e-08 4.2631609e-08            0   -3315.3135   -3315.3135    37247.964    28.833291    27.440305     47.07815     1008 
     298            0   -14.656682   0.37740779    -55.13415    11.164105 1.2693547e-07   -204.65994 -1.051211e-08 3.3726201e-08            0   -3315.3135   -3315.3135    37247.964    28.833291    27.440305     47.07815     1008 
     299            0   -14.656682   0.38480401    -55.13415    11.164105 1.1295178e-07   -204.65994 -1.8514427e-09 2.7628657e-08            0   -3315.3135   -3315.3135    37247.964    28.833291    27.440305     47.07815     1008 
     300            0   -14.656682   0.39220691    -55.13415    11.164105 1.1029538e-07   -204.65994 2.7895294e-09 2.1715247e-08            0   -3315.3135   -3315.3135    37247.964    28.833291    27.440305     47.07815     1008 
     301            0   -14.656682   0.40320992    -55.13415    11.164105 9.6680948e-08   -204.65994 3.7856623e-09 1.5124767e-08            0   -3315.3135   -3315.3135    37247.964    28.833291    27.440305     47.07815     1008 
Loop time of 0.403229 on 1 procs for 54 steps with 1008 atoms

99.2% CPU use with 1 MPI tasks x no OpenMP threads

Minimization stats:
  Stopping criterion = force tolerance
  Energy initial, next-to-last, final = 
        -3315.31345528     -3315.31345528     -3315.31345528
  Force two-norm initial, final = 1.53152e-05 8.84889e-11
  Force max component initial, final = 2.69508e-06 5.14449e-12
  Final line search alpha, max atom move = 1 5.14449e-12
  Iterations, force evaluations = 54 108

MPI task timing breakdown:
Section |  min time  |  avg time  |  max time  |%varavg| %total
---------------------------------------------------------------
Pair    | 0.39755    | 0.39755    | 0.39755    |   0.0 | 98.59
Neigh   | 0          | 0          | 0          |   0.0 |  0.00
Comm    | 0.0012772  | 0.0012772  | 0.0012772  |   0.0 |  0.32
Output  | 0.0017121  | 0.0017121  | 0.0017121  |   0.0 |  0.42
Modify  | 0          | 0          | 0          |   0.0 |  0.00
Other   |            | 0.002686   |            |       |  0.67

Nlocal:    1008 ave 1008 max 1008 min
Histogram: 1 0 0 0 0 0 0 0 0 0
Nghost:    1463 ave 1463 max 1463 min
Histogram: 1 0 0 0 0 0 0 0 0 0
Neighs:    57584 ave 57584 max 57584 min
Histogram: 1 0 0 0 0 0 0 0 0 0

Total # of neighbors = 57584
Ave neighs/atom = 57.127
Neighbor list builds = 0
Dangerous builds = 0
Elastic Constant C11all = 44.2671251683198 GPa
Elastic Constant C22all = 44.786878283325 GPa
Elastic Constant C33all = 2.45518094743602e-09 GPa
Elastic Constant C12all = 16.3424391279825 GPa
Elastic Constant C13all = -0.00275836673017693 GPa
Elastic Constant C23all = 0.000557790302480043 GPa
Elastic Constant C44all = 1.50066625792533e-11 GPa
Elastic Constant C55all = 3.30146576743573e-10 GPa
Elastic Constant C66all = 14.84540693465 GPa
Elastic Constant C14all = -3.84997520086472e-07 GPa
Elastic Constant C15all = -5.9662397688953e-08 GPa
Elastic Constant C16all = -2.62022058865 GPa
Elastic Constant C24all = -8.64899334374055e-08 GPa
Elastic Constant C25all = -1.50917344399204e-07 GPa
Elastic Constant C26all = -0.766466073454979 GPa
Elastic Constant C34all = -7.33332763047657e-06 GPa
Elastic Constant C35all = 5.49865990251419e-06 GPa
Elastic Constant C36all = -0.0102301582224413 GPa
Elastic Constant C45all = -7.89130012890382e-07 GPa
Elastic Constant C46all = -8.58780083490272e-07 GPa
Elastic Constant C56all = -1.68567396485742e-07 GPa
Total wall time: 0:00:07
