LAMMPS data file via write_data, version 13 Jan 2016, timestep = 503

500 atoms
1 atom types

1.0916772626562797e-01 2.0140832111734358e+01 xlo xhi
1.0916772576548273e-01 2.0140832111234513e+01 ylo yhi
2.1027812988680106e-02 4.8578971796011317e+01 zlo zhi
0.0000000000000000e+00 0.0000000000000000e+00 0.0000000000000000e+00 xy xz yz

Masses

1 26.982

Atoms # charge

1 1 0.0000000000000000e+00 2.0140832111634921e+01 1.0916772611202609e-01 1.5266556145514009e+01 -1 0 0
2 1 0.0000000000000000e+00 2.0140832111634925e+01 4.1155006032065646e+00 1.5266556145516926e+01 -1 0 0
3 1 0.0000000000000000e+00 2.0140832111634928e+01 8.1218334802996370e+00 1.5266556145519848e+01 -1 0 0
4 1 0.0000000000000000e+00 2.0140832111634911e+01 1.2128166357392274e+01 1.5266556145518742e+01 -1 0 0
5 1 0.0000000000000000e+00 2.0140832111634932e+01 1.6134499234486068e+01 1.5266556145515121e+01 -1 0 0
6 1 0.0000000000000000e+00 4.1155006032587664e+00 1.0916772611202004e-01 1.5266556145509284e+01 0 0 0
7 1 0.0000000000000000e+00 4.1155006032587602e+00 4.1155006032065522e+00 1.5266556145512194e+01 0 0 0
8 1 0.0000000000000000e+00 4.1155006032587593e+00 8.1218334802996406e+00 1.5266556145515111e+01 0 0 0
9 1 0.0000000000000000e+00 4.1155006032587700e+00 1.2128166357392280e+01 1.5266556145513999e+01 0 0 0
10 1 0.0000000000000000e+00 4.1155006032587620e+00 1.6134499234486061e+01 1.5266556145510398e+01 0 0 0
11 1 0.0000000000000000e+00 8.1218334803536827e+00 1.0916772611201678e-01 1.5266556145504582e+01 0 0 0
12 1 0.0000000000000000e+00 8.1218334803536845e+00 4.1155006032065575e+00 1.5266556145507487e+01 0 0 0
13 1 0.0000000000000000e+00 8.1218334803536862e+00 8.1218334802996335e+00 1.5266556145510414e+01 0 0 0
14 1 0.0000000000000000e+00 8.1218334803536916e+00 1.2128166357392258e+01 1.5266556145509290e+01 0 0 0
15 1 0.0000000000000000e+00 8.1218334803536845e+00 1.6134499234486061e+01 1.5266556145505687e+01 0 0 0
16 1 0.0000000000000000e+00 1.2128166357449311e+01 1.0916772611201825e-01 1.5266556145506366e+01 0 0 0
17 1 0.0000000000000000e+00 1.2128166357449320e+01 4.1155006032065540e+00 1.5266556145509274e+01 0 0 0
18 1 0.0000000000000000e+00 1.2128166357449318e+01 8.1218334802996335e+00 1.5266556145512199e+01 0 0 0
19 1 0.0000000000000000e+00 1.2128166357449320e+01 1.2128166357392271e+01 1.5266556145511080e+01 0 0 0
20 1 0.0000000000000000e+00 1.2128166357449324e+01 1.6134499234486057e+01 1.5266556145507479e+01 0 0 0
21 1 0.0000000000000000e+00 1.6134499234543071e+01 1.0916772611201428e-01 1.5266556145512196e+01 0 0 0
22 1 0.0000000000000000e+00 1.6134499234543053e+01 4.1155006032065513e+00 1.5266556145515105e+01 0 0 0
23 1 0.0000000000000000e+00 1.6134499234543068e+01 8.1218334802996370e+00 1.5266556145518040e+01 0 0 0
24 1 0.0000000000000000e+00 1.6134499234543075e+01 1.2128166357392278e+01 1.5266556145516926e+01 0 0 0
25 1 0.0000000000000000e+00 1.6134499234543071e+01 1.6134499234486064e+01 1.5266556145513311e+01 0 0 0
26 1 0.0000000000000000e+00 2.1123341647122227e+00 2.1123341646594533e+00 1.5266556145513309e+01 0 0 0
27 1 0.0000000000000000e+00 2.1123341647122067e+00 6.1186670417532580e+00 1.5266556145516915e+01 0 0 0
28 1 0.0000000000000000e+00 2.1123341647122156e+00 1.0124999918845885e+01 1.5266556145518043e+01 0 0 0
29 1 0.0000000000000000e+00 2.1123341647122165e+00 1.4131332795938990e+01 1.5266556145515121e+01 0 0 0
30 1 0.0000000000000000e+00 2.1123341647122178e+00 1.8137665673033521e+01 1.5266556145512201e+01 0 0 0
31 1 0.0000000000000000e+00 6.1186670418059697e+00 2.1123341646594511e+00 1.5266556145507485e+01 0 0 0
32 1 0.0000000000000000e+00 6.1186670418059768e+00 6.1186670417532643e+00 1.5266556145511084e+01 0 0 0
33 1 0.0000000000000000e+00 6.1186670418059750e+00 1.0124999918845903e+01 1.5266556145512201e+01 0 0 0
34 1 0.0000000000000000e+00 6.1186670418059599e+00 1.4131332795938990e+01 1.5266556145509274e+01 0 0 0
35 1 0.0000000000000000e+00 6.1186670418059705e+00 1.8137665673033528e+01 1.5266556145506380e+01 0 0 0
36 1 0.0000000000000000e+00 1.0124999918901597e+01 2.1123341646594556e+00 1.5266556145505692e+01 0 0 0
37 1 0.0000000000000000e+00 1.0124999918901597e+01 6.1186670417532669e+00 1.5266556145509288e+01 0 0 0
38 1 0.0000000000000000e+00 1.0124999918901594e+01 1.0124999918845903e+01 1.5266556145510419e+01 0 0 0
39 1 0.0000000000000000e+00 1.0124999918901601e+01 1.4131332795938990e+01 1.5266556145507487e+01 0 0 0
40 1 0.0000000000000000e+00 1.0124999918901597e+01 1.8137665673033531e+01 1.5266556145504575e+01 0 0 0
41 1 0.0000000000000000e+00 1.4131332795996524e+01 2.1123341646594649e+00 1.5266556145510391e+01 0 0 0
42 1 0.0000000000000000e+00 1.4131332795996522e+01 6.1186670417532669e+00 1.5266556145513983e+01 0 0 0
43 1 0.0000000000000000e+00 1.4131332795996526e+01 1.0124999918845894e+01 1.5266556145515118e+01 0 0 0
44 1 0.0000000000000000e+00 1.4131332795996521e+01 1.4131332795938981e+01 1.5266556145512196e+01 0 0 0
45 1 0.0000000000000000e+00 1.4131332795996521e+01 1.8137665673033524e+01 1.5266556145509277e+01 0 0 0
46 1 0.0000000000000000e+00 1.8137665673089103e+01 2.1123341646594507e+00 1.5266556145515112e+01 0 0 0
47 1 0.0000000000000000e+00 1.8137665673089106e+01 6.1186670417532714e+00 1.5266556145518724e+01 0 0 0
48 1 0.0000000000000000e+00 1.8137665673089099e+01 1.0124999918845903e+01 1.5266556145519852e+01 0 0 0
49 1 0.0000000000000000e+00 1.8137665673089089e+01 1.4131332795938974e+01 1.5266556145516926e+01 0 0 0
50 1 0.0000000000000000e+00 1.8137665673089089e+01 1.8137665673033521e+01 1.5266556145514009e+01 0 0 0
51 1 0.0000000000000000e+00 2.0140832111635600e+01 2.1123341646583511e+00 1.7199126342757364e+01 -1 0 0
52 1 0.0000000000000000e+00 2.0140832111635600e+01 6.1186670417521505e+00 1.7199126342760874e+01 -1 0 0
53 1 0.0000000000000000e+00 2.0140832111635603e+01 1.0124999918846322e+01 1.7199126342761989e+01 -1 0 0
54 1 0.0000000000000000e+00 2.0140832111635607e+01 1.4131332795940351e+01 1.7199126342759133e+01 -1 0 0
55 1 0.0000000000000000e+00 2.0140832111635593e+01 1.8137665673033947e+01 1.7199126342756276e+01 -1 0 0
56 1 0.0000000000000000e+00 4.1155006032609620e+00 2.1123341646583476e+00 1.7199126342752709e+01 0 0 0
57 1 0.0000000000000000e+00 4.1155006032609718e+00 6.1186670417521611e+00 1.7199126342756262e+01 0 0 0
58 1 0.0000000000000000e+00 4.1155006032609620e+00 1.0124999918846317e+01 1.7199126342757360e+01 0 0 0
59 1 0.0000000000000000e+00 4.1155006032609647e+00 1.4131332795940352e+01 1.7199126342754489e+01 0 0 0
60 1 0.0000000000000000e+00 4.1155006032609691e+00 1.8137665673033947e+01 1.7199126342751619e+01 0 0 0
61 1 0.0000000000000000e+00 8.1218334803543542e+00 2.1123341646583547e+00 1.7199126342748080e+01 0 0 0
62 1 0.0000000000000000e+00 8.1218334803543524e+00 6.1186670417521638e+00 1.7199126342751622e+01 0 0 0
63 1 0.0000000000000000e+00 8.1218334803543701e+00 1.0124999918846322e+01 1.7199126342752720e+01 0 0 0
64 1 0.0000000000000000e+00 8.1218334803543684e+00 1.4131332795940354e+01 1.7199126342749878e+01 0 0 0
65 1 0.0000000000000000e+00 8.1218334803543453e+00 1.8137665673033943e+01 1.7199126342746990e+01 0 0 0
66 1 0.0000000000000000e+00 1.2128166357447538e+01 2.1123341646583564e+00 1.7199126342749857e+01 0 0 0
67 1 0.0000000000000000e+00 1.2128166357447530e+01 6.1186670417521523e+00 1.7199126342753406e+01 0 0 0
68 1 0.0000000000000000e+00 1.2128166357447538e+01 1.0124999918846319e+01 1.7199126342754504e+01 0 0 0
69 1 0.0000000000000000e+00 1.2128166357447537e+01 1.4131332795940358e+01 1.7199126342751619e+01 0 0 0
70 1 0.0000000000000000e+00 1.2128166357447538e+01 1.8137665673033947e+01 1.7199126342748784e+01 0 0 0
71 1 0.0000000000000000e+00 1.6134499234541252e+01 2.1123341646583591e+00 1.7199126342755580e+01 0 0 0
72 1 0.0000000000000000e+00 1.6134499234541284e+01 6.1186670417521674e+00 1.7199126342759140e+01 0 0 0
73 1 0.0000000000000000e+00 1.6134499234541266e+01 1.0124999918846317e+01 1.7199126342760209e+01 0 0 0
74 1 0.0000000000000000e+00 1.6134499234541266e+01 1.4131332795940351e+01 1.7199126342757328e+01 0 0 0
75 1 0.0000000000000000e+00 1.6134499234541277e+01 1.8137665673033943e+01 1.7199126342754489e+01 0 0 0
76 1 0.0000000000000000e+00 2.1123341647140093e+00 1.0916772611160581e-01 1.7199126342754489e+01 0 0 0
77 1 0.0000000000000000e+00 2.1123341647139986e+00 4.1155006032051915e+00 1.7199126342757335e+01 0 0 0
78 1 0.0000000000000000e+00 2.1123341647140021e+00 8.1218334802992320e+00 1.7199126342760213e+01 0 0 0
79 1 0.0000000000000000e+00 2.1123341647139968e+00 1.2128166357393374e+01 1.7199126342759129e+01 0 0 0
80 1 0.0000000000000000e+00 2.1123341647140044e+00 1.6134499234487169e+01 1.7199126342755580e+01 0 0 0
81 1 0.0000000000000000e+00 6.1186670418077416e+00 1.0916772611159817e-01 1.7199126342748759e+01 0 0 0
82 1 0.0000000000000000e+00 6.1186670418077478e+00 4.1155006032051942e+00 1.7199126342751626e+01 0 0 0
83 1 0.0000000000000000e+00 6.1186670418077505e+00 8.1218334802992089e+00 1.7199126342754507e+01 0 0 0
84 1 0.0000000000000000e+00 6.1186670418077416e+00 1.2128166357393368e+01 1.7199126342753420e+01 0 0 0
85 1 0.0000000000000000e+00 6.1186670418077398e+00 1.6134499234487180e+01 1.7199126342749867e+01 0 0 0
86 1 0.0000000000000000e+00 1.0124999918900935e+01 1.0916772611160720e-01 1.7199126342746993e+01 0 0 0
87 1 0.0000000000000000e+00 1.0124999918900942e+01 4.1155006032051960e+00 1.7199126342749864e+01 0 0 0
88 1 0.0000000000000000e+00 1.0124999918900924e+01 8.1218334802992196e+00 1.7199126342752717e+01 0 0 0
89 1 0.0000000000000000e+00 1.0124999918900915e+01 1.2128166357393360e+01 1.7199126342751629e+01 0 0 0
90 1 0.0000000000000000e+00 1.0124999918900929e+01 1.6134499234487162e+01 1.7199126342748105e+01 0 0 0
91 1 0.0000000000000000e+00 1.4131332795994329e+01 1.0916772611160962e-01 1.7199126342751640e+01 0 0 0
92 1 0.0000000000000000e+00 1.4131332795994336e+01 4.1155006032051835e+00 1.7199126342754479e+01 0 0 0
93 1 0.0000000000000000e+00 1.4131332795994332e+01 8.1218334802992249e+00 1.7199126342757335e+01 0 0 0
94 1 0.0000000000000000e+00 1.4131332795994336e+01 1.2128166357393368e+01 1.7199126342756252e+01 0 0 0
95 1 0.0000000000000000e+00 1.4131332795994332e+01 1.6134499234487176e+01 1.7199126342752720e+01 0 0 0
96 1 0.0000000000000000e+00 1.8137665673088424e+01 1.0916772611159355e-01 1.7199126342756269e+01 0 0 0
97 1 0.0000000000000000e+00 1.8137665673088421e+01 4.1155006032052048e+00 1.7199126342759133e+01 0 0 0
98 1 0.0000000000000000e+00 1.8137665673088406e+01 8.1218334802992125e+00 1.7199126342761989e+01 0 0 0
99 1 0.0000000000000000e+00 1.8137665673088428e+01 1.2128166357393370e+01 1.7199126342760866e+01 0 0 0
100 1 0.0000000000000000e+00 1.8137665673088417e+01 1.6134499234487190e+01 1.7199126342757367e+01 0 0 0
101 1 0.0000000000000000e+00 2.0140832111635987e+01 1.0916772611136431e-01 1.9170477538626937e+01 -1 0 0
102 1 0.0000000000000000e+00 2.0140832111635998e+01 4.1155006032043957e+00 1.9170477538629228e+01 -1 0 0
103 1 0.0000000000000000e+00 2.0140832111635998e+01 8.1218334802989816e+00 1.9170477538631520e+01 -1 0 0
104 1 0.0000000000000000e+00 2.0140832111635998e+01 1.2128166357394031e+01 1.9170477538630632e+01 -1 0 0
105 1 0.0000000000000000e+00 2.0140832111635980e+01 1.6134499234487812e+01 1.9170477538627807e+01 -1 0 0
106 1 0.0000000000000000e+00 4.1155006032622419e+00 1.0916772611136577e-01 1.9170477538623242e+01 0 0 0
107 1 0.0000000000000000e+00 4.1155006032622410e+00 4.1155006032044010e+00 1.9170477538625533e+01 0 0 0
108 1 0.0000000000000000e+00 4.1155006032622481e+00 8.1218334802989709e+00 1.9170477538627804e+01 0 0 0
109 1 0.0000000000000000e+00 4.1155006032622543e+00 1.2128166357394013e+01 1.9170477538626940e+01 0 0 0
110 1 0.0000000000000000e+00 4.1155006032622552e+00 1.6134499234487809e+01 1.9170477538624112e+01 0 0 0
111 1 0.0000000000000000e+00 8.1218334803547485e+00 1.0916772611136571e-01 1.9170477538619576e+01 0 0 0
112 1 0.0000000000000000e+00 8.1218334803547432e+00 4.1155006032044001e+00 1.9170477538621853e+01 0 0 0
113 1 0.0000000000000000e+00 8.1218334803547414e+00 8.1218334802989762e+00 1.9170477538624130e+01 0 0 0
114 1 0.0000000000000000e+00 8.1218334803547414e+00 1.2128166357394022e+01 1.9170477538623253e+01 0 0 0
115 1 0.0000000000000000e+00 8.1218334803547521e+00 1.6134499234487798e+01 1.9170477538620446e+01 0 0 0
116 1 0.0000000000000000e+00 1.2128166357446501e+01 1.0916772611136512e-01 1.9170477538620958e+01 0 0 0
117 1 0.0000000000000000e+00 1.2128166357446478e+01 4.1155006032044108e+00 1.9170477538623253e+01 0 0 0
118 1 0.0000000000000000e+00 1.2128166357446501e+01 8.1218334802989656e+00 1.9170477538625548e+01 0 0 0
119 1 0.0000000000000000e+00 1.2128166357446499e+01 1.2128166357394017e+01 1.9170477538624660e+01 0 0 0
120 1 0.0000000000000000e+00 1.2128166357446485e+01 1.6134499234487812e+01 1.9170477538621835e+01 0 0 0
121 1 0.0000000000000000e+00 1.6134499234540232e+01 1.0916772611136553e-01 1.9170477538625509e+01 0 0 0
122 1 0.0000000000000000e+00 1.6134499234540240e+01 4.1155006032044152e+00 1.9170477538627800e+01 0 0 0
123 1 0.0000000000000000e+00 1.6134499234540243e+01 8.1218334802989585e+00 1.9170477538630092e+01 0 0 0
124 1 0.0000000000000000e+00 1.6134499234540229e+01 1.2128166357394022e+01 1.9170477538629235e+01 0 0 0
125 1 0.0000000000000000e+00 1.6134499234540236e+01 1.6134499234487805e+01 1.9170477538626400e+01 0 0 0
126 1 0.0000000000000000e+00 2.1123341647150391e+00 2.1123341646577161e+00 1.9170477538626400e+01 0 0 0
127 1 0.0000000000000000e+00 2.1123341647150422e+00 6.1186670417515190e+00 1.9170477538629243e+01 0 0 0
128 1 0.0000000000000000e+00 2.1123341647150458e+00 1.0124999918846564e+01 1.9170477538630099e+01 0 0 0
129 1 0.0000000000000000e+00 2.1123341647150364e+00 1.4131332795941136e+01 1.9170477538627821e+01 0 0 0
130 1 0.0000000000000000e+00 2.1123341647150329e+00 1.8137665673034196e+01 1.9170477538625526e+01 0 0 0
131 1 0.0000000000000000e+00 6.1186670418087896e+00 2.1123341646577170e+00 1.9170477538621849e+01 0 0 0
132 1 0.0000000000000000e+00 6.1186670418087861e+00 6.1186670417515279e+00 1.9170477538624652e+01 0 0 0
133 1 0.0000000000000000e+00 6.1186670418087790e+00 1.0124999918846578e+01 1.9170477538625537e+01 0 0 0
134 1 0.0000000000000000e+00 6.1186670418087923e+00 1.4131332795941137e+01 1.9170477538623256e+01 0 0 0
135 1 0.0000000000000000e+00 6.1186670418087834e+00 1.8137665673034185e+01 1.9170477538620972e+01 0 0 0
136 1 0.0000000000000000e+00 1.0124999918900539e+01 2.1123341646577161e+00 1.9170477538620446e+01 0 0 0
137 1 0.0000000000000000e+00 1.0124999918900555e+01 6.1186670417515057e+00 1.9170477538623253e+01 0 0 0
138 1 0.0000000000000000e+00 1.0124999918900524e+01 1.0124999918846568e+01 1.9170477538624130e+01 0 0 0
139 1 0.0000000000000000e+00 1.0124999918900523e+01 1.4131332795941155e+01 1.9170477538621846e+01 0 0 0
140 1 0.0000000000000000e+00 1.0124999918900535e+01 1.8137665673034181e+01 1.9170477538619576e+01 0 0 0
141 1 0.0000000000000000e+00 1.4131332795993035e+01 2.1123341646577067e+00 1.9170477538624098e+01 0 0 0
142 1 0.0000000000000000e+00 1.4131332795993037e+01 6.1186670417515217e+00 1.9170477538626937e+01 0 0 0
143 1 0.0000000000000000e+00 1.4131332795993030e+01 1.0124999918846566e+01 1.9170477538627807e+01 0 0 0
144 1 0.0000000000000000e+00 1.4131332795993037e+01 1.4131332795941145e+01 1.9170477538625541e+01 0 0 0
145 1 0.0000000000000000e+00 1.4131332795993034e+01 1.8137665673034192e+01 1.9170477538623242e+01 0 0 0
146 1 0.0000000000000000e+00 1.8137665673088033e+01 2.1123341646577143e+00 1.9170477538627811e+01 0 0 0
147 1 0.0000000000000000e+00 1.8137665673087998e+01 6.1186670417515199e+00 1.9170477538630621e+01 0 0 0
148 1 0.0000000000000000e+00 1.8137665673088026e+01 1.0124999918846564e+01 1.9170477538631513e+01 0 0 0
149 1 0.0000000000000000e+00 1.8137665673088026e+01 1.4131332795941155e+01 1.9170477538629250e+01 0 0 0
150 1 0.0000000000000000e+00 1.8137665673088033e+01 1.8137665673034185e+01 1.9170477538626930e+01 0 0 0
151 1 0.0000000000000000e+00 2.0140832111636151e+01 2.1123341646574487e+00 2.1222160589851093e+01 -1 0 0
152 1 0.0000000000000000e+00 2.0140832111636161e+01 6.1186670417512632e+00 2.1222160589852891e+01 -1 0 0
153 1 0.0000000000000000e+00 2.0140832111636154e+01 1.0124999918846655e+01 2.1222160589853445e+01 -1 0 0
154 1 0.0000000000000000e+00 2.0140832111636161e+01 1.4131332795941471e+01 2.1222160589851988e+01 -1 0 0
155 1 0.0000000000000000e+00 2.0140832111636158e+01 1.8137665673034299e+01 2.1222160589850546e+01 -1 0 0
156 1 0.0000000000000000e+00 4.1155006032627748e+00 2.1123341646574563e+00 2.1222160589848752e+01 0 0 0
157 1 0.0000000000000000e+00 4.1155006032627695e+00 6.1186670417512552e+00 2.1222160589850542e+01 0 0 0
158 1 0.0000000000000000e+00 4.1155006032627712e+00 1.0124999918846665e+01 2.1222160589851086e+01 0 0 0
159 1 0.0000000000000000e+00 4.1155006032627668e+00 1.4131332795941471e+01 2.1222160589849651e+01 0 0 0
160 1 0.0000000000000000e+00 4.1155006032627792e+00 1.8137665673034292e+01 2.1222160589848212e+01 0 0 0
161 1 0.0000000000000000e+00 8.1218334803548959e+00 2.1123341646574527e+00 2.1222160589846386e+01 0 0 0
162 1 0.0000000000000000e+00 8.1218334803549030e+00 6.1186670417512543e+00 2.1222160589848208e+01 0 0 0
163 1 0.0000000000000000e+00 8.1218334803549208e+00 1.0124999918846664e+01 2.1222160589848745e+01 0 0 0
164 1 0.0000000000000000e+00 8.1218334803549102e+00 1.4131332795941475e+01 2.1222160589847292e+01 0 0 0
165 1 0.0000000000000000e+00 8.1218334803549102e+00 1.8137665673034281e+01 2.1222160589845839e+01 0 0 0
166 1 0.0000000000000000e+00 1.2128166357446062e+01 2.1123341646574514e+00 2.1222160589847302e+01 0 0 0
167 1 0.0000000000000000e+00 1.2128166357446061e+01 6.1186670417512508e+00 2.1222160589849082e+01 0 0 0
168 1 0.0000000000000000e+00 1.2128166357446061e+01 1.0124999918846667e+01 2.1222160589849647e+01 0 0 0
169 1 0.0000000000000000e+00 1.2128166357446073e+01 1.4131332795941471e+01 2.1222160589848201e+01 0 0 0
170 1 0.0000000000000000e+00 1.2128166357446068e+01 1.8137665673034295e+01 2.1222160589846752e+01 0 0 0
171 1 0.0000000000000000e+00 1.6134499234539810e+01 2.1123341646574585e+00 2.1222160589850205e+01 0 0 0
172 1 0.0000000000000000e+00 1.6134499234539810e+01 6.1186670417512588e+00 2.1222160589851992e+01 0 0 0
173 1 0.0000000000000000e+00 1.6134499234539803e+01 1.0124999918846676e+01 2.1222160589852546e+01 0 0 0
174 1 0.0000000000000000e+00 1.6134499234539810e+01 1.4131332795941475e+01 2.1222160589851079e+01 0 0 0
175 1 0.0000000000000000e+00 1.6134499234539796e+01 1.8137665673034288e+01 2.1222160589849661e+01 0 0 0
176 1 0.0000000000000000e+00 2.1123341647154588e+00 1.0916772611126656e-01 2.1222160589849658e+01 0 0 0
177 1 0.0000000000000000e+00 2.1123341647154605e+00 4.1155006032040822e+00 2.1222160589851082e+01 0 0 0
178 1 0.0000000000000000e+00 2.1123341647154499e+00 8.1218334802988696e+00 2.1222160589852539e+01 0 0 0
179 1 0.0000000000000000e+00 2.1123341647154570e+00 1.2128166357394296e+01 2.1222160589851992e+01 0 0 0
180 1 0.0000000000000000e+00 2.1123341647154592e+00 1.6134499234488082e+01 2.1222160589850212e+01 0 0 0
181 1 0.0000000000000000e+00 6.1186670418092133e+00 1.0916772611126600e-01 2.1222160589846741e+01 0 0 0
182 1 0.0000000000000000e+00 6.1186670418092213e+00 4.1155006032040653e+00 2.1222160589848201e+01 0 0 0
183 1 0.0000000000000000e+00 6.1186670418092204e+00 8.1218334802988643e+00 2.1222160589849654e+01 0 0 0
184 1 0.0000000000000000e+00 6.1186670418092159e+00 1.2128166357394290e+01 2.1222160589849082e+01 0 0 0
185 1 0.0000000000000000e+00 6.1186670418092177e+00 1.6134499234488093e+01 2.1222160589847306e+01 0 0 0
186 1 0.0000000000000000e+00 1.0124999918900370e+01 1.0916772611126282e-01 2.1222160589845849e+01 0 0 0
187 1 0.0000000000000000e+00 1.0124999918900379e+01 4.1155006032040831e+00 2.1222160589847292e+01 0 0 0
188 1 0.0000000000000000e+00 1.0124999918900368e+01 8.1218334802988768e+00 2.1222160589848738e+01 0 0 0
189 1 0.0000000000000000e+00 1.0124999918900370e+01 1.2128166357394282e+01 2.1222160589848205e+01 0 0 0
190 1 0.0000000000000000e+00 1.0124999918900363e+01 1.6134499234488089e+01 2.1222160589846400e+01 0 0 0
191 1 0.0000000000000000e+00 1.4131332795992510e+01 1.0916772611125755e-01 2.1222160589848215e+01 0 0 0
192 1 0.0000000000000000e+00 1.4131332795992513e+01 4.1155006032040742e+00 2.1222160589849654e+01 0 0 0
193 1 0.0000000000000000e+00 1.4131332795992513e+01 8.1218334802988696e+00 2.1222160589851086e+01 0 0 0
194 1 0.0000000000000000e+00 1.4131332795992510e+01 1.2128166357394296e+01 2.1222160589850542e+01 0 0 0
195 1 0.0000000000000000e+00 1.4131332795992515e+01 1.6134499234488086e+01 2.1222160589848759e+01 0 0 0
196 1 0.0000000000000000e+00 1.8137665673087866e+01 1.0916772611126990e-01 2.1222160589850549e+01 0 0 0
197 1 0.0000000000000000e+00 1.8137665673087849e+01 4.1155006032040697e+00 2.1222160589851999e+01 0 0 0
198 1 0.0000000000000000e+00 1.8137665673087859e+01 8.1218334802988661e+00 2.1222160589853445e+01 0 0 0
199 1 0.0000000000000000e+00 1.8137665673087845e+01 1.2128166357394287e+01 2.1222160589852876e+01 0 0 0
200 1 0.0000000000000000e+00 1.8137665673087849e+01 1.6134499234488079e+01 2.1222160589851079e+01 0 0 0
201 1 0.0000000000000000e+00 2.0140832111636211e+01 1.0916772611121668e-01 2.3275674473655577e+01 -1 0 0
202 1 0.0000000000000000e+00 2.0140832111636225e+01 4.1155006032039427e+00 2.3275674473656093e+01 -1 0 0
203 1 0.0000000000000000e+00 2.0140832111636215e+01 8.1218334802988306e+00 2.3275674473656590e+01 -1 0 0
204 1 0.0000000000000000e+00 2.0140832111636229e+01 1.2128166357394393e+01 2.3275674473656398e+01 -1 0 0
205 1 0.0000000000000000e+00 2.0140832111636222e+01 1.6134499234488192e+01 2.3275674473655798e+01 -1 0 0
206 1 0.0000000000000000e+00 4.1155006032629871e+00 1.0916772611122225e-01 2.3275674473654785e+01 0 0 0
207 1 0.0000000000000000e+00 4.1155006032629862e+00 4.1155006032039392e+00 2.3275674473655275e+01 0 0 0
208 1 0.0000000000000000e+00 4.1155006032629924e+00 8.1218334802988164e+00 2.3275674473655798e+01 0 0 0
209 1 0.0000000000000000e+00 4.1155006032629782e+00 1.2128166357394386e+01 2.3275674473655609e+01 0 0 0
210 1 0.0000000000000000e+00 4.1155006032629835e+00 1.6134499234488189e+01 2.3275674473654959e+01 0 0 0
211 1 0.0000000000000000e+00 8.1218334803549812e+00 1.0916772611121446e-01 2.3275674473653968e+01 0 0 0
212 1 0.0000000000000000e+00 8.1218334803549670e+00 4.1155006032039534e+00 2.3275674473654448e+01 0 0 0
213 1 0.0000000000000000e+00 8.1218334803549723e+00 8.1218334802988288e+00 2.3275674473654966e+01 0 0 0
214 1 0.0000000000000000e+00 8.1218334803549705e+00 1.2128166357394379e+01 2.3275674473654785e+01 0 0 0
215 1 0.0000000000000000e+00 8.1218334803549723e+00 1.6134499234488185e+01 2.3275674473654146e+01 0 0 0
216 1 0.0000000000000000e+00 1.2128166357445894e+01 1.0916772611122383e-01 2.3275674473654256e+01 0 0 0
217 1 0.0000000000000000e+00 1.2128166357445899e+01 4.1155006032039454e+00 2.3275674473654771e+01 0 0 0
218 1 0.0000000000000000e+00 1.2128166357445894e+01 8.1218334802988288e+00 2.3275674473655297e+01 0 0 0
219 1 0.0000000000000000e+00 1.2128166357445888e+01 1.2128166357394397e+01 2.3275674473655073e+01 0 0 0
220 1 0.0000000000000000e+00 1.2128166357445888e+01 1.6134499234488182e+01 2.3275674473654473e+01 0 0 0
221 1 0.0000000000000000e+00 1.6134499234539629e+01 1.0916772611122311e-01 2.3275674473655279e+01 0 0 0
222 1 0.0000000000000000e+00 1.6134499234539646e+01 4.1155006032039392e+00 2.3275674473655773e+01 0 0 0
223 1 0.0000000000000000e+00 1.6134499234539632e+01 8.1218334802988288e+00 2.3275674473656270e+01 0 0 0
224 1 0.0000000000000000e+00 1.6134499234539629e+01 1.2128166357394388e+01 2.3275674473656096e+01 0 0 0
225 1 0.0000000000000000e+00 1.6134499234539618e+01 1.6134499234488189e+01 2.3275674473655478e+01 0 0 0
226 1 0.0000000000000000e+00 2.1123341647156453e+00 2.1123341646573470e+00 2.3275674473655474e+01 0 0 0
227 1 0.0000000000000000e+00 2.1123341647156413e+00 6.1186670417511486e+00 2.3275674473656103e+01 0 0 0
228 1 0.0000000000000000e+00 2.1123341647156373e+00 1.0124999918846719e+01 2.3275674473656295e+01 0 0 0
229 1 0.0000000000000000e+00 2.1123341647156324e+00 1.4131332795941612e+01 2.3275674473655783e+01 0 0 0
230 1 0.0000000000000000e+00 2.1123341647156346e+00 1.8137665673034331e+01 2.3275674473655272e+01 0 0 0
231 1 0.0000000000000000e+00 6.1186670418093705e+00 2.1123341646573506e+00 2.3275674473654455e+01 0 0 0
232 1 0.0000000000000000e+00 6.1186670418093811e+00 6.1186670417511575e+00 2.3275674473655076e+01 0 0 0
233 1 0.0000000000000000e+00 6.1186670418093883e+00 1.0124999918846715e+01 2.3275674473655286e+01 0 0 0
234 1 0.0000000000000000e+00 6.1186670418093838e+00 1.4131332795941614e+01 2.3275674473654782e+01 0 0 0
235 1 0.0000000000000000e+00 6.1186670418093794e+00 1.8137665673034334e+01 2.3275674473654266e+01 0 0 0
236 1 0.0000000000000000e+00 1.0124999918900306e+01 2.1123341646573319e+00 2.3275674473654149e+01 0 0 0
237 1 0.0000000000000000e+00 1.0124999918900297e+01 6.1186670417511531e+00 2.3275674473654774e+01 0 0 0
238 1 0.0000000000000000e+00 1.0124999918900299e+01 1.0124999918846715e+01 2.3275674473654966e+01 0 0 0
239 1 0.0000000000000000e+00 1.0124999918900313e+01 1.4131332795941621e+01 2.3275674473654462e+01 0 0 0
240 1 0.0000000000000000e+00 1.0124999918900306e+01 1.8137665673034338e+01 2.3275674473653957e+01 0 0 0
241 1 0.0000000000000000e+00 1.4131332795992297e+01 2.1123341646573337e+00 2.3275674473654952e+01 0 0 0
242 1 0.0000000000000000e+00 1.4131332795992286e+01 6.1186670417511575e+00 2.3275674473655585e+01 0 0 0
243 1 0.0000000000000000e+00 1.4131332795992293e+01 1.0124999918846715e+01 2.3275674473655783e+01 0 0 0
244 1 0.0000000000000000e+00 1.4131332795992286e+01 1.4131332795941621e+01 2.3275674473655279e+01 0 0 0
245 1 0.0000000000000000e+00 1.4131332795992302e+01 1.8137665673034331e+01 2.3275674473654764e+01 0 0 0
246 1 0.0000000000000000e+00 1.8137665673087795e+01 2.1123341646573395e+00 2.3275674473655776e+01 0 0 0
247 1 0.0000000000000000e+00 1.8137665673087788e+01 6.1186670417511531e+00 2.3275674473656387e+01 0 0 0
248 1 0.0000000000000000e+00 1.8137665673087795e+01 1.0124999918846715e+01 2.3275674473656604e+01 0 0 0
249 1 0.0000000000000000e+00 1.8137665673087788e+01 1.4131332795941621e+01 2.3275674473656114e+01 0 0 0
250 1 0.0000000000000000e+00 1.8137665673087806e+01 1.8137665673034345e+01 2.3275674473655602e+01 0 0 0
251 1 0.0000000000000000e+00 2.0140832111636218e+01 2.1123341646573457e+00 2.5324325136743123e+01 -1 0 0
252 1 0.0000000000000000e+00 2.0140832111636225e+01 6.1186670417511531e+00 2.5324325136742498e+01 -1 0 0
253 1 0.0000000000000000e+00 2.0140832111636207e+01 1.0124999918846706e+01 2.5324325136742296e+01 -1 0 0
254 1 0.0000000000000000e+00 2.0140832111636222e+01 1.4131332795941622e+01 2.5324325136742807e+01 -1 0 0
255 1 0.0000000000000000e+00 2.0140832111636207e+01 1.8137665673034324e+01 2.5324325136743312e+01 -1 0 0
256 1 0.0000000000000000e+00 4.1155006032629835e+00 2.1123341646573288e+00 2.5324325136743916e+01 0 0 0
257 1 0.0000000000000000e+00 4.1155006032629879e+00 6.1186670417511664e+00 2.5324325136743287e+01 0 0 0
258 1 0.0000000000000000e+00 4.1155006032629791e+00 1.0124999918846717e+01 2.5324325136743109e+01 0 0 0
259 1 0.0000000000000000e+00 4.1155006032629853e+00 1.4131332795941603e+01 2.5324325136743624e+01 0 0 0
260 1 0.0000000000000000e+00 4.1155006032629764e+00 1.8137665673034348e+01 2.5324325136744140e+01 0 0 0
261 1 0.0000000000000000e+00 8.1218334803549812e+00 2.1123341646573457e+00 2.5324325136744765e+01 0 0 0
262 1 0.0000000000000000e+00 8.1218334803549830e+00 6.1186670417511486e+00 2.5324325136744129e+01 0 0 0
263 1 0.0000000000000000e+00 8.1218334803549723e+00 1.0124999918846719e+01 2.5324325136743916e+01 0 0 0
264 1 0.0000000000000000e+00 8.1218334803549741e+00 1.4131332795941603e+01 2.5324325136744456e+01 0 0 0
265 1 0.0000000000000000e+00 8.1218334803549759e+00 1.8137665673034345e+01 2.5324325136744935e+01 0 0 0
266 1 0.0000000000000000e+00 1.2128166357445894e+01 2.1123341646573617e+00 2.5324325136744434e+01 0 0 0
267 1 0.0000000000000000e+00 1.2128166357445901e+01 6.1186670417511504e+00 2.5324325136743820e+01 0 0 0
268 1 0.0000000000000000e+00 1.2128166357445895e+01 1.0124999918846699e+01 2.5324325136743614e+01 0 0 0
269 1 0.0000000000000000e+00 1.2128166357445879e+01 1.4131332795941621e+01 2.5324325136744111e+01 0 0 0
270 1 0.0000000000000000e+00 1.2128166357445892e+01 1.8137665673034327e+01 2.5324325136744630e+01 0 0 0
271 1 0.0000000000000000e+00 1.6134499234539646e+01 2.1123341646573430e+00 2.5324325136743422e+01 0 0 0
272 1 0.0000000000000000e+00 1.6134499234539636e+01 6.1186670417511397e+00 2.5324325136742807e+01 0 0 0
273 1 0.0000000000000000e+00 1.6134499234539632e+01 1.0124999918846719e+01 2.5324325136742608e+01 0 0 0
274 1 0.0000000000000000e+00 1.6134499234539636e+01 1.4131332795941612e+01 2.5324325136743109e+01 0 0 0
275 1 0.0000000000000000e+00 1.6134499234539629e+01 1.8137665673034341e+01 2.5324325136743621e+01 0 0 0
276 1 0.0000000000000000e+00 2.1123341647156484e+00 1.0916772611122132e-01 2.5324325136743632e+01 0 0 0
277 1 0.0000000000000000e+00 2.1123341647156240e+00 4.1155006032039418e+00 2.5324325136743102e+01 0 0 0
278 1 0.0000000000000000e+00 2.1123341647156382e+00 8.1218334802988306e+00 2.5324325136742608e+01 0 0 0
279 1 0.0000000000000000e+00 2.1123341647156506e+00 1.2128166357394393e+01 2.5324325136742779e+01 0 0 0
280 1 0.0000000000000000e+00 2.1123341647156275e+00 1.6134499234488182e+01 2.5324325136743433e+01 0 0 0
281 1 0.0000000000000000e+00 6.1186670418093749e+00 1.0916772611122159e-01 2.5324325136744619e+01 0 0 0
282 1 0.0000000000000000e+00 6.1186670418093954e+00 4.1155006032039454e+00 2.5324325136744129e+01 0 0 0
283 1 0.0000000000000000e+00 6.1186670418093776e+00 8.1218334802988235e+00 2.5324325136743614e+01 0 0 0
284 1 0.0000000000000000e+00 6.1186670418093856e+00 1.2128166357394393e+01 2.5324325136743813e+01 0 0 0
285 1 0.0000000000000000e+00 6.1186670418093847e+00 1.6134499234488171e+01 2.5324325136744427e+01 0 0 0