    2    2    1    2
  0.2072475E+02  0.3884586E-09  0.3884587E-09  0.3884586E-09  0.5000000E-15
  1.000000000000000E-004
  CAR 
 unknown system                          
    8  164   24
 
  0.0000000E+00  0.0000000E+00  0.0000000E+00  0.6097561E-02
   1       -6.122949     -6.122949
   2        5.544414      5.544414
   3        5.544414      5.544414
   4        5.544416      5.544416
   5        8.134293      8.134293
   6        8.134298      8.134298
   7        8.134298      8.134298
   8        8.633643      8.633643
   9       13.259481     13.259481
  10       13.259483     13.259483
  11       13.359930     13.359930
  12       16.671369     16.671369
  13       16.671370     16.671370
  14       16.671372     16.671372
  15       20.749393     20.749393
  16       28.232389     28.232390
  17       28.232392     28.232392
  18       28.232394     28.232394
  19       29.349176     29.349176
  20       29.349178     29.349178
  21       30.553964     30.553964
  22       30.553973     30.553973
  23       30.553973     30.553973
  24       34.259509     34.259506
 
  0.2173913E-01  0.8199858E-33  0.2173913E-01  0.6097561E-02
   1       -6.114926     -6.114926
   2        5.486410      5.486410
   3        5.511095      5.511095
   4        5.511096      5.511096
   5        8.114103      8.114103
   6        8.177503      8.177503
   7        8.177506      8.177506
   8        8.690553      8.690553
   9       13.192661     13.192661
  10       13.268431     13.268431
  11       13.396131     13.396131
  12       16.685517     16.685517
  13       16.685520     16.685520
  14       16.718666     16.718666
  15       20.808081     20.808081
  16       28.093136     28.093136
  17       28.093139     28.093139
  18       28.242596     28.242596
  19       29.243177     29.243177
  20       29.256369     29.256369
  21       30.623854     30.623854
  22       30.649985     30.649986
  23       30.649991     30.649992
  24       34.321873     34.321061
 
  0.4347826E-01  0.1639972E-32  0.4347826E-01  0.6097561E-02
   1       -6.090827     -6.090827
   2        5.324302      5.324302
   3        5.417458      5.417458
   4        5.417459      5.417459
   5        8.055388      8.055388
   6        8.300778      8.300778
   7        8.300781      8.300781
   8        8.847787      8.847787
   9       13.008842     13.008843
  10       13.295267     13.295267
  11       13.502832     13.502832
  12       16.727924     16.727924
  13       16.727927     16.727927
  14       16.847034     16.847034
  15       20.982316     20.982316
  16       27.736657     27.736657
  17       27.736660     27.736660
  18       28.273377     28.273377
  19       28.950710     28.950710
  20       29.023777     29.023777
  21       30.787728     30.787728
  22       30.876488     30.876488
  23       30.876495     30.876495
  24       34.505458     34.505463
 
  0.6521739E-01  0.2278511E-32  0.6521739E-01  0.6097561E-02
   1       -6.050676     -6.050676
   2        5.084391      5.084391
   3        5.278319      5.278319
   4        5.278320      5.278320
   5        7.963165      7.963165
   6        8.489212      8.489212
   7        8.489214      8.489214
   8        9.073661      9.073661
   9       12.747338     12.747338
  10       13.339989     13.339989
  11       13.674851     13.674851
  12       16.798487     16.798487
  13       16.798489     16.798489
  14       17.027575     17.027575
  15       21.266383     21.266383
  16       27.260101     27.260101
  17       27.260104     27.260105
  18       28.325290     28.325290
  19       28.525955     28.525955
  20       28.715472     28.715472
  21       30.981478     30.981478
  22       31.138309     31.138310
  23       31.138316     31.138316
  24       34.810653     34.810653
 
  0.8695652E-01  0.3279943E-32  0.8695652E-01  0.6097561E-02
   1       -5.994517     -5.994517
   2        4.792398      4.792398
   3        5.109577      5.109577
   4        5.109577      5.109577
   5        7.844339      7.844339
   6        8.726731      8.726732
   7        8.726734      8.726734
   8        9.330721      9.330721
   9       12.454225     12.454225
  10       13.402590     13.402590
  11       13.904979     13.904979
  12       16.897000     16.897000
  13       16.897003     16.897003
  14       17.234664     17.234664
  15       21.650358     21.650358
  16       26.723908     26.723908
  17       26.723911     26.723911
  18       28.018765     28.018766
  19       28.365588     28.365588
  20       28.399364     28.399364
  21       31.170882     31.170882
  22       31.382993     31.382993
  23       31.383000     31.383000
  24       35.227359     35.227358
 
  0.1086957E+00  0.6637077E-32  0.1086957E+00  0.6097561E-02
   1       -5.922446     -5.922446
   2        4.467084      4.467084
   3        4.924087      4.924087
   4        4.924088      4.924088
   5        7.706330      7.706330
   6        9.000250      9.000250
   7        9.000252      9.000252
   8        9.576436      9.576436
   9       12.179566     12.179566
  10       13.483068     13.483068
  11       14.185328     14.185328
  12       17.023111     17.023111
  13       17.023114     17.023114
  14       17.453614     17.453614
  15       22.120729     22.120729
  16       26.159399     26.159399
  17       26.159402     26.159402
  18       27.463727     27.463727
  19       27.990210     27.990210
  20       28.497073     28.497073
  21       31.339364     31.339364
  22       31.594168     31.594168
  23       31.594177     31.594177
  24       35.738932     35.738930
 
  0.1304348E+00  0.4557022E-32  0.1304348E+00  0.6097561E-02
   1       -5.834511     -5.834511
   2        4.120629      4.120629
   3        4.731051      4.731051
   4        4.731052      4.731052
   5        7.556160      7.556160
   6        9.300298      9.300298
   7        9.300300      9.300300
   8        9.754580      9.754580
   9       11.985505     11.985505
  10       13.581392     13.581392
  11       14.508247     14.508247
  12       17.176189     17.176189
  13       17.176192     17.176192
  14       17.679144     17.679144
  15       22.661853     22.661853
  16       25.583534     25.583534
  17       25.583537     25.583537
  18       26.882399     26.882399
  19       27.598339     27.598339
  20       28.620759     28.620759
  21       31.477327     31.477327
  22       31.772790     31.772790
  23       31.772799     31.772799
  24       36.323128     36.323128
 
  0.1521739E+00  0.4832668E-32  0.1521739E+00  0.6097561E-02
   1       -5.730798     -5.730798
   2        3.760657      3.760657
   3        4.536770      4.536770
   4        4.536771      4.536771
   5        7.399908      7.399908
   6        9.620289      9.620289
   7        9.620291      9.620291
   8        9.799607      9.799607
   9       11.941940     11.941940
  10       13.697554     13.697554
  11       14.866749     14.866749
  12       17.355231     17.355231
  13       17.355234     17.355234
  14       17.911524     17.911524
  15       23.257407     23.257407
  16       25.007007     25.007007
  17       25.007010     25.007010
  18       26.288467     26.288467
  19       27.196072     27.196072
  20       28.773880     28.773880
  21       31.577317     31.577317
  22       31.924727     31.924727
  23       31.924736     31.924736
  24       36.921788     36.921788
 
  0.1739130E+00  0.6559887E-32  0.1739130E+00  0.6097561E-02
   1       -5.611442     -5.611442
   2        3.392002      3.392002
   3        4.345537      4.345537
   4        4.345537      4.345537
   5        7.242600      7.242600
   6        9.686237      9.686237
   7        9.955626      9.955626
   8        9.955627      9.955627
   9       12.077249     12.077249
  10       13.831535     13.831535
  11       15.254543     15.254543
  12       17.558512     17.558512
  13       17.558515     17.558515
  14       18.153453     18.153453
  15       23.891020     23.891020
  16       24.437227     24.437227
  17       24.437230     24.437230
  18       25.690211     25.690212
  19       26.788192     26.788192
  20       28.961379     28.961379
  21       31.631871     31.631871
  22       32.054248     32.054248
  23       32.054258     32.054258
  24       36.613552     36.613554
 
  0.1956522E+00  0.1154694E-31  0.1956522E+00  0.6097561E-02
   1       -5.476602     -5.476602
   2        3.017766      3.017766
   3        4.160325      4.160325
   4        4.160326      4.160326
   5        7.088310      7.088310
   6        9.456897      9.456897
   7       10.303067     10.303067
   8       10.303068     10.303068
   9       12.351079     12.351079
  10       13.983310     13.983310
  11       15.665835     15.665835
  12       17.783215     17.783215
  13       17.783217     17.783217
  14       18.408295     18.408295
  15       23.880948     23.880948
  16       23.880951     23.880951
  17       24.546029     24.546029
  18       25.093572     25.093572
  19       26.379207     26.379207
  20       29.190339     29.190339
  21       31.632628     31.632628
  22       32.161088     32.161088
  23       32.161097     32.161097
  24       35.975217     35.975217
 
  0.2173913E+00  0.1327415E-31  0.2173913E+00  0.6097561E-02
   1       -5.326407     -5.326407
   2        2.640059      2.640059
   3        3.983262      3.983262
   4        3.983262      3.983262
   5        6.940317      6.940317
   6        9.168494      9.168494
   7       10.660257     10.660257
   8       10.660259     10.660259
   9       12.707736     12.707736
  10       14.152854     14.152854
  11       16.094935     16.094935
  12       18.024540     18.024540
  13       18.024542     18.024542
  14       18.679307     18.679307
  15       23.345520     23.345521
  16       23.345523     23.345523
  17       24.502244     24.502244
  18       25.204741     25.204741
  19       25.973748     25.973748
  20       29.470448     29.470448
  21       31.569554     31.569554
  22       32.236584     32.236584
  23       32.236593     32.236593
  24       35.326200     35.326201
 
  0.2391304E+00  0.1354980E-31  0.2391304E+00  0.6097561E-02
   1       -5.161041     -5.161041
   2        2.260360      2.260360
   3        3.815880      3.815880
   4        3.815880      3.815880
   5        6.801232      6.801232
   6        8.858108      8.858108
   7       11.025475     11.025475
   8       11.025476     11.025476
   9       13.110662     13.110662
  10       14.340135     14.340135
  11       16.535798     16.535798
  12       18.274125     18.274125
  13       18.274127     18.274127
  14       18.969360     18.969360
  15       22.840995     22.840995
  16       22.840997     22.840997
  17       23.918894     23.918894
  18       25.576992     25.576992
  19       25.847994     25.847994
  20       29.813939     29.813939
  21       31.430083     31.430083
  22       32.255641     32.255641
  23       32.255650     32.255650
  24       34.708852     34.708854
 
  0.2608696E+00  0.9114044E-32  0.2608696E+00  0.6097561E-02
   1       -4.980704     -4.980704
   2        1.879828      1.879828
   3        3.659324      3.659324
   4        3.659325      3.659325
   5        6.673161      6.673161
   6        8.545863      8.545863
   7       11.397440     11.397440
   8       11.397442     11.397442
   9       13.539674     13.539674
  10       14.545115     14.545115
  11       16.981398     16.981398
  12       18.517003     18.517003
  13       18.517005     18.517005
  14       19.280899     19.280899
  15       22.383434     22.383434
  16       22.383436     22.383436
  17       23.345443     23.345443
  18       25.195261     25.195261
  19       26.456204     26.456204
  20       30.233698     30.233698
  21       31.200409     31.200409
  22       32.162050     32.162050
  23       32.162057     32.162057
  24       34.189078     34.189082
 
  0.2826087E+00  0.1084126E-31  0.2826087E+00  0.6097561E-02
   1       -4.785689     -4.785689
   2        1.499459      1.499459
   3        3.514454      3.514454
   4        3.514455      3.514455
   5        6.557829      6.557829
   6        8.242649      8.242649
   7       11.775226     11.775226
   8       11.775227     11.775227
   9       13.983236     13.983236
  10       14.767757     14.767757
  11       17.422830     17.422830
  12       18.726215     18.726215
  13       18.726217     18.726217
  14       19.615843     19.615843
  15       22.000439     22.000439
  16       22.000441     22.000441
  17       22.783412     22.783412
  18       24.836664     24.836664
  19       27.012480     27.012480
  20       30.736870     30.736870
  21       30.869414     30.869414
  22       31.875935     31.875936
  23       31.875942     31.875942
  24       33.815882     33.816095
 
  0.3043478E+00  0.9665336E-32  0.3043478E+00  0.6097561E-02
   1       -4.576222     -4.576222
   2        1.120138      1.120138
   3        3.381945      3.381945
   4        3.381946      3.381946
   5        6.456655      6.456655
   6        7.954658      7.954658
   7       12.158144     12.158144
   8       12.158146     12.158146
   9       14.434189     14.434189
  10       15.008035     15.008035
  11       17.848236     17.848236
  12       18.857233     18.857233
  13       18.857234     18.857234
  14       19.975771     19.975771
  15       21.736804     21.736804
  16       21.736805     21.736805
  17       22.233886     22.233886
  18       24.512239     24.512239
  19       27.507682     27.507682
  20       30.436765     30.436765
  21       31.306941     31.306941
  22       31.382806     31.382806
  23       31.382811     31.382811
  24       33.172592     33.172592
 
  0.3260870E+00  0.1755553E-31  0.3260870E+00  0.6097561E-02
   1       -4.352600     -4.352600
   2        0.742695      0.742695
   3        3.262308      3.262309
   4        3.262309      3.262309
   5        6.370837      6.370837
   6        7.685529      7.685529
   7       12.545663     12.545663
   8       12.545665     12.545665
   9       14.887527     14.887527
  10       15.265854     15.265854
  11       18.241354     18.241354
  12       18.856733     18.856733
  13       18.856734     18.856734
  14       20.361733     20.361733
  15       21.645814     21.645814
  16       21.645815     21.645815
  17       21.697738     21.697738
  18       24.237042     24.237042
  19       27.942484     27.942484
  20       29.917224     29.917224
  21       30.757712     30.757712
  22       30.757716     30.757716
  23       31.741084     31.741084
  24       32.620473     32.620473
 
  0.3478261E+00  0.1311977E-31  0.3478261E+00  0.6097561E-02
   1       -4.115160     -4.115160
   2        0.368018      0.368018
   3        3.155962      3.155962
   4        3.155963      3.155963
   5        6.301407      6.301407
   6        7.437430      7.437430
   7       12.937329     12.937329
   8       12.937330     12.937330
   9       15.339471     15.339471
  10       15.541179     15.541179
  11       18.580480     18.580480
  12       18.702005     18.702005
  13       18.702007     18.702007
  14       20.774277     20.774277
  15       21.175662     21.175662
  16       21.749975     21.749975
  17       21.749977     21.749977
  18       24.031002     24.031002
  19       28.324016     28.324016
  20       29.335891     29.335891
  21       30.070186     30.070186
  22       30.070191     30.070191
  23       31.309454     31.309454
  24       32.605787     32.605787
 
  0.3695652E+00  0.8684016E-32  0.3695652E+00  0.6097561E-02
   1       -3.864307     -3.864307
   2       -0.003006     -0.003006
   3        3.063234      3.063234
   4        3.063235      3.063235
   5        6.249271      6.249271
   6        7.211619      7.211619
   7       13.332631     13.332631
   8       13.332633     13.332633
   9       15.786887     15.786887
  10       15.833941     15.833941
  11       18.423469     18.423469
  12       18.423471     18.423471
  13       18.839387     18.839387
  14       20.668160     20.668160
  15       21.213274     21.213274
  16       22.018553     22.018553
  17       22.018556     22.018556
  18       23.917393     23.917393
  19       28.657309     28.657310
  20       28.719470     28.719470
  21       29.357278     29.357278
  22       29.357282     29.357282
  23       30.590823     30.590823
  24       32.286554     32.286555
 
  0.3913043E+00  0.2309387E-31  0.3913043E+00  0.6097561E-02
   1       -3.600422     -3.600422
   2       -0.369482     -0.369482
   3        2.984389      2.984389
   4        2.984390      2.984390
   5        6.215232      6.215232
   6        7.008765      7.008765
   7       13.730753     13.730753
   8       13.730755     13.730755
   9       16.144073     16.144073
  10       16.226955     16.226955
  11       18.070142     18.070142
  12       18.070145     18.070145
  13       18.992828     18.992828
  14       20.175809     20.175809
  15       21.677705     21.677705
  16       22.402323     22.402323
  17       22.402326     22.402326
  18       23.915965     23.915965
  19       28.092395     28.092395
  20       28.637611     28.637611
  21       28.637614     28.637614
  22       28.917189     28.917189
  23       29.903969     29.903969
  24       31.985033     31.985034
 
  0.4130435E+00  0.1865812E-31  0.4130435E+00  0.6097561E-02
   1       -3.323960     -3.323960
   2       -0.730561     -0.730561
   3        2.919627      2.919627
   4        2.919628      2.919628
   5        6.200024      6.200024
   6        6.829141      6.829141
   7       14.130103     14.130103
   8       14.130105     14.130105
   9       16.471489     16.471489
  10       16.656913     16.656913
  11       17.679395     17.679395
  12       17.679397     17.679397
  13       19.026586     19.026586
  14       19.698935     19.698935
  15       22.165250     22.165250
  16       22.864144     22.864144
  17       22.864147     22.864147
  18       24.029654     24.029654
  19       27.479335     27.479335
  20       27.921654     27.921654
  21       27.921658     27.921658
  22       28.829498     28.829498
  23       29.564419     29.564419
  24       31.693008     31.693008
 
  0.4347826E+00  0.2654831E-31  0.4347826E+00  0.6097561E-02
   1       -3.035428     -3.035428
   2       -1.085324     -1.085324
   3        2.869104      2.869104
   4        2.869105      2.869105
   5        6.204319      6.204319
   6        6.672745      6.672746
   7       14.527070     14.527070
   8       14.527072     14.527072
   9       16.816099     16.816099
  10       17.073747     17.073747
  11       17.275692     17.275692
  12       17.275694     17.275694
  13       18.944440     18.944441
  14       19.237856     19.237856
  15       22.671461     22.671461
  16       23.381258     23.381258
  17       23.381261     23.381261
  18       24.227824     24.227824
  19       26.916175     26.916175
  20       27.216467     27.216467
  21       27.216470     27.216471
  22       28.250501     28.250501
  23       29.735183     29.735183
  24       31.405851     31.405851
 
  0.4565217E+00  0.1268975E-31  0.4565217E+00  0.6097561E-02
   1       -2.735403     -2.735403
   2       -1.432898     -1.432898
   3        2.832938      2.832938
   4        2.832939      2.832939
   5        6.228767      6.228767
   6        6.539392      6.539392
   7       14.911965     14.911965
   8       14.911967     14.911967
   9       16.880205     16.880205
  10       16.880207     16.880207
  11       17.177796     17.177796
  12       17.473723     17.473723
  13       18.764658     18.764658
  14       18.792854     18.792854
  15       23.187616     23.187616
  16       23.938954     23.938954
  17       23.938957     23.938957
  18       24.420616     24.420616
  19       26.480714     26.480714
  20       26.528516     26.528516
  21       26.528520     26.528520
  22       27.616358     27.616358
  23       29.998142     29.998142
  24       31.121190     31.121190
 
  0.4782609E+00  0.2709960E-31  0.4782609E+00  0.6097561E-02
   1       -2.424443     -2.424443
   2       -1.772456     -1.772456
   3        2.811211      2.811211
   4        2.811212      2.811212
   5        6.273957      6.273957
   6        6.428764      6.428764
   7       15.251680     15.251680
   8       15.251682     15.251682
   9       16.532170     16.532170
  10       16.532171     16.532171
  11       17.556464     17.556464
  12       17.851817     17.851817
  13       18.364158     18.364159
  14       18.510076     18.510076
  15       23.694888     23.694888
  16       24.428971     24.428971
  17       24.521204     24.521204
  18       24.521207     24.521207
  19       25.869499     25.869499
  20       25.869503     25.869503
  21       26.333166     26.333166
  22       27.031852     27.031852
  23       30.275190     30.275190
  24       30.837968     30.837968
 
  0.5000000E+00  0.2266384E-31  0.5000000E+00  0.6097561E-02
   1       -2.103231     -2.103231
   2       -2.103229     -2.103229
   3        2.803963      2.803963
   4        2.803964      2.803964
   5        6.340451      6.340451
   6        6.340452      6.340452
   7       15.418402     15.418402
   8       15.418403     15.418403
   9       16.362369     16.362369
  10       16.362369     16.362369
  11       17.951971     17.951971
  12       17.951972     17.951972
  13       18.200771     18.200771
  14       18.200773     18.200773
  15       24.146517     24.146517
  16       24.146519     24.146519
  17       24.973424     24.973424
  18       24.973427     24.973427
  19       25.391894     25.391894
  20       25.391897     25.391897
  21       26.562183     26.562183
  22       26.562186     26.562186
  23       30.555830     30.555831
  24       30.555833     30.555834
 
  0.5000000E+00  0.2266384E-31  0.5000000E+00  0.6097561E-02
   1       -2.103231     -2.103231
   2       -2.103229     -2.103229
   3        2.803963      2.803963
   4        2.803964      2.803964
   5        6.340451      6.340451
   6        6.340452      6.340452
   7       15.418402     15.418402
   8       15.418403     15.418403
   9       16.362369     16.362369
  10       16.362369     16.362369
  11       17.951971     17.951971
  12       17.951972     17.951972
  13       18.200771     18.200771
  14       18.200773     18.200773
  15       24.146517     24.146517
  16       24.146519     24.146519
  17       24.973424     24.973424
  18       24.973427     24.973427
  19       25.391894     25.391894
  20       25.391897     25.391897
  21       26.562183     26.562183
  22       26.562186     26.562186
  23       30.555830     30.555831
  24       30.555833     30.555834
 
  0.5000000E+00  0.2083333E-01  0.5208333E+00  0.6097561E-02
   1       -2.100868     -2.100868
   2       -2.100865     -2.100865
   3        2.782262      2.782262
   4        2.782264      2.782264
   5        6.380894      6.380894
   6        6.380895      6.380895
   7       15.352523     15.352523
   8       15.352525     15.352525
   9       16.266641     16.266641
  10       16.266642     16.266642
  11       18.009562     18.009562
  12       18.009562     18.009562
  13       18.311926     18.311926
  14       18.311929     18.311929
  15       24.028181     24.028181
  16       24.028185     24.028185
  17       24.958767     24.958767
  18       24.958770     24.958770
  19       25.491963     25.491963
  20       25.491966     25.491966
  21       26.632591     26.632591
  22       26.632595     26.632595
  23       30.476515     30.476515
  24       30.476518     30.476518
 
  0.5000000E+00  0.4166667E-01  0.5416667E+00  0.6097561E-02
   1       -2.093908     -2.093908
   2       -2.093905     -2.093905
   3        2.720575      2.720575
   4        2.720576      2.720576
   5        6.498877      6.498877
   6        6.498878      6.498878
   7       15.131521     15.131521
   8       15.131524     15.131524
   9       16.104337     16.104337
  10       16.104337     16.104337
  11       18.058116     18.058116
  12       18.058117     18.058117
  13       18.667787     18.667787
  14       18.667790     18.667790
  15       23.770326     23.770326
  16       23.770330     23.770330
  17       24.870578     24.870578
  18       24.870581     24.870581
  19       25.755419     25.755419
  20       25.755423     25.755423
  21       26.825492     26.825492
  22       26.825495     26.825495
  23       30.258317     30.258317
  24       30.258320     30.258320
 
  0.5000000E+00  0.6250000E-01  0.5625000E+00  0.6097561E-02
   1       -2.082713     -2.082713
   2       -2.082710     -2.082710
   3        2.627721      2.627721
   4        2.627722      2.627722
   5        6.685828      6.685828
   6        6.685829      6.685829
   7       14.756549     14.756549
   8       14.756553     14.756553
   9       16.000834     16.000834
  10       16.000834     16.000834
  11       18.086819     18.086819
  12       18.086819     18.086819
  13       19.151691     19.151691
  14       19.151695     19.151695
  15       23.476741     23.476741
  16       23.476745     23.476745
  17       24.729938     24.729938
  18       24.729940     24.729941
  19       26.081706     26.081706
  20       26.081710     26.081710
  21       27.108867     27.108867
  22       27.108871     27.108871
  23       29.947736     29.947736
  24       29.947739     29.947739
 
  0.5000000E+00  0.8333333E-01  0.5833333E+00  0.6097561E-02
   1       -2.067891     -2.067891
   2       -2.067888     -2.067888
   3        2.514785      2.514785
   4        2.514786      2.514786
   5        6.931039      6.931039
   6        6.931040      6.931040
   7       14.289569     14.289569
   8       14.289573     14.289573
   9       15.951529     15.951529
  10       15.951529     15.951529
  11       18.114864     18.114864
  12       18.114865     18.114865
  13       19.685238     19.685238
  14       19.685242     19.685242
  15       23.187760     23.187760
  16       23.187763     23.187763
  17       24.573041     24.573041
  18       24.573043     24.573043
  19       26.401551     26.401551
  20       26.401556     26.401556
  21       27.456463     27.456463
  22       27.456467     27.456467
  23       29.600939     29.600939
  24       29.600942     29.600942
 
  0.5000000E+00  0.1041667E+00  0.6041667E+00  0.6097561E-02
   1       -2.050301     -2.050301
   2       -2.050298     -2.050297
   3        2.392522      2.392522
   4        2.392523      2.392523
   5        7.224202      7.224202
   6        7.224204      7.224204
   7       13.781314     13.781314
   8       13.781317     13.781318
   9       15.929048     15.929048
  10       15.929048     15.929048
  11       18.145672     18.145672
  12       18.145673     18.145673
  13       20.238044     20.238044
  14       20.238048     20.238048
  15       22.920668     22.920668
  16       22.920671     22.920671
  17       24.418293     24.418293
  18       24.418295     24.418295
  19       26.666669     26.666669
  20       26.666674     26.666674
  21       27.830843     27.830843
  22       27.830847     27.830847
  23       29.294496     29.294496
  24       29.294499     29.294499
 
  0.5000000E+00  0.1250000E+00  0.6250000E+00  0.6097561E-02
   1       -2.031007     -2.031007
   2       -2.031004     -2.031004
   3        2.270164      2.270164
   4        2.270165      2.270165
   5        7.556600      7.556600
   6        7.556602      7.556602
   7       13.256919     13.256919
   8       13.256923     13.256923
   9       15.919188     15.919188
  10       15.919189     15.919189
  11       18.178963     18.178963
  12       18.178964     18.178964
  13       20.792077     20.792077
  14       20.792081     20.792081
  15       22.688595     22.688595
  16       22.688598     22.688598
  17       24.275091     24.275091
  18       24.275093     24.275093
  19       26.817919     26.817919
  20       26.817924     26.817924
  21       28.135333     28.135333
  22       28.135337     28.135337
  23       29.181678     29.181678
  24       29.181681     29.181681
 
  0.5000000E+00  0.1458333E+00  0.6458333E+00  0.6097561E-02
   1       -2.011254     -2.011254
   2       -2.011250     -2.011250
   3        2.155191      2.155191
   4        2.155192      2.155192
   5        7.921190      7.921190
   6        7.921192      7.921192
   7       12.728821     12.728821
   8       12.728825     12.728825
   9       15.915557     15.915557
  10       15.915557     15.915557
  11       18.213252     18.213252
  12       18.213254     18.213254
  13       21.321692     21.321693
  14       21.321696     21.321696
  15       22.514951     22.514951
  16       22.514953     22.514953
  17       24.148747     24.148747
  18       24.148749     24.148749
  19       26.775711     26.775711
  20       26.775717     26.775717
  21       28.274779     28.274779
  22       28.274784     28.274784
  23       29.433676     29.433676
  24       29.433682     29.433682
 
  0.5000000E+00  0.1666667E+00  0.6666667E+00  0.6097561E-02
   1       -1.992429     -1.992429
   2       -1.992426     -1.992426
   3        2.053498      2.053498
   4        2.053499      2.053499
   5        8.312111      8.312111
   6        8.312113      8.312113
   7       12.204322     12.204322
   8       12.204326     12.204326
   9       15.915017     15.915017
  10       15.915018     15.915018
  11       18.246407     18.246407
  12       18.246409     18.246409
  13       21.739015     21.739015
  14       21.739017     21.739017
  15       22.485929     22.485929
  16       22.485929     22.485929
  17       24.042670     24.042671
  18       24.042672     24.042672
  19       26.517311     26.517311
  20       26.517316     26.517316
  21       28.382633     28.382633
  22       28.382638     28.382638
  23       29.933653     29.933653
  24       29.933661     29.933661
 