PROCAR lm decomposed
# of k-points:  164         # of bands:  24         # of ions:   2

 k-point    1 :    0.00000000 0.00000000 0.00000000     weight = 0.00609756

band   1 # energy   -6.12294923 # occ.  1.00000000
 
ion      s     py     pz     px    dxy    dyz    dz2    dxz    dx2    tot
  1  0.206  0.000  0.000  0.000  0.000  0.000  0.000  0.000  0.000  0.206
  2  0.206  0.000  0.000  0.000  0.000  0.000  0.000  0.000  0.000  0.206
tot  0.411  0.000  0.000  0.000  0.000  0.000  0.000  0.000  0.000  0.411
 
band   2 # energy    5.54441372 # occ.  0.99469239
 
ion      s     py     pz     px    dxy    dyz    dz2    dxz    dx2    tot
  1  0.000  0.000  0.208  0.000  0.000  0.000  0.000  0.000  0.000  0.209
  2  0.000  0.000  0.208  0.000  0.000  0.000  0.000  0.000  0.000  0.209
tot  0.000  0.000  0.417  0.000  0.000  0.000  0.000  0.000  0.000  0.417
 
band   3 # energy    5.54441424 # occ.  0.99469233
 
ion      s     py     pz     px    dxy    dyz    dz2    dxz    dx2    tot
  1  0.000  0.007  0.000  0.201  0.000  0.000  0.000  0.000  0.000  0.209
  2  0.000  0.007  0.000  0.201  0.000  0.000  0.000  0.000  0.000  0.209
tot  0.000  0.015  0.000  0.402  0.000  0.000  0.000  0.000  0.000  0.417
 
band   4 # energy    5.54441570 # occ.  0.99469217
 
ion      s     py     pz     px    dxy    dyz    dz2    dxz    dx2    tot
  1  0.000  0.201  0.000  0.007  0.000  0.000  0.000  0.000  0.000  0.209
  2  0.000  0.201  0.000  0.007  0.000  0.000  0.000  0.000  0.000  0.209
tot  0.000  0.403  0.000  0.015  0.000  0.000  0.000  0.000  0.000  0.417
 
band   5 # energy    8.13429330 # occ.  0.00000000
 
ion      s     py     pz     px    dxy    dyz    dz2    dxz    dx2    tot
  1  0.000  0.147  0.000  0.000  0.000  0.000  0.000  0.000  0.000  0.147
  2  0.000  0.147  0.000  0.000  0.000  0.000  0.000  0.000  0.000  0.147
tot  0.000  0.295  0.000  0.000  0.000  0.000  0.000  0.000  0.000  0.295
 
band   6 # energy    8.13429756 # occ.  0.00000000
 
ion      s     py     pz     px    dxy    dyz    dz2    dxz    dx2    tot
  1  0.000  0.000  0.000  0.147  0.000  0.000  0.000  0.000  0.000  0.147
  2  0.000  0.000  0.000  0.147  0.000  0.000  0.000  0.000  0.000  0.147
tot  0.000  0.000  0.000  0.295  0.000  0.000  0.000  0.000  0.000  0.295
 
band   7 # energy    8.13429807 # occ.  0.00000000
 
ion      s     py     pz     px    dxy    dyz    dz2    dxz    dx2    tot
  1  0.000  0.000  0.147  0.000  0.000  0.000  0.000  0.000  0.000  0.147
  2  0.000  0.000  0.147  0.000  0.000  0.000  0.000  0.000  0.000  0.147
tot  0.000  0.000  0.295  0.000  0.000  0.000  0.000  0.000  0.000  0.295
 
band   8 # energy    8.63364293 # occ.  0.00000000
 
ion      s     py     pz     px    dxy    dyz    dz2    dxz    dx2    tot
  1  0.350  0.000  0.000  0.000  0.000  0.000  0.000  0.000  0.000  0.350
  2  0.350  0.000  0.000  0.000  0.000  0.000  0.000  0.000  0.000  0.350
tot  0.700  0.000  0.000  0.000  0.000  0.000  0.000  0.000  0.000  0.700
 
band   9 # energy   13.25948134 # occ.  0.00000000
 
ion      s     py     pz     px    dxy    dyz    dz2    dxz    dx2    tot
  1  0.000  0.000  0.000  0.000  0.000  0.000  0.000  0.000  0.000  0.000
  2  0.000  0.000  0.000  0.000  0.000  0.000  0.000  0.000  0.000  0.000
tot  0.000  0.000  0.000  0.000  0.000  0.000  0.000  0.000  0.000  0.000
 
band  10 # energy   13.25948309 # occ.  0.00000000
 
ion      s     py     pz     px    dxy    dyz    dz2    dxz    dx2    tot
  1  0.000  0.000  0.000  0.000  0.000  0.000  0.000  0.000  0.000  0.000
  2  0.000  0.000  0.000  0.000  0.000  0.000  0.000  0.000  0.000  0.000
tot  0.000  0.000  0.000  0.000  0.000  0.000  0.000  0.000  0.000  0.000
 
band  11 # energy   13.35993031 # occ.  0.00000000
 
ion      s     py     pz     px    dxy    dyz    dz2    dxz    dx2    tot
  1  0.098  0.000  0.000  0.000  0.000  0.000  0.000  0.000  0.000  0.098
  2  0.098  0.000  0.000  0.000  0.000  0.000  0.000  0.000  0.000  0.098
tot  0.197  0.000  0.000  0.000  0.000  0.000  0.000  0.000  0.000  0.197
 
band  12 # energy   16.67136859 # occ.  0.00000000
 
ion      s     py     pz     px    dxy    dyz    dz2    dxz    dx2    tot
  1  0.000  0.033  0.000  0.005  0.000  0.000  0.000  0.000  0.000  0.038
  2  0.000  0.033  0.000  0.005  0.000  0.000  0.000  0.000  0.000  0.038
tot  0.000  0.066  0.000  0.011  0.000  0.000  0.000  0.000  0.000  0.077
 
band  13 # energy   16.67137021 # occ.  0.00000000
 
ion      s     py     pz     px    dxy    dyz    dz2    dxz    dx2    tot
  1  0.000  0.000  0.038  0.000  0.000  0.000  0.000  0.000  0.000  0.038
  2  0.000  0.000  0.038  0.000  0.000  0.000  0.000  0.000  0.000  0.038
tot  0.000  0.000  0.077  0.000  0.000  0.000  0.000  0.000  0.000  0.077
 
band  14 # energy   16.67137242 # occ.  0.00000000
 
ion      s     py     pz     px    dxy    dyz    dz2    dxz    dx2    tot
  1  0.000  0.005  0.000  0.033  0.000  0.000  0.000  0.000  0.000  0.038
  2  0.000  0.005  0.000  0.033  0.000  0.000  0.000  0.000  0.000  0.038
tot  0.000  0.011  0.000  0.066  0.000  0.000  0.000  0.000  0.000  0.077
 
band  15 # energy   20.74939295 # occ.  0.00000000
 
ion      s     py     pz     px    dxy    dyz    dz2    dxz    dx2    tot
  1  0.036  0.000  0.000  0.000  0.000  0.000  0.000  0.000  0.000  0.036
  2  0.036  0.000  0.000  0.000  0.000  0.000  0.000  0.000  0.000  0.036
tot  0.073  0.000  0.000  0.000  0.000  0.000  0.000  0.000  0.000  0.073
 
band  16 # energy   28.23238949 # occ.  0.00000000
 
ion      s     py     pz     px    dxy    dyz    dz2    dxz    dx2    tot
  1  0.000  0.001  0.000  0.009  0.000  0.000  0.000  0.000  0.000  0.010
  2  0.000  0.001  0.000  0.009  0.000  0.000  0.000  0.000  0.000  0.010
tot  0.000  0.003  0.000  0.018  0.000  0.000  0.000  0.000  0.000  0.021
 
band  17 # energy   28.23239190 # occ.  0.00000000
 
ion      s     py     pz     px    dxy    dyz    dz2    dxz    dx2    tot
  1  0.000  0.000  0.010  0.000  0.000  0.000  0.000  0.000  0.000  0.010
  2  0.000  0.000  0.010  0.000  0.000  0.000  0.000  0.000  0.000  0.010
tot  0.000  0.000  0.021  0.000  0.000  0.000  0.000  0.000  0.000  0.021
 
band  18 # energy   28.23239368 # occ.  0.00000000
 
ion      s     py     pz     px    dxy    dyz    dz2    dxz    dx2    tot
  1  0.000  0.009  0.000  0.001  0.000  0.000  0.000  0.000  0.000  0.010
  2  0.000  0.009  0.000  0.001  0.000  0.000  0.000  0.000  0.000  0.010
tot  0.000  0.018  0.000  0.003  0.000  0.000  0.000  0.000  0.000  0.021
 
band  19 # energy   29.34917592 # occ.  0.00000000
 
ion      s     py     pz     px    dxy    dyz    dz2    dxz    dx2    tot
  1  0.000  0.000  0.000  0.000  0.000  0.000  0.000  0.000  0.000  0.000
  2  0.000  0.000  0.000  0.000  0.000  0.000  0.000  0.000  0.000  0.000
tot  0.000  0.000  0.000  0.000  0.000  0.000  0.000  0.000  0.000  0.000
 
band  20 # energy   29.34917796 # occ.  0.00000000
 
ion      s     py     pz     px    dxy    dyz    dz2    dxz    dx2    tot
  1  0.000  0.000  0.000  0.000  0.000  0.000  0.000  0.000  0.000  0.000
  2  0.000  0.000  0.000  0.000  0.000  0.000  0.000  0.000  0.000  0.000
tot  0.000  0.000  0.000  0.000  0.000  0.000  0.000  0.000  0.000  0.000
 
band  21 # energy   30.55396416 # occ.  0.00000000
 
ion      s     py     pz     px    dxy    dyz    dz2    dxz    dx2    tot
  1  0.000  0.221  0.000  0.002  0.000  0.000  0.000  0.000  0.000  0.223
  2  0.000  0.221  0.000  0.002  0.000  0.000  0.000  0.000  0.000  0.223
tot  0.000  0.441  0.000  0.005  0.000  0.000  0.000  0.000  0.000  0.446
 
band  22 # energy   30.55397278 # occ.  0.00000000
 
ion      s     py     pz     px    dxy    dyz    dz2    dxz    dx2    tot
  1  0.000  0.000  0.222  0.001  0.000  0.000  0.000  0.000  0.000  0.223
  2  0.000  0.000  0.222  0.001  0.000  0.000  0.000  0.000  0.000  0.223
tot  0.000  0.000  0.443  0.003  0.000  0.000  0.000  0.000  0.000  0.446
 
band  23 # energy   30.55397342 # occ.  0.00000000
 
ion      s     py     pz     px    dxy    dyz    dz2    dxz    dx2    tot
  1  0.000  0.002  0.001  0.219  0.000  0.000  0.000  0.000  0.000  0.223
  2  0.000  0.002  0.001  0.219  0.000  0.000  0.000  0.000  0.000  0.223
tot  0.000  0.005  0.003  0.439  0.000  0.000  0.000  0.000  0.000  0.446
 
band  24 # energy   34.25950898 # occ.  0.00000000
 
ion      s     py     pz     px    dxy    dyz    dz2    dxz    dx2    tot
  1  0.000  0.000  0.000  0.000  0.000  0.000  0.000  0.000  0.000  0.000
  2  0.000  0.000  0.000  0.000  0.000  0.000  0.000  0.000  0.000  0.000
tot  0.000  0.000  0.000  0.000  0.000  0.000  0.000  0.000  0.000  0.000
 

 k-point    2 :    0.02173913 0.00000000 0.02173913     weight = 0.00609756

band   1 # energy   -6.11492590 # occ.  1.00000000
 
ion      s     py     pz     px    dxy    dyz    dz2    dxz    dx2    tot
  1  0.206  0.000  0.000  0.000  0.000  0.000  0.000  0.000  0.000  0.206
  2  0.206  0.000  0.000  0.000  0.000  0.000  0.000  0.000  0.000  0.206
tot  0.411  0.000  0.000  0.000  0.000  0.000  0.000  0.000  0.000  0.411
 
band   2 # energy    5.48641019 # occ.  0.99848788
 
ion      s     py     pz     px    dxy    dyz    dz2    dxz    dx2    tot
  1  0.007  0.068  0.102  0.034  0.000  0.000  0.000  0.000  0.000  0.211
  2  0.007  0.068  0.102  0.034  0.000  0.000  0.000  0.000  0.000  0.211
tot  0.015  0.136  0.204  0.068  0.000  0.000  0.000  0.000  0.000  0.422
 
band   3 # energy    5.51109454 # occ.  0.99737044
 
ion      s     py     pz     px    dxy    dyz    dz2    dxz    dx2    tot
  1  0.000  0.012  0.081  0.114  0.000  0.000  0.000  0.000  0.000  0.208
  2  0.000  0.012  0.081  0.114  0.000  0.000  0.000  0.000  0.000  0.208
tot  0.000  0.025  0.162  0.229  0.000  0.000  0.000  0.000  0.000  0.415
 
band   4 # energy    5.51109568 # occ.  0.99737038
 
ion      s     py     pz     px    dxy    dyz    dz2    dxz    dx2    tot
  1  0.000  0.126  0.023  0.059  0.000  0.000  0.000  0.000  0.000  0.208
  2  0.000  0.126  0.023  0.059  0.000  0.000  0.000  0.000  0.000  0.208
tot  0.000  0.252  0.046  0.118  0.000  0.000  0.000  0.000  0.000  0.415
 
band   5 # energy    8.11410329 # occ.  0.00000000
 
ion      s     py     pz     px    dxy    dyz    dz2    dxz    dx2    tot
  1  0.001  0.049  0.073  0.024  0.000  0.000  0.000  0.000  0.000  0.147
  2  0.001  0.049  0.073  0.024  0.000  0.000  0.000  0.000  0.000  0.147
tot  0.002  0.097  0.146  0.049  0.000  0.000  0.000  0.000  0.000  0.294
 
band   6 # energy    8.17750268 # occ.  0.00000000
 
ion      s     py     pz     px    dxy    dyz    dz2    dxz    dx2    tot
  1  0.000  0.098  0.032  0.017  0.000  0.000  0.000  0.000  0.000  0.148
  2  0.000  0.098  0.032  0.017  0.000  0.000  0.000  0.000  0.000  0.148
tot  0.000  0.197  0.065  0.035  0.000  0.000  0.000  0.000  0.000  0.297
 
band   7 # energy    8.17750552 # occ.  0.00000000
 
ion      s     py     pz     px    dxy    dyz    dz2    dxz    dx2    tot
  1  0.000  0.000  0.042  0.106  0.000  0.000  0.000  0.000  0.000  0.148
  2  0.000  0.000  0.042  0.106  0.000  0.000  0.000  0.000  0.000  0.148
tot  0.000  0.001  0.083  0.212  0.000  0.000  0.000  0.000  0.000  0.297
 
band   8 # energy    8.69055275 # occ.  0.00000000
 
ion      s     py     pz     px    dxy    dyz    dz2    dxz    dx2    tot
  1  0.342  0.002  0.003  0.001  0.000  0.000  0.000  0.000  0.000  0.348
  2  0.342  0.002  0.003  0.001  0.000  0.000  0.000  0.000  0.000  0.348
tot  0.685  0.004  0.005  0.002  0.000  0.000  0.000  0.000  0.000  0.696
 
band   9 # energy   13.19266122 # occ.  0.00000000
 
ion      s     py     pz     px    dxy    dyz    dz2    dxz    dx2    tot
  1  0.000  0.000  0.000  0.000  0.000  0.000  0.000  0.000  0.000  0.000
  2  0.000  0.000  0.000  0.000  0.000  0.000  0.000  0.000  0.000  0.000
tot  0.000  0.000  0.000  0.000  0.000  0.000  0.000  0.000  0.000  0.001
 
band  10 # energy   13.26843100 # occ.  0.00000000
 
ion      s     py     pz     px    dxy    dyz    dz2    dxz    dx2    tot
  1  0.000  0.000  0.000  0.000  0.000  0.000  0.000  0.000  0.000  0.000
  2  0.000  0.000  0.000  0.000  0.000  0.000  0.000  0.000  0.000  0.000
tot  0.000  0.000  0.000  0.000  0.000  0.000  0.000  0.000  0.000  0.000
 
band  11 # energy   13.39613142 # occ.  0.00000000
 
ion      s     py     pz     px    dxy    dyz    dz2    dxz    dx2    tot
  1  0.097  0.001  0.001  0.000  0.000  0.000  0.000  0.000  0.000  0.099
  2  0.097  0.001  0.001  0.000  0.000  0.000  0.000  0.000  0.000  0.099
tot  0.194  0.001  0.002  0.001  0.000  0.000  0.000  0.000  0.000  0.198
 
band  12 # energy   16.68551671 # occ.  0.00000000
 
ion      s     py     pz     px    dxy    dyz    dz2    dxz    dx2    tot
  1  0.000  0.018  0.018  0.002  0.000  0.000  0.000  0.000  0.000  0.038
  2  0.000  0.018  0.018  0.002  0.000  0.000  0.000  0.000  0.000  0.038
tot  0.000  0.036  0.036  0.004  0.000  0.000  0.000  0.000  0.000  0.076
 
band  13 # energy   16.68551968 # occ.  0.00000000
 
ion      s     py     pz     px    dxy    dyz    dz2    dxz    dx2    tot
  1  0.000  0.007  0.001  0.030  0.000  0.000  0.000  0.000  0.000  0.038
  2  0.000  0.007  0.001  0.030  0.000  0.000  0.000  0.000  0.000  0.038
tot  0.000  0.015  0.002  0.060  0.000  0.000  0.000  0.000  0.000  0.076
 
band  14 # energy   16.71866635 # occ.  0.00000000
 
ion      s     py     pz     px    dxy    dyz    dz2    dxz    dx2    tot
  1  0.001  0.012  0.018  0.006  0.000  0.000  0.000  0.000  0.000  0.038
  2  0.001  0.012  0.018  0.006  0.000  0.000  0.000  0.000  0.000  0.038
tot  0.002  0.025  0.037  0.012  0.000  0.000  0.000  0.000  0.000  0.075
 
band  15 # energy   20.80808081 # occ.  0.00000000
 
ion      s     py     pz     px    dxy    dyz    dz2    dxz    dx2    tot
  1  0.035  0.000  0.000  0.000  0.000  0.000  0.000  0.000  0.000  0.036
  2  0.035  0.000  0.000  0.000  0.000  0.000  0.000  0.000  0.000  0.036
tot  0.071  0.001  0.001  0.000  0.000  0.000  0.000  0.000  0.000  0.073
 
band  16 # energy   28.09313570 # occ.  0.00000000
 
ion      s     py     pz     px    dxy    dyz    dz2    dxz    dx2    tot
  1  0.000  0.004  0.005  0.011  0.000  0.000  0.000  0.000  0.000  0.020
  2  0.000  0.004  0.005  0.011  0.000  0.000  0.000  0.000  0.000  0.020
tot  0.000  0.008  0.010  0.022  0.000  0.000  0.000  0.000  0.000  0.039
 
band  17 # energy   28.09313891 # occ.  0.00000000
 
ion      s     py     pz     px    dxy    dyz    dz2    dxz    dx2    tot
  1  0.000  0.009  0.005  0.006  0.000  0.000  0.000  0.000  0.000  0.020
  2  0.000  0.009  0.005  0.006  0.000  0.000  0.000  0.000  0.000  0.020
tot  0.000  0.018  0.010  0.011  0.000  0.000  0.000  0.000  0.000  0.039
 
band  18 # energy   28.24259573 # occ.  0.00000000
 
ion      s     py     pz     px    dxy    dyz    dz2    dxz    dx2    tot
  1  0.000  0.003  0.005  0.002  0.000  0.000  0.000  0.000  0.000  0.010
  2  0.000  0.003  0.005  0.002  0.000  0.000  0.000  0.000  0.000  0.010
tot  0.000  0.007  0.010  0.003  0.000  0.000  0.000  0.000  0.000  0.021
 
band  19 # energy   29.24317666 # occ.  0.00000000
 
ion      s     py     pz     px    dxy    dyz    dz2    dxz    dx2    tot
  1  0.000  0.000  0.000  0.000  0.000  0.000  0.000  0.000  0.000  0.000
  2  0.000  0.000  0.000  0.000  0.000  0.000  0.000  0.000  0.000  0.000
tot  0.000  0.000  0.000  0.000  0.000  0.000  0.000  0.000  0.000  0.000
 
band  20 # energy   29.25636888 # occ.  0.00000000
 
ion      s     py     pz     px    dxy    dyz    dz2    dxz    dx2    tot
  1  0.000  0.006  0.009  0.003  0.000  0.000  0.000  0.000  0.000  0.018
  2  0.000  0.006  0.009  0.003  0.000  0.000  0.000  0.000  0.000  0.018
tot  0.000  0.012  0.018  0.006  0.000  0.000  0.000  0.000  0.000  0.036
 
band  21 # energy   30.62385407 # occ.  0.00000000
 
ion      s     py     pz     px    dxy    dyz    dz2    dxz    dx2    tot
  1  0.001  0.068  0.102  0.034  0.000  0.000  0.000  0.000  0.000  0.205
  2  0.001  0.068  0.102  0.034  0.000  0.000  0.000  0.000  0.000  0.205
tot  0.002  0.136  0.204  0.068  0.000  0.000  0.000  0.000  0.000  0.409
 
band  22 # energy   30.64998550 # occ.  0.00000000
 
ion      s     py     pz     px    dxy    dyz    dz2    dxz    dx2    tot
  1  0.000  0.140  0.067  0.007  0.000  0.000  0.000  0.000  0.000  0.213
  2  0.000  0.140  0.067  0.007  0.000  0.000  0.000  0.000  0.000  0.213
tot  0.000  0.280  0.134  0.013  0.000  0.000  0.000  0.000  0.000  0.427
 
band  23 # energy   30.64999148 # occ.  0.00000000
 
ion      s     py     pz     px    dxy    dyz    dz2    dxz    dx2    tot
  1  0.000  0.002  0.040  0.171  0.000  0.000  0.000  0.000  0.000  0.213
  2  0.000  0.002  0.040  0.171  0.000  0.000  0.000  0.000  0.000  0.213
tot  0.000  0.005  0.079  0.343  0.000  0.000  0.000  0.000  0.000  0.427
 
band  24 # energy   34.32187310 # occ.  0.00000000
 
ion      s     py     pz     px    dxy    dyz    dz2    dxz    dx2    tot
  1  0.000  0.000  0.000  0.000  0.000  0.000  0.000  0.000  0.000  0.000
  2  0.000  0.000  0.000  0.000  0.000  0.000  0.000  0.000  0.000  0.000
tot  0.000  0.000  0.000  0.000  0.000  0.000  0.000  0.000  0.000  0.000
 

 k-point    3 :    0.04347826 0.00000000 0.04347826     weight = 0.00609756

band   1 # energy   -6.09082712 # occ.  1.00000000
 
ion      s     py     pz     px    dxy    dyz    dz2    dxz    dx2    tot
  1  0.205  0.000  0.000  0.000  0.000  0.000  0.000  0.000  0.000  0.206
  2  0.205  0.000  0.000  0.000  0.000  0.000  0.000  0.000  0.000  0.206
tot  0.411  0.000  0.000  0.000  0.000  0.000  0.000  0.000  0.000  0.412
 
band   2 # energy    5.32430192 # occ.  0.99998035
 
ion      s     py     pz     px    dxy    dyz    dz2    dxz    dx2    tot
  1  0.025  0.064  0.096  0.032  0.000  0.000  0.000  0.000  0.000  0.216
  2  0.025  0.064  0.096  0.032  0.000  0.000  0.000  0.000  0.000  0.216
tot  0.051  0.127  0.191  0.064  0.000  0.000  0.000  0.000  0.000  0.433
 
band   3 # energy    5.41745796 # occ.  0.99972263
 
ion      s     py     pz     px    dxy    dyz    dz2    dxz    dx2    tot
  1  0.000  0.015  0.081  0.109  0.000  0.000  0.000  0.000  0.000  0.206
  2  0.000  0.015  0.081  0.109  0.000  0.000  0.000  0.000  0.000  0.206
tot  0.000  0.031  0.162  0.218  0.000  0.000  0.000  0.000  0.000  0.411
 
band   4 # energy    5.41745893 # occ.  0.99972262
 
ion      s     py     pz     px    dxy    dyz    dz2    dxz    dx2    tot
  1  0.000  0.122  0.022  0.062  0.000  0.000  0.000  0.000  0.000  0.206
  2  0.000  0.122  0.022  0.062  0.000  0.000  0.000  0.000  0.000  0.206
tot  0.000  0.243  0.044  0.125  0.000  0.000  0.000  0.000  0.000  0.411
 
band   5 # energy    8.05538821 # occ.  0.00000000
 
ion      s     py     pz     px    dxy    dyz    dz2    dxz    dx2    tot
  1  0.003  0.047  0.071  0.024  0.000  0.000  0.000  0.000  0.000  0.145
  2  0.003  0.047  0.071  0.024  0.000  0.000  0.000  0.000  0.000  0.145
tot  0.007  0.095  0.142  0.047  0.000  0.000  0.000  0.000  0.000  0.291
 
band   6 # energy    8.30077788 # occ.  0.00000000
 
ion      s     py     pz     px    dxy    dyz    dz2    dxz    dx2    tot
  1  0.000  0.100  0.033  0.018  0.000  0.000  0.000  0.000  0.000  0.150
  2  0.000  0.100  0.033  0.018  0.000  0.000  0.000  0.000  0.000  0.150
tot  0.000  0.199  0.065  0.037  0.000  0.000  0.000  0.000  0.000  0.301
 
band   7 # energy    8.30078053 # occ.  0.00000000
 
ion      s     py     pz     px    dxy    dyz    dz2    dxz    dx2    tot
  1  0.000  0.001  0.043  0.107  0.000  0.000  0.000  0.000  0.000  0.150
  2  0.000  0.001  0.043  0.107  0.000  0.000  0.000  0.000  0.000  0.150
tot  0.000  0.001  0.085  0.214  0.000  0.000  0.000  0.000  0.000  0.301
 
band   8 # energy    8.84778695 # occ.  0.00000000
 
ion      s     py     pz     px    dxy    dyz    dz2    dxz    dx2    tot
  1  0.324  0.006  0.009  0.003  0.000  0.000  0.000  0.000  0.000  0.343
  2  0.324  0.006  0.009  0.003  0.000  0.000  0.000  0.000  0.000  0.343
tot  0.648  0.013  0.019  0.006  0.000  0.000  0.000  0.000  0.000  0.685
 
band   9 # energy   13.00884250 # occ.  0.00000000
 
ion      s     py     pz     px    dxy    dyz    dz2    dxz    dx2    tot
  1  0.000  0.000  0.000  0.000  0.000  0.000  0.000  0.000  0.000  0.001
  2  0.000  0.000  0.000  0.000  0.000  0.000  0.000  0.000  0.000  0.001
tot  0.001  0.001  0.001  0.000  0.000  0.000  0.000  0.000  0.000  0.002
 
band  10 # energy   13.29526676 # occ.  0.00000000
 
ion      s     py     pz     px    dxy    dyz    dz2    dxz    dx2    tot
  1  0.000  0.000  0.000  0.000  0.000  0.000  0.000  0.000  0.000  0.000
  2  0.000  0.000  0.000  0.000  0.000  0.000  0.000  0.000  0.000  0.000
tot  0.000  0.000  0.000  0.000  0.000  0.000  0.000  0.000  0.000  0.000
 
band  11 # energy   13.50283167 # occ.  0.00000000
 
ion      s     py     pz     px    dxy    dyz    dz2    dxz    dx2    tot
  1  0.094  0.002  0.003  0.001  0.000  0.000  0.000  0.000  0.000  0.100
  2  0.094  0.002  0.003  0.001  0.000  0.000  0.000  0.000  0.000  0.100
tot  0.189  0.004  0.006  0.002  0.000  0.000  0.000  0.000  0.000  0.201
 
band  12 # energy   16.72792410 # occ.  0.00000000
 
ion      s     py     pz     px    dxy    dyz    dz2    dxz    dx2    tot
  1  0.000  0.018  0.018  0.002  0.000  0.000  0.000  0.000  0.000  0.038
  2  0.000  0.018  0.018  0.002  0.000  0.000  0.000  0.000  0.000  0.038
tot  0.000  0.036  0.036  0.004  0.000  0.000  0.000  0.000  0.000  0.076
 
band  13 # energy   16.72792706 # occ.  0.00000000
 
ion      s     py     pz     px    dxy    dyz    dz2    dxz    dx2    tot
  1  0.000  0.007  0.001  0.030  0.000  0.000  0.000  0.000  0.000  0.038
  2  0.000  0.007  0.001  0.030  0.000  0.000  0.000  0.000  0.000  0.038
tot  0.000  0.015  0.002  0.059  0.000  0.000  0.000  0.000  0.000  0.076
 
band  14 # energy   16.84703432 # occ.  0.00000000
 
ion      s     py     pz     px    dxy    dyz    dz2    dxz    dx2    tot
  1  0.003  0.011  0.017  0.006  0.000  0.000  0.000  0.000  0.000  0.036
  2  0.003  0.011  0.017  0.006  0.000  0.000  0.000  0.000  0.000  0.036
tot  0.006  0.022  0.033  0.011  0.000  0.000  0.000  0.000  0.000  0.072
 
band  15 # energy   20.98231623 # occ.  0.00000000
 
ion      s     py     pz     px    dxy    dyz    dz2    dxz    dx2    tot
  1  0.033  0.001  0.002  0.001  0.000  0.000  0.000  0.000  0.000  0.037
  2  0.033  0.001  0.002  0.001  0.000  0.000  0.000  0.000  0.000  0.037
tot  0.067  0.002  0.004  0.001  0.000  0.000  0.000  0.000  0.000  0.074
 
band  16 # energy   27.73665677 # occ.  0.00000000
 
ion      s     py     pz     px    dxy    dyz    dz2    dxz    dx2    tot
  1  0.000  0.008  0.013  0.015  0.000  0.000  0.000  0.000  0.000  0.037
  2  0.000  0.008  0.013  0.015  0.000  0.000  0.000  0.000  0.000  0.037
tot  0.000  0.016  0.027  0.031  0.000  0.000  0.000  0.000  0.000  0.073
 
band  17 # energy   27.73665992 # occ.  0.00000000
 
ion      s     py     pz     px    dxy    dyz    dz2    dxz    dx2    tot
  1  0.000  0.016  0.005  0.015  0.000  0.000  0.000  0.000  0.000  0.037
  2  0.000  0.016  0.005  0.015  0.000  0.000  0.000  0.000  0.000  0.037
tot  0.000  0.033  0.010  0.030  0.000  0.000  0.000  0.000  0.000  0.073
 
band  18 # energy   28.27337665 # occ.  0.00000000
 
ion      s     py     pz     px    dxy    dyz    dz2    dxz    dx2    tot
  1  0.000  0.003  0.005  0.002  0.000  0.000  0.000  0.000  0.000  0.010
  2  0.000  0.003  0.005  0.002  0.000  0.000  0.000  0.000  0.000  0.010
tot  0.000  0.007  0.010  0.003  0.000  0.000  0.000  0.000  0.000  0.020
 
band  19 # energy   28.95071016 # occ.  0.00000000
 
ion      s     py     pz     px    dxy    dyz    dz2    dxz    dx2    tot
  1  0.000  0.000  0.000  0.000  0.000  0.000  0.000  0.000  0.000  0.000
  2  0.000  0.000  0.000  0.000  0.000  0.000  0.000  0.000  0.000  0.000
tot  0.000  0.000  0.000  0.000  0.000  0.000  0.000  0.000  0.000  0.000
 
band  20 # energy   29.02377695 # occ.  0.00000000
 
ion      s     py     pz     px    dxy    dyz    dz2    dxz    dx2    tot
  1  0.001  0.016  0.025  0.008  0.000  0.000  0.000  0.000  0.000  0.050
  2  0.001  0.016  0.025  0.008  0.000  0.000  0.000  0.000  0.000  0.050
tot  0.001  0.033  0.049  0.016  0.000  0.000  0.000  0.000  0.000  0.099
 
band  21 # energy   30.78772823 # occ.  0.00000000
 
ion      s     py     pz     px    dxy    dyz    dz2    dxz    dx2    tot
  1  0.003  0.056  0.085  0.028  0.000  0.000  0.000  0.000  0.000  0.172
  2  0.003  0.056  0.085  0.028  0.000  0.000  0.000  0.000  0.000  0.172
tot  0.005  0.113  0.169  0.056  0.000  0.000  0.000  0.000  0.000  0.343
 
band  22 # energy   30.87648841 # occ.  0.00000000
 
ion      s     py     pz     px    dxy    dyz    dz2    dxz    dx2    tot
  1  0.000  0.129  0.059  0.007  0.000  0.000  0.000  0.000  0.000  0.195
  2  0.000  0.129  0.059  0.007  0.000  0.000  0.000  0.000  0.000  0.195
tot  0.000  0.257  0.119  0.015  0.000  0.000  0.000  0.000  0.000  0.391
 
band  23 # energy   30.87649471 # occ.  0.00000000
 
ion      s     py     pz     px    dxy    dyz    dz2    dxz    dx2    tot
  1  0.000  0.002  0.038  0.155  0.000  0.000  0.000  0.000  0.000  0.195
  2  0.000  0.002  0.038  0.155  0.000  0.000  0.000  0.000  0.000  0.195
tot  0.000  0.003  0.077  0.311  0.000  0.000  0.000  0.000  0.000  0.391
 
band  24 # energy   34.50545843 # occ.  0.00000000
 
ion      s     py     pz     px    dxy    dyz    dz2    dxz    dx2    tot
  1  0.000  0.001  0.000  0.000  0.000  0.000  0.000  0.000  0.000  0.001
  2  0.000  0.001  0.000  0.000  0.000  0.000  0.000  0.000  0.000  0.001
tot  0.000  0.001  0.000  0.001  0.000  0.000  0.000  0.000  0.000  0.002
 

 k-point    4 :    0.06521739 0.00000000 0.06521739     weight = 0.00609756

band   1 # energy   -6.05067562 # occ.  1.00000000
 
ion      s     py     pz     px    dxy    dyz    dz2    dxz    dx2    tot
  1  0.205  0.000  0.000  0.000  0.000  0.000  0.000  0.000  0.000  0.206
  2  0.205  0.000  0.000  0.000  0.000  0.000  0.000  0.000  0.000  0.206
tot  0.411  0.001  0.001  0.000  0.000  0.000  0.000  0.000  0.000  0.412
 
band   2 # energy    5.08439083 # occ.  1.00000000
 
ion      s     py     pz     px    dxy    dyz    dz2    dxz    dx2    tot
  1  0.047  0.059  0.088  0.029  0.000  0.000  0.000  0.000  0.000  0.223
  2  0.047  0.059  0.088  0.029  0.000  0.000  0.000  0.000  0.000  0.223
tot  0.094  0.117  0.176  0.059  0.000  0.000  0.000  0.000  0.000  0.446
 
band   3 # energy    5.27831887 # occ.  0.99999543
 
ion      s     py     pz     px    dxy    dyz    dz2    dxz    dx2    tot
  1  0.000  0.022  0.082  0.100  0.000  0.000  0.000  0.000  0.000  0.203
  2  0.000  0.022  0.082  0.100  0.000  0.000  0.000  0.000  0.000  0.203
tot  0.000  0.044  0.163  0.199  0.000  0.000  0.000  0.000  0.000  0.406
 
band   4 # energy    5.27831964 # occ.  0.99999543
 
ion      s     py     pz     px    dxy    dyz    dz2    dxz    dx2    tot
  1  0.000  0.114  0.020  0.070  0.000  0.000  0.000  0.000  0.000  0.203
  2  0.000  0.114  0.020  0.070  0.000  0.000  0.000  0.000  0.000  0.203
tot  0.000  0.227  0.040  0.139  0.000  0.000  0.000  0.000  0.000  0.406
 
band   5 # energy    7.96316523 # occ.  0.00000000
 
ion      s     py     pz     px    dxy    dyz    dz2    dxz    dx2    tot
  1  0.007  0.045  0.068  0.023  0.000  0.000  0.000  0.000  0.000  0.143
  2  0.007  0.045  0.068  0.023  0.000  0.000  0.000  0.000  0.000  0.143
tot  0.014  0.091  0.136  0.045  0.000  0.000  0.000  0.000  0.000  0.286
 
band   6 # energy    8.48921197 # occ.  0.00000000
 
ion      s     py     pz     px    dxy    dyz    dz2    dxz    dx2    tot
  1  0.000  0.101  0.033  0.019  0.000  0.000  0.000  0.000  0.000  0.153
  2  0.000  0.101  0.033  0.019  0.000  0.000  0.000  0.000  0.000  0.153
tot  0.000  0.202  0.065  0.039  0.000  0.000  0.000  0.000  0.000  0.306
 
band   7 # energy    8.48921438 # occ.  0.00000000
 
ion      s     py     pz     px    dxy    dyz    dz2    dxz    dx2    tot
  1  0.000  0.001  0.044  0.108  0.000  0.000  0.000  0.000  0.000  0.153
  2  0.000  0.001  0.044  0.108  0.000  0.000  0.000  0.000  0.000  0.153
tot  0.000  0.002  0.088  0.216  0.000  0.000  0.000  0.000  0.000  0.306
 
band   8 # energy    9.07366068 # occ.  0.00000000
 
ion      s     py     pz     px    dxy    dyz    dz2    dxz    dx2    tot
  1  0.300  0.012  0.018  0.006  0.000  0.000  0.000  0.000  0.000  0.336
  2  0.300  0.012  0.018  0.006  0.000  0.000  0.000  0.000  0.000  0.336
tot  0.601  0.024  0.036  0.012  0.000  0.000  0.000  0.000  0.000  0.673
 
band   9 # energy   12.74733795 # occ.  0.00000000
 
ion      s     py     pz     px    dxy    dyz    dz2    dxz    dx2    tot
  1  0.002  0.000  0.000  0.000  0.000  0.000  0.000  0.000  0.000  0.003
  2  0.002  0.000  0.000  0.000  0.000  0.000  0.000  0.000  0.000  0.003
tot  0.004  0.001  0.001  0.000  0.000  0.000  0.000  0.000  0.000  0.005
 
band  10 # energy   13.33998943 # occ.  0.00000000
 
ion      s     py     pz     px    dxy    dyz    dz2    dxz    dx2    tot
  1  0.000  0.000  0.000  0.000  0.000  0.000  0.000  0.000  0.000  0.000
  2  0.000  0.000  0.000  0.000  0.000  0.000  0.000  0.000  0.000  0.000
tot  0.000  0.000  0.000  0.000  0.000  0.000  0.000  0.000  0.000  0.000
 
band  11 # energy   13.67485116 # occ.  0.00000000
 
ion      s     py     pz     px    dxy    dyz    dz2    dxz    dx2    tot
  1  0.090  0.004  0.006  0.002  0.000  0.000  0.000  0.000  0.000  0.103
  2  0.090  0.004  0.006  0.002  0.000  0.000  0.000  0.000  0.000  0.103
tot  0.180  0.008  0.013  0.004  0.000  0.000  0.000  0.000  0.000  0.205
 
band  12 # energy   16.79848650 # occ.  0.00000000
 
ion      s     py     pz     px    dxy    dyz    dz2    dxz    dx2    tot
  1  0.000  0.018  0.018  0.002  0.000  0.000  0.000  0.000  0.000  0.037
  2  0.000  0.018  0.018  0.002  0.000  0.000  0.000  0.000  0.000  0.037
tot  0.000  0.036  0.035  0.004  0.000  0.000  0.000  0.000  0.000  0.075
 
band  13 # energy   16.79848944 # occ.  0.00000000
 