
     Program PWSCF v.6.0 starts on  9Jul2020 at 21:49:49 

     This program is part of the open-source Quantum ESPRESSO suite
     for quantum simulation of materials; please cite
         "P. Giannozzi et al., J. Phys.:Condens. Matter 21 395502 (2009);
          URL http://www.quantum-espresso.org", 
     in publications or presentations arising from this work. More details at
     http://www.quantum-espresso.org/quote

     Parallel version (MPI), running on     1 processors
     Reading input from qe.in

     Current dimensions of program PWSCF are:
     Max number of different atomic species (ntypx) = 10
     Max number of k-points (npk) =  40000
     Max angular momentum in pseudopotentials (lmaxx) =  3

     Subspace diagonalization in iterative solution of the eigenvalue problem:
     a serial algorithm will be used


     G-vector sticks info
     --------------------
     sticks:   dense  smooth     PW     G-vecs:    dense   smooth      PW
     Sum         913     649    199                18053    11017    1917



     bravais-lattice index     =            0
     lattice parameter (alat)  =       7.2558  a.u.
     unit-cell volume          =     270.1072 (a.u.)^3
     number of atoms/cell      =            2
     number of atomic types    =            1
     number of electrons       =         8.00
     number of Kohn-Sham states=            8
     kinetic-energy cutoff     =      45.0000  Ry
     charge density cutoff     =     250.0000  Ry
     convergence threshold     =      1.0E-09
     mixing beta               =       0.3000
     number of iterations used =            8  local-TF  mixing
     Exchange-correlation      = SLA  PW   PSX  PSC ( 1  4 10  8 0 0)
     nstep                     =          100

     A smooth kinetic-energy cutoff is imposed at      44.5000 Ry
     height of the smooth step-function =             800.0000 Ry
     width of the smooth step-function  =               1.0000 Ry


     celldm(1)=   7.255773  celldm(2)=   0.000000  celldm(3)=   0.000000
     celldm(4)=   0.000000  celldm(5)=   0.000000  celldm(6)=   0.000000

     crystal axes: (cart. coord. in units of alat)
               a(1) = (   0.707107   0.707107   0.000000 )  
               a(2) = (   0.000000   0.707107   0.707107 )  
               a(3) = (   0.707107   0.000000   0.707107 )  

     reciprocal axes: (cart. coord. in units 2 pi/alat)
               b(1) = (  0.707107  0.707107 -0.707107 )  
               b(2) = ( -0.707107  0.707107  0.707107 )  
               b(3) = (  0.707107 -0.707107  0.707107 )  


     PseudoPot. # 1 for Si read from file:
     QE_PSPs/si_pbesol_v1.uspp.F.UPF
     MD5 check sum: ef58ba74faed4df802eb8a9742fc00a8
     Pseudo is Ultrasoft + core correction, Zval =  4.0
     Generated by new atomic code, or converted to UPF format
     Using radial grid of  899 points,  6 beta functions with: 
                l(1) =   0
                l(2) =   0
                l(3) =   1
                l(4) =   1
                l(5) =   2
                l(6) =   2
     Q(r) pseudized with  8 coefficients,  rinner =    0.900   0.900   0.900
                                                       0.900   0.900

     atomic species   valence    mass     pseudopotential
        Si             4.00    28.09000     Si( 1.00)

     24 Sym. Ops. (no inversion) found


                                    s                        frac. trans.

      isym =  1     identity                                     

 cryst.   s( 1) = (     1          0          0      )
                  (     0          1          0      )
                  (     0          0          1      )

 cart.    s( 1) = (  1.0000000  0.0000000  0.0000000 )
                  (  0.0000000  1.0000000  0.0000000 )
                  (  0.0000000  0.0000000  1.0000000 )


      isym =  2     180 deg rotation - cart. axis [0,0,1]        

 cryst.   s( 2) = (    -1          0          0      )
                  (    -1          0          1      )
                  (    -1          1          0      )

 cart.    s( 2) = ( -1.0000000  0.0000000  0.0000000 )
                  (  0.0000000 -1.0000000  0.0000000 )
                  (  0.0000000  0.0000000  1.0000000 )


      isym =  3     180 deg rotation - cart. axis [0,1,0]        

 cryst.   s( 3) = (     0          1         -1      )
                  (     1          0         -1      )
                  (     0          0         -1      )

 cart.    s( 3) = ( -1.0000000  0.0000000  0.0000000 )
                  (  0.0000000  1.0000000  0.0000000 )
                  (  0.0000000  0.0000000 -1.0000000 )


      isym =  4     180 deg rotation - cart. axis [1,0,0]        

 cryst.   s( 4) = (     0         -1          1      )
                  (     0         -1          0      )
                  (     1         -1          0      )

 cart.    s( 4) = (  1.0000000  0.0000000  0.0000000 )
                  (  0.0000000 -1.0000000  0.0000000 )
                  (  0.0000000  0.0000000 -1.0000000 )


      isym =  5     120 deg rotation - cart. axis [-1,-1,-1]     

 cryst.   s( 5) = (     0          0          1      )
                  (     1          0          0      )
                  (     0          1          0      )

 cart.    s( 5) = (  0.0000000  1.0000000  0.0000000 )
                  (  0.0000000  0.0000000  1.0000000 )
                  (  1.0000000  0.0000000  0.0000000 )


      isym =  6     120 deg rotation - cart. axis [-1,1,1]       

 cryst.   s( 6) = (     0          0         -1      )
                  (     0          1         -1      )
                  (     1          0         -1      )

 cart.    s( 6) = (  0.0000000 -1.0000000  0.0000000 )
                  (  0.0000000  0.0000000  1.0000000 )
                  ( -1.0000000  0.0000000  0.0000000 )


      isym =  7     120 deg rotation - cart. axis [1,1,-1]       

 cryst.   s( 7) = (     1         -1          0      )
                  (     0         -1          1      )
                  (     0         -1          0      )

 cart.    s( 7) = (  0.0000000  1.0000000  0.0000000 )
                  (  0.0000000  0.0000000 -1.0000000 )
                  ( -1.0000000  0.0000000  0.0000000 )


      isym =  8     120 deg rotation - cart. axis [1,-1,1]       

 cryst.   s( 8) = (    -1          1          0      )
                  (    -1          0          0      )
                  (    -1          0          1      )

 cart.    s( 8) = (  0.0000000 -1.0000000  0.0000000 )
                  (  0.0000000  0.0000000 -1.0000000 )
                  (  1.0000000  0.0000000  0.0000000 )


      isym =  9     120 deg rotation - cart. axis [1,1,1]        

 cryst.   s( 9) = (     0          1          0      )
                  (     0          0          1      )
                  (     1          0          0      )

 cart.    s( 9) = (  0.0000000  0.0000000  1.0000000 )
                  (  1.0000000  0.0000000  0.0000000 )
                  (  0.0000000  1.0000000  0.0000000 )


      isym = 10     120 deg rotation - cart. axis [-1,1,-1]      

 cryst.   s(10) = (     0         -1          0      )
                  (     1         -1          0      )
                  (     0         -1          1      )

 cart.    s(10) = (  0.0000000  0.0000000  1.0000000 )
                  ( -1.0000000  0.0000000  0.0000000 )
                  (  0.0000000 -1.0000000  0.0000000 )


      isym = 11     120 deg rotation - cart. axis [1,-1,-1]      

 cryst.   s(11) = (    -1          0          1      )
                  (    -1          1          0      )
                  (    -1          0          0      )

 cart.    s(11) = (  0.0000000  0.0000000 -1.0000000 )
                  ( -1.0000000  0.0000000  0.0000000 )
                  (  0.0000000  1.0000000  0.0000000 )


      isym = 12     120 deg rotation - cart. axis [-1,-1,1]      

 cryst.   s(12) = (     1          0         -1      )
                  (     0          0         -1      )
                  (     0          1         -1      )

 cart.    s(12) = (  0.0000000  0.0000000 -1.0000000 )
                  (  1.0000000  0.0000000  0.0000000 )
                  (  0.0000000 -1.0000000  0.0000000 )


      isym = 13     inv. 180 deg rotation - cart. axis [1,1,0]   

 cryst.   s(13) = (    -1          0          0      )
                  (    -1          1          0      )
                  (    -1          0          1      )

 cart.    s(13) = (  0.0000000 -1.0000000  0.0000000 )
                  ( -1.0000000  0.0000000  0.0000000 )
                  (  0.0000000  0.0000000  1.0000000 )


      isym = 14     inv. 180 deg rotation - cart. axis [1,-1,0]  

 cryst.   s(14) = (     1          0          0      )
                  (     0          0          1      )
                  (     0          1          0      )

 cart.    s(14) = (  0.0000000  1.0000000  0.0000000 )
                  (  1.0000000  0.0000000  0.0000000 )
                  (  0.0000000  0.0000000  1.0000000 )


      isym = 15     inv.  90 deg rotation - cart. axis [0,0,-1]  

 cryst.   s(15) = (     0          1         -1      )
                  (     0          0         -1      )
                  (     1          0         -1      )

 cart.    s(15) = (  0.0000000 -1.0000000  0.0000000 )
                  (  1.0000000  0.0000000  0.0000000 )
                  (  0.0000000  0.0000000 -1.0000000 )


      isym = 16     inv.  90 deg rotation - cart. axis [0,0,1]   

 cryst.   s(16) = (     0         -1          1      )
                  (     1         -1          0      )
                  (     0         -1          0      )

 cart.    s(16) = (  0.0000000  1.0000000  0.0000000 )
                  ( -1.0000000  0.0000000  0.0000000 )
                  (  0.0000000  0.0000000 -1.0000000 )


      isym = 17     inv. 180 deg rotation - cart. axis [1,0,1]   

 cryst.   s(17) = (     1          0         -1      )
                  (     0          1         -1      )
                  (     0          0         -1      )

 cart.    s(17) = (  0.0000000  0.0000000 -1.0000000 )
                  (  0.0000000  1.0000000  0.0000000 )
                  ( -1.0000000  0.0000000  0.0000000 )


      isym = 18     inv. 180 deg rotation - cart. axis [-1,0,1]  

 cryst.   s(18) = (     0          1          0      )
                  (     1          0          0      )
                  (     0          0          1      )

 cart.    s(18) = (  0.0000000  0.0000000  1.0000000 )
                  (  0.0000000  1.0000000  0.0000000 )
                  (  1.0000000  0.0000000  0.0000000 )


      isym = 19     inv.  90 deg rotation - cart. axis [0,1,0]   

 cryst.   s(19) = (    -1          0          1      )
                  (    -1          0          0      )
                  (    -1          1          0      )

 cart.    s(19) = (  0.0000000  0.0000000 -1.0000000 )
                  (  0.0000000 -1.0000000  0.0000000 )
                  (  1.0000000  0.0000000  0.0000000 )


      isym = 20     inv.  90 deg rotation - cart. axis [0,-1,0]  

 cryst.   s(20) = (     0         -1          0      )
                  (     0         -1          1      )
                  (     1         -1          0      )

 cart.    s(20) = (  0.0000000  0.0000000  1.0000000 )
                  (  0.0000000 -1.0000000  0.0000000 )
                  ( -1.0000000  0.0000000  0.0000000 )


      isym = 21     inv. 180 deg rotation - cart. axis [0,1,1]   

 cryst.   s(21) = (     1         -1          0      )
                  (     0         -1          0      )
                  (     0         -1          1      )

 cart.    s(21) = (  1.0000000  0.0000000  0.0000000 )
                  (  0.0000000  0.0000000 -1.0000000 )
                  (  0.0000000 -1.0000000  0.0000000 )


      isym = 22     inv. 180 deg rotation - cart. axis [0,1,-1]  

 cryst.   s(22) = (     0          0          1      )
                  (     0          1          0      )
                  (     1          0          0      )

 cart.    s(22) = (  1.0000000  0.0000000  0.0000000 )
                  (  0.0000000  0.0000000  1.0000000 )
                  (  0.0000000  1.0000000  0.0000000 )


      isym = 23     inv.  90 deg rotation - cart. axis [-1,0,0]  

 cryst.   s(23) = (    -1          1          0      )
                  (    -1          0          1      )
                  (    -1          0          0      )

 cart.    s(23) = ( -1.0000000  0.0000000  0.0000000 )
                  (  0.0000000  0.0000000 -1.0000000 )
                  (  0.0000000  1.0000000  0.0000000 )


      isym = 24     inv.  90 deg rotation - cart. axis [1,0,0]   

 cryst.   s(24) = (     0          0         -1      )
                  (     1          0         -1      )
                  (     0          1         -1      )

 cart.    s(24) = ( -1.0000000  0.0000000  0.0000000 )
                  (  0.0000000  0.0000000  1.0000000 )
                  (  0.0000000 -1.0000000  0.0000000 )


   Cartesian axes

     site n.     atom                  positions (alat units)
         1           Si  tau(   1) = (   0.0000000   0.0000000   0.0000000  )
         2           Si  tau(   2) = (   0.3535534   0.3535534   0.3535534  )

   Crystallographic axes

     site n.     atom                  positions (cryst. coord.)
         1           Si  tau(   1) = (  0.0000000  0.0000000  0.0000000  )
         2           Si  tau(   2) = (  0.2500000  0.2500000  0.2500000  )

     number of k points=    16  gaussian smearing, width (Ry)=  0.0100
                       cart. coord. in units 2pi/alat
        k(    1) = (   0.0000000   0.0000000   0.0000000), wk =   0.0092593
        k(    2) = (   0.1178511  -0.1178511   0.1178511), wk =   0.0740741
        k(    3) = (   0.2357023  -0.2357023   0.2357023), wk =   0.0740741
        k(    4) = (  -0.3535534   0.3535534  -0.3535534), wk =   0.0370370
        k(    5) = (   0.0000000   0.0000000   0.2357023), wk =   0.0555556
        k(    6) = (   0.1178511  -0.1178511   0.3535534), wk =   0.2222222
        k(    7) = (  -0.4714045   0.4714045  -0.2357023), wk =   0.2222222
        k(    8) = (  -0.3535534   0.3535534  -0.1178511), wk =   0.2222222
        k(    9) = (  -0.2357023   0.2357023   0.0000000), wk =   0.1111111
        k(   10) = (   0.0000000   0.0000000   0.4714045), wk =   0.0555556
        k(   11) = (  -0.5892557   0.5892557  -0.1178511), wk =   0.2222222
        k(   12) = (  -0.4714045   0.4714045  -0.0000000), wk =   0.1111111
        k(   13) = (   0.0000000   0.0000000  -0.7071068), wk =   0.0277778
        k(   14) = (  -0.4714045   0.7071068  -0.2357023), wk =   0.2222222
        k(   15) = (  -0.3535534   0.5892557  -0.1178511), wk =   0.2222222
        k(   16) = (   0.2357023   0.0000000  -0.7071068), wk =   0.1111111

                       cryst. coord.
        k(    1) = (   0.0000000   0.0000000   0.0000000), wk =   0.0092593
        k(    2) = (   0.0000000   0.0000000   0.1666667), wk =   0.0740741
        k(    3) = (   0.0000000   0.0000000   0.3333333), wk =   0.0740741
        k(    4) = (   0.0000000   0.0000000  -0.5000000), wk =   0.0370370
        k(    5) = (   0.0000000   0.1666667   0.1666667), wk =   0.0555556
        k(    6) = (   0.0000000   0.1666667   0.3333333), wk =   0.2222222
        k(    7) = (   0.0000000   0.1666667  -0.5000000), wk =   0.2222222
        k(    8) = (   0.0000000   0.1666667  -0.3333333), wk =   0.2222222
        k(    9) = (   0.0000000   0.1666667  -0.1666667), wk =   0.1111111
        k(   10) = (   0.0000000   0.3333333   0.3333333), wk =   0.0555556
        k(   11) = (   0.0000000   0.3333333  -0.5000000), wk =   0.2222222
        k(   12) = (   0.0000000   0.3333333  -0.3333333), wk =   0.1111111
        k(   13) = (   0.0000000  -0.5000000  -0.5000000), wk =   0.0277778
        k(   14) = (   0.1666667   0.3333333  -0.5000000), wk =   0.2222222
        k(   15) = (   0.1666667   0.3333333  -0.3333333), wk =   0.2222222
        k(   16) = (   0.1666667  -0.5000000  -0.3333333), wk =   0.1111111

     Dense  grid:    18053 G-vectors     FFT dimensions: (  40,  40,  40)

     Smooth grid:    11017 G-vectors     FFT dimensions: (  32,  32,  32)

     Estimated max dynamical RAM per process >      22.87Mb

     Initial potential from superposition of free atoms

     starting charge    7.99870, renormalised to    8.00000
     Starting wfc are    8 randomized atomic wfcs

     total cpu time spent up to now is        1.3 secs

     Self-consistent Calculation

     iteration #  1     ecut=    45.00 Ry     beta=0.30
     Davidson diagonalization with overlap
     ethr =  1.00E-02,  avg # of iterations =  3.5

     Threshold (ethr) on eigenvalues was too large:
     Diagonalizing with lowered threshold

     Davidson diagonalization with overlap
     ethr =  7.12E-04,  avg # of iterations =  1.1

     total cpu time spent up to now is        2.2 secs

     total energy              =     -19.12727272 Ry
     Harris-Foulkes estimate   =     -19.13325118 Ry
     estimated scf accuracy    <       0.05608975 Ry

     iteration #  2     ecut=    45.00 Ry     beta=0.30
     Davidson diagonalization with overlap
     ethr =  7.01E-04,  avg # of iterations =  1.0

     total cpu time spent up to now is        2.7 secs

     total energy              =     -19.11585499 Ry
     Harris-Foulkes estimate   =     -19.12753173 Ry
     estimated scf accuracy    <       0.03419604 Ry

     iteration #  3     ecut=    45.00 Ry     beta=0.30
     Davidson diagonalization with overlap
     ethr =  4.27E-04,  avg # of iterations =  1.0

     total cpu time spent up to now is        3.1 secs

     total energy              =     -19.11801056 Ry
     Harris-Foulkes estimate   =     -19.11789294 Ry
     estimated scf accuracy    <       0.00034206 Ry

     iteration #  4     ecut=    45.00 Ry     beta=0.30
     Davidson diagonalization with overlap
     ethr =  4.28E-06,  avg # of iterations =  3.2

     total cpu time spent up to now is        3.7 secs

     total energy              =     -19.11810824 Ry
     Harris-Foulkes estimate   =     -19.11812070 Ry
     estimated scf accuracy    <       0.00009722 Ry

     iteration #  5     ecut=    45.00 Ry     beta=0.30
     Davidson diagonalization with overlap
     ethr =  1.22E-06,  avg # of iterations =  1.1

     total cpu time spent up to now is        4.1 secs

     total energy              =     -19.11811761 Ry
     Harris-Foulkes estimate   =     -19.11811660 Ry
     estimated scf accuracy    <       0.00000127 Ry

     iteration #  6     ecut=    45.00 Ry     beta=0.30
     Davidson diagonalization with overlap
     ethr =  1.58E-08,  avg # of iterations =  2.5

     total cpu time spent up to now is        4.6 secs

     total energy              =     -19.11811804 Ry
     Harris-Foulkes estimate   =     -19.11811812 Ry
     estimated scf accuracy    <       0.00000074 Ry

     iteration #  7     ecut=    45.00 Ry     beta=0.30
     Davidson diagonalization with overlap
     ethr =  9.22E-09,  avg # of iterations =  1.0

     total cpu time spent up to now is        5.1 secs

     total energy              =     -19.11811809 Ry
     Harris-Foulkes estimate   =     -19.11811808 Ry
     estimated scf accuracy    <          2.3E-09 Ry

     iteration #  8     ecut=    45.00 Ry     beta=0.30
     Davidson diagonalization with overlap
     ethr =  2.91E-11,  avg # of iterations =  3.0

     total cpu time spent up to now is        5.6 secs

     total energy              =     -19.11811809 Ry
     Harris-Foulkes estimate   =     -19.11811809 Ry
     estimated scf accuracy    <          5.7E-09 Ry

     iteration #  9     ecut=    45.00 Ry     beta=0.30
     Davidson diagonalization with overlap
     ethr =  2.91E-11,  avg # of iterations =  2.0

     total cpu time spent up to now is        6.1 secs

     End of self-consistent calculation

          k = 0.0000 0.0000 0.0000 (  1411 PWs)   bands (ev):

    -5.8325   6.1600   6.1600   6.1600   8.6773   8.6773   8.6773   9.4725

     occupation numbers 
     1.0000   0.9983   0.9983   0.9983   0.0000   0.0000   0.0000   0.0000

          k = 0.1179-0.1179 0.1179 (  1381 PWs)   bands (ev):

    -5.4700   3.7591   5.7042   5.7042   8.4481   9.3290   9.3290  11.5571

     occupation numbers 
     1.0000   1.0000   1.0000   1.0000   0.0000   0.0000   0.0000   0.0000

          k = 0.2357-0.2357 0.2357 (  1380 PWs)   bands (ev):

    -4.4489   0.7915   5.1524   5.1524   7.8508   9.6120   9.6120  13.8683

     occupation numbers 
     1.0000   1.0000   1.0000   1.0000   0.0000   0.0000   0.0000   0.0000

          k =-0.3536 0.3536-0.3536 (  1380 PWs)   bands (ev):

    -3.4830  -0.8577   4.9544   4.9544   7.6242   9.4369   9.4369  13.6766

     occupation numbers 
     1.0000   1.0000   1.0000   1.0000   0.0000   0.0000   0.0000   0.0000

          k = 0.0000 0.0000 0.2357 (  1375 PWs)   bands (ev):

    -5.3467   4.1169   4.9513   4.9513   7.7853  10.3844  10.4721  10.4721

     occupation numbers 
     1.0000   1.0000   1.0000   1.0000   0.0000   0.0000   0.0000   0.0000

          k = 0.1179-0.1179 0.3536 (  1370 PWs)   bands (ev):

    -4.5277   1.7045   4.1410   4.3958   8.0426  10.1527  10.6178  11.1944

     occupation numbers 
     1.0000   1.0000   1.0000   1.0000   0.0000   0.0000   0.0000   0.0000

          k =-0.4714 0.4714-0.2357 (  1384 PWs)   bands (ev):

    -3.3258  -0.4819   3.3501   4.3681   8.1133  10.2123  10.7283  12.5047

     occupation numbers 
     1.0000   1.0000   1.0000   1.0000   0.0000   0.0000   0.0000   0.0000

          k =-0.3536 0.3536-0.1179 (  1381 PWs)   bands (ev):

    -3.7151   0.1232   3.0743   4.8529   8.5354  10.2104  10.3355  13.3653

     occupation numbers 
     1.0000   1.0000   1.0000   1.0000   0.0000   0.0000   0.0000   0.0000

          k =-0.2357 0.2357 0.0000 (  1370 PWs)   bands (ev):

    -4.8792   2.4280   3.7083   5.5928   9.1481   9.6729   9.9439  11.7400

     occupation numbers 
     1.0000   1.0000   1.0000   1.0000   0.0000   0.0000   0.0000   0.0000

          k = 0.0000 0.0000 0.4714 (  1379 PWs)   bands (ev):

    -3.9211   1.1424   3.7195   3.7195   6.7822   8.0364  13.3864  13.3864

     occupation numbers 
     1.0000   1.0000   1.0000   1.0000   0.0002   0.0000   0.0000   0.0000

          k =-0.5893 0.5893-0.1179 (  1372 PWs)   bands (ev):

    -2.7507  -0.4163   2.4772   3.5831   7.1129   8.7848  13.5646  13.5872

     occupation numbers 
     1.0000   1.0000   1.0000   1.0000   0.0000   0.0000   0.0000   0.0000

          k =-0.4714 0.4714-0.0000 (  1382 PWs)   bands (ev):

    -2.5488  -0.6260   1.6830   4.0295   7.6230  11.8745  12.5914  13.1820

     occupation numbers 
     1.0000   1.0000   1.0000   1.0000   0.0000   0.0000   0.0000   0.0000

          k = 0.0000 0.0000-0.7071 (  1362 PWs)   bands (ev):

    -1.6722  -1.6722   3.2829   3.2829   6.7531   6.7531  16.2158  16.2158

     occupation numbers 
     1.0000   1.0000   1.0000   1.0000   0.0006   0.0006   0.0000   0.0000

          k =-0.4714 0.7071-0.2357 (  1370 PWs)   bands (ev):

    -3.5325   0.5055   2.5399   3.8341   8.9376   9.7746  10.3395  13.1821

     occupation numbers 
     1.0000   1.0000   1.0000   1.0000   0.0000   0.0000   0.0000   0.0000

          k =-0.3536 0.5893-0.1179 (  1380 PWs)   bands (ev):

    -2.5382  -0.7035   2.0968   3.3594   9.4235   9.6509  12.1827  12.6167

     occupation numbers 
     1.0000   1.0000   1.0000   1.0000   0.0000   0.0000   0.0000   0.0000

          k = 0.2357 0.0000-0.7071 (  1384 PWs)   bands (ev):

    -1.5480  -1.5480   2.4635   2.4635   8.8193   8.8193  12.8614  12.8614

     occupation numbers 
     1.0000   1.0000   1.0000   1.0000   0.0000   0.0000   0.0000   0.0000

     the Fermi energy is     6.4425 ev

!    total energy              =     -19.11811809 Ry
     Harris-Foulkes estimate   =     -19.11811809 Ry
     estimated scf accuracy    <          6.4E-11 Ry

     The total energy is the sum of the following terms:

     one-electron contribution =       5.11182017 Ry
     hartree contribution      =       1.09872019 Ry
     xc contribution           =      -8.52971258 Ry
     ewald contribution        =     -16.79894366 Ry
     smearing contrib. (-TS)   =      -0.00000221 Ry

     convergence has been achieved in   9 iterations

     Forces acting on atoms (Ry/au):

     atom    1 type  1   force =     0.00000000    0.00000000    0.00000000
     atom    2 type  1   force =     0.00000000    0.00000000    0.00000000
     The non-local contrib.  to forces
     atom    1 type  1   force =    -0.00000000    0.00000000    0.00000000
     atom    2 type  1   force =     0.00000000   -0.00000000   -0.00000000
     The ionic contribution  to forces
     atom    1 type  1   force =     0.00000000    0.00000000    0.00000000
     atom    2 type  1   force =    -0.00000000   -0.00000000   -0.00000000
     The local contribution  to forces
     atom    1 type  1   force =    -0.00000000   -0.00000000    0.00000000
     atom    2 type  1   force =     0.00000000    0.00000000    0.00000000
     The core correction contribution to forces
     atom    1 type  1   force =    -0.00000000   -0.00000000    0.00000000
     atom    2 type  1   force =     0.00000000    0.00000000    0.00000000
     The Hubbard contrib.    to forces
     atom    1 type  1   force =     0.00000000    0.00000000    0.00000000
     atom    2 type  1   force =     0.00000000    0.00000000    0.00000000
     The SCF correction term to forces
     atom    1 type  1   force =     0.00000000   -0.00000000    0.00000000
     atom    2 type  1   force =     0.00000000   -0.00000000    0.00000000

     Total force =     0.000000     Total SCF correction =     0.000000


     entering subroutine stress ...

          total   stress  (Ry/bohr**3)                   (kbar)     P=    1.89
   0.00001282  -0.00000000   0.00000000          1.89     -0.00      0.00
  -0.00000000   0.00001282   0.00000000         -0.00      1.89      0.00
   0.00000000   0.00000000   0.00001282          0.00      0.00      1.89

     kinetic stress (kbar)   2195.05     -0.00      0.00
                               -0.00   2195.05      0.00
                               -0.00      0.00   2195.05

     local   stress (kbar)   -288.42     -0.00     -0.00
                               -0.00   -288.42     -0.00
                               -0.00     -0.00   -288.42

     nonloc. stress (kbar)   1941.10      0.00      0.00
                                0.00   1941.10     -0.00
                                0.00     -0.00   1941.10

     hartree stress (kbar)    199.46      0.00     -0.00
                                0.00    199.46      0.00
                               -0.00      0.00    199.46

     exc-cor stress (kbar)    994.10     -0.00      0.00
                               -0.00    994.10     -0.00
                                0.00     -0.00    994.10

     corecor stress (kbar)  -1989.75     -0.00     -0.00
                               -0.00  -1989.75     -0.00
                               -0.00     -0.00  -1989.75

     ewald   stress (kbar)  -3049.67      0.00      0.00
                                0.00  -3049.67      0.00
                                0.00      0.00  -3049.67

     hubbard stress (kbar)      0.00      0.00      0.00
                                0.00      0.00      0.00
                                0.00      0.00      0.00

     london  stress (kbar)      0.00      0.00      0.00
                                0.00      0.00      0.00
                                0.00      0.00      0.00

     XDM     stress (kbar)      0.00      0.00      0.00
                                0.00      0.00      0.00
                                0.00      0.00      0.00

     dft-nl  stress (kbar)      0.00      0.00      0.00
                                0.00      0.00      0.00
                                0.00      0.00      0.00

     TS-vdW  stress (kbar)      0.00      0.00      0.00
                                0.00      0.00      0.00
                                0.00      0.00      0.00



     BFGS Geometry Optimization

     number of scf cycles    =   1
     number of bfgs steps    =   0

     enthalpy new            =     -19.1181180944 Ry

     new trust radius        =       0.0010532782 bohr
     new conv_thr            =       0.0000000010 Ry

     new unit-cell volume =    270.36691 a.u.^3 (    40.06424 Ang^3 )

CELL_PARAMETERS (angstrom)
   2.715869991   2.715869991   0.000000000
  -0.000000000   2.715869991   2.715869991
   2.715869991  -0.000000000   2.715869991

ATOMIC_POSITIONS (crystal)
Si       0.000000000   0.000000000   0.000000000
Si       0.250000000   0.250000000   0.250000000



     Writing output data file QE.save
     NEW-OLD atomic charge density approx. for the potential
     extrapolated charge    8.00768, renormalised to    8.00000

     total cpu time spent up to now is       11.8 secs

     Self-consistent Calculation

     iteration #  1     ecut=    45.00 Ry     beta=0.30
     Davidson diagonalization with overlap
     ethr =  1.00E-06,  avg # of iterations =  2.0

     Threshold (ethr) on eigenvalues was too large:
     Diagonalizing with lowered threshold

     Davidson diagonalization with overlap
     ethr =  4.61E-09,  avg # of iterations =  1.3

     total cpu time spent up to now is       12.9 secs

     total energy              =     -19.11812003 Ry
     Harris-Foulkes estimate   =     -19.12242162 Ry
     estimated scf accuracy    <       0.00000038 Ry

     iteration #  2     ecut=    45.00 Ry     beta=0.30
     Davidson diagonalization with overlap
     ethr =  4.74E-09,  avg # of iterations =  2.1

     total cpu time spent up to now is       13.4 secs

     total energy              =     -19.11812062 Ry
     Harris-Foulkes estimate   =     -19.11812062 Ry
     estimated scf accuracy    <       0.00000004 Ry

     iteration #  3     ecut=    45.00 Ry     beta=0.30
     Davidson diagonalization with overlap
     ethr =  4.44E-10,  avg # of iterations =  1.1

     total cpu time spent up to now is       13.8 secs

     total energy              =     -19.11812061 Ry
     Harris-Foulkes estimate   =     -19.11812062 Ry
     estimated scf accuracy    <       0.00000002 Ry

     iteration #  4     ecut=    45.00 Ry     beta=0.30
     Davidson diagonalization with overlap
     ethr =  2.95E-10,  avg # of iterations =  1.0

     total cpu time spent up to now is       14.2 secs

     End of self-consistent calculation

          k = 0.0000 0.0000 0.0000 (  1411 PWs)   bands (ev):

    -5.8359   6.1500   6.1500   6.1500   8.6668   8.6668   8.6668   9.4516

     occupation numbers 
     1.0000   0.9984   0.9984   0.9984   0.0000   0.0000   0.0000   0.0000

          k = 0.1178-0.1178 0.1178 (  1381 PWs)   bands (ev):

    -5.4737   3.7499   5.6946   5.6946   8.4349   9.3180   9.3180  11.5388

     occupation numbers 
     1.0000   1.0000   1.0000   1.0000   0.0000   0.0000   0.0000   0.0000

          k = 0.2356-0.2356 0.2356 (  1380 PWs)   bands (ev):

    -4.4535   0.7844   5.1431   5.1431   7.8374   9.6018   9.6018  13.8548

     occupation numbers 
     1.0000   1.0000   1.0000   1.0000   0.0000   0.0000   0.0000   0.0000

          k =-0.3534 0.3534-0.3534 (  1380 PWs)   bands (ev):

    -3.4888  -0.8632   4.9452   4.9452   7.6107   9.4273   9.4273  13.6653

     occupation numbers 
     1.0000   1.0000   1.0000   1.0000   0.0000   0.0000   0.0000   0.0000

          k = 0.0000 0.0000 0.2356 (  1375 PWs)   bands (ev):

    -5.3505   4.1061   4.9425   4.9425   7.7756  10.3705  10.4600  10.4600

     occupation numbers 
     1.0000   1.0000   1.0000   1.0000   0.0000   0.0000   0.0000   0.0000

          k = 0.1178-0.1178 0.3534 (  1370 PWs)   bands (ev):

    -4.5322   1.6960   4.1323   4.3874   8.0326  10.1404  10.6062  11.1824

     occupation numbers 
     1.0000   1.0000   1.0000   1.0000   0.0000   0.0000   0.0000   0.0000

          k =-0.4713 0.4713-0.2356 (  1384 PWs)   bands (ev):

    -3.3317  -0.4883   3.3420   4.3596   8.1032  10.1996  10.7174  12.4919

     occupation numbers 
     1.0000   1.0000   1.0000   1.0000   0.0000   0.0000   0.0000   0.0000

          k =-0.3534 0.3534-0.1178 (  1381 PWs)   bands (ev):

    -3.7205   0.1161   3.0667   4.8438   8.5242  10.1984  10.3247  13.3506

     occupation numbers 
     1.0000   1.0000   1.0000   1.0000   0.0000   0.0000   0.0000   0.0000

          k =-0.2356 0.2356 0.0000 (  1370 PWs)   bands (ev):

    -4.8834   2.4188   3.7007   5.5831   9.1352   9.6617   9.9322  11.7261

     occupation numbers 
     1.0000   1.0000   1.0000   1.0000   0.0000   0.0000   0.0000   0.0000

          k = 0.0000 0.0000 0.4713 (  1379 PWs)   bands (ev):

    -3.9261   1.1332   3.7117   3.7117   6.7735   8.0277  13.3721  13.3721

     occupation numbers 
     1.0000   1.0000   1.0000   1.0000   0.0002   0.0000   0.0000   0.0000

          k =-0.5891 0.5891-0.1178 (  1372 PWs)   bands (ev):

    -2.7567  -0.4242   2.4709   3.5753   7.1044   8.7750  13.5512  13.5718

     occupation numbers 
     1.0000   1.0000   1.0000   1.0000   0.0000   0.0000   0.0000   0.0000

          k =-0.4713 0.4713-0.0000 (  1382 PWs)   bands (ev):

    -2.5553  -0.6335   1.6775   4.0213   7.6138  11.8634  12.5781  13.1669

     occupation numbers 
     1.0000   1.0000   1.0000   1.0000   0.0000   0.0000   0.0000   0.0000

          k = 0.0000 0.0000-0.7069 (  1362 PWs)   bands (ev):

    -1.6791  -1.6791   3.2754   3.2754   6.7450   6.7450  16.1976  16.1976

     occupation numbers 
     1.0000   1.0000   1.0000   1.0000   0.0006   0.0006   0.0000   0.0000

          k =-0.4713 0.7069-0.2356 (  1370 PWs)   bands (ev):

    -3.5379   0.4970   2.5334   3.8264   8.9271   9.7649  10.3266  13.1682

     occupation numbers 
     1.0000   1.0000   1.0000   1.0000   0.0000   0.0000   0.0000   0.0000

          k =-0.3534 0.5891-0.1178 (  1380 PWs)   bands (ev):

    -2.5448  -0.7107   2.0905   3.3522   9.4138   9.6390  12.1707  12.6028

     occupation numbers 
     1.0000   1.0000   1.0000   1.0000   0.0000   0.0000   0.0000   0.0000

          k = 0.2356 0.0000-0.7069 (  1384 PWs)   bands (ev):

    -1.5553  -1.5553   2.4572   2.4572   8.8094   8.8094  12.8478  12.8478

     occupation numbers 
     1.0000   1.0000   1.0000   1.0000   0.0000   0.0000   0.0000   0.0000

     the Fermi energy is     6.4334 ev

!    total energy              =     -19.11812061 Ry
     Harris-Foulkes estimate   =     -19.11812061 Ry
     estimated scf accuracy    <          1.1E-10 Ry

     The total energy is the sum of the following terms:

     one-electron contribution =       5.10443038 Ry
     hartree contribution      =       1.09954717 Ry
     xc contribution           =      -8.52853366 Ry
     ewald contribution        =     -16.79356235 Ry
     smearing contrib. (-TS)   =      -0.00000215 Ry

     convergence has been achieved in   4 iterations

     Forces acting on atoms (Ry/au):

     atom    1 type  1   force =     0.00000000    0.00000000    0.00000000
     atom    2 type  1   force =     0.00000000    0.00000000    0.00000000
     The non-local contrib.  to forces
     atom    1 type  1   force =     0.00000000    0.00000000    0.00000000
     atom    2 type  1   force =    -0.00000000    0.00000000    0.00000000
     The ionic contribution  to forces
     atom    1 type  1   force =     0.00000000    0.00000000    0.00000000
     atom    2 type  1   force =    -0.00000000   -0.00000000   -0.00000000
     The local contribution  to forces
     atom    1 type  1   force =    -0.00000000    0.00000000   -0.00000000
     atom    2 type  1   force =     0.00000000    0.00000000    0.00000000
     The core correction contribution to forces
     atom    1 type  1   force =    -0.00000000   -0.00000000   -0.00000000
     atom    2 type  1   force =     0.00000000    0.00000000    0.00000000
     The Hubbard contrib.    to forces
     atom    1 type  1   force =     0.00000000    0.00000000    0.00000000
     atom    2 type  1   force =     0.00000000    0.00000000    0.00000000
     The SCF correction term to forces
     atom    1 type  1   force =    -0.00000000   -0.00000000   -0.00000000
     atom    2 type  1   force =     0.00000000    0.00000000    0.00000000

     Total force =     0.000000     Total SCF correction =     0.000000


     entering subroutine stress ...

          total   stress  (Ry/bohr**3)                   (kbar)     P=    0.98
   0.00000663  -0.00000000  -0.00000000          0.98     -0.00     -0.00
  -0.00000000   0.00000663   0.00000000         -0.00      0.98      0.00
  -0.00000000   0.00000000   0.00000663         -0.00      0.00      0.98

     kinetic stress (kbar)   2192.08     -0.00     -0.00
                               -0.00   2192.08      0.00
                               -0.00      0.00   2192.08

     local   stress (kbar)   -289.04     -0.00      0.00
                               -0.00   -289.04     -0.00
                                0.00     -0.00   -289.04

     nonloc. stress (kbar)   1938.74     -0.00      0.00
                               -0.00   1938.74      0.00
                                0.00      0.00   1938.74

     hartree stress (kbar)    199.42     -0.00      0.00
                               -0.00    199.42     -0.00
                                0.00     -0.00    199.42

     exc-cor stress (kbar)    993.30     -0.00      0.00
                               -0.00    993.30     -0.00
                                0.00     -0.00    993.30

     corecor stress (kbar)  -1987.77     -0.00     -0.00
                               -0.00  -1987.77     -0.00
                               -0.00     -0.00  -1987.77

     ewald   stress (kbar)  -3045.76      0.00      0.00
                                0.00  -3045.76      0.00
                                0.00      0.00  -3045.76

     hubbard stress (kbar)      0.00      0.00      0.00
                                0.00      0.00      0.00
                                0.00      0.00      0.00

     london  stress (kbar)      0.00      0.00      0.00
                                0.00      0.00      0.00
                                0.00      0.00      0.00

     XDM     stress (kbar)      0.00      0.00      0.00
                                0.00      0.00      0.00
                                0.00      0.00      0.00

     dft-nl  stress (kbar)      0.00      0.00      0.00
                                0.00      0.00      0.00
                                0.00      0.00      0.00

     TS-vdW  stress (kbar)      0.00      0.00      0.00
                                0.00      0.00      0.00
                                0.00      0.00      0.00



     number of scf cycles    =   2
     number of bfgs steps    =   1

     enthalpy old            =     -19.1181180944 Ry
     enthalpy new            =     -19.1181206136 Ry

     CASE: enthalpy_new < enthalpy_old

     new trust radius        =       0.0011296872 bohr
     new conv_thr            =            1.0E-11 Ry

     new unit-cell volume =    270.64563 a.u.^3 (    40.10554 Ang^3 )

CELL_PARAMETERS (angstrom)
   2.716802946   2.716802946   0.000000000
  -0.000000000   2.716802946   2.716802946
   2.716802946  -0.000000000   2.716802946

ATOMIC_POSITIONS (crystal)
Si       0.000000000   0.000000000   0.000000000
Si       0.250000000   0.250000000   0.250000000



     Writing output data file QE.save
     NEW-OLD atomic charge density approx. for the potential
     extrapolated charge    8.00824, renormalised to    8.00000

     total cpu time spent up to now is       18.8 secs

     Self-consistent Calculation

     iteration #  1     ecut=    45.00 Ry     beta=0.30
     Davidson diagonalization with overlap
     ethr =  1.00E-06,  avg # of iterations =  2.0

     Threshold (ethr) on eigenvalues was too large:
     Diagonalizing with lowered threshold

     Davidson diagonalization with overlap
     ethr =  5.32E-09,  avg # of iterations =  1.3

     total cpu time spent up to now is       19.9 secs

     total energy              =     -19.11812087 Ry
     Harris-Foulkes estimate   =     -19.12272871 Ry
     estimated scf accuracy    <       0.00000044 Ry

     iteration #  2     ecut=    45.00 Ry     beta=0.30
     Davidson diagonalization with overlap
     ethr =  5.46E-09,  avg # of iterations =  2.1

     total cpu time spent up to now is       20.5 secs

     total energy              =     -19.11812154 Ry
     Harris-Foulkes estimate   =     -19.11812154 Ry
     estimated scf accuracy    <       0.00000004 Ry

     iteration #  3     ecut=    45.00 Ry     beta=0.30
     Davidson diagonalization with overlap
     ethr =  5.08E-10,  avg # of iterations =  1.1

     total cpu time spent up to now is       20.9 secs

     total energy              =     -19.11812153 Ry
     Harris-Foulkes estimate   =     -19.11812154 Ry
     estimated scf accuracy    <       0.00000003 Ry

     iteration #  4     ecut=    45.00 Ry     beta=0.30
     Davidson diagonalization with overlap
     ethr =  3.38E-10,  avg # of iterations =  1.0

     total cpu time spent up to now is       21.4 secs

     total energy              =     -19.11812153 Ry
     Harris-Foulkes estimate   =     -19.11812153 Ry
     estimated scf accuracy    <          1.3E-10 Ry

     iteration #  5     ecut=    45.00 Ry     beta=0.30
     Davidson diagonalization with overlap
     ethr =  1.59E-12,  avg # of iterations =  2.9

     total cpu time spent up to now is       21.9 secs

     total energy              =     -19.11812153 Ry
     Harris-Foulkes estimate   =     -19.11812153 Ry
     estimated scf accuracy    <          1.2E-10 Ry

     iteration #  6     ecut=    45.00 Ry     beta=0.30
     Davidson diagonalization with overlap
     ethr =  1.52E-12,  avg # of iterations =  1.0

     total cpu time spent up to now is       22.3 secs

     End of self-consistent calculation

          k = 0.0000 0.0000 0.0000 (  1411 PWs)   bands (ev):

    -5.8396   6.1392   6.1392   6.1392   8.6556   8.6556   8.6556   9.4291

     occupation numbers 
     1.0000   0.9984   0.9984   0.9984   0.0000   0.0000   0.0000   0.0000

          k = 0.1178-0.1178 0.1178 (  1381 PWs)   bands (ev):

    -5.4776   3.7399   5.6842   5.6842   8.4209   9.3063   9.3063  11.5192

     occupation numbers 
     1.0000   1.0000   1.0000   1.0000   0.0000   0.0000   0.0000   0.0000

          k = 0.2355-0.2355 0.2355 (  1380 PWs)   bands (ev):

    -4.4585   0.7767   5.1331   5.1331   7.8230   9.5908   9.5908  13.8403

     occupation numbers 
     1.0000   1.0000   1.0000   1.0000   0.0000   0.0000   0.0000   0.0000

          k =-0.3533 0.3533-0.3533 (  1380 PWs)   bands (ev):

    -3.4951  -0.8690   4.9354   4.9354   7.5963   9.4170   9.4170  13.6532

     occupation numbers 
     1.0000   1.0000   1.0000   1.0000   0.0000   0.0000   0.0000   0.0000

          k = 0.0000 0.0000 0.2355 (  1375 PWs)   bands (ev):

    -5.3546   4.0944   4.9330   4.9330   7.7652  10.3556  10.4470  10.4470

     occupation numbers 
     1.0000   1.0000   1.0000   1.0000   0.0000   0.0000   0.0000   0.0000

          k = 0.1178-0.1178 0.3533 (  1370 PWs)   bands (ev):

    -4.5371   1.6868   4.1230   4.3784   8.0220  10.1271  10.5938  11.1696

     occupation numbers 
     1.0000   1.0000   1.0000   1.0000   0.0000   0.0000   0.0000   0.0000

          k =-0.4711 0.4711-0.2355 (  1384 PWs)   bands (ev):

    -3.3379  -0.4951   3.3333   4.3505   8.0923  10.1861  10.7058  12.4782

     occupation numbers 
     1.0000   1.0000   1.0000   1.0000   0.0000   0.0000   0.0000   0.0000

          k =-0.3533 0.3533-0.1178 (  1381 PWs)   bands (ev):

    -3.7262   0.1086   3.0585   4.8342   8.5122  10.1855  10.3132  13.3349

     occupation numbers 
     1.0000   1.0000   1.0000   1.0000   0.0000   0.0000   0.0000   0.0000

          k =-0.2355 0.2355 0.0000 (  1370 PWs)   bands (ev):

    -4.8879   2.4090   3.6926   5.5727   9.1213   9.6498   9.9196  11.7112

     occupation numbers 
     1.0000   1.0000   1.0000   1.0000   0.0000   0.0000   0.0000   0.0000

          k = 0.0000 0.0000 0.4711 (  1379 PWs)   bands (ev):

    -3.9315   1.1233   3.7033   3.7033   6.7642   8.0184  13.3569  13.3569

     occupation numbers 
     1.0000   1.0000   1.0000   1.0000   0.0002   0.0000   0.0000   0.0000

          k =-0.5889 0.5889-0.1178 (  1372 PWs)   bands (ev):

    -2.7633  -0.4327   2.4641   3.5670   7.0952   8.7644  13.5369  13.5553

     occupation numbers 
     1.0000   1.0000   1.0000   1.0000   0.0000   0.0000   0.0000   0.0000

          k =-0.4711 0.4711-0.0000 (  1382 PWs)   bands (ev):

    -2.5623  -0.6416   1.6717   4.0126   7.6040  11.8515  12.5639  13.1507

     occupation numbers 
     1.0000   1.0000   1.0000   1.0000   0.0000   0.0000   0.0000   0.0000

          k = 0.0000 0.0000-0.7066 (  1362 PWs)   bands (ev):

    -1.6865  -1.6865   3.2674   3.2674   6.7362   6.7362  16.1781  16.1781

     occupation numbers 
     1.0000   1.0000   1.0000   1.0000   0.0006   0.0006   0.0000   0.0000

          k =-0.4711 0.7066-0.2355 (  1370 PWs)   bands (ev):

    -3.5437   0.4879   2.5264   3.8181   8.9159   9.7545  10.3128  13.1534

     occupation numbers 
     1.0000   1.0000   1.0000   1.0000   0.0000   0.0000   0.0000   0.0000

          k =-0.3533 0.5889-0.1178 (  1380 PWs)   bands (ev):

    -2.5518  -0.7184   2.0837   3.3446   9.4035   9.6262  12.1578  12.5880

     occupation numbers 
     1.0000   1.0000   1.0000   1.0000   0.0000   0.0000   0.0000   0.0000

          k = 0.2355 0.0000-0.7066 (  1384 PWs)   bands (ev):

    -1.5630  -1.5630   2.4505   2.4505   8.7987   8.7987  12.8332  12.8332

     occupation numbers 
     1.0000   1.0000   1.0000   1.0000   0.0000   0.0000   0.0000   0.0000

     the Fermi energy is     6.4236 ev

!    total energy              =     -19.11812153 Ry
     Harris-Foulkes estimate   =     -19.11812153 Ry
     estimated scf accuracy    <          6.7E-12 Ry

     The total energy is the sum of the following terms:

     one-electron contribution =       5.09651372 Ry
     hartree contribution      =       1.10043116 Ry
     xc contribution           =      -8.52726891 Ry
     ewald contribution        =     -16.78779542 Ry
     smearing contrib. (-TS)   =      -0.00000209 Ry

     convergence has been achieved in   6 iterations

     Forces acting on atoms (Ry/au):

     atom    1 type  1   force =     0.00000000    0.00000000    0.00000000
     atom    2 type  1   force =     0.00000000    0.00000000    0.00000000
     The non-local contrib.  to forces
     atom    1 type  1   force =     0.00000000    0.00000000    0.00000000
     atom    2 type  1   force =     0.00000000    0.00000000    0.00000000
     The ionic contribution  to forces
     atom    1 type  1   force =     0.00000000    0.00000000    0.00000000
     atom    2 type  1   force =    -0.00000000   -0.00000000   -0.00000000
     The local contribution  to forces
     atom    1 type  1   force =    -0.00000000    0.00000000   -0.00000000
     atom    2 type  1   force =    -0.00000000   -0.00000000   -0.00000000
     The core correction contribution to forces
     atom    1 type  1   force =    -0.00000000   -0.00000000   -0.00000000
     atom    2 type  1   force =     0.00000000    0.00000000    0.00000000
     The Hubbard contrib.    to forces
     atom    1 type  1   force =     0.00000000    0.00000000    0.00000000
     atom    2 type  1   force =     0.00000000    0.00000000    0.00000000
     The SCF correction term to forces
     atom    1 type  1   force =    -0.00000000    0.00000000   -0.00000000
     atom    2 type  1   force =     0.00000000    0.00000000    0.00000000

     Total force =     0.000000     Total SCF correction =     0.000000


     entering subroutine stress ...

          total   stress  (Ry/bohr**3)                   (kbar)     P=   -0.00
  -0.00000000   0.00000000  -0.00000000         -0.00      0.00     -0.00
   0.00000000  -0.00000000   0.00000000          0.00     -0.00      0.00
   0.00000000   0.00000000  -0.00000000          0.00      0.00     -0.00

     kinetic stress (kbar)   2188.91     -0.00     -0.00
                               -0.00   2188.91      0.00
                               -0.00      0.00   2188.91

     local   stress (kbar)   -289.71      0.00      0.00
                                0.00   -289.71      0.00
                                0.00      0.00   -289.71

     nonloc. stress (kbar)   1936.20      0.00     -0.00
                                0.00   1936.20      0.00
                               -0.00      0.00   1936.20

     hartree stress (kbar)    199.37     -0.00      0.00
                               -0.00    199.37     -0.00
                                0.00     -0.00    199.37

     exc-cor stress (kbar)    992.45      0.00      0.00
                                0.00    992.45     -0.00
                                0.00     -0.00    992.45

     corecor stress (kbar)  -1985.65     -0.00     -0.00
                               -0.00  -1985.65     -0.00
                               -0.00     -0.00  -1985.65

     ewald   stress (kbar)  -3041.58      0.00      0.00
                                0.00  -3041.58     -0.00
                                0.00     -0.00  -3041.58

     hubbard stress (kbar)      0.00      0.00      0.00
                                0.00      0.00      0.00
                                0.00      0.00      0.00

     london  stress (kbar)      0.00      0.00      0.00
                                0.00      0.00      0.00
                                0.00      0.00      0.00

     XDM     stress (kbar)      0.00      0.00      0.00
                                0.00      0.00      0.00
                                0.00      0.00      0.00

     dft-nl  stress (kbar)      0.00      0.00      0.00
                                0.00      0.00      0.00
                                0.00      0.00      0.00

     TS-vdW  stress (kbar)      0.00      0.00      0.00
                                0.00      0.00      0.00
                                0.00      0.00      0.00



     bfgs converged in   3 scf cycles and   2 bfgs steps
     (criteria: energy <  1.0E-04, force <  1.0E-03, cell <  5.0E-01)

     End of BFGS Geometry Optimization

     Final enthalpy =     -19.1181215325 Ry
Begin final coordinates
     new unit-cell volume =    270.64563 a.u.^3 (    40.10554 Ang^3 )

CELL_PARAMETERS (angstrom)
   2.716802946   2.716802946   0.000000000
  -0.000000000   2.716802946   2.716802946
   2.716802946  -0.000000000   2.716802946

ATOMIC_POSITIONS (crystal)
Si       0.000000000   0.000000000   0.000000000
Si       0.250000000   0.250000000   0.250000000
End final coordinates



     A final scf calculation at the relaxed structure.
     The G-vectors are recalculated for the final unit cell
     Results may differ from those at the preceding step.

   Info: using nr1, nr2, nr3 values from input

   Info: using nr1, nr2, nr3 values from input

     G-vector sticks info
     --------------------
     sticks:   dense  smooth     PW     G-vecs:    dense   smooth      PW
     Sum         913     649    199                18149    11017    1917



     bravais-lattice index     =            0
     lattice parameter (alat)  =       7.2558  a.u.
     unit-cell volume          =     270.6456 (a.u.)^3
     number of atoms/cell      =            2
     number of atomic types    =            1
     number of electrons       =         8.00
     number of Kohn-Sham states=            8
     kinetic-energy cutoff     =      45.0000  Ry
     charge density cutoff     =     250.0000  Ry
     convergence threshold     =      1.0E-11
     mixing beta               =       0.3000
     number of iterations used =            8  local-TF  mixing
     Exchange-correlation      = SLA  PW   PSX  PSC ( 1  4 10  8 0 0)
     A smooth kinetic-energy cutoff is imposed at      44.5000 Ry
     height of the smooth step-function =             800.0000 Ry
     width of the smooth step-function  =               1.0000 Ry


     celldm(1)=   7.255773  celldm(2)=   0.000000  celldm(3)=   0.000000
     celldm(4)=   0.000000  celldm(5)=   0.000000  celldm(6)=   0.000000

     crystal axes: (cart. coord. in units of alat)
               a(1) = (   0.707576   0.707576   0.000000 )  
               a(2) = (  -0.000000   0.707576   0.707576 )  
               a(3) = (   0.707576  -0.000000   0.707576 )  

     reciprocal axes: (cart. coord. in units 2 pi/alat)
               b(1) = (  0.706638  0.706638 -0.706638 )  
               b(2) = ( -0.706638  0.706638  0.706638 )  
               b(3) = (  0.706638 -0.706638  0.706638 )  


     PseudoPot. # 1 for Si read from file:
     QE_PSPs/si_pbesol_v1.uspp.F.UPF
     MD5 check sum: ef58ba74faed4df802eb8a9742fc00a8
     Pseudo is Ultrasoft + core correction, Zval =  4.0
     Generated by new atomic code, or converted to UPF format
     Using radial grid of  899 points,  6 beta functions with: 
                l(1) =   0
                l(2) =   0
                l(3) =   1
                l(4) =   1
                l(5) =   2
                l(6) =   2
     Q(r) pseudized with  8 coefficients,  rinner =    0.900   0.900   0.900
                                                       0.900   0.900

     atomic species   valence    mass     pseudopotential
        Si             4.00    28.09000     Si( 1.00)

     24 Sym. Ops. (no inversion) found


                                    s                        frac. trans.

      isym =  1     identity                                     

 cryst.   s( 1) = (     1          0          0      )
                  (     0          1          0      )
                  (     0          0          1      )

 cart.    s( 1) = (  1.0000000  0.0000000  0.0000000 )
                  (  0.0000000  1.0000000  0.0000000 )
                  (  0.0000000  0.0000000  1.0000000 )


      isym =  2     180 deg rotation - cart. axis [0,0,1]        

 cryst.   s( 2) = (    -1          0          0      )
                  (    -1          0          1      )
                  (    -1          1          0      )

 cart.    s( 2) = ( -1.0000000  0.0000000  0.0000000 )
                  (  0.0000000 -1.0000000  0.0000000 )
                  (  0.0000000  0.0000000  1.0000000 )


      isym =  3     180 deg rotation - cart. axis [0,1,0]        

 cryst.   s( 3) = (     0          1         -1      )
                  (     1          0         -1      )
                  (     0          0         -1      )

 cart.    s( 3) = ( -1.0000000  0.0000000  0.0000000 )
                  (  0.0000000  1.0000000  0.0000000 )
                  (  0.0000000  0.0000000 -1.0000000 )


      isym =  4     180 deg rotation - cart. axis [1,0,0]        

 cryst.   s( 4) = (     0         -1          1      )
                  (     0         -1          0      )
                  (     1         -1          0      )

 cart.    s( 4) = (  1.0000000  0.0000000  0.0000000 )
                  (  0.0000000 -1.0000000  0.0000000 )
                  (  0.0000000  0.0000000 -1.0000000 )


      isym =  5     120 deg rotation - cart. axis [-1,-1,-1]     

 cryst.   s( 5) = (     0          0          1      )
                  (     1          0          0      )
                  (     0          1          0      )

 cart.    s( 5) = (  0.0000000  1.0000000  0.0000000 )
                  (  0.0000000  0.0000000  1.0000000 )
                  (  1.0000000  0.0000000  0.0000000 )


      isym =  6     120 deg rotation - cart. axis [-1,1,1]       

 cryst.   s( 6) = (     0          0         -1      )
                  (     0          1         -1      )
                  (     1          0         -1      )

 cart.    s( 6) = (  0.0000000 -1.0000000  0.0000000 )
                  (  0.0000000  0.0000000  1.0000000 )
                  ( -1.0000000  0.0000000  0.0000000 )


      isym =  7     120 deg rotation - cart. axis [1,1,-1]       

 cryst.   s( 7) = (     1         -1          0      )
                  (     0         -1          1      )
                  (     0         -1          0      )

 cart.    s( 7) = (  0.0000000  1.0000000  0.0000000 )
                  (  0.0000000  0.0000000 -1.0000000 )
                  ( -1.0000000  0.0000000  0.0000000 )


      isym =  8     120 deg rotation - cart. axis [1,-1,1]       

 cryst.   s( 8) = (    -1          1          0      )
                  (    -1          0          0      )
                  (    -1          0          1      )

 cart.    s( 8) = (  0.0000000 -1.0000000  0.0000000 )
                  (  0.0000000  0.0000000 -1.0000000 )
                  (  1.0000000  0.0000000  0.0000000 )


      isym =  9     120 deg rotation - cart. axis [1,1,1]        

 cryst.   s( 9) = (     0          1          0      )
                  (     0          0          1      )
                  (     1          0          0      )

 cart.    s( 9) = (  0.0000000  0.0000000  1.0000000 )
                  (  1.0000000  0.0000000  0.0000000 )
                  (  0.0000000  1.0000000  0.0000000 )


      isym = 10     120 deg rotation - cart. axis [-1,1,-1]      

 cryst.   s(10) = (     0         -1          0      )
                  (     1         -1          0      )
                  (     0         -1          1      )

 cart.    s(10) = (  0.0000000  0.0000000  1.0000000 )
                  ( -1.0000000  0.0000000  0.0000000 )
                  (  0.0000000 -1.0000000  0.0000000 )


      isym = 11     120 deg rotation - cart. axis [1,-1,-1]      

 cryst.   s(11) = (    -1          0          1      )
                  (    -1          1          0      )
                  (    -1          0          0      )

 cart.    s(11) = (  0.0000000  0.0000000 -1.0000000 )
                  ( -1.0000000  0.0000000  0.0000000 )
                  (  0.0000000  1.0000000  0.0000000 )


      isym = 12     120 deg rotation - cart. axis [-1,-1,1]      

 cryst.   s(12) = (     1          0         -1      )
                  (     0          0         -1      )
                  (     0          1         -1      )

 cart.    s(12) = (  0.0000000  0.0000000 -1.0000000 )
                  (  1.0000000  0.0000000  0.0000000 )
                  (  0.0000000 -1.0000000  0.0000000 )


      isym = 13     inv. 180 deg rotation - cart. axis [1,1,0]   

 cryst.   s(13) = (    -1          0          0      )
                  (    -1          1          0      )
                  (    -1          0          1      )

 cart.    s(13) = (  0.0000000 -1.0000000  0.0000000 )
                  ( -1.0000000  0.0000000  0.0000000 )
                  (  0.0000000  0.0000000  1.0000000 )


      isym = 14     inv. 180 deg rotation - cart. axis [1,-1,0]  

 cryst.   s(14) = (     1          0          0      )
                  (     0          0          1      )
                  (     0          1          0      )

 cart.    s(14) = (  0.0000000  1.0000000  0.0000000 )
                  (  1.0000000  0.0000000  0.0000000 )
                  (  0.0000000  0.0000000  1.0000000 )


      isym = 15     inv.  90 deg rotation - cart. axis [0,0,-1]  

 cryst.   s(15) = (     0          1         -1      )
                  (     0          0         -1      )
                  (     1          0         -1      )

 cart.    s(15) = (  0.0000000 -1.0000000  0.0000000 )
                  (  1.0000000  0.0000000  0.0000000 )
                  (  0.0000000  0.0000000 -1.0000000 )


      isym = 16     inv.  90 deg rotation - cart. axis [0,0,1]   

 cryst.   s(16) = (     0         -1          1      )
                  (     1         -1          0      )
                  (     0         -1          0      )

 cart.    s(16) = (  0.0000000  1.0000000  0.0000000 )
                  ( -1.0000000  0.0000000  0.0000000 )
                  (  0.0000000  0.0000000 -1.0000000 )


      isym = 17     inv. 180 deg rotation - cart. axis [1,0,1]   

 cryst.   s(17) = (     1          0         -1      )
                  (     0          1         -1      )
                  (     0          0         -1      )

 cart.    s(17) = (  0.0000000  0.0000000 -1.0000000 )
                  (  0.0000000  1.0000000  0.0000000 )
                  ( -1.0000000  0.0000000  0.0000000 )


      isym = 18     inv. 180 deg rotation - cart. axis [-1,0,1]  

 cryst.   s(18) = (     0          1          0      )
                  (     1          0          0      )
                  (     0          0          1      )

 cart.    s(18) = (  0.0000000  0.0000000  1.0000000 )
                  (  0.0000000  1.0000000  0.0000000 )
                  (  1.0000000  0.0000000  0.0000000 )


      isym = 19     inv.  90 deg rotation - cart. axis [0,1,0]   

 cryst.   s(19) = (    -1          0          1      )
                  (    -1          0          0      )
                  (    -1          1          0      )

 cart.    s(19) = (  0.0000000  0.0000000 -1.0000000 )
                  (  0.0000000 -1.0000000  0.0000000 )
                  (  1.0000000  0.0000000  0.0000000 )


      isym = 20     inv.  90 deg rotation - cart. axis [0,-1,0]  

 cryst.   s(20) = (     0         -1          0      )
                  (     0         -1          1      )
                  (     1         -1          0      )

 cart.    s(20) = (  0.0000000  0.0000000  1.0000000 )
                  (  0.0000000 -1.0000000  0.0000000 )
                  ( -1.0000000  0.0000000  0.0000000 )


      isym = 21     inv. 180 deg rotation - cart. axis [0,1,1]   

 cryst.   s(21) = (     1         -1          0      )
                  (     0         -1          0      )
                  (     0         -1          1      )

 cart.    s(21) = (  1.0000000  0.0000000  0.0000000 )
                  (  0.0000000  0.0000000 -1.0000000 )
                  (  0.0000000 -1.0000000  0.0000000 )


      isym = 22     inv. 180 deg rotation - cart. axis [0,1,-1]  

 cryst.   s(22) = (     0          0          1      )
                  (     0          1          0      )
                  (     1          0          0      )

 cart.    s(22) = (  1.0000000  0.0000000  0.0000000 )
                  (  0.0000000  0.0000000  1.0000000 )
                  (  0.0000000  1.0000000  0.0000000 )


      isym = 23     inv.  90 deg rotation - cart. axis [-1,0,0]  

 cryst.   s(23) = (    -1          1          0      )
                  (    -1          0          1      )
                  (    -1          0          0      )

 cart.    s(23) = ( -1.0000000  0.0000000  0.0000000 )
                  (  0.0000000  0.0000000 -1.0000000 )
                  (  0.0000000  1.0000000  0.0000000 )


      isym = 24     inv.  90 deg rotation - cart. axis [1,0,0]   

 cryst.   s(24) = (     0          0         -1      )
                  (     1          0         -1      )
                  (     0          1         -1      )

 cart.    s(24) = ( -1.0000000  0.0000000  0.0000000 )
                  (  0.0000000  0.0000000  1.0000000 )
                  (  0.0000000 -1.0000000  0.0000000 )


   Cartesian axes

     site n.     atom                  positions (alat units)
         1           Si  tau(   1) = (   0.0000000   0.0000000   0.0000000  )
         2           Si  tau(   2) = (   0.3537882   0.3537882   0.3537882  )

   Crystallographic axes

     site n.     atom                  positions (cryst. coord.)
         1           Si  tau(   1) = (  0.0000000  0.0000000  0.0000000  )
         2           Si  tau(   2) = (  0.2500000  0.2500000  0.2500000  )

     number of k points=    16  gaussian smearing, width (Ry)=  0.0100
                       cart. coord. in units 2pi/alat
        k(    1) = (   0.0000000   0.0000000   0.0000000), wk =   0.0092593
        k(    2) = (   0.1177729  -0.1177729   0.1177729), wk =   0.0740741
        k(    3) = (   0.2355458  -0.2355458   0.2355458), wk =   0.0740741
        k(    4) = (  -0.3533188   0.3533188  -0.3533188), wk =   0.0370370
        k(    5) = (   0.0000000   0.0000000   0.2355458), wk =   0.0555556
        k(    6) = (   0.1177729  -0.1177729   0.3533188), wk =   0.2222222
        k(    7) = (  -0.4710917   0.4710917  -0.2355458), wk =   0.2222222
        k(    8) = (  -0.3533188   0.3533188  -0.1177729), wk =   0.2222222
        k(    9) = (  -0.2355458   0.2355458   0.0000000), wk =   0.1111111
        k(   10) = (   0.0000000   0.0000000   0.4710917), wk =   0.0555556
        k(   11) = (  -0.5888646   0.5888646  -0.1177729), wk =   0.2222222
        k(   12) = (  -0.4710917   0.4710917  -0.0000000), wk =   0.1111111
        k(   13) = (   0.0000000   0.0000000  -0.7066375), wk =   0.0277778
        k(   14) = (  -0.4710917   0.7066375  -0.2355458), wk =   0.2222222
        k(   15) = (  -0.3533188   0.5888646  -0.1177729), wk =   0.2222222
        k(   16) = (   0.2355458   0.0000000  -0.7066375), wk =   0.1111111

                       cryst. coord.
        k(    1) = (   0.0000000   0.0000000   0.0000000), wk =   0.0092593
        k(    2) = (   0.0000000   0.0000000   0.1666667), wk =   0.0740741
        k(    3) = (   0.0000000   0.0000000   0.3333333), wk =   0.0740741
        k(    4) = (  -0.0000000   0.0000000  -0.5000000), wk =   0.0370370
        k(    5) = (   0.0000000   0.1666667   0.1666667), wk =   0.0555556
        k(    6) = (   0.0000000   0.1666667   0.3333333), wk =   0.2222222
        k(    7) = (  -0.0000000   0.1666667  -0.5000000), wk =   0.2222222
        k(    8) = (  -0.0000000   0.1666667  -0.3333333), wk =   0.2222222
        k(    9) = (   0.0000000   0.1666667  -0.1666667), wk =   0.1111111
        k(   10) = (   0.0000000   0.3333333   0.3333333), wk =   0.0555556
        k(   11) = (  -0.0000000   0.3333333  -0.5000000), wk =   0.2222222
        k(   12) = (  -0.0000000   0.3333333  -0.3333333), wk =   0.1111111
        k(   13) = (  -0.0000000  -0.5000000  -0.5000000), wk =   0.0277778
        k(   14) = (   0.1666667   0.3333333  -0.5000000), wk =   0.2222222
        k(   15) = (   0.1666667   0.3333333  -0.3333333), wk =   0.2222222
        k(   16) = (   0.1666667  -0.5000000  -0.3333333), wk =   0.1111111

     Dense  grid:    18149 G-vectors     FFT dimensions: (  40,  40,  40)

     Smooth grid:    11017 G-vectors     FFT dimensions: (  32,  32,  32)

     Estimated max dynamical RAM per process >      22.96Mb

     Initial potential from superposition of free atoms

     starting charge    7.99870, renormalised to    8.00000
     Starting wfc are    8 randomized atomic wfcs

     Writing output data file QE.save

     total cpu time spent up to now is       27.5 secs

     Self-consistent Calculation

     iteration #  1     ecut=    45.00 Ry     beta=0.30
     Davidson diagonalization with overlap
     ethr =  1.00E-06,  avg # of iterations = 10.4

     total cpu time spent up to now is       28.9 secs

     total energy              =     -19.12742410 Ry
     Harris-Foulkes estimate   =     -19.13341996 Ry
     estimated scf accuracy    <       0.05628451 Ry

     iteration #  2     ecut=    45.00 Ry     beta=0.30
     Davidson diagonalization with overlap
     ethr =  7.04E-04,  avg # of iterations =  1.0

     total cpu time spent up to now is       29.4 secs

     total energy              =     -19.11597950 Ry
     Harris-Foulkes estimate   =     -19.12756901 Ry
     estimated scf accuracy    <       0.03414423 Ry

     iteration #  3     ecut=    45.00 Ry     beta=0.30
     Davidson diagonalization with overlap
     ethr =  4.27E-04,  avg # of iterations =  1.0

     total cpu time spent up to now is       29.8 secs

     total energy              =     -19.11805459 Ry
     Harris-Foulkes estimate   =     -19.11794082 Ry
     estimated scf accuracy    <       0.00033417 Ry

     iteration #  4     ecut=    45.00 Ry     beta=0.30
     Davidson diagonalization with overlap
     ethr =  4.18E-06,  avg # of iterations =  2.6

     total cpu time spent up to now is       30.3 secs

     total energy              =     -19.11811679 Ry
     Harris-Foulkes estimate   =     -19.11812929 Ry
     estimated scf accuracy    <       0.00004656 Ry

     iteration #  5     ecut=    45.00 Ry     beta=0.30
     Davidson diagonalization with overlap
     ethr =  5.82E-07,  avg # of iterations =  1.1

     total cpu time spent up to now is       30.7 secs

     total energy              =     -19.11812134 Ry
     Harris-Foulkes estimate   =     -19.11812037 Ry
     estimated scf accuracy    <       0.00000151 Ry

     iteration #  6     ecut=    45.00 Ry     beta=0.30
     Davidson diagonalization with overlap
     ethr =  1.89E-08,  avg # of iterations =  1.9

     total cpu time spent up to now is       31.2 secs

     total energy              =     -19.11812161 Ry
     Harris-Foulkes estimate   =     -19.11812160 Ry
     estimated scf accuracy    <       0.00000001 Ry

     iteration #  7     ecut=    45.00 Ry     beta=0.30
     Davidson diagonalization with overlap
     ethr =  1.82E-10,  avg # of iterations =  2.8

     total cpu time spent up to now is       31.7 secs

     total energy              =     -19.11812163 Ry
     Harris-Foulkes estimate   =     -19.11812162 Ry
     estimated scf accuracy    <          8.5E-09 Ry

     iteration #  8     ecut=    45.00 Ry     beta=0.30
     Davidson diagonalization with overlap
     ethr =  1.07E-10,  avg # of iterations =  1.1

     total cpu time spent up to now is       32.2 secs

     total energy              =     -19.11812163 Ry
     Harris-Foulkes estimate   =     -19.11812163 Ry
     estimated scf accuracy    <          2.6E-10 Ry

     iteration #  9     ecut=    45.00 Ry     beta=0.30
     Davidson diagonalization with overlap
     ethr =  3.30E-12,  avg # of iterations =  2.6

     total cpu time spent up to now is       32.7 secs

     total energy              =     -19.11812163 Ry
     Harris-Foulkes estimate   =     -19.11812163 Ry
     estimated scf accuracy    <          5.8E-11 Ry

     iteration # 10     ecut=    45.00 Ry     beta=0.30
     Davidson diagonalization with overlap
     ethr =  7.25E-13,  avg # of iterations =  1.2

     total cpu time spent up to now is       33.1 secs

     End of self-consistent calculation

          k = 0.0000 0.0000 0.0000 (  1411 PWs)   bands (ev):

    -5.8396   6.1392   6.1392   6.1392   8.6556   8.6556   8.6556   9.4291

     occupation numbers 
     1.0000   0.9984   0.9984   0.9984   0.0000   0.0000   0.0000   0.0000

          k = 0.1178-0.1178 0.1178 (  1387 PWs)   bands (ev):

    -5.4776   3.7399   5.6842   5.6842   8.4209   9.3063   9.3063  11.5192

     occupation numbers 
     1.0000   1.0000   1.0000   1.0000   0.0000   0.0000   0.0000   0.0000

          k = 0.2355-0.2355 0.2355 (  1380 PWs)   bands (ev):

    -4.4585   0.7767   5.1331   5.1331   7.8230   9.5908   9.5908  13.8403

     occupation numbers 
     1.0000   1.0000   1.0000   1.0000   0.0000   0.0000   0.0000   0.0000

          k =-0.3533 0.3533-0.3533 (  1380 PWs)   bands (ev):

    -3.4951  -0.8690   4.9354   4.9354   7.5963   9.4170   9.4170  13.6532

     occupation numbers 
     1.0000   1.0000   1.0000   1.0000   0.0000   0.0000   0.0000   0.0000

          k = 0.0000 0.0000 0.2355 (  1383 PWs)   bands (ev):

    -5.3545   4.0945   4.9330   4.9330   7.7652  10.3556  10.4470  10.4470

     occupation numbers 
     1.0000   1.0000   1.0000   1.0000   0.0000   0.0000   0.0000   0.0000

          k = 0.1178-0.1178 0.3533 (  1370 PWs)   bands (ev):

    -4.5371   1.6868   4.1230   4.3784   8.0220  10.1271  10.5938  11.1696

     occupation numbers 
     1.0000   1.0000   1.0000   1.0000   0.0000   0.0000   0.0000   0.0000

          k =-0.4711 0.4711-0.2355 (  1384 PWs)   bands (ev):

    -3.3379  -0.4951   3.3333   4.3505   8.0923  10.1861  10.7058  12.4782

     occupation numbers 
     1.0000   1.0000   1.0000   1.0000   0.0000   0.0000   0.0000   0.0000

          k =-0.3533 0.3533-0.1178 (  1381 PWs)   bands (ev):

    -3.7262   0.1086   3.0585   4.8342   8.5122  10.1855  10.3132  13.3349

     occupation numbers 
     1.0000   1.0000   1.0000   1.0000   0.0000   0.0000   0.0000   0.0000

          k =-0.2355 0.2355 0.0000 (  1370 PWs)   bands (ev):

    -4.8879   2.4090   3.6926   5.5727   9.1213   9.6498   9.9196  11.7112

     occupation numbers 
     1.0000   1.0000   1.0000   1.0000   0.0000   0.0000   0.0000   0.0000

          k = 0.0000 0.0000 0.4711 (  1379 PWs)   bands (ev):

    -3.9315   1.1233   3.7033   3.7033   6.7642   8.0184  13.3569  13.3569

     occupation numbers 
     1.0000   1.0000   1.0000   1.0000   0.0002   0.0000   0.0000   0.0000

          k =-0.5889 0.5889-0.1178 (  1378 PWs)   bands (ev):

    -2.7633  -0.4327   2.4641   3.5670   7.0952   8.7644  13.5369  13.5553

     occupation numbers 
     1.0000   1.0000   1.0000   1.0000   0.0000   0.0000   0.0000   0.0000

          k =-0.4711 0.4711-0.0000 (  1382 PWs)   bands (ev):

    -2.5623  -0.6416   1.6717   4.0126   7.6040  11.8515  12.5639  13.1507

     occupation numbers 
     1.0000   1.0000   1.0000   1.0000   0.0000   0.0000   0.0000   0.0000

          k = 0.0000 0.0000-0.7066 (  1362 PWs)   bands (ev):

    -1.6865  -1.6865   3.2674   3.2674   6.7362   6.7362  16.1781  16.1781

     occupation numbers 
     1.0000   1.0000   1.0000   1.0000   0.0006   0.0006   0.0000   0.0000

          k =-0.4711 0.7066-0.2355 (  1370 PWs)   bands (ev):

    -3.5437   0.4879   2.5264   3.8181   8.9159   9.7545  10.3128  13.1534

     occupation numbers 
     1.0000   1.0000   1.0000   1.0000   0.0000   0.0000   0.0000   0.0000

          k =-0.3533 0.5889-0.1178 (  1380 PWs)   bands (ev):

    -2.5518  -0.7184   2.0837   3.3446   9.4035   9.6262  12.1578  12.5880

     occupation numbers 
     1.0000   1.0000   1.0000   1.0000   0.0000   0.0000   0.0000   0.0000

          k = 0.2355 0.0000-0.7066 (  1396 PWs)   bands (ev):

    -1.5630  -1.5630   2.4505   2.4505   8.7987   8.7987  12.8332  12.8332

     occupation numbers 
     1.0000   1.0000   1.0000   1.0000   0.0000   0.0000   0.0000   0.0000

     the Fermi energy is     6.4236 ev

!    total energy              =     -19.11812163 Ry
     Harris-Foulkes estimate   =     -19.11812163 Ry
     estimated scf accuracy    <          4.6E-13 Ry

     The total energy is the sum of the following terms:

     one-electron contribution =       5.09651425 Ry
     hartree contribution      =       1.10043018 Ry
     xc contribution           =      -8.52726855 Ry
     ewald contribution        =     -16.78779542 Ry
     smearing contrib. (-TS)   =      -0.00000209 Ry

     convergence has been achieved in  10 iterations

     Forces acting on atoms (Ry/au):

     atom    1 type  1   force =     0.00000000    0.00000000    0.00000000
     atom    2 type  1   force =     0.00000000    0.00000000    0.00000000
     The non-local contrib.  to forces
     atom    1 type  1   force =     0.00000000    0.00000000    0.00000000
     atom    2 type  1   force =     0.00000000    0.00000000    0.00000000
     The ionic contribution  to forces
     atom    1 type  1   force =     0.00000000    0.00000000    0.00000000
     atom    2 type  1   force =    -0.00000000   -0.00000000   -0.00000000
     The local contribution  to forces
     atom    1 type  1   force =    -0.00000000   -0.00000000    0.00000000
     atom    2 type  1   force =    -0.00000000   -0.00000000   -0.00000000
     The core correction contribution to forces
     atom    1 type  1   force =    -0.00000000   -0.00000000   -0.00000000
     atom    2 type  1   force =     0.00000000    0.00000000    0.00000000
     The Hubbard contrib.    to forces
     atom    1 type  1   force =     0.00000000    0.00000000    0.00000000
     atom    2 type  1   force =     0.00000000    0.00000000    0.00000000
     The SCF correction term to forces
     atom    1 type  1   force =     0.00000000   -0.00000000    0.00000000
     atom    2 type  1   force =    -0.00000000    0.00000000   -0.00000000

     Total force =     0.000000     Total SCF correction =     0.000000


     entering subroutine stress ...

          total   stress  (Ry/bohr**3)                   (kbar)     P=   -0.00
  -0.00000002   0.00000000   0.00000000         -0.00      0.00      0.00
   0.00000000  -0.00000002   0.00000000          0.00     -0.00      0.00
   0.00000000   0.00000000  -0.00000002          0.00      0.00     -0.00

     kinetic stress (kbar)   2188.91     -0.00      0.00
                               -0.00   2188.91      0.00
                                0.00      0.00   2188.91

     local   stress (kbar)   -289.71      0.00      0.00
                                0.00   -289.71      0.00
                                0.00      0.00   -289.71

     nonloc. stress (kbar)   1936.20      0.00      0.00
                                0.00   1936.20     -0.00
                                0.00     -0.00   1936.20

     hartree stress (kbar)    199.37     -0.00      0.00
                               -0.00    199.37     -0.00
                                0.00     -0.00    199.37

     exc-cor stress (kbar)    992.45      0.00     -0.00
                                0.00    992.45      0.00
                               -0.00      0.00    992.45

     corecor stress (kbar)  -1985.65      0.00      0.00
                                0.00  -1985.65      0.00
                                0.00      0.00  -1985.65

     ewald   stress (kbar)  -3041.58     -0.00     -0.00
                               -0.00  -3041.58     -0.00
                               -0.00     -0.00  -3041.58

     hubbard stress (kbar)      0.00      0.00      0.00
                                0.00      0.00      0.00
                                0.00      0.00      0.00

     london  stress (kbar)      0.00      0.00      0.00
                                0.00      0.00      0.00
                                0.00      0.00      0.00

     XDM     stress (kbar)      0.00      0.00      0.00
                                0.00      0.00      0.00
                                0.00      0.00      0.00

     dft-nl  stress (kbar)      0.00      0.00      0.00
                                0.00      0.00      0.00
                                0.00      0.00      0.00

     TS-vdW  stress (kbar)      0.00      0.00      0.00
                                0.00      0.00      0.00
                                0.00      0.00      0.00



     Writing output data file QE.save

     init_run     :      1.68s CPU      1.75s WALL (       2 calls)
     electrons    :     14.27s CPU     17.48s WALL (       4 calls)
     update_pot   :      2.35s CPU      2.52s WALL (       2 calls)
     forces       :      2.40s CPU      2.48s WALL (       4 calls)
     stress       :      5.79s CPU      6.07s WALL (       4 calls)

     Called by init_run:
     wfcinit      :      0.22s CPU      0.23s WALL (       2 calls)
     wfcinit:atom :      0.01s CPU      0.01s WALL (      32 calls)
     wfcinit:wfcr :      0.16s CPU      0.18s WALL (      32 calls)
     potinit      :      0.25s CPU      0.26s WALL (       2 calls)

     Called by electrons:
     c_bands      :      8.66s CPU      9.44s WALL (      32 calls)
     sum_band     :      3.39s CPU      4.01s WALL (      32 calls)
     v_of_rho     :      0.98s CPU      1.08s WALL (      33 calls)
     v_h          :      0.04s CPU      0.04s WALL (      33 calls)
     v_xc         :      1.21s CPU      1.31s WALL (      41 calls)
     newd         :      1.08s CPU      1.57s WALL (      33 calls)
     mix_rho      :      0.36s CPU      0.41s WALL (      32 calls)

     Called by c_bands:
     init_us_2    :      0.69s CPU      0.78s WALL (    1184 calls)
     cegterg      :      7.63s CPU      8.32s WALL (     512 calls)

     Called by sum_band:
     sum_band:bec :      0.00s CPU      0.00s WALL (     512 calls)
     addusdens    :      1.61s CPU      2.05s WALL (      32 calls)

     Called by *egterg:
     h_psi        :      6.27s CPU      6.85s WALL (    1566 calls)
     s_psi        :      0.38s CPU      0.42s WALL (    1566 calls)
     g_psi        :      0.06s CPU      0.05s WALL (    1022 calls)
     cdiaghg      :      0.14s CPU      0.13s WALL (    1454 calls)
     cegterg:over :      0.20s CPU      0.26s WALL (    1022 calls)
     cegterg:upda :      0.20s CPU      0.19s WALL (    1022 calls)
     cegterg:last :      0.11s CPU      0.13s WALL (     542 calls)

     Called by h_psi:
     h_psi:pot    :      6.25s CPU      6.81s WALL (    1566 calls)
     h_psi:calbec :      0.36s CPU      0.45s WALL (    1566 calls)
     vloc_psi     :      5.51s CPU      5.95s WALL (    1566 calls)
     add_vuspsi   :      0.36s CPU      0.42s WALL (    1566 calls)

     General routines
     calbec       :      0.73s CPU      0.81s WALL (    2398 calls)
     fft          :      0.41s CPU      0.45s WALL (     626 calls)
     ffts         :      0.13s CPU      0.17s WALL (     520 calls)
     fftw         :      5.43s CPU      5.78s WALL (   24824 calls)
     interpolate  :      0.06s CPU      0.10s WALL (      65 calls)

     Parallel routines
     fft_scatter  :      1.01s CPU      1.21s WALL (   25970 calls)

     PWSCF        :    27.04s CPU        35.70s WALL


   This run was terminated on:  21:50:25   9Jul2020            

=------------------------------------------------------------------------------=
   JOB DONE.
=------------------------------------------------------------------------------=
