   2   2   1   0
  0.2072475E+02  0.3884586E-09  0.3884587E-09  0.3884586E-09  0.5000000E-15
  1.000000000000000E-004
  CAR 
 Y3Al5O12-garnet                         
     47.84545324    -10.58127375 5000      5.75166963      1.00000000
    -10.581  0.0000E+00  0.0000E+00  0.0000E+00  0.0000E+00
    -10.570  0.0000E+00  0.0000E+00  0.0000E+00  0.0000E+00
    -10.558  0.0000E+00  0.0000E+00  0.0000E+00  0.0000E+00
    -10.546  0.0000E+00  0.0000E+00  0.0000E+00  0.0000E+00
    -10.535  0.0000E+00  0.0000E+00  0.0000E+00  0.0000E+00
    -10.523  0.0000E+00  0.0000E+00  0.0000E+00  0.0000E+00
    -10.511  0.0000E+00  0.0000E+00  0.0000E+00  0.0000E+00
    -10.499  0.0000E+00  0.0000E+00  0.0000E+00  0.0000E+00
    -10.488  0.0000E+00  0.0000E+00  0.0000E+00  0.0000E+00
    -10.476  0.0000E+00  0.0000E+00  0.0000E+00  0.0000E+00
    -10.464  0.0000E+00  0.0000E+00  0.0000E+00  0.0000E+00
    -10.453  0.0000E+00  0.0000E+00  0.0000E+00  0.0000E+00
    -10.441  0.0000E+00  0.0000E+00  0.0000E+00  0.0000E+00
    -10.429  0.0000E+00  0.0000E+00  0.0000E+00  0.0000E+00
    -10.418  0.0000E+00  0.0000E+00  0.0000E+00  0.0000E+00
    -10.406  0.0000E+00  0.0000E+00  0.0000E+00  0.0000E+00
    -10.394  0.0000E+00  0.0000E+00  0.0000E+00  0.0000E+00
    -10.383  0.0000E+00  0.0000E+00  0.0000E+00  0.0000E+00
    -10.371  0.0000E+00  0.0000E+00  0.0000E+00  0.0000E+00
    -10.359  0.0000E+00  0.0000E+00  0.0000E+00  0.0000E+00
    -10.348  0.0000E+00  0.0000E+00  0.0000E+00  0.0000E+00
    -10.336  0.0000E+00  0.0000E+00  0.0000E+00  0.0000E+00
    -10.324  0.0000E+00  0.0000E+00  0.0000E+00  0.0000E+00
    -10.312  0.0000E+00  0.0000E+00  0.0000E+00  0.0000E+00
    -10.301  0.0000E+00  0.0000E+00  0.0000E+00  0.0000E+00
    -10.289  0.0000E+00  0.0000E+00  0.0000E+00  0.0000E+00
    -10.277  0.0000E+00  0.0000E+00  0.0000E+00  0.0000E+00
    -10.266  0.0000E+00  0.0000E+00  0.0000E+00  0.0000E+00
    -10.254  0.0000E+00  0.0000E+00  0.0000E+00  0.0000E+00
    -10.242  0.0000E+00  0.0000E+00  0.0000E+00  0.0000E+00
    -10.231  0.0000E+00  0.0000E+00  0.0000E+00  0.0000E+00
    -10.219  0.0000E+00  0.0000E+00  0.0000E+00  0.0000E+00
    -10.207  0.0000E+00  0.0000E+00  0.0000E+00  0.0000E+00
    -10.196  0.0000E+00  0.0000E+00  0.0000E+00  0.0000E+00
    -10.184  0.0000E+00  0.0000E+00  0.0000E+00  0.0000E+00
    -10.172  0.0000E+00  0.0000E+00  0.0000E+00  0.0000E+00
    -10.161  0.0000E+00  0.0000E+00  0.0000E+00  0.0000E+00
    -10.149  0.0000E+00  0.0000E+00  0.0000E+00  0.0000E+00
    -10.137  0.0000E+00  0.0000E+00  0.0000E+00  0.0000E+00
    -10.125  0.0000E+00  0.0000E+00  0.0000E+00  0.0000E+00
    -10.114  0.0000E+00  0.0000E+00  0.0000E+00  0.0000E+00
    -10.102  0.0000E+00  0.0000E+00  0.0000E+00  0.0000E+00
    -10.090  0.0000E+00  0.0000E+00  0.0000E+00  0.0000E+00
    -10.079  0.0000E+00  0.0000E+00  0.0000E+00  0.0000E+00
    -10.067  0.0000E+00  0.0000E+00  0.0000E+00  0.0000E+00
    -10.055  0.0000E+00  0.0000E+00  0.0000E+00  0.0000E+00
    -10.044  0.0000E+00  0.0000E+00  0.0000E+00  0.0000E+00
    -10.032  0.0000E+00  0.0000E+00  0.0000E+00  0.0000E+00
    -10.020  0.0000E+00  0.0000E+00  0.0000E+00  0.0000E+00
    -10.009  0.0000E+00  0.0000E+00  0.0000E+00  0.0000E+00
     -9.997  0.0000E+00  0.0000E+00  0.0000E+00  0.0000E+00
     -9.985  0.0000E+00  0.0000E+00  0.0000E+00  0.0000E+00
     -9.974  0.0000E+00  0.0000E+00  0.0000E+00  0.0000E+00
     -9.962  0.0000E+00  0.0000E+00  0.0000E+00  0.0000E+00
     -9.950  0.0000E+00  0.0000E+00  0.0000E+00  0.0000E+00
     -9.938  0.0000E+00  0.0000E+00  0.0000E+00  0.0000E+00
     -9.927  0.0000E+00  0.0000E+00  0.0000E+00  0.0000E+00
     -9.915  0.0000E+00  0.0000E+00  0.0000E+00  0.0000E+00
     -9.903  0.0000E+00  0.0000E+00  0.0000E+00  0.0000E+00
     -9.892  0.0000E+00  0.0000E+00  0.0000E+00  0.0000E+00
     -9.880  0.0000E+00  0.0000E+00  0.0000E+00  0.0000E+00
     -9.868  0.0000E+00  0.0000E+00  0.0000E+00  0.0000E+00
     -9.857  0.0000E+00  0.0000E+00  0.0000E+00  0.0000E+00
     -9.845  0.0000E+00  0.0000E+00  0.0000E+00  0.0000E+00
     -9.833  0.0000E+00  0.0000E+00  0.0000E+00  0.0000E+00
     -9.822  0.0000E+00  0.0000E+00  0.0000E+00  0.0000E+00
     -9.810  0.0000E+00  0.0000E+00  0.0000E+00  0.0000E+00
     -9.798  0.0000E+00  0.0000E+00  0.0000E+00  0.0000E+00
     -9.787  0.0000E+00  0.0000E+00  0.0000E+00  0.0000E+00
     -9.775  0.0000E+00  0.0000E+00  0.0000E+00  0.0000E+00
     -9.763  0.0000E+00  0.0000E+00  0.0000E+00  0.0000E+00
     -9.751  0.0000E+00  0.0000E+00  0.0000E+00  0.0000E+00
     -9.740  0.0000E+00  0.0000E+00  0.0000E+00  0.0000E+00
     -9.728  0.0000E+00  0.0000E+00  0.0000E+00  0.0000E+00
     -9.716  0.0000E+00  0.0000E+00  0.0000E+00  0.0000E+00
     -9.705  0.0000E+00  0.0000E+00  0.0000E+00  0.0000E+00
     -9.693  0.0000E+00  0.0000E+00  0.0000E+00  0.0000E+00
     -9.681  0.0000E+00  0.0000E+00  0.0000E+00  0.0000E+00
     -9.670  0.0000E+00  0.0000E+00  0.0000E+00  0.0000E+00
     -9.658  0.0000E+00  0.0000E+00  0.0000E+00  0.0000E+00
     -9.646  0.0000E+00  0.0000E+00  0.0000E+00  0.0000E+00
     -9.635  0.0000E+00  0.0000E+00  0.0000E+00  0.0000E+00
     -9.623  0.0000E+00  0.0000E+00  0.0000E+00  0.0000E+00
     -9.611  0.0000E+00  0.0000E+00  0.0000E+00  0.0000E+00
     -9.600  0.0000E+00  0.0000E+00  0.0000E+00  0.0000E+00
     -9.588  0.0000E+00  0.0000E+00  0.0000E+00  0.0000E+00
     -9.576  0.0000E+00  0.0000E+00  0.0000E+00  0.0000E+00
     -9.564  0.0000E+00  0.0000E+00  0.0000E+00  0.0000E+00
     -9.553  0.0000E+00  0.0000E+00  0.0000E+00  0.0000E+00
     -9.541  0.0000E+00  0.0000E+00  0.0000E+00  0.0000E+00
     -9.529  0.0000E+00  0.0000E+00  0.0000E+00  0.0000E+00
     -9.518  0.0000E+00  0.0000E+00  0.0000E+00  0.0000E+00
     -9.506  0.0000E+00  0.0000E+00  0.0000E+00  0.0000E+00
     -9.494  0.0000E+00  0.0000E+00  0.0000E+00  0.0000E+00
     -9.483  0.0000E+00  0.0000E+00  0.0000E+00  0.0000E+00
     -9.471  0.0000E+00  0.0000E+00  0.0000E+00  0.0000E+00
     -9.459  0.0000E+00  0.0000E+00  0.0000E+00  0.0000E+00
     -9.448  0.0000E+00  0.0000E+00  0.0000E+00  0.0000E+00
     -9.436  0.0000E+00  0.0000E+00  0.0000E+00  0.0000E+00
     -9.424  0.0000E+00  0.0000E+00  0.0000E+00  0.0000E+00
     -9.413  0.0000E+00  0.0000E+00  0.0000E+00  0.0000E+00
     -9.401  0.0000E+00  0.0000E+00  0.0000E+00  0.0000E+00
     -9.389  0.0000E+00  0.0000E+00  0.0000E+00  0.0000E+00
     -9.377  0.0000E+00  0.0000E+00  0.0000E+00  0.0000E+00
     -9.366  0.0000E+00  0.0000E+00  0.0000E+00  0.0000E+00
     -9.354  0.0000E+00  0.0000E+00  0.0000E+00  0.0000E+00
     -9.342  0.0000E+00  0.0000E+00  0.0000E+00  0.0000E+00
     -9.331  0.0000E+00  0.0000E+00  0.0000E+00  0.0000E+00
     -9.319  0.0000E+00  0.0000E+00  0.0000E+00  0.0000E+00
     -9.307  0.0000E+00  0.0000E+00  0.0000E+00  0.0000E+00
     -9.296  0.0000E+00  0.0000E+00  0.0000E+00  0.0000E+00
     -9.284  0.0000E+00  0.0000E+00  0.0000E+00  0.0000E+00
     -9.272  0.0000E+00  0.0000E+00  0.0000E+00  0.0000E+00
     -9.261  0.0000E+00  0.0000E+00  0.0000E+00  0.0000E+00
     -9.249  0.0000E+00  0.0000E+00  0.0000E+00  0.0000E+00
     -9.237  0.0000E+00  0.0000E+00  0.0000E+00  0.0000E+00
     -9.226  0.0000E+00  0.0000E+00  0.0000E+00  0.0000E+00
     -9.214  0.0000E+00  0.0000E+00  0.0000E+00  0.0000E+00
     -9.202  0.0000E+00  0.0000E+00  0.0000E+00  0.0000E+00
     -9.190  0.0000E+00  0.0000E+00  0.0000E+00  0.0000E+00
     -9.179  0.0000E+00  0.0000E+00  0.0000E+00  0.0000E+00
     -9.167  0.0000E+00  0.0000E+00  0.0000E+00  0.0000E+00
     -9.155  0.0000E+00  0.0000E+00  0.0000E+00  0.0000E+00
     -9.144  0.0000E+00  0.0000E+00  0.0000E+00  0.0000E+00
     -9.132  0.0000E+00  0.0000E+00  0.0000E+00  0.0000E+00
     -9.120  0.0000E+00  0.0000E+00  0.0000E+00  0.0000E+00
     -9.109  0.9276E-17  0.9276E-17  0.1084E-18  0.1084E-18
     -9.097  0.0000E+00  0.0000E+00  0.1084E-18  0.1084E-18
     -9.085  0.9276E-17  0.9276E-17  0.2168E-18  0.2168E-18
     -9.074  0.1855E-16  0.1855E-16  0.4337E-18  0.4337E-18
     -9.062  0.3711E-16  0.3711E-16  0.8674E-18  0.8674E-18
     -9.050  0.7421E-16  0.7421E-16  0.1735E-17  0.1735E-17
     -9.038  0.1484E-15  0.1484E-15  0.3469E-17  0.3469E-17
     -9.027  0.2783E-15  0.2783E-15  0.6722E-17  0.6722E-17
     -9.015  0.5195E-15  0.5195E-15  0.1279E-16  0.1279E-16
     -9.003  0.9926E-15  0.9926E-15  0.2439E-16  0.2439E-16
     -8.992  0.1855E-14  0.1855E-14  0.4608E-16  0.4608E-16
     -8.980  0.3469E-14  0.3469E-14  0.8663E-16  0.8663E-16
     -8.968  0.6410E-14  0.6410E-14  0.1615E-15  0.1615E-15
     -8.957  0.1179E-13  0.1179E-13  0.2993E-15  0.2993E-15
     -8.945  0.2154E-13  0.2154E-13  0.5511E-15  0.5511E-15
     -8.933  0.3905E-13  0.3905E-13  0.1008E-14  0.1008E-14
     -8.922  0.7037E-13  0.7037E-13  0.1830E-14  0.1830E-14
     -8.910  0.1259E-12  0.1259E-12  0.3302E-14  0.3302E-14
     -8.898  0.2237E-12  0.2237E-12  0.5916E-14  0.5916E-14
     -8.887  0.3950E-12  0.3950E-12  0.1053E-13  0.1053E-13
     -8.875  0.6922E-12  0.6922E-12  0.1862E-13  0.1862E-13
     -8.863  0.1205E-11  0.1205E-11  0.3271E-13  0.3271E-13
     -8.851  0.2084E-11  0.2084E-11  0.5707E-13  0.5707E-13
     -8.840  0.3579E-11  0.3579E-11  0.9890E-13  0.9890E-13
     -8.828  0.6105E-11  0.6106E-11  0.1703E-12  0.1703E-12
     -8.816  0.1034E-10  0.1034E-10  0.2912E-12  0.2912E-12
     -8.805  0.1740E-10  0.1740E-10  0.4946E-12  0.4946E-12
     -8.793  0.2909E-10  0.2909E-10  0.8345E-12  0.8345E-12
     -8.781  0.4828E-10  0.4828E-10  0.1399E-11  0.1399E-11
     -8.770  0.7959E-10  0.7959E-10  0.2329E-11  0.2329E-11
     -8.758  0.1303E-09  0.1303E-09  0.3852E-11  0.3852E-11
     -8.746  0.2119E-09  0.2119E-09  0.6329E-11  0.6329E-11
     -8.735  0.3423E-09  0.3423E-09  0.1033E-10  0.1033E-10
     -8.723  0.5491E-09  0.5491E-09  0.1675E-10  0.1675E-10
     -8.711  0.8748E-09  0.8748E-09  0.2697E-10  0.2697E-10
     -8.700  0.1384E-08  0.1384E-08  0.4315E-10  0.4315E-10
     -8.688  0.2176E-08  0.2176E-08  0.6858E-10  0.6858E-10
     -8.676  0.3396E-08  0.3396E-08  0.1083E-09  0.1083E-09
     -8.664  0.5266E-08  0.5266E-08  0.1698E-09  0.1698E-09
     -8.653  0.8108E-08  0.8108E-08  0.2646E-09  0.2646E-09
     -8.641  0.1240E-07  0.1240E-07  0.4095E-09  0.4095E-09
     -8.629  0.1884E-07  0.1884E-07  0.6297E-09  0.6297E-09
     -8.618  0.2842E-07  0.2842E-07  0.9619E-09  0.9619E-09
     -8.606  0.4259E-07  0.4259E-07  0.1460E-08  0.1460E-08
     -8.594  0.6339E-07  0.6339E-07  0.2200E-08  0.2200E-08
     -8.583  0.9370E-07  0.9370E-07  0.3296E-08  0.3296E-08
     -8.571  0.1376E-06  0.1376E-06  0.4903E-08  0.4903E-08
     -8.559  0.2006E-06  0.2006E-06  0.7248E-08  0.7248E-08
     -8.548  0.2906E-06  0.2906E-06  0.1064E-07  0.1064E-07
     -8.536  0.4180E-06  0.4180E-06  0.1553E-07  0.1553E-07
     -8.524  0.5973E-06  0.5973E-06  0.2251E-07  0.2251E-07
     -8.513  0.8477E-06  0.8478E-06  0.3242E-07  0.3242E-07
     -8.501  0.1195E-05  0.1195E-05  0.4639E-07  0.4639E-07
     -8.489  0.1673E-05  0.1673E-05  0.6594E-07  0.6594E-07
     -8.477  0.2327E-05  0.2327E-05  0.9314E-07  0.9314E-07
     -8.466  0.3215E-05  0.3215E-05  0.1307E-06  0.1307E-06
     -8.454  0.4411E-05  0.4412E-05  0.1823E-06  0.1823E-06
     -8.442  0.6013E-05  0.6013E-05  0.2526E-06  0.2526E-06
     -8.431  0.8141E-05  0.8141E-05  0.3477E-06  0.3477E-06
     -8.419  0.1095E-04  0.1095E-04  0.4757E-06  0.4757E-06
     -8.407  0.1463E-04  0.1463E-04  0.6466E-06  0.6466E-06
     -8.396  0.1941E-04  0.1941E-04  0.8735E-06  0.8735E-06
     -8.384  0.2560E-04  0.2560E-04  0.1173E-05  0.1173E-05
     -8.372  0.3353E-04  0.3353E-04  0.1565E-05  0.1565E-05
     -8.361  0.4363E-04  0.4363E-04  0.2074E-05  0.2074E-05
     -8.349  0.5640E-04  0.5640E-04  0.2734E-05  0.2734E-05
     -8.337  0.7245E-04  0.7245E-04  0.3580E-05  0.3580E-05
     -8.326  0.9247E-04  0.9247E-04  0.4661E-05  0.4661E-05
     -8.314  0.1173E-03  0.1173E-03  0.6032E-05  0.6032E-05
     -8.302  0.1478E-03  0.1478E-03  0.7759E-05  0.7759E-05
     -8.290  0.1851E-03  0.1851E-03  0.9923E-05  0.9923E-05
     -8.279  0.2305E-03  0.2305E-03  0.1262E-04  0.1262E-04
     -8.267  0.2852E-03  0.2852E-03  0.1595E-04  0.1595E-04
     -8.255  0.3508E-03  0.3508E-03  0.2005E-04  0.2005E-04
     -8.244  0.4289E-03  0.4290E-03  0.2506E-04  0.2506E-04
     -8.232  0.5216E-03  0.5216E-03  0.3116E-04  0.3116E-04
     -8.220  0.6307E-03  0.6307E-03  0.3853E-04  0.3853E-04
     -8.209  0.7585E-03  0.7585E-03  0.4740E-04  0.4740E-04
     -8.197  0.9075E-03  0.9075E-03  0.5800E-04  0.5800E-04
     -8.185  0.1080E-02  0.1080E-02  0.7063E-04  0.7063E-04
     -8.174  0.1280E-02  0.1280E-02  0.8558E-04  0.8558E-04
     -8.162  0.1509E-02  0.1509E-02  0.1032E-03  0.1032E-03
     -8.150  0.1771E-02  0.1771E-02  0.1239E-03  0.1239E-03
     -8.139  0.2070E-02  0.2070E-02  0.1481E-03  0.1481E-03
     -8.127  0.2410E-02  0.2410E-02  0.1763E-03  0.1763E-03
     -8.115  0.2795E-02  0.2795E-02  0.2089E-03  0.2089E-03
     -8.103  0.3230E-02  0.3230E-02  0.2467E-03  0.2467E-03
     -8.092  0.3721E-02  0.3721E-02  0.2902E-03  0.2902E-03
     -8.080  0.4274E-02  0.4274E-02  0.3401E-03  0.3401E-03
     -8.068  0.4895E-02  0.4895E-02  0.3973E-03  0.3973E-03
     -8.057  0.5592E-02  0.5592E-02  0.4627E-03  0.4627E-03
     -8.045  0.6372E-02  0.6372E-02  0.5372E-03  0.5372E-03
     -8.033  0.7244E-02  0.7244E-02  0.6218E-03  0.6218E-03
     -8.022  0.8218E-02  0.8218E-02  0.7179E-03  0.7179E-03
     -8.010  0.9304E-02  0.9304E-02  0.8266E-03  0.8266E-03
     -7.998  0.1051E-01  0.1051E-01  0.9495E-03  0.9495E-03
     -7.987  0.1185E-01  0.1185E-01  0.1088E-02  0.1088E-02
     -7.975  0.1333E-01  0.1333E-01  0.1244E-02  0.1244E-02
     -7.963  0.1496E-01  0.1496E-01  0.1419E-02  0.1419E-02
     -7.952  0.1675E-01  0.1675E-01  0.1614E-02  0.1614E-02
     -7.940  0.1871E-01  0.1871E-01  0.1833E-02  0.1833E-02
     -7.928  0.2085E-01  0.2085E-01  0.2077E-02  0.2077E-02
     -7.916  0.2316E-01  0.2316E-01  0.2348E-02  0.2348E-02
     -7.905  0.2565E-01  0.2565E-01  0.2647E-02  0.2647E-02
     -7.893  0.2831E-01  0.2831E-01  0.2978E-02  0.2978E-02
     -7.881  0.3114E-01  0.3114E-01  0.3342E-02  0.3342E-02
     -7.870  0.3412E-01  0.3412E-01  0.3741E-02  0.3741E-02
     -7.858  0.3724E-01  0.3724E-01  0.4176E-02  0.4176E-02
     -7.846  0.4048E-01  0.4048E-01  0.4649E-02  0.4649E-02
     -7.835  0.4382E-01  0.4382E-01  0.5161E-02  0.5161E-02
     -7.823  0.4721E-01  0.4721E-01  0.5713E-02  0.5713E-02
     -7.811  0.5064E-01  0.5064E-01  0.6305E-02  0.6305E-02
     -7.800  0.5405E-01  0.5405E-01  0.6937E-02  0.6937E-02
     -7.788  0.5741E-01  0.5741E-01  0.7608E-02  0.7608E-02
     -7.776  0.6069E-01  0.6069E-01  0.8317E-02  0.8317E-02
     -7.765  0.6382E-01  0.6382E-01  0.9063E-02  0.9063E-02
     -7.753  0.6679E-01  0.6679E-01  0.9844E-02  0.9844E-02
     -7.741  0.6953E-01  0.6953E-01  0.1066E-01  0.1066E-01
     -7.729  0.7203E-01  0.7203E-01  0.1150E-01  0.1150E-01
     -7.718  0.7424E-01  0.7424E-01  0.1237E-01  0.1237E-01
     -7.706  0.7615E-01  0.7615E-01  0.1326E-01  0.1326E-01
     -7.694  0.7774E-01  0.7774E-01  0.1416E-01  0.1416E-01
     -7.683  0.7899E-01  0.7899E-01  0.1509E-01  0.1509E-01
     -7.671  0.7991E-01  0.7991E-01  0.1602E-01  0.1602E-01
     -7.659  0.8051E-01  0.8051E-01  0.1696E-01  0.1696E-01
     -7.648  0.8081E-01  0.8081E-01  0.1791E-01  0.1791E-01
     -7.636  0.8083E-01  0.8083E-01  0.1885E-01  0.1885E-01
     -7.624  0.8061E-01  0.8061E-01  0.1979E-01  0.1979E-01
     -7.613  0.8019E-01  0.8019E-01  0.2073E-01  0.2073E-01
     -7.601  0.7962E-01  0.7962E-01  0.2166E-01  0.2166E-01
     -7.589  0.7897E-01  0.7896E-01  0.2258E-01  0.2258E-01
     -7.578  0.7827E-01  0.7827E-01  0.2350E-01  0.2350E-01
     -7.566  0.7759E-01  0.7759E-01  0.2441E-01  0.2441E-01
     -7.554  0.7700E-01  0.7700E-01  0.2531E-01  0.2531E-01
     -7.542  0.7653E-01  0.7653E-01  0.2620E-01  0.2620E-01
     -7.531  0.7626E-01  0.7626E-01  0.2709E-01  0.2709E-01
     -7.519  0.7622E-01  0.7621E-01  0.2798E-01  0.2798E-01
     -7.507  0.7645E-01  0.7645E-01  0.2888E-01  0.2888E-01
     -7.496  0.7699E-01  0.7699E-01  0.2978E-01  0.2978E-01
     -7.484  0.7788E-01  0.7788E-01  0.3069E-01  0.3069E-01
     -7.472  0.7912E-01  0.7912E-01  0.3161E-01  0.3161E-01
     -7.461  0.8073E-01  0.8073E-01  0.3255E-01  0.3255E-01
     -7.449  0.8272E-01  0.8272E-01  0.3352E-01  0.3352E-01
     -7.437  0.8509E-01  0.8509E-01  0.3452E-01  0.3452E-01
     -7.426  0.8784E-01  0.8784E-01  0.3554E-01  0.3554E-01
     -7.414  0.9094E-01  0.9094E-01  0.3661E-01  0.3661E-01
     -7.402  0.9440E-01  0.9440E-01  0.3771E-01  0.3771E-01
     -7.391  0.9819E-01  0.9819E-01  0.3886E-01  0.3886E-01
     -7.379  0.1023E+00  0.1023E+00  0.4005E-01  0.4005E-01
     -7.367  0.1067E+00  0.1067E+00  0.4130E-01  0.4130E-01
     -7.355  0.1114E+00  0.1114E+00  0.4260E-01  0.4260E-01
     -7.344  0.1163E+00  0.1163E+00  0.4396E-01  0.4396E-01
     -7.332  0.1214E+00  0.1214E+00  0.4538E-01  0.4538E-01
     -7.320  0.1267E+00  0.1267E+00  0.4686E-01  0.4686E-01
     -7.309  0.1322E+00  0.1322E+00  0.4841E-01  0.4841E-01
     -7.297  0.1378E+00  0.1378E+00  0.5002E-01  0.5002E-01
     -7.285  0.1435E+00  0.1435E+00  0.5169E-01  0.5169E-01
     -7.274  0.1492E+00  0.1492E+00  0.5344E-01  0.5344E-01
     -7.262  0.1548E+00  0.1548E+00  0.5525E-01  0.5525E-01
     -7.250  0.1604E+00  0.1604E+00  0.5712E-01  0.5712E-01
     -7.239  0.1658E+00  0.1658E+00  0.5906E-01  0.5906E-01
     -7.227  0.1709E+00  0.1709E+00  0.6106E-01  0.6106E-01
     -7.215  0.1758E+00  0.1758E+00  0.6311E-01  0.6311E-01
     -7.204  0.1802E+00  0.1802E+00  0.6522E-01  0.6522E-01
     -7.192  0.1842E+00  0.1842E+00  0.6737E-01  0.6737E-01
     -7.180  0.1876E+00  0.1876E+00  0.6956E-01  0.6956E-01
     -7.168  0.1904E+00  0.1904E+00  0.7179E-01  0.7179E-01
     -7.157  0.1925E+00  0.1925E+00  0.7404E-01  0.7404E-01
     -7.145  0.1938E+00  0.1938E+00  0.7630E-01  0.7630E-01
     -7.133  0.1943E+00  0.1943E+00  0.7858E-01  0.7857E-01
     -7.122  0.1939E+00  0.1939E+00  0.8084E-01  0.8084E-01
     -7.110  0.1927E+00  0.1927E+00  0.8309E-01  0.8309E-01
     -7.098  0.1906E+00  0.1906E+00  0.8532E-01  0.8532E-01
     -7.087  0.1876E+00  0.1876E+00  0.8751E-01  0.8751E-01
     -7.075  0.1838E+00  0.1838E+00  0.8966E-01  0.8966E-01
     -7.063  0.1792E+00  0.1792E+00  0.9176E-01  0.9176E-01
     -7.052  0.1740E+00  0.1740E+00  0.9379E-01  0.9379E-01
     -7.040  0.1681E+00  0.1681E+00  0.9575E-01  0.9575E-01
     -7.028  0.1617E+00  0.1617E+00  0.9764E-01  0.9764E-01
     -7.017  0.1549E+00  0.1549E+00  0.9946E-01  0.9946E-01
     -7.005  0.1479E+00  0.1479E+00  0.1012E+00  0.1012E+00
     -6.993  0.1407E+00  0.1407E+00  0.1028E+00  0.1028E+00
     -6.981  0.1336E+00  0.1336E+00  0.1044E+00  0.1044E+00
     -6.970  0.1265E+00  0.1265E+00  0.1059E+00  0.1059E+00
     -6.958  0.1197E+00  0.1197E+00  0.1073E+00  0.1073E+00
     -6.946  0.1133E+00  0.1133E+00  0.1086E+00  0.1086E+00
     -6.935  0.1073E+00  0.1073E+00  0.1098E+00  0.1098E+00
     -6.923  0.1019E+00  0.1020E+00  0.1110E+00  0.1110E+00
     -6.911  0.9728E-01  0.9728E-01  0.1122E+00  0.1122E+00
     -6.900  0.9337E-01  0.9337E-01  0.1133E+00  0.1133E+00
     -6.888  0.9030E-01  0.9030E-01  0.1143E+00  0.1143E+00
     -6.876  0.8812E-01  0.8812E-01  0.1154E+00  0.1154E+00
     -6.865  0.8687E-01  0.8687E-01  0.1164E+00  0.1164E+00
     -6.853  0.8658E-01  0.8658E-01  0.1174E+00  0.1174E+00
     -6.841  0.8728E-01  0.8728E-01  0.1184E+00  0.1184E+00
     -6.830  0.8897E-01  0.8897E-01  0.1194E+00  0.1194E+00
     -6.818  0.9164E-01  0.9164E-01  0.1205E+00  0.1205E+00
     -6.806  0.9529E-01  0.9529E-01  0.1216E+00  0.1216E+00
     -6.794  0.9989E-01  0.9988E-01  0.1228E+00  0.1228E+00
     -6.783  0.1054E+00  0.1054E+00  0.1240E+00  0.1240E+00
     -6.771  0.1118E+00  0.1118E+00  0.1253E+00  0.1253E+00
     -6.759  0.1190E+00  0.1190E+00  0.1267E+00  0.1267E+00
     -6.748  0.1270E+00  0.1270E+00  0.1282E+00  0.1282E+00
     -6.736  0.1356E+00  0.1356E+00  0.1298E+00  0.1298E+00
     -6.724  0.1448E+00  0.1448E+00  0.1315E+00  0.1315E+00
     -6.713  0.1546E+00  0.1546E+00  0.1333E+00  0.1333E+00
     -6.701  0.1647E+00  0.1647E+00  0.1352E+00  0.1352E+00
     -6.689  0.1751E+00  0.1751E+00  0.1373E+00  0.1373E+00
     -6.678  0.1857E+00  0.1857E+00  0.1394E+00  0.1394E+00
     -6.666  0.1963E+00  0.1963E+00  0.1417E+00  0.1417E+00
     -6.654  0.2067E+00  0.2067E+00  0.1441E+00  0.1441E+00
     -6.643  0.2170E+00  0.2170E+00  0.1467E+00  0.1467E+00
     -6.631  0.2268E+00  0.2268E+00  0.1493E+00  0.1493E+00
     -6.619  0.2362E+00  0.2362E+00  0.1521E+00  0.1521E+00
     -6.607  0.2449E+00  0.2449E+00  0.1549E+00  0.1549E+00
     -6.596  0.2528E+00  0.2528E+00  0.1579E+00  0.1579E+00
     -6.584  0.2599E+00  0.2599E+00  0.1609E+00  0.1609E+00
     -6.572  0.2660E+00  0.2660E+00  0.1640E+00  0.1640E+00
     -6.561  0.2711E+00  0.2711E+00  0.1672E+00  0.1672E+00
     -6.549  0.2751E+00  0.2751E+00  0.1704E+00  0.1704E+00
     -6.537  0.2781E+00  0.2781E+00  0.1737E+00  0.1737E+00
     -6.526  0.2799E+00  0.2799E+00  0.1770E+00  0.1770E+00
     -6.514  0.2808E+00  0.2808E+00  0.1802E+00  0.1802E+00
     -6.502  0.2806E+00  0.2806E+00  0.1835E+00  0.1835E+00
     -6.491  0.2795E+00  0.2795E+00  0.1868E+00  0.1868E+00
     -6.479  0.2775E+00  0.2775E+00  0.1900E+00  0.1900E+00
     -6.467  0.2748E+00  0.2748E+00  0.1932E+00  0.1932E+00
     -6.456  0.2715E+00  0.2715E+00  0.1964E+00  0.1964E+00
     -6.444  0.2677E+00  0.2677E+00  0.1995E+00  0.1995E+00
     -6.432  0.2636E+00  0.2636E+00  0.2026E+00  0.2026E+00
     -6.420  0.2593E+00  0.2593E+00  0.2057E+00  0.2056E+00
     -6.409  0.2548E+00  0.2548E+00  0.2086E+00  0.2086E+00
     -6.397  0.2504E+00  0.2504E+00  0.2116E+00  0.2116E+00
     -6.385  0.2461E+00  0.2461E+00  0.2144E+00  0.2144E+00
     -6.374  0.2421E+00  0.2421E+00  0.2173E+00  0.2173E+00
     -6.362  0.2384E+00  0.2384E+00  0.2200E+00  0.2200E+00
     -6.350  0.2350E+00  0.2350E+00  0.2228E+00  0.2228E+00
     -6.339  0.2320E+00  0.2320E+00  0.2255E+00  0.2255E+00
     -6.327  0.2295E+00  0.2295E+00  0.2282E+00  0.2282E+00
     -6.315  0.2274E+00  0.2274E+00  0.2308E+00  0.2308E+00
     -6.304  0.2257E+00  0.2257E+00  0.2335E+00  0.2335E+00
     -6.292  0.2244E+00  0.2244E+00  0.2361E+00  0.2361E+00
     -6.280  0.2235E+00  0.2235E+00  0.2387E+00  0.2387E+00
     -6.269  0.2229E+00  0.2229E+00  0.2413E+00  0.2413E+00
     -6.257  0.2226E+00  0.2226E+00  0.2439E+00  0.2439E+00
     -6.245  0.2226E+00  0.2226E+00  0.2465E+00  0.2465E+00
     -6.233  0.2227E+00  0.2227E+00  0.2491E+00  0.2491E+00
     -6.222  0.2230E+00  0.2230E+00  0.2517E+00  0.2517E+00
     -6.210  0.2234E+00  0.2234E+00  0.2543E+00  0.2543E+00
     -6.198  0.2238E+00  0.2238E+00  0.2570E+00  0.2570E+00
     -6.187  0.2242E+00  0.2242E+00  0.2596E+00  0.2596E+00
     -6.175  0.2247E+00  0.2247E+00  0.2622E+00  0.2622E+00
     -6.163  0.2250E+00  0.2250E+00  0.2648E+00  0.2648E+00
     -6.152  0.2253E+00  0.2253E+00  0.2675E+00  0.2675E+00
     -6.140  0.2255E+00  0.2255E+00  0.2701E+00  0.2701E+00
     -6.128  0.2255E+00  0.2255E+00  0.2727E+00  0.2727E+00
     -6.117  0.2253E+00  0.2253E+00  0.2754E+00  0.2754E+00
     -6.105  0.2249E+00  0.2249E+00  0.2780E+00  0.2780E+00
     -6.093  0.2243E+00  0.2243E+00  0.2806E+00  0.2806E+00
     -6.082  0.2234E+00  0.2234E+00  0.2832E+00  0.2832E+00
     -6.070  0.2222E+00  0.2222E+00  0.2858E+00  0.2858E+00
     -6.058  0.2207E+00  0.2207E+00  0.2884E+00  0.2884E+00
     -6.046  0.2189E+00  0.2189E+00  0.2910E+00  0.2910E+00
     -6.035  0.2167E+00  0.2167E+00  0.2935E+00  0.2935E+00
     -6.023  0.2143E+00  0.2143E+00  0.2960E+00  0.2960E+00
     -6.011  0.2115E+00  0.2115E+00  0.2985E+00  0.2985E+00
     -6.000  0.2085E+00  0.2085E+00  0.3009E+00  0.3009E+00
     -5.988  0.2052E+00  0.2052E+00  0.3033E+00  0.3033E+00
     -5.976  0.2018E+00  0.2018E+00  0.3057E+00  0.3057E+00
     -5.965  0.1982E+00  0.1982E+00  0.3080E+00  0.3080E+00
     -5.953  0.1946E+00  0.1947E+00  0.3103E+00  0.3103E+00
     -5.941  0.1912E+00  0.1912E+00  0.3125E+00  0.3125E+00
     -5.930  0.1879E+00  0.1879E+00  0.3147E+00  0.3147E+00
     -5.918  0.1849E+00  0.1849E+00  0.3169E+00  0.3169E+00
     -5.906  0.1824E+00  0.1824E+00  0.3190E+00  0.3190E+00
     -5.895  0.1804E+00  0.1804E+00  0.3211E+00  0.3211E+00
     -5.883  0.1791E+00  0.1791E+00  0.3232E+00  0.3232E+00
     -5.871  0.1788E+00  0.1787E+00  0.3253E+00  0.3253E+00
     -5.859  0.1793E+00  0.1793E+00  0.3274E+00  0.3274E+00
     -5.848  0.1810E+00  0.1810E+00  0.3295E+00  0.3295E+00
     -5.836  0.1838E+00  0.1838E+00  0.3316E+00  0.3316E+00
     -5.824  0.1880E+00  0.1880E+00  0.3338E+00  0.3338E+00
     -5.813  0.1935E+00  0.1935E+00  0.3361E+00  0.3361E+00
     -5.801  0.2004E+00  0.2003E+00  0.3384E+00  0.3384E+00
     -5.789  0.2086E+00  0.2086E+00  0.3409E+00  0.3409E+00
     -5.778  0.2183E+00  0.2183E+00  0.3434E+00  0.3434E+00
     -5.766  0.2294E+00  0.2294E+00  0.3461E+00  0.3461E+00
     -5.754  0.2418E+00  0.2418E+00  0.3489E+00  0.3489E+00
     -5.743  0.2554E+00  0.2554E+00  0.3519E+00  0.3519E+00
     -5.731  0.2701E+00  0.2700E+00  0.3551E+00  0.3551E+00
     -5.719  0.2857E+00  0.2857E+00  0.3584E+00  0.3584E+00
     -5.708  0.3020E+00  0.3020E+00  0.3619E+00  0.3619E+00
     -5.696  0.3190E+00  0.3190E+00  0.3657E+00  0.3657E+00
     -5.684  0.3363E+00  0.3363E+00  0.3696E+00  0.3696E+00
     -5.672  0.3537E+00  0.3537E+00  0.3737E+00  0.3737E+00
     -5.661  0.3710E+00  0.3710E+00  0.3781E+00  0.3781E+00
     -5.649  0.3879E+00  0.3879E+00  0.3826E+00  0.3826E+00
     -5.637  0.4043E+00  0.4042E+00  0.3873E+00  0.3873E+00
     -5.626  0.4197E+00  0.4197E+00  0.3922E+00  0.3922E+00
     -5.614  0.4342E+00  0.4341E+00  0.3973E+00  0.3973E+00
     -5.602  0.4473E+00  0.4473E+00  0.4025E+00  0.4025E+00
     -5.591  0.4590E+00  0.4590E+00  0.4079E+00  0.4079E+00
     -5.579  0.4691E+00  0.4691E+00  0.4134E+00  0.4134E+00
     -5.567  0.4774E+00  0.4774E+00  0.4190E+00  0.4190E+00
     -5.556  0.4840E+00  0.4840E+00  0.4246E+00  0.4246E+00
     -5.544  0.4886E+00  0.4886E+00  0.4303E+00  0.4303E+00
     -5.532  0.4914E+00  0.4914E+00  0.4361E+00  0.4361E+00
     -5.521  0.4924E+00  0.4924E+00  0.4418E+00  0.4418E+00
     -5.509  0.4916E+00  0.4916E+00  0.4476E+00  0.4476E+00
     -5.497  0.4891E+00  0.4891E+00  0.4533E+00  0.4533E+00
     -5.485  0.4849E+00  0.4850E+00  0.4590E+00  0.4590E+00
     -5.474  0.4794E+00  0.4794E+00  0.4646E+00  0.4646E+00
     -5.462  0.4726E+00  0.4726E+00  0.4701E+00  0.4701E+00
     -5.450  0.4647E+00  0.4647E+00  0.4755E+00  0.4755E+00
     -5.439  0.4558E+00  0.4559E+00  0.4809E+00  0.4808E+00
     -5.427  0.4463E+00  0.4463E+00  0.4861E+00  0.4861E+00
     -5.415  0.4362E+00  0.4362E+00  0.4912E+00  0.4912E+00
     -5.404  0.4257E+00  0.4257E+00  0.4961E+00  0.4961E+00
     -5.392  0.4150E+00  0.4150E+00  0.5010E+00  0.5010E+00
     -5.380  0.4043E+00  0.4043E+00  0.5057E+00  0.5057E+00
     -5.369  0.3937E+00  0.3937E+00  0.5103E+00  0.5103E+00
     -5.357  0.3833E+00  0.3834E+00  0.5148E+00  0.5148E+00
     -5.345  0.3733E+00  0.3733E+00  0.5192E+00  0.5192E+00
     -5.334  0.3638E+00  0.3638E+00  0.5234E+00  0.5234E+00
     -5.322  0.3548E+00  0.3548E+00  0.5276E+00  0.5276E+00
     -5.310  0.3463E+00  0.3464E+00  0.5316E+00  0.5316E+00
     -5.298  0.3386E+00  0.3386E+00  0.5356E+00  0.5356E+00
     -5.287  0.3316E+00  0.3316E+00  0.5394E+00  0.5394E+00
     -5.275  0.3252E+00  0.3253E+00  0.5432E+00  0.5432E+00
     -5.263  0.3197E+00  0.3197E+00  0.5470E+00  0.5470E+00
     -5.252  0.3149E+00  0.3149E+00  0.5507E+00  0.5507E+00
     -5.240  0.3109E+00  0.3109E+00  0.5543E+00  0.5543E+00
     -5.228  0.3076E+00  0.3076E+00  0.5579E+00  0.5579E+00
     -5.217  0.3051E+00  0.3051E+00  0.5615E+00  0.5615E+00
     -5.205  0.3033E+00  0.3033E+00  0.5650E+00  0.5650E+00
     -5.193  0.3021E+00  0.3021E+00  0.5685E+00  0.5685E+00
     -5.182  0.3016E+00  0.3016E+00  0.5721E+00  0.5721E+00
     -5.170  0.3017E+00  0.3017E+00  0.5756E+00  0.5756E+00
     -5.158  0.3024E+00  0.3024E+00  0.5791E+00  0.5791E+00
     -5.147  0.3035E+00  0.3035E+00  0.5827E+00  0.5827E+00
     -5.135  0.3051E+00  0.3051E+00  0.5862E+00  0.5862E+00
     -5.123  0.3071E+00  0.3071E+00  0.5898E+00  0.5898E+00
     -5.111  0.3094E+00  0.3094E+00  0.5934E+00  0.5934E+00
     -5.100  0.3120E+00  0.3120E+00  0.5971E+00  0.5971E+00
     -5.088  0.3148E+00  0.3148E+00  0.6008E+00  0.6008E+00
     -5.076  0.3179E+00  0.3179E+00  0.6045E+00  0.6045E+00
     -5.065  0.3211E+00  0.3211E+00  0.6082E+00  0.6082E+00
     -5.053  0.3244E+00  0.3244E+00  0.6120E+00  0.6120E+00
     -5.041  0.3278E+00  0.3278E+00  0.6159E+00  0.6158E+00
     -5.030  0.3312E+00  0.3312E+00  0.6197E+00  0.6197E+00
     -5.018  0.3347E+00  0.3347E+00  0.6236E+00  0.6236E+00
     -5.006  0.3382E+00  0.3382E+00  0.6276E+00  0.6276E+00
     -4.995  0.3416E+00  0.3416E+00  0.6316E+00  0.6316E+00
     -4.983  0.3450E+00  0.3450E+00  0.6356E+00  0.6356E+00
     -4.971  0.3482E+00  0.3482E+00  0.6397E+00  0.6397E+00
     -4.959  0.3514E+00  0.3513E+00  0.6438E+00  0.6438E+00
     -4.948  0.3543E+00  0.3543E+00  0.6479E+00  0.6479E+00
     -4.936  0.3570E+00  0.3570E+00  0.6521E+00  0.6521E+00
     -4.924  0.3594E+00  0.3594E+00  0.6563E+00  0.6563E+00
     -4.913  0.3615E+00  0.3615E+00  0.6605E+00  0.6605E+00
     -4.901  0.3632E+00  0.3632E+00  0.6648E+00  0.6648E+00
     -4.889  0.3645E+00  0.3645E+00  0.6690E+00  0.6690E+00
     -4.878  0.3652E+00  0.3652E+00  0.6733E+00  0.6733E+00
     -4.866  0.3654E+00  0.3654E+00  0.6776E+00  0.6776E+00
     -4.854  0.3650E+00  0.3650E+00  0.6818E+00  0.6818E+00
     -4.843  0.3640E+00  0.3640E+00  0.6861E+00  0.6861E+00
     -4.831  0.3623E+00  0.3623E+00  0.6903E+00  0.6903E+00
     -4.819  0.3600E+00  0.3600E+00  0.6945E+00  0.6945E+00
     -4.808  0.3570E+00  0.3570E+00  0.6987E+00  0.6987E+00
     -4.796  0.3533E+00  0.3533E+00  0.7028E+00  0.7028E+00