 vasp.5.3.3 18Dez12 (build Jan 30 2013 10:57:47) complex                        
  
 executed on             LinuxIFC date 2016.08.21  20:21:05
 running on   16 total cores
 distrk:  each k-point on   16 cores,    1 groups
 distr:  one band on NCORES_PER_BAND=   1 cores,   16 groups


--------------------------------------------------------------------------------------------------------


 INCAR:
 POTCAR:    PAW_PBE Si 05Jan2001                  

 ----------------------------------------------------------------------------- 
|                                                                             |
|           W    W    AA    RRRRR   N    N  II  N    N   GGGG   !!!           |
|           W    W   A  A   R    R  NN   N  II  NN   N  G    G  !!!           |
|           W    W  A    A  R    R  N N  N  II  N N  N  G       !!!           |
|           W WW W  AAAAAA  RRRRR   N  N N  II  N  N N  G  GGG   !            |
|           WW  WW  A    A  R   R   N   NN  II  N   NN  G    G                |
|           W    W  A    A  R    R  N    N  II  N    N   GGGG   !!!           |
|                                                                             |
|      For optimal performance we recommend that you set                      |
|        NPAR = 4 - approx SQRT( number of cores)                             |
|      (number of cores/NPAR must be integer)                                 |
|      This setting will greatly improve the performance of VASP for DFT.     |
|      The default NPAR=number of cores might be grossly inefficient          |
|      on modern multi-core architectures or massively parallel machines.     |
|      Do your own testing.                                                   |
|      Unfortunately you need to use the default for hybrid, GW and RPA       |
|      calculations.                                                          |
|                                                                             |
 ----------------------------------------------------------------------------- 


 ----------------------------------------------------------------------------- 
|                                                                             |
|           W    W    AA    RRRRR   N    N  II  N    N   GGGG   !!!           |
|           W    W   A  A   R    R  NN   N  II  NN   N  G    G  !!!           |
|           W    W  A    A  R    R  N N  N  II  N N  N  G       !!!           |
|           W WW W  AAAAAA  RRRRR   N  N N  II  N  N N  G  GGG   !            |
|           WW  WW  A    A  R   R   N   NN  II  N   NN  G    G                |
|           W    W  A    A  R    R  N    N  II  N    N   GGGG   !!!           |
|                                                                             |
|  Use PRECFOCK to select the mode for HF type calculations                   |
|      PRECFOCK= L low     (coarse grid for HF, normal augmentation charge)   |
|      PRECFOCK= M medium  (normal grid for HF, normal augmentation charge)   |
|      PRECFOCK= F fast    (coarse grid for HF, soft augmentation charge)     |
|      PRECFOCK= N normal  (PREC=N grid for HF, soft augmentation charge)     |
|      PRECFOCK= A accurate (PREC=A grid for HF, soft augmentation charge)    |
|                                                                             |
| L  is equivalent to ENCUTFOCK=0 in vasp.5.2.2                               |
| M  is equivalent to vasp.5.2.2 if ENCUTFOCK is not set                      |
| M&L cause significant noise in the forces and are no longer recommended     |
|                                                                             |
| N  is recommended for routine calculations, little noise to be expected     |
| A  accurate is now recommended for very accurate calculations               |
| F  fast is now recommended for quick calculations (even phonons often ok)   |
|    (speedup between 2 and 4)                                                |
|                                                                             |
 ----------------------------------------------------------------------------- 

 POTCAR:    PAW_PBE Si 05Jan2001                  
   VRHFIN =Si: s2p2                                                             
   LEXCH  = PE                                                                  
   EATOM  =   103.0669 eV,    7.5752 Ry                                         
                                                                                
   TITEL  = PAW_PBE Si 05Jan2001                                                
   LULTRA =        F    use ultrasoft PP ?                                      
   IUNSCR =        1    unscreen: 0-lin 1-nonlin 2-no                           
   RPACOR =    1.500    partial core radius                                     
   POMASS =   28.085; ZVAL   =    4.000    mass and valenz                      
   RCORE  =    1.900    outmost cutoff radius                                   
   RWIGS  =    2.480; RWIGS  =    1.312    wigner-seitz radius (au A)           
   ENMAX  =  245.345; ENMIN  =  184.009 eV                                      
   ICORE  =        2    local potential                                         
   LCOR   =        T    correct aug charges                                     
   LPAW   =        T    paw PP                                                  
   EAUG   =  322.069                                                            
   DEXC   =    0.000                                                            
   RMAX   =    1.950    core radius for proj-oper                               
   RAUG   =    1.300    factor for augmentation sphere                          
   RDEP   =    1.993    radius for radial grids                                 
   RDEPT  =    1.837    core radius for aug-charge                              
                                                                                
   Atomic configuration                                                         
    6 entries                                                                   
     n  l   j            E        occ.                                          
     1  0  0.50     -1785.8828   2.0000                                         
     2  0  0.50      -139.4969   2.0000                                         
     2  1  1.50       -95.5546   6.0000                                         
     3  0  0.50       -10.8127   2.0000                                         
     3  1  0.50        -4.0811   2.0000                                         
     3  2  1.50        -4.0817   0.0000                                         
   Description                                                                  
     l       E           TYP  RCUT    TYP  RCUT                                 
     0    -10.8127223     23  1.900                                             
     0     -7.6451159     23  1.900                                             
     1     -4.0811372     23  1.900                                             
     1      2.4879257     23  1.900                                             
     2     -4.0817478      7  1.900                                             
  local pseudopotential read in
  partial core-charges read in
  partial kinetic energy density read in
  atomic valenz-charges read in
  non local Contribution for L=           0  read in
    real space projection operators read in
  non local Contribution for L=           0  read in
    real space projection operators read in
  non local Contribution for L=           1  read in
    real space projection operators read in
  non local Contribution for L=           1  read in
    real space projection operators read in
    PAW grid and wavefunctions read in
 
   number of l-projection  operators is LMAX  =           4
   number of lm-projection operators is LMMAX =           8
 
  PAW_PBE Si 05Jan2001                  :
 energy of atom  1       EATOM= -103.0669
 kinetic energy error for atom=    0.0056 (will be added to EATOM!!)
 
 
 POSCAR: bulk@mp_149                             
  positions in direct lattice
  velocities in cartesian coordinates
 exchange correlation table for  LEXCH =        8
   RHO(1)=    0.500       N(1)  =     2000
   RHO(2)=  100.500       N(2)  =     4000
 


--------------------------------------------------------------------------------------------------------


 ion  position               nearest neighbor table
   1  0.875  0.875  0.875-   2 2.38   2 2.38   2 2.38   2 2.38
   2  0.125  0.125  0.125-   1 2.38   1 2.38   1 2.38   1 2.38
 
  LATTYP: Found a face centered cubic cell.
 ALAT       =     5.4936342054
  
  Lattice vectors:
  
 A1 = (   3.3641500000,   0.0000000000,   1.9422930000)
 A2 = (   1.1213830000,   3.1717520000,   1.9422930000)
 A3 = (   0.0000000000,   0.0000000000,   3.8845860000)


Analysis of symmetry for initial positions (statically):
=====================================================================
 Subroutine PRICEL returns:
 Original cell was already a primitive cell.
 

 Routine SETGRP: Setting up the symmetry group for a 
 face centered cubic supercell.


 Subroutine GETGRP returns: Found 48 space group operations
 (whereof 12 operations were pure point group operations)
 out of a pool of 48 trial point group operations.


The static configuration has the point symmetry D_3d.
 The point group associated with its full space group is O_h .


Analysis of symmetry for dynamics (positions and initial velocities):
=====================================================================
 Subroutine PRICEL returns:
 Original cell was already a primitive cell.
 

 Routine SETGRP: Setting up the symmetry group for a 
 face centered cubic supercell.


 Subroutine GETGRP returns: Found 48 space group operations
 (whereof 12 operations were pure point group operations)
 out of a pool of 48 trial point group operations.


The dynamic configuration has the point symmetry D_3d.
 The point group associated with its full space group is O_h .


Analysis of magnetic symmetry:
=====================================================================

 Subroutine MAGSYM returns: Found 48 space group operations
 (whereof 12 operations were pure point group operations)
 out of a pool of 48 trial space group operations
 (whereof 12 operations were pure point group operations)
 and found also     1 'primitive' translations


The magnetic configuration has the point symmetry D_3d.
 The point group associated with its full space group is O_h .


 irot  :   1
 --------------------------------------------------------------------
 isymop:   1   0   0
           0   1   0
           0   0   1

 gtrans:     0.0000000     0.0000000     0.0000000

 ptrans:     0.0000000     0.0000000     0.0000000
 rotmap:
 (   1->   1)  (   2->   2) 


 irot  :   2
 --------------------------------------------------------------------
 isymop:  -1   0   0
           0  -1   0
           0   0  -1

 gtrans:     0.0000000     0.0000000     0.0000000

 ptrans:     0.0000000     0.0000000     0.0000000
 rotmap:
 (   1->   2)  (   2->   1) 


 irot  :   3
 --------------------------------------------------------------------
 isymop:   0   0   1
           1   0   0
           0   1   0

 gtrans:     0.0000000     0.0000000     0.0000000

 ptrans:     0.0000000     0.0000000     0.0000000
 rotmap:
 (   1->   1)  (   2->   2) 


 irot  :   4
 --------------------------------------------------------------------
 isymop:   0   0  -1
          -1   0   0
           0  -1   0

 gtrans:     0.0000000     0.0000000     0.0000000

 ptrans:     0.0000000     0.0000000     0.0000000
 rotmap:
 (   1->   2)  (   2->   1) 


 irot  :   5
 --------------------------------------------------------------------
 isymop:   0   1   0
           0   0   1
           1   0   0

 gtrans:     0.0000000     0.0000000     0.0000000

 ptrans:     0.0000000     0.0000000     0.0000000
 rotmap:
 (   1->   1)  (   2->   2) 


 irot  :   6
 --------------------------------------------------------------------
 isymop:   0  -1   0
           0   0  -1
          -1   0   0

 gtrans:     0.0000000     0.0000000     0.0000000

 ptrans:     0.0000000     0.0000000     0.0000000
 rotmap:
 (   1->   2)  (   2->   1) 


 irot  :   7
 --------------------------------------------------------------------
 isymop:  -1   0   0
           0   0  -1
           0  -1   0

 gtrans:     0.0000000     0.0000000     0.0000000

 ptrans:     0.0000000     0.0000000     0.0000000
 rotmap:
 (   1->   2)  (   2->   1) 


 irot  :   8
 --------------------------------------------------------------------
 isymop:   1   0   0
           0   0   1
           0   1   0

 gtrans:     0.0000000     0.0000000     0.0000000

 ptrans:     0.0000000     0.0000000     0.0000000
 rotmap:
 (   1->   1)  (   2->   2) 


 irot  :   9
 --------------------------------------------------------------------
 isymop:   0  -1   0
          -1   0   0
           0   0  -1

 gtrans:     0.0000000     0.0000000     0.0000000

 ptrans:     0.0000000     0.0000000     0.0000000
 rotmap:
 (   1->   2)  (   2->   1) 


 irot  :  10
 --------------------------------------------------------------------
 isymop:   0   1   0
           1   0   0
           0   0   1

 gtrans:     0.0000000     0.0000000     0.0000000

 ptrans:     0.0000000     0.0000000     0.0000000
 rotmap:
 (   1->   1)  (   2->   2) 


 irot  :  11
 --------------------------------------------------------------------
 isymop:   0   0  -1
           0  -1   0
          -1   0   0

 gtrans:     0.0000000     0.0000000     0.0000000

 ptrans:     0.0000000     0.0000000     0.0000000
 rotmap:
 (   1->   2)  (   2->   1) 


 irot  :  12
 --------------------------------------------------------------------
 isymop:   0   0   1
           0   1   0
           1   0   0

 gtrans:     0.0000000     0.0000000     0.0000000

 ptrans:     0.0000000     0.0000000     0.0000000
 rotmap:
 (   1->   1)  (   2->   2) 


 irot  :  13
 --------------------------------------------------------------------
 isymop:   1   1   1
           0   0  -1
          -1   0   0

 gtrans:     0.5000000     0.0000000     0.0000000

 ptrans:     0.0000000     0.0000000     0.0000000
 rotmap:
 (   1->   2)  (   2->   1) 


 irot  :  14
 --------------------------------------------------------------------
 isymop:  -1  -1  -1
           0   0   1
           1   0   0

 gtrans:     0.5000000     0.0000000     0.0000000

 ptrans:     0.0000000     0.0000000     0.0000000
 rotmap:
 (   1->   1)  (   2->   2) 


 irot  :  15
 --------------------------------------------------------------------
 isymop:   1   1   1
           0  -1   0
           0   0  -1

 gtrans:     0.5000000     0.0000000     0.0000000

 ptrans:     0.0000000     0.0000000     0.0000000
 rotmap:
 (   1->   2)  (   2->   1) 


 irot  :  16
 --------------------------------------------------------------------
 isymop:  -1  -1  -1
           0   1   0
           0   0   1

 gtrans:     0.5000000     0.0000000     0.0000000

 ptrans:     0.0000000     0.0000000     0.0000000
 rotmap:
 (   1->   1)  (   2->   2) 


 irot  :  17
 --------------------------------------------------------------------
 isymop:   1   1   1
          -1   0   0
           0  -1   0

 gtrans:     0.5000000     0.0000000     0.0000000

 ptrans:     0.0000000     0.0000000     0.0000000
 rotmap:
 (   1->   2)  (   2->   1) 


 irot  :  18
 --------------------------------------------------------------------
 isymop:  -1  -1  -1
           1   0   0
           0   1   0

 gtrans:     0.5000000     0.0000000     0.0000000

 ptrans:     0.0000000     0.0000000     0.0000000
 rotmap:
 (   1->   1)  (   2->   2) 


 irot  :  19
 --------------------------------------------------------------------
 isymop:   0   1   0
           1   0   0
          -1  -1  -1

 gtrans:     0.0000000     0.0000000     0.5000000

 ptrans:     0.0000000     0.0000000     0.0000000
 rotmap:
 (   1->   1)  (   2->   2) 


 irot  :  20
 --------------------------------------------------------------------
 isymop:   0  -1   0
          -1   0   0
           1   1   1

 gtrans:     0.0000000     0.0000000     0.5000000

 ptrans:     0.0000000     0.0000000     0.0000000
 rotmap:
 (   1->   2)  (   2->   1) 


 irot  :  21
 --------------------------------------------------------------------
 isymop:   1   0   0
           0   0   1
          -1  -1  -1

 gtrans:     0.0000000     0.0000000     0.5000000

 ptrans:     0.0000000     0.0000000     0.0000000
 rotmap:
 (   1->   1)  (   2->   2) 


 irot  :  22
 --------------------------------------------------------------------
 isymop:  -1   0   0
           0   0  -1
           1   1   1

 gtrans:     0.0000000     0.0000000     0.5000000

 ptrans:     0.0000000     0.0000000     0.0000000
 rotmap:
 (   1->   2)  (   2->   1) 


 irot  :  23
 --------------------------------------------------------------------
 isymop:   0   0   1
           0   1   0
          -1  -1  -1

 gtrans:     0.0000000     0.0000000     0.5000000

 ptrans:     0.0000000     0.0000000     0.0000000
 rotmap:
 (   1->   1)  (   2->   2) 


 irot  :  24
 --------------------------------------------------------------------
 isymop:   0   0  -1
           0  -1   0
           1   1   1

 gtrans:     0.0000000     0.0000000     0.5000000

 ptrans:     0.0000000     0.0000000     0.0000000
 rotmap:
 (   1->   2)  (   2->   1) 


 irot  :  25
 --------------------------------------------------------------------
 isymop:   0   0  -1
           1   1   1
           0  -1   0

 gtrans:     0.0000000     0.5000000     0.0000000

 ptrans:     0.0000000     0.0000000     0.0000000
 rotmap:
 (   1->   2)  (   2->   1) 


 irot  :  26
 --------------------------------------------------------------------
 isymop:   0   0   1
          -1  -1  -1
           0   1   0

 gtrans:     0.0000000     0.5000000     0.0000000

 ptrans:     0.0000000     0.0000000     0.0000000
 rotmap:
 (   1->   1)  (   2->   2) 


 irot  :  27
 --------------------------------------------------------------------
 isymop:   0  -1   0
           1   1   1
          -1   0   0

 gtrans:     0.0000000     0.5000000     0.0000000

 ptrans:     0.0000000     0.0000000     0.0000000
 rotmap:
 (   1->   2)  (   2->   1) 


 irot  :  28
 --------------------------------------------------------------------
 isymop:   0   1   0
          -1  -1  -1
           1   0   0

 gtrans:     0.0000000     0.5000000     0.0000000

 ptrans:     0.0000000     0.0000000     0.0000000
 rotmap:
 (   1->   1)  (   2->   2) 


 irot  :  29
 --------------------------------------------------------------------
 isymop:  -1   0   0
           1   1   1
           0   0  -1

 gtrans:     0.0000000     0.5000000     0.0000000

 ptrans:     0.0000000     0.0000000     0.0000000
 rotmap:
 (   1->   2)  (   2->   1) 


 irot  :  30
 --------------------------------------------------------------------
 isymop:   1   0   0
          -1  -1  -1
           0   0   1

 gtrans:     0.0000000     0.5000000     0.0000000

 ptrans:     0.0000000     0.0000000     0.0000000
 rotmap:
 (   1->   1)  (   2->   2) 


 irot  :  31
 --------------------------------------------------------------------
 isymop:  -1  -1  -1
           0   1   0
           1   0   0

 gtrans:     0.5000000     0.0000000     0.0000000

 ptrans:     0.0000000     0.0000000     0.0000000
 rotmap:
 (   1->   1)  (   2->   2) 


 irot  :  32
 --------------------------------------------------------------------
 isymop:   1   1   1
           0  -1   0
          -1   0   0

 gtrans:     0.5000000     0.0000000     0.0000000

 ptrans:     0.0000000     0.0000000     0.0000000
 rotmap:
 (   1->   2)  (   2->   1) 


 irot  :  33
 --------------------------------------------------------------------
 isymop:  -1  -1  -1
           1   0   0
           0   0   1

 gtrans:     0.5000000     0.0000000     0.0000000

 ptrans:     0.0000000     0.0000000     0.0000000
 rotmap:
 (   1->   1)  (   2->   2) 


 irot  :  34
 --------------------------------------------------------------------
 isymop:   1   1   1
          -1   0   0
           0   0  -1

 gtrans:     0.5000000     0.0000000     0.0000000

 ptrans:     0.0000000     0.0000000     0.0000000
 rotmap:
 (   1->   2)  (   2->   1) 


 irot  :  35
 --------------------------------------------------------------------
 isymop:  -1  -1  -1
           0   0   1
           0   1   0

 gtrans:     0.5000000     0.0000000     0.0000000

 ptrans:     0.0000000     0.0000000     0.0000000
 rotmap:
 (   1->   1)  (   2->   2) 


 irot  :  36
 --------------------------------------------------------------------
 isymop:   1   1   1
           0   0  -1
           0  -1   0

 gtrans:     0.5000000     0.0000000     0.0000000

 ptrans:     0.0000000     0.0000000     0.0000000
 rotmap:
 (   1->   2)  (   2->   1) 


 irot  :  37
 --------------------------------------------------------------------
 isymop:   0  -1   0
           0   0  -1
           1   1   1

 gtrans:     0.0000000     0.0000000     0.5000000

 ptrans:     0.0000000     0.0000000     0.0000000
 rotmap:
 (   1->   2)  (   2->   1) 


 irot  :  38
 --------------------------------------------------------------------
 isymop:   0   1   0
           0   0   1
          -1  -1  -1

 gtrans:     0.0000000     0.0000000     0.5000000

 ptrans:     0.0000000     0.0000000     0.0000000
 rotmap:
 (   1->   1)  (   2->   2) 


 irot  :  39
 --------------------------------------------------------------------
 isymop:  -1   0   0
           0  -1   0
           1   1   1

 gtrans:     0.0000000     0.0000000     0.5000000

 ptrans:     0.0000000     0.0000000     0.0000000
 rotmap:
 (   1->   2)  (   2->   1) 


 irot  :  40
 --------------------------------------------------------------------
 isymop:   1   0   0
           0   1   0
          -1  -1  -1

 gtrans:     0.0000000     0.0000000     0.5000000

 ptrans:     0.0000000     0.0000000     0.0000000
 rotmap:
 (   1->   1)  (   2->   2) 


 irot  :  41
 --------------------------------------------------------------------
 isymop:   0   0  -1
          -1   0   0
           1   1   1

 gtrans:     0.0000000     0.0000000     0.5000000

 ptrans:     0.0000000     0.0000000     0.0000000
 rotmap:
 (   1->   2)  (   2->   1) 


 irot  :  42
 --------------------------------------------------------------------
 isymop:   0   0   1
           1   0   0
          -1  -1  -1

 gtrans:     0.0000000     0.0000000     0.5000000

 ptrans:     0.0000000     0.0000000     0.0000000
 rotmap:
 (   1->   1)  (   2->   2) 


 irot  :  43
 --------------------------------------------------------------------
 isymop:   1   0   0
          -1  -1  -1
           0   1   0

 gtrans:     0.0000000     0.5000000     0.0000000

 ptrans:     0.0000000     0.0000000     0.0000000
 rotmap:
 (   1->   1)  (   2->   2) 


 irot  :  44
 --------------------------------------------------------------------
 isymop:  -1   0   0
           1   1   1
           0  -1   0

 gtrans:     0.0000000     0.5000000     0.0000000

 ptrans:     0.0000000     0.0000000     0.0000000
 rotmap:
 (   1->   2)  (   2->   1) 


 irot  :  45
 --------------------------------------------------------------------
 isymop:   0   0   1
          -1  -1  -1
           1   0   0

 gtrans:     0.0000000     0.5000000     0.0000000

 ptrans:     0.0000000     0.0000000     0.0000000
 rotmap:
 (   1->   1)  (   2->   2) 


 irot  :  46
 --------------------------------------------------------------------
 isymop:   0   0  -1
           1   1   1
          -1   0   0

 gtrans:     0.0000000     0.5000000     0.0000000

 ptrans:     0.0000000     0.0000000     0.0000000
 rotmap:
 (   1->   2)  (   2->   1) 


 irot  :  47
 --------------------------------------------------------------------
 isymop:   0   1   0
          -1  -1  -1
           0   0   1

 gtrans:     0.0000000     0.5000000     0.0000000

 ptrans:     0.0000000     0.0000000     0.0000000
 rotmap:
 (   1->   1)  (   2->   2) 


 irot  :  48
 --------------------------------------------------------------------
 isymop:   0  -1   0
           1   1   1
           0   0  -1

 gtrans:     0.0000000     0.5000000     0.0000000

 ptrans:     0.0000000     0.0000000     0.0000000
 rotmap:
 (   1->   2)  (   2->   1) 
 
 
 KPOINTS: HSE run along symmetry lines            
  k-points in reciprocal lattice

 ----------------------------------------------------------------------------- 
|                                                                             |
|           W    W    AA    RRRRR   N    N  II  N    N   GGGG   !!!           |
|           W    W   A  A   R    R  NN   N  II  NN   N  G    G  !!!           |
|           W    W  A    A  R    R  N N  N  II  N N  N  G       !!!           |
|           W WW W  AAAAAA  RRRRR   N  N N  II  N  N N  G  GGG   !            |
|           WW  WW  A    A  R   R   N   NN  II  N   NN  G    G                |
|           W    W  A    A  R    R  N    N  II  N    N   GGGG   !!!           |
|                                                                             |
|      Your generating k-point grid is not commensurate to the symmetry       |
|      of the lattice.  This can cause   slow convergence with respect        |
|      to k-points for HF type calculations                                   |
|      suggested SOLUTIONS:                                                   |
|       ) if not already the case, use automatic k-point generation           |
|       ) shift your grid to Gamma (G) (e.g. required for hex or fcc lattice) |
|                                                                             |
 ----------------------------------------------------------------------------- 

 
 Subroutine IBZKPT_HF returns following result:
 ==============================================
 
 Found    676 k-points in 1st BZ
 the following    676 k-points will be used (e.g. in the exchange kernel)
 Following reciprocal coordinates:   # in IRBZ
  0.000000  0.000000  0.000000       1 t-inv F
  0.125000  0.000000  0.000000       2 t-inv F
  0.250000  0.000000  0.000000       3 t-inv F
  0.375000  0.000000  0.000000       4 t-inv F
  0.500000  0.000000  0.000000       5 t-inv F
  0.125000  0.125000  0.000000       6 t-inv F
  0.250000  0.125000  0.000000       7 t-inv F
  0.375000  0.125000  0.000000       8 t-inv F
  0.500000  0.125000  0.000000       9 t-inv F
 -0.375000  0.125000  0.000000      10 t-inv F
 -0.250000  0.125000  0.000000      11 t-inv F
 -0.125000  0.125000  0.000000      12 t-inv F
  0.250000  0.250000  0.000000      13 t-inv F
  0.375000  0.250000  0.000000      14 t-inv F
  0.500000  0.250000  0.000000      15 t-inv F
 -0.375000  0.250000  0.000000      16 t-inv F
 -0.250000  0.250000  0.000000      17 t-inv F
  0.375000  0.375000  0.000000      18 t-inv F
  0.500000  0.375000  0.000000      19 t-inv F
 -0.375000  0.375000  0.000000      20 t-inv F
  0.500000  0.500000  0.000000      21 t-inv F
  0.375000  0.250000  0.125000      22 t-inv F
  0.500000  0.250000  0.125000      23 t-inv F
 -0.375000  0.250000  0.125000      24 t-inv F
  0.500000  0.375000  0.125000      25 t-inv F
 -0.375000  0.375000  0.125000      26 t-inv F
 -0.250000  0.375000  0.125000      27 t-inv F
 -0.375000  0.500000  0.125000      28 t-inv F
 -0.250000  0.500000  0.250000      29 t-inv F
  0.000000  0.000000  0.000000      30 t-inv F
  0.021739  0.000000  0.021739      31 t-inv F
  0.043478  0.000000  0.043478      32 t-inv F
  0.065217  0.000000  0.065217      33 t-inv F
  0.086957  0.000000  0.086957      34 t-inv F
  0.108696  0.000000  0.108696      35 t-inv F
  0.130435  0.000000  0.130435      36 t-inv F
  0.152174  0.000000  0.152174      37 t-inv F
  0.173913  0.000000  0.173913      38 t-inv F
  0.195652  0.000000  0.195652      39 t-inv F
  0.217391  0.000000  0.217391      40 t-inv F
  0.239130  0.000000  0.239130      41 t-inv F
  0.260870  0.000000  0.260870      42 t-inv F
  0.282609  0.000000  0.282609      43 t-inv F
  0.304348  0.000000  0.304348      44 t-inv F
  0.326087  0.000000  0.326087      45 t-inv F
  0.347826  0.000000  0.347826      46 t-inv F
  0.369565  0.000000  0.369565      47 t-inv F
  0.391304  0.000000  0.391304      48 t-inv F
  0.413043  0.000000  0.413043      49 t-inv F
  0.434783  0.000000  0.434783      50 t-inv F
  0.456522  0.000000  0.456522      51 t-inv F
  0.478261  0.000000  0.478261      52 t-inv F
  0.500000  0.000000  0.500000      53 t-inv F
  0.500000  0.000000  0.500000      54 t-inv F
  0.500000  0.020833  0.520833      55 t-inv F
  0.500000  0.041667  0.541667      56 t-inv F
  0.500000  0.062500  0.562500      57 t-inv F
  0.500000  0.083333  0.583333      58 t-inv F
  0.500000  0.104167  0.604167      59 t-inv F
  0.500000  0.125000  0.625000      60 t-inv F
  0.500000  0.145833  0.645833      61 t-inv F
  0.500000  0.166667  0.666667      62 t-inv F
  0.500000  0.187500  0.687500      63 t-inv F
  0.500000  0.208333  0.708333      64 t-inv F
  0.500000  0.229167  0.729167      65 t-inv F
  0.500000  0.250000  0.750000      66 t-inv F
  0.500000  0.250000  0.750000      67 t-inv F
  0.486111  0.263889  0.750000      68 t-inv F
  0.472222  0.277778  0.750000      69 t-inv F
  0.458333  0.291667  0.750000      70 t-inv F
  0.444444  0.305556  0.750000      71 t-inv F
  0.430556  0.319444  0.750000      72 t-inv F
  0.416667  0.333333  0.750000      73 t-inv F
  0.402778  0.347222  0.750000      74 t-inv F
  0.388889  0.361111  0.750000      75 t-inv F
  0.375000  0.375000  0.750000      76 t-inv F
  0.375000  0.375000  0.750000      77 t-inv F
  0.360000  0.360000  0.720000      78 t-inv F
  0.345000  0.345000  0.690000      79 t-inv F
  0.330000  0.330000  0.660000      80 t-inv F
  0.315000  0.315000  0.630000      81 t-inv F
  0.300000  0.300000  0.600000      82 t-inv F
  0.285000  0.285000  0.570000      83 t-inv F
  0.270000  0.270000  0.540000      84 t-inv F
  0.255000  0.255000  0.510000      85 t-inv F
  0.240000  0.240000  0.480000      86 t-inv F
  0.225000  0.225000  0.450000      87 t-inv F
  0.210000  0.210000  0.420000      88 t-inv F
  0.195000  0.195000  0.390000      89 t-inv F
  0.180000  0.180000  0.360000      90 t-inv F
  0.165000  0.165000  0.330000      91 t-inv F
  0.150000  0.150000  0.300000      92 t-inv F
  0.135000  0.135000  0.270000      93 t-inv F
  0.120000  0.120000  0.240000      94 t-inv F
  0.105000  0.105000  0.210000      95 t-inv F
  0.090000  0.090000  0.180000      96 t-inv F
  0.075000  0.075000  0.150000      97 t-inv F
  0.060000  0.060000  0.120000      98 t-inv F
  0.045000  0.045000  0.090000      99 t-inv F
  0.030000  0.030000  0.060000     100 t-inv F
  0.015000  0.015000  0.030000     101 t-inv F
  0.000000  0.000000  0.000000     102 t-inv F
  0.000000  0.000000  0.000000     103 t-inv F
  0.025000  0.025000  0.025000     104 t-inv F
  0.050000  0.050000  0.050000     105 t-inv F
  0.075000  0.075000  0.075000     106 t-inv F
  0.100000  0.100000  0.100000     107 t-inv F
  0.125000  0.125000  0.125000     108 t-inv F
  0.150000  0.150000  0.150000     109 t-inv F
  0.175000  0.175000  0.175000     110 t-inv F
  0.200000  0.200000  0.200000     111 t-inv F
  0.225000  0.225000  0.225000     112 t-inv F
  0.250000  0.250000  0.250000     113 t-inv F
  0.275000  0.275000  0.275000     114 t-inv F
  0.300000  0.300000  0.300000     115 t-inv F
  0.325000  0.325000  0.325000     116 t-inv F
  0.350000  0.350000  0.350000     117 t-inv F
  0.375000  0.375000  0.375000     118 t-inv F
  0.400000  0.400000  0.400000     119 t-inv F
  0.425000  0.425000  0.425000     120 t-inv F
  0.450000  0.450000  0.450000     121 t-inv F
  0.475000  0.475000  0.475000     122 t-inv F
  0.500000  0.500000  0.500000     123 t-inv F
  0.500000  0.500000  0.500000     124 t-inv F
  0.508333  0.483333  0.508333     125 t-inv F
  0.516667  0.466667  0.516667     126 t-inv F
  0.525000  0.450000  0.525000     127 t-inv F
  0.533333  0.433333  0.533333     128 t-inv F
  0.541667  0.416667  0.541667     129 t-inv F
  0.550000  0.400000  0.550000     130 t-inv F
  0.558333  0.383333  0.558333     131 t-inv F
  0.566667  0.366667  0.566667     132 t-inv F
  0.575000  0.350000  0.575000     133 t-inv F
  0.583333  0.333333  0.583333     134 t-inv F
  0.591667  0.316667  0.591667     135 t-inv F
  0.600000  0.300000  0.600000     136 t-inv F
  0.608333  0.283333  0.608333     137 t-inv F
  0.616667  0.266667  0.616667     138 t-inv F
  0.625000  0.250000  0.625000     139 t-inv F
  0.625000  0.250000  0.625000     140 t-inv F
  0.611111  0.250000  0.638889     141 t-inv F
  0.597222  0.250000  0.652778     142 t-inv F
  0.583333  0.250000  0.666667     143 t-inv F
  0.569444  0.250000  0.680556     144 t-inv F
  0.555556  0.250000  0.694444     145 t-inv F
  0.541667  0.250000  0.708333     146 t-inv F
  0.527778  0.250000  0.722222     147 t-inv F
  0.513889  0.250000  0.736111     148 t-inv F
  0.500000  0.250000  0.750000     149 t-inv F
  0.500000  0.250000  0.750000     150 t-inv F
  0.500000  0.264706  0.735294     151 t-inv F
  0.500000  0.279412  0.720588     152 t-inv F
  0.500000  0.294118  0.705882     153 t-inv F
  0.500000  0.308824  0.691176     154 t-inv F
  0.500000  0.323529  0.676471     155 t-inv F
  0.500000  0.338235  0.661765     156 t-inv F
  0.500000  0.352941  0.647059     157 t-inv F
  0.500000  0.367647  0.632353     158 t-inv F
  0.500000  0.382353  0.617647     159 t-inv F
  0.500000  0.397059  0.602941     160 t-inv F
  0.500000  0.411765  0.588235     161 t-inv F
  0.500000  0.426471  0.573529     162 t-inv F
  0.500000  0.441176  0.558824     163 t-inv F
  0.500000  0.455882  0.544118     164 t-inv F
  0.500000  0.470588  0.529412     165 t-inv F
  0.500000  0.485294  0.514706     166 t-inv F
  0.500000  0.500000  0.500000     167 t-inv F
  0.500000  0.500000  0.500000     168 t-inv F
  0.491667  0.491667  0.516667     169 t-inv F
  0.483333  0.483333  0.533333     170 t-inv F
  0.475000  0.475000  0.550000     171 t-inv F
  0.466667  0.466667  0.566667     172 t-inv F
  0.458333  0.458333  0.583333     173 t-inv F
  0.450000  0.450000  0.600000     174 t-inv F
  0.441667  0.441667  0.616667     175 t-inv F
  0.433333  0.433333  0.633333     176 t-inv F
  0.425000  0.425000  0.650000     177 t-inv F
  0.416667  0.416667  0.666667     178 t-inv F
  0.408333  0.408333  0.683333     179 t-inv F
  0.400000  0.400000  0.700000     180 t-inv F
  0.391667  0.391667  0.716667     181 t-inv F
  0.383333  0.383333  0.733333     182 t-inv F
  0.375000  0.375000  0.750000     183 t-inv F
  0.625000  0.250000  0.625000     184 t-inv F
  0.611111  0.222222  0.611111     185 t-inv F
  0.597222  0.194444  0.597222     186 t-inv F
  0.583333  0.166667  0.583333     187 t-inv F
  0.569444  0.138889  0.569444     188 t-inv F
  0.555556  0.111111  0.555556     189 t-inv F
  0.541667  0.083333  0.541667     190 t-inv F
  0.527778  0.055556  0.527778     191 t-inv F
  0.513889  0.027778  0.513889     192 t-inv F
  0.500000  0.000000  0.500000     193 t-inv F
 -0.125000  0.000000  0.000000       2 t-inv F
  0.000000  0.125000  0.000000       2 t-inv F
  0.000000 -0.125000  0.000000       2 t-inv F
  0.000000  0.000000  0.125000       2 t-inv F
  0.000000  0.000000 -0.125000       2 t-inv F
  0.125000  0.125000  0.125000       2 t-inv F
 -0.125000 -0.125000 -0.125000       2 t-inv F
 -0.250000  0.000000  0.000000       3 t-inv F
  0.000000  0.250000  0.000000       3 t-inv F
  0.000000 -0.250000  0.000000       3 t-inv F
  0.000000  0.000000  0.250000       3 t-inv F
  0.000000  0.000000 -0.250000       3 t-inv F
  0.250000  0.250000  0.250000       3 t-inv F
 -0.250000 -0.250000 -0.250000       3 t-inv F
 -0.375000  0.000000  0.000000       4 t-inv F
  0.000000  0.375000  0.000000       4 t-inv F
  0.000000 -0.375000  0.000000       4 t-inv F
  0.000000  0.000000  0.375000       4 t-inv F
  0.000000  0.000000 -0.375000       4 t-inv F
  0.375000  0.375000  0.375000       4 t-inv F
 -0.375000 -0.375000 -0.375000       4 t-inv F
  0.000000  0.500000  0.000000       5 t-inv F
  0.000000  0.000000  0.500000       5 t-inv F
  0.500000  0.500000  0.500000       5 t-inv F
 -0.125000 -0.125000  0.000000       6 t-inv F
  0.000000  0.125000  0.125000       6 t-inv F
  0.000000 -0.125000 -0.125000       6 t-inv F
  0.125000  0.000000  0.125000       6 t-inv F
 -0.125000  0.000000 -0.125000       6 t-inv F
 -0.250000 -0.125000  0.000000       7 t-inv F
  0.000000  0.250000  0.125000       7 t-inv F
  0.000000 -0.250000 -0.125000       7 t-inv F
  0.125000  0.000000  0.250000       7 t-inv F
 -0.125000  0.000000 -0.250000       7 t-inv F
 -0.250000  0.000000 -0.125000       7 t-inv F
  0.250000  0.000000  0.125000       7 t-inv F
 -0.125000 -0.250000  0.000000       7 t-inv F
  0.125000  0.250000  0.000000       7 t-inv F
  0.000000 -0.125000 -0.250000       7 t-inv F
  0.000000  0.125000  0.250000       7 t-inv F
  0.125000  0.125000 -0.125000       7 t-inv F
 -0.125000 -0.125000  0.125000       7 t-inv F
  0.250000  0.125000  0.250000       7 t-inv F
 -0.250000 -0.125000 -0.250000       7 t-inv F
  0.125000 -0.125000 -0.125000       7 t-inv F
 -0.125000  0.125000  0.125000       7 t-inv F
  0.250000  0.250000  0.125000       7 t-inv F
 -0.250000 -0.250000 -0.125000       7 t-inv F
 -0.125000  0.125000 -0.125000       7 t-inv F
  0.125000 -0.125000  0.125000       7 t-inv F
  0.125000  0.250000  0.250000       7 t-inv F
 -0.125000 -0.250000 -0.250000       7 t-inv F
 -0.375000 -0.125000  0.000000       8 t-inv F
  0.000000  0.375000  0.125000       8 t-inv F
  0.000000 -0.375000 -0.125000       8 t-inv F
  0.125000  0.000000  0.375000       8 t-inv F
 -0.125000  0.000000 -0.375000       8 t-inv F
 -0.375000  0.000000 -0.125000       8 t-inv F
  0.375000  0.000000  0.125000       8 t-inv F
 -0.125000 -0.375000  0.000000       8 t-inv F
  0.125000  0.375000  0.000000       8 t-inv F
  0.000000 -0.125000 -0.375000       8 t-inv F
  0.000000  0.125000  0.375000       8 t-inv F
  0.125000  0.125000 -0.250000       8 t-inv F
 -0.125000 -0.125000  0.250000       8 t-inv F
  0.375000  0.250000  0.375000       8 t-inv F
 -0.375000 -0.250000 -0.375000       8 t-inv F
  0.250000 -0.125000 -0.125000       8 t-inv F
 -0.250000  0.125000  0.125000       8 t-inv F
  0.375000  0.375000  0.250000       8 t-inv F
 -0.375000 -0.375000 -0.250000       8 t-inv F
 -0.125000  0.250000 -0.125000       8 t-inv F
  0.125000 -0.250000  0.125000       8 t-inv F
  0.250000  0.375000  0.375000       8 t-inv F
 -0.250000 -0.375000 -0.375000       8 t-inv F
 -0.500000 -0.125000  0.000000       9 t-inv F
  0.000000  0.500000  0.125000       9 t-inv F
  0.000000 -0.500000 -0.125000       9 t-inv F
  0.125000  0.000000  0.500000       9 t-inv F
 -0.125000  0.000000 -0.500000       9 t-inv F
 -0.500000  0.000000 -0.125000       9 t-inv F
  0.500000  0.000000  0.125000       9 t-inv F
 -0.125000 -0.500000  0.000000       9 t-inv F
  0.125000  0.500000  0.000000       9 t-inv F
  0.000000 -0.125000 -0.500000       9 t-inv F
  0.000000  0.125000  0.500000       9 t-inv F
  0.125000  0.125000 -0.375000       9 t-inv F
 -0.125000 -0.125000  0.375000       9 t-inv F
  0.500000  0.375000  0.500000       9 t-inv F
 -0.500000 -0.375000 -0.500000       9 t-inv F
  0.375000 -0.125000 -0.125000       9 t-inv F
 -0.375000  0.125000  0.125000       9 t-inv F
  0.500000  0.500000  0.375000       9 t-inv F
 -0.500000 -0.500000 -0.375000       9 t-inv F
 -0.125000  0.375000 -0.125000       9 t-inv F
  0.125000 -0.375000  0.125000       9 t-inv F
  0.375000  0.500000  0.500000       9 t-inv F
 -0.375000 -0.500000 -0.500000       9 t-inv F
  0.375000 -0.125000  0.000000      10 t-inv F
  0.000000 -0.375000  0.125000      10 t-inv F
  0.000000  0.375000 -0.125000      10 t-inv F
  0.125000  0.000000 -0.375000      10 t-inv F
 -0.125000  0.000000  0.375000      10 t-inv F
  0.375000  0.000000 -0.125000      10 t-inv F
 -0.375000  0.000000  0.125000      10 t-inv F
 -0.125000  0.375000  0.000000      10 t-inv F
  0.125000 -0.375000  0.000000      10 t-inv F
  0.000000 -0.125000  0.375000      10 t-inv F
  0.000000  0.125000 -0.375000      10 t-inv F
  0.125000  0.125000  0.500000      10 t-inv F
 -0.125000 -0.125000 -0.500000      10 t-inv F
 -0.375000 -0.500000 -0.375000      10 t-inv F
  0.375000  0.500000  0.375000      10 t-inv F
 -0.500000 -0.125000 -0.125000      10 t-inv F
  0.500000  0.125000  0.125000      10 t-inv F
 -0.375000 -0.375000 -0.500000      10 t-inv F
  0.375000  0.375000  0.500000      10 t-inv F
 -0.125000 -0.500000 -0.125000      10 t-inv F
  0.125000  0.500000  0.125000      10 t-inv F
 -0.500000 -0.375000 -0.375000      10 t-inv F
  0.500000  0.375000  0.375000      10 t-inv F
  0.250000 -0.125000  0.000000      11 t-inv F
  0.000000 -0.250000  0.125000      11 t-inv F
  0.000000  0.250000 -0.125000      11 t-inv F
  0.125000  0.000000 -0.250000      11 t-inv F
 -0.125000  0.000000  0.250000      11 t-inv F
  0.250000  0.000000 -0.125000      11 t-inv F
 -0.250000  0.000000  0.125000      11 t-inv F
 -0.125000  0.250000  0.000000      11 t-inv F
  0.125000 -0.250000  0.000000      11 t-inv F
  0.000000 -0.125000  0.250000      11 t-inv F
  0.000000  0.125000 -0.250000      11 t-inv F
  0.125000  0.125000  0.375000      11 t-inv F
 -0.125000 -0.125000 -0.375000      11 t-inv F
 -0.250000 -0.375000 -0.250000      11 t-inv F
  0.250000  0.375000  0.250000      11 t-inv F
 -0.375000 -0.125000 -0.125000      11 t-inv F
  0.375000  0.125000  0.125000      11 t-inv F
 -0.250000 -0.250000 -0.375000      11 t-inv F
  0.250000  0.250000  0.375000      11 t-inv F
 -0.125000 -0.375000 -0.125000      11 t-inv F
  0.125000  0.375000  0.125000      11 t-inv F
 -0.375000 -0.250000 -0.250000      11 t-inv F
  0.375000  0.250000  0.250000      11 t-inv F
  0.125000 -0.125000  0.000000      12 t-inv F
  0.000000 -0.125000  0.125000      12 t-inv F
  0.000000  0.125000 -0.125000      12 t-inv F
  0.125000  0.000000 -0.125000      12 t-inv F
 -0.125000  0.000000  0.125000      12 t-inv F
  0.125000  0.125000  0.250000      12 t-inv F
 -0.125000 -0.125000 -0.250000      12 t-inv F
 -0.125000 -0.250000 -0.125000      12 t-inv F
  0.125000  0.250000  0.125000      12 t-inv F
 -0.250000 -0.125000 -0.125000      12 t-inv F
  0.250000  0.125000  0.125000      12 t-inv F
 -0.250000 -0.250000  0.000000      13 t-inv F
  0.000000  0.250000  0.250000      13 t-inv F
  0.000000 -0.250000 -0.250000      13 t-inv F
  0.250000  0.000000  0.250000      13 t-inv F
 -0.250000  0.000000 -0.250000      13 t-inv F
 -0.375000 -0.250000  0.000000      14 t-inv F
  0.000000  0.375000  0.250000      14 t-inv F
  0.000000 -0.375000 -0.250000      14 t-inv F
  0.250000  0.000000  0.375000      14 t-inv F
 -0.250000  0.000000 -0.375000      14 t-inv F
 -0.375000  0.000000 -0.250000      14 t-inv F
  0.375000  0.000000  0.250000      14 t-inv F
 -0.250000 -0.375000  0.000000      14 t-inv F
  0.250000  0.375000  0.000000      14 t-inv F
  0.000000 -0.250000 -0.375000      14 t-inv F
  0.000000  0.250000  0.375000      14 t-inv F
  0.250000  0.250000 -0.125000      14 t-inv F
 -0.250000 -0.250000  0.125000      14 t-inv F
  0.375000  0.125000  0.375000      14 t-inv F
 -0.375000 -0.125000 -0.375000      14 t-inv F
  0.125000 -0.250000 -0.250000      14 t-inv F
 -0.125000  0.250000  0.250000      14 t-inv F
  0.375000  0.375000  0.125000      14 t-inv F
 -0.375000 -0.375000 -0.125000      14 t-inv F
 -0.250000  0.125000 -0.250000      14 t-inv F
  0.250000 -0.125000  0.250000      14 t-inv F
  0.125000  0.375000  0.375000      14 t-inv F
 -0.125000 -0.375000 -0.375000      14 t-inv F
 -0.500000 -0.250000  0.000000      15 t-inv F
  0.000000  0.500000  0.250000      15 t-inv F
  0.000000 -0.500000 -0.250000      15 t-inv F
  0.250000  0.000000  0.500000      15 t-inv F
 -0.250000  0.000000 -0.500000      15 t-inv F
 -0.500000  0.000000 -0.250000      15 t-inv F
  0.500000  0.000000  0.250000      15 t-inv F
 -0.250000 -0.500000  0.000000      15 t-inv F
  0.250000  0.500000  0.000000      15 t-inv F
  0.000000 -0.250000 -0.500000      15 t-inv F
  0.000000  0.250000  0.500000      15 t-inv F
  0.250000  0.250000 -0.250000      15 t-inv F
 -0.250000 -0.250000  0.250000      15 t-inv F
  0.500000  0.250000  0.500000      15 t-inv F
 -0.500000 -0.250000 -0.500000      15 t-inv F
  0.250000 -0.250000 -0.250000      15 t-inv F
 -0.250000  0.250000  0.250000      15 t-inv F
  0.500000  0.500000  0.250000      15 t-inv F
 -0.500000 -0.500000 -0.250000      15 t-inv F
 -0.250000  0.250000 -0.250000      15 t-inv F
  0.250000 -0.250000  0.250000      15 t-inv F
  0.250000  0.500000  0.500000      15 t-inv F
 -0.250000 -0.500000 -0.500000      15 t-inv F
  0.375000 -0.250000  0.000000      16 t-inv F
  0.000000 -0.375000  0.250000      16 t-inv F
  0.000000  0.375000 -0.250000      16 t-inv F
  0.250000  0.000000 -0.375000      16 t-inv F
 -0.250000  0.000000  0.375000      16 t-inv F
  0.375000  0.000000 -0.250000      16 t-inv F
 -0.375000  0.000000  0.250000      16 t-inv F
 -0.250000  0.375000  0.000000      16 t-inv F
  0.250000 -0.375000  0.000000      16 t-inv F
  0.000000 -0.250000  0.375000      16 t-inv F
  0.000000  0.250000 -0.375000      16 t-inv F
  0.250000  0.250000  0.625000      16 t-inv F
 -0.250000 -0.250000 -0.625000      16 t-inv F
 -0.375000 -0.625000 -0.375000      16 t-inv F
  0.375000  0.625000  0.375000      16 t-inv F
 -0.625000 -0.250000 -0.250000      16 t-inv F
  0.625000  0.250000  0.250000      16 t-inv F
 -0.375000 -0.375000 -0.625000      16 t-inv F
  0.375000  0.375000  0.625000      16 t-inv F
 -0.250000 -0.625000 -0.250000      16 t-inv F
  0.250000  0.625000  0.250000      16 t-inv F
 -0.625000 -0.375000 -0.375000      16 t-inv F
  0.625000  0.375000  0.375000      16 t-inv F
  0.250000 -0.250000  0.000000      17 t-inv F
  0.000000 -0.250000  0.250000      17 t-inv F
  0.000000  0.250000 -0.250000      17 t-inv F
  0.250000  0.000000 -0.250000      17 t-inv F
 -0.250000  0.000000  0.250000      17 t-inv F
  0.250000  0.250000  0.500000      17 t-inv F
 -0.250000 -0.250000 -0.500000      17 t-inv F
 -0.250000 -0.500000 -0.250000      17 t-inv F
  0.250000  0.500000  0.250000      17 t-inv F
 -0.500000 -0.250000 -0.250000      17 t-inv F
  0.500000  0.250000  0.250000      17 t-inv F
 -0.375000 -0.375000  0.000000      18 t-inv F
  0.000000  0.375000  0.375000      18 t-inv F
  0.000000 -0.375000 -0.375000      18 t-inv F
  0.375000  0.000000  0.375000      18 t-inv F
 -0.375000  0.000000 -0.375000      18 t-inv F
 -0.500000 -0.375000  0.000000      19 t-inv F
  0.000000  0.500000  0.375000      19 t-inv F
  0.000000 -0.500000 -0.375000      19 t-inv F
  0.375000  0.000000  0.500000      19 t-inv F
 -0.375000  0.000000 -0.500000      19 t-inv F
 -0.500000  0.000000 -0.375000      19 t-inv F
  0.500000  0.000000  0.375000      19 t-inv F
 -0.375000 -0.500000  0.000000      19 t-inv F
  0.375000  0.500000  0.000000      19 t-inv F
  0.000000 -0.375000 -0.500000      19 t-inv F
  0.000000  0.375000  0.500000      19 t-inv F
  0.375000  0.375000 -0.125000      19 t-inv F
 -0.375000 -0.375000  0.125000      19 t-inv F
  0.500000  0.125000  0.500000      19 t-inv F
 -0.500000 -0.125000 -0.500000      19 t-inv F
  0.125000 -0.375000 -0.375000      19 t-inv F
 -0.125000  0.375000  0.375000      19 t-inv F
  0.500000  0.500000  0.125000      19 t-inv F
 -0.500000 -0.500000 -0.125000      19 t-inv F
 -0.375000  0.125000 -0.375000      19 t-inv F
  0.375000 -0.125000  0.375000      19 t-inv F
  0.125000  0.500000  0.500000      19 t-inv F
 -0.125000 -0.500000 -0.500000      19 t-inv F
  0.375000 -0.375000  0.000000      20 t-inv F
  0.000000 -0.375000  0.375000      20 t-inv F
  0.000000  0.375000 -0.375000      20 t-inv F
  0.375000  0.000000 -0.375000      20 t-inv F
 -0.375000  0.000000  0.375000      20 t-inv F
  0.375000  0.375000  0.750000      20 t-inv F
 -0.375000 -0.375000 -0.750000      20 t-inv F
 -0.375000 -0.750000 -0.375000      20 t-inv F
  0.375000  0.750000  0.375000      20 t-inv F
 -0.750000 -0.375000 -0.375000      20 t-inv F
  0.750000  0.375000  0.375000      20 t-inv F
  0.000000  0.500000  0.500000      21 t-inv F
  0.500000  0.000000  0.500000      21 t-inv F
 -0.375000 -0.250000 -0.125000      22 t-inv F
  0.125000  0.375000  0.250000      22 t-inv F
 -0.125000 -0.375000 -0.250000      22 t-inv F
  0.250000  0.125000  0.375000      22 t-inv F
 -0.250000 -0.125000 -0.375000      22 t-inv F
 -0.375000 -0.125000 -0.250000      22 t-inv F
  0.375000  0.125000  0.250000      22 t-inv F
 -0.250000 -0.375000 -0.125000      22 t-inv F
  0.250000  0.375000  0.125000      22 t-inv F
 -0.125000 -0.250000 -0.375000      22 t-inv F
  0.125000  0.250000  0.375000      22 t-inv F
  0.250000  0.125000 -0.125000      22 t-inv F
 -0.250000 -0.125000  0.125000      22 t-inv F
  0.125000 -0.250000 -0.125000      22 t-inv F
 -0.125000  0.250000  0.125000      22 t-inv F
  0.125000  0.250000 -0.125000      22 t-inv F
 -0.125000 -0.250000  0.125000      22 t-inv F
  0.125000 -0.125000 -0.250000      22 t-inv F
 -0.125000  0.125000  0.250000      22 t-inv F
 -0.125000  0.125000 -0.250000      22 t-inv F
  0.125000 -0.125000  0.250000      22 t-inv F
 -0.250000  0.125000 -0.125000      22 t-inv F
  0.250000 -0.125000  0.125000      22 t-inv F
 -0.500000 -0.250000 -0.125000      23 t-inv F
  0.125000  0.500000  0.250000      23 t-inv F
 -0.125000 -0.500000 -0.250000      23 t-inv F
  0.250000  0.125000  0.500000      23 t-inv F
 -0.250000 -0.125000 -0.500000      23 t-inv F
 -0.500000 -0.125000 -0.250000      23 t-inv F
  0.500000  0.125000  0.250000      23 t-inv F
 -0.250000 -0.500000 -0.125000      23 t-inv F
  0.250000  0.500000  0.125000      23 t-inv F
 -0.125000 -0.250000 -0.500000      23 t-inv F
  0.125000  0.250000  0.500000      23 t-inv F
  0.250000  0.125000 -0.250000      23 t-inv F
 -0.250000 -0.125000  0.250000      23 t-inv F
  0.500000  0.250000  0.375000      23 t-inv F
 -0.500000 -0.250000 -0.375000      23 t-inv F
  0.125000 -0.375000 -0.125000      23 t-inv F
 -0.125000  0.375000  0.125000      23 t-inv F
  0.125000  0.375000 -0.125000      23 t-inv F
 -0.125000 -0.375000  0.125000      23 t-inv F
  0.250000 -0.125000 -0.250000      23 t-inv F
 -0.250000  0.125000  0.250000      23 t-inv F
 -0.375000 -0.250000 -0.500000      23 t-inv F
  0.375000  0.250000  0.500000      23 t-inv F
  0.375000  0.500000  0.250000      23 t-inv F
 -0.375000 -0.500000 -0.250000      23 t-inv F
 -0.125000  0.125000 -0.375000      23 t-inv F
  0.125000 -0.125000  0.375000      23 t-inv F
 -0.250000  0.250000  0.125000      23 t-inv F
  0.250000 -0.250000 -0.125000      23 t-inv F
 -0.125000  0.125000  0.375000      23 t-inv F
  0.125000 -0.125000 -0.375000      23 t-inv F
 -0.250000  0.250000 -0.125000      23 t-inv F
  0.250000 -0.250000  0.125000      23 t-inv F
 -0.500000 -0.375000 -0.250000      23 t-inv F
  0.500000  0.375000  0.250000      23 t-inv F
  0.250000  0.375000  0.500000      23 t-inv F
 -0.250000 -0.375000 -0.500000      23 t-inv F
 -0.375000 -0.125000  0.125000      23 t-inv F
  0.375000  0.125000 -0.125000      23 t-inv F
  0.125000 -0.250000  0.250000      23 t-inv F
 -0.125000  0.250000 -0.250000      23 t-inv F
  0.375000 -0.125000  0.125000      23 t-inv F
 -0.375000  0.125000 -0.125000      23 t-inv F
 -0.125000 -0.250000  0.250000      23 t-inv F
  0.125000  0.250000 -0.250000      23 t-inv F
 -0.250000 -0.500000 -0.375000      23 t-inv F
  0.250000  0.500000  0.375000      23 t-inv F
  0.375000 -0.250000 -0.125000      24 t-inv F
  0.125000 -0.375000  0.250000      24 t-inv F
 -0.125000  0.375000 -0.250000      24 t-inv F
  0.250000  0.125000 -0.375000      24 t-inv F
 -0.250000 -0.125000  0.375000      24 t-inv F
  0.375000 -0.125000 -0.250000      24 t-inv F
 -0.375000  0.125000  0.250000      24 t-inv F
 -0.250000  0.375000 -0.125000      24 t-inv F
  0.250000 -0.375000  0.125000      24 t-inv F
 -0.125000 -0.250000  0.375000      24 t-inv F
  0.125000  0.250000 -0.375000      24 t-inv F
 -0.375000 -0.625000 -0.500000      24 t-inv F
  0.375000  0.625000  0.500000      24 t-inv F
  0.125000  0.500000 -0.125000      24 t-inv F
 -0.125000 -0.500000  0.125000      24 t-inv F
  0.500000  0.625000  0.375000      24 t-inv F
 -0.500000 -0.625000 -0.375000      24 t-inv F
 -0.125000  0.125000  0.500000      24 t-inv F
  0.125000 -0.125000 -0.500000      24 t-inv F
  0.375000  0.500000  0.625000      24 t-inv F
 -0.375000 -0.500000 -0.625000      24 t-inv F
  0.500000 -0.125000  0.125000      24 t-inv F
 -0.500000  0.125000 -0.125000      24 t-inv F
 -0.500000 -0.375000 -0.125000      25 t-inv F
  0.125000  0.500000  0.375000      25 t-inv F
 -0.125000 -0.500000 -0.375000      25 t-inv F
  0.375000  0.125000  0.500000      25 t-inv F
 -0.375000 -0.125000 -0.500000      25 t-inv F
 -0.500000 -0.125000 -0.375000      25 t-inv F
  0.500000  0.125000  0.375000      25 t-inv F
 -0.375000 -0.500000 -0.125000      25 t-inv F
  0.375000  0.500000  0.125000      25 t-inv F
 -0.125000 -0.375000 -0.500000      25 t-inv F
  0.125000  0.375000  0.500000      25 t-inv F
  0.375000  0.250000 -0.125000      25 t-inv F
 -0.375000 -0.250000  0.125000      25 t-inv F
  0.125000 -0.375000 -0.250000      25 t-inv F
 -0.125000  0.375000  0.250000      25 t-inv F
  0.250000  0.375000 -0.125000      25 t-inv F
 -0.250000 -0.375000  0.125000      25 t-inv F
  0.125000 -0.250000 -0.375000      25 t-inv F
 -0.125000  0.250000  0.375000      25 t-inv F
 -0.250000  0.125000 -0.375000      25 t-inv F
  0.250000 -0.125000  0.375000      25 t-inv F
 -0.375000  0.125000 -0.250000      25 t-inv F
  0.375000 -0.125000  0.250000      25 t-inv F
  0.375000 -0.375000 -0.125000      26 t-inv F
  0.125000 -0.375000  0.375000      26 t-inv F
 -0.125000  0.375000 -0.375000      26 t-inv F
  0.375000  0.125000 -0.375000      26 t-inv F
 -0.375000 -0.125000  0.375000      26 t-inv F
  0.375000 -0.125000 -0.375000      26 t-inv F
 -0.375000  0.125000  0.375000      26 t-inv F
 -0.375000  0.375000 -0.125000      26 t-inv F
  0.375000 -0.375000  0.125000      26 t-inv F
 -0.125000 -0.375000  0.375000      26 t-inv F
  0.125000  0.375000 -0.375000      26 t-inv F
  0.375000  0.250000  0.750000      26 t-inv F
 -0.375000 -0.250000 -0.750000      26 t-inv F
 -0.375000 -0.750000 -0.500000      26 t-inv F
  0.375000  0.750000  0.500000      26 t-inv F
  0.125000  0.500000 -0.250000      26 t-inv F
 -0.125000 -0.500000  0.250000      26 t-inv F
  0.250000 -0.500000 -0.125000      26 t-inv F
 -0.250000  0.500000  0.125000      26 t-inv F
 -0.750000 -0.250000 -0.375000      26 t-inv F
  0.750000  0.250000  0.375000      26 t-inv F
  0.500000  0.750000  0.375000      26 t-inv F
 -0.500000 -0.750000 -0.375000      26 t-inv F
 -0.500000 -0.375000 -0.750000      26 t-inv F
  0.500000  0.375000  0.750000      26 t-inv F
 -0.250000  0.125000  0.500000      26 t-inv F
  0.250000 -0.125000 -0.500000      26 t-inv F
  0.750000  0.375000  0.250000      26 t-inv F
 -0.750000 -0.375000 -0.250000      26 t-inv F
 -0.125000  0.250000 -0.500000      26 t-inv F
  0.125000 -0.250000  0.500000      26 t-inv F
 -0.375000 -0.750000 -0.250000      26 t-inv F
  0.375000  0.750000  0.250000      26 t-inv F
  0.375000  0.500000  0.750000      26 t-inv F
 -0.375000 -0.500000 -0.750000      26 t-inv F
 -0.750000 -0.500000 -0.375000      26 t-inv F
  0.750000  0.500000  0.375000      26 t-inv F
  0.500000 -0.250000  0.125000      26 t-inv F
 -0.500000  0.250000 -0.125000      26 t-inv F
  0.250000  0.750000  0.375000      26 t-inv F
 -0.250000 -0.750000 -0.375000      26 t-inv F
 -0.500000 -0.125000  0.250000      26 t-inv F
  0.500000  0.125000 -0.250000      26 t-inv F
 -0.250000 -0.375000 -0.750000      26 t-inv F
  0.250000  0.375000  0.750000      26 t-inv F
  0.750000  0.375000  0.500000      26 t-inv F
 -0.750000 -0.375000 -0.500000      26 t-inv F
  0.250000 -0.375000 -0.125000      27 t-inv F
  0.125000 -0.250000  0.375000      27 t-inv F
 -0.125000  0.250000 -0.375000      27 t-inv F
  0.375000  0.125000 -0.250000      27 t-inv F
 -0.375000 -0.125000  0.250000      27 t-inv F
  0.250000 -0.125000 -0.375000      27 t-inv F
 -0.250000  0.125000  0.375000      27 t-inv F
 -0.375000  0.250000 -0.125000      27 t-inv F
  0.375000 -0.250000  0.125000      27 t-inv F
 -0.125000 -0.375000  0.250000      27 t-inv F
  0.125000  0.375000 -0.250000      27 t-inv F
  0.375000  0.250000  0.625000      27 t-inv F
 -0.375000 -0.250000 -0.625000      27 t-inv F
 -0.250000 -0.625000 -0.375000      27 t-inv F
  0.250000  0.625000  0.375000      27 t-inv F
 -0.625000 -0.250000 -0.375000      27 t-inv F
  0.625000  0.250000  0.375000      27 t-inv F
  0.375000  0.625000  0.250000      27 t-inv F
 -0.375000 -0.625000 -0.250000      27 t-inv F
  0.625000  0.375000  0.250000      27 t-inv F
 -0.625000 -0.375000 -0.250000      27 t-inv F
  0.250000  0.375000  0.625000      27 t-inv F
 -0.250000 -0.375000 -0.625000      27 t-inv F
  0.375000 -0.500000 -0.125000      28 t-inv F
  0.125000 -0.375000  0.500000      28 t-inv F
 -0.125000  0.375000 -0.500000      28 t-inv F
  0.500000  0.125000 -0.375000      28 t-inv F
 -0.500000 -0.125000  0.375000      28 t-inv F
  0.375000 -0.125000 -0.500000      28 t-inv F
 -0.375000  0.125000  0.500000      28 t-inv F
 -0.500000  0.375000 -0.125000      28 t-inv F
  0.500000 -0.375000  0.125000      28 t-inv F
 -0.125000 -0.500000  0.375000      28 t-inv F
  0.125000  0.500000 -0.375000      28 t-inv F
  0.250000 -0.500000 -0.250000      29 t-inv F
  0.250000 -0.250000  0.500000      29 t-inv F
 -0.250000  0.250000 -0.500000      29 t-inv F
  0.500000  0.250000 -0.250000      29 t-inv F
 -0.500000 -0.250000  0.250000      29 t-inv F


--------------------------------------------------------------------------------------------------------




 Dimension of arrays:
   k-points           NKPTS =    193   k-points in BZ     NKDIM =    676   number of bands    NBANDS=     32
   number of dos      NEDOS =   5000   number of ions     NIONS =      2
   non local maximal  LDIM  =      4   non local SUM 2l+1 LMDIM =      8
   total plane-waves  NPLWV =   4096
   max r-space proj   IRMAX =      1   max aug-charges    IRDMAX=   3503
   dimension x,y,z NGX =    16 NGY =   16 NGZ =   16
   dimension x,y,z NGXF=    32 NGYF=   32 NGZF=   32
   support grid    NGXF=    32 NGYF=   32 NGZF=   32
   ions per type =               2
 NGX,Y,Z   is equivalent  to a cutoff of   6.85,  6.85,  6.85 a.u.
 NGXF,Y,Z  is equivalent  to a cutoff of  13.69, 13.69, 13.69 a.u.


 I would recommend the setting:
   dimension x,y,z NGX =    15 NGY =   15 NGZ =   15
 SYSTEM =  Y3Al5O12-garnet                         
 POSCAR =  bulk@mp_149                             

 Startparameter for this run:
   NWRITE =      2    write-flag & timer
   PREC   = normal    normal or accurate (medium, high low for compatibility)
   ISTART =      0    job   : 0-new  1-cont  2-samecut
   ICHARG =      2    charge: 1-file 2-atom 10-const
   ISPIN  =      2    spin polarized calculation?
   LNONCOLLINEAR =      F non collinear calculations
   LSORBIT =      F    spin-orbit coupling
   INIWAV =      1    electr: 0-lowe 1-rand  2-diag
   LASPH  =      F    aspherical Exc in radial PAW
   METAGGA=      F    non-selfconsistent MetaGGA calc.

 Electronic Relaxation 1
   ENCUT  =  245.3 eV  18.03 Ry    4.25 a.u.   4.96  4.96  4.96*2*pi/ulx,y,z
   ENINI  =  245.3     initial cutoff
   ENAUG  =  322.1 eV  augmentation charge cutoff
   NELM   =    150;   NELMIN=  2; NELMDL=  0     # of ELM steps 
   EDIFF  = 0.1E-05   stopping-criterion for ELM
   LREAL  =      F    real-space projection
   NLSPLINE    = F    spline interpolate recip. space projectors
   LCOMPAT=      F    compatible to vasp.4.4
   GGA_COMPAT  = T    GGA compatible to vasp.4.4-vasp.4.6
   LMAXPAW     = -100 max onsite density
   LMAXMIX     =    6 max onsite mixed and CHGCAR
   VOSKOWN=      0    Vosko Wilk Nusair interpolation
   ROPT   =    0.00000
 Ionic relaxation
   EDIFFG = 0.1E-04   stopping-criterion for IOM
   NSW    =      0    number of steps for IOM
   NBLOCK =      1;   KBLOCK =      1    inner block; outer block 
   IBRION =     -1    ionic relax: 0-MD 1-quasi-New 2-CG
   NFREE  =      0    steps in history (QN), initial steepest desc. (CG)
   ISIF   =      0    stress and relaxation
   IWAVPR =     10    prediction:  0-non 1-charg 2-wave 3-comb
   ISYM   =      3    0-nonsym 1-usesym 2-fastsym
   LCORR  =      T    Harris-Foulkes like correction to forces

   POTIM  = 0.5000    time-step for ionic-motion
   TEIN   =    0.0    initial temperature
   TEBEG  =    0.0;   TEEND  =   0.0 temperature during run
   SMASS  =  -3.00    Nose mass-parameter (am)
   estimated Nose-frequenzy (Omega)   =  0.10E-29 period in steps =****** mass=  -0.345E-27a.u.
   SCALEE = 1.0000    scale energy and forces
   NPACO  =    256;   APACO  = 16.0  distance and # of slots for P.C.
   PSTRESS=    0.0 pullay stress

  Mass of Ions in am
   POMASS =  28.09
  Ionic Valenz
   ZVAL   =   4.00
  Atomic Wigner-Seitz radii
   RWIGS  =  -1.00
  virtual crystal weights 
   VCA    =   1.00
   NELECT =       8.0000    total number of electrons
   NUPDOWN=      -1.0000    fix difference up-down

 DOS related values:
   EMIN   =  10.00;   EMAX   =-10.00  energy-range for DOS
   EFERMI =   0.00
   ISMEAR =     0;   SIGMA  =   0.20  broadening in eV -4-tet -1-fermi 0-gaus

 Electronic relaxation 2 (details)
   IALGO  =     58    algorithm
   LDIAG  =      T    sub-space diagonalisation (order eigenvalues)
   LSUBROT=      T    optimize rotation matrix (better conditioning)
   TURBO    =      0    0=normal 1=particle mesh
   IRESTART =      0    0=no restart 2=restart with 2 vectors
   NREBOOT  =      0    no. of reboots
   NMIN     =      0    reboot dimension
   EREF     =   0.00    reference energy to select bands
   IMIX   =      4    mixing-type and parameters
     AMIX     =   0.40;   BMIX     =  1.00
     AMIX_MAG =   1.60;   BMIX_MAG =  1.00
     AMIN     =   0.10
     WC   =   100.;   INIMIX=   1;  MIXPRE=   1;  MAXMIX= -45

 Intra band minimization:
   WEIMIN = 0.0000     energy-eigenvalue tresh-hold
   EBREAK =  0.78E-08  absolut break condition
   DEPER  =   0.30     relativ break condition  

   TIME   =   0.40     timestep for ELM

  volume/ion in A,a.u.               =      20.72       139.86
  Fermi-wavevector in a.u.,A,eV,Ry     =   0.946088  1.787848 12.178347  0.895083
  Thomas-Fermi vector in A             =   2.074053
 
 Write flags
   LWAVE  =      T    write WAVECAR
   LCHARG =      T    write CHGCAR
   LVTOT  =      F    write LOCPOT, total local potential
   LVHAR  =      F    write LOCPOT, Hartree potential only
   LELF   =      F    write electronic localiz. function (ELF)
   LORBIT =     11    0 simple, 1 ext, 2 COOP (PROOUT)


 Dipole corrections
   LMONO  =      F    monopole corrections only (constant potential shift)
   LDIPOL =      F    correct potential (dipole corrections)
   IDIPOL =      0    1-x, 2-y, 3-z, 4-all directions 
   EPSILON=  1.0000000 bulk dielectric constant

 Exchange correlation treatment:
   GGA     =    --    GGA type
   LEXCH   =     8    internal setting for exchange type
   VOSKOWN=      0    Vosko Wilk Nusair interpolation
   EXXOEP  =     0    0=HF, 1=EXX-LHF (local Hartree Fock) 2=EXX OEP
   LHFCALC =     T    Hartree Fock is set to
   LSYMGRAD=     F    symmetrize gradient (conserves proper symmetry)
   PRECFOCK=normal    Normal, Fast or Accurate (Low or Medium for compatibility)
   LRHFCALC=     F    long range Hartree Fock
   LRSCOR  =     F    long range correlation only (use DFT for short range part)
   LTHOMAS =     F    Thomas Fermi screening in HF
   LMODELHF=     F    short range full HF, long range fraction AEXX
   ENCUT4O =  -1.0   cutoff for four orbital integrals eV
   LMAXFOCK=     4    L truncation for augmentation on plane wave grid
   LMAXFOCKAE=  -1    L truncation for all-electron charge restoration on plane wave grid
   NMAXFOCKAE=   1    number of basis functions for all-electron charge restoration
   LFOCKAEDFT=     F  apply the AE augmentation even for DFT
   NKREDX  =     1    reduce k-point grid by
   NKREDY  =     1    reduce k-point grid by
   NKREDZ  =     1    reduce k-point grid by
   SHIFTRED=     F    shift reduced grid of Gamma
   HFKIDENT=     F    idential grid for each k-point
   ODDONLY =     F    use only odd q-grid points
   EVENONLY=     F    use only even q-grid points
   HFALPHA =   -1.0000 decay constant for conv. correction
   MCALPHA =    0.0000 extent of test-charge in conv. correction in multipole expansion
   AEXX    =    0.2500 exact exchange contribution
   HFSCREEN=    0.2000 screening length (either q_TF or 0.3 A-1)
   HFSCREENC=   0.2000 screening length for correlation (either q_TF or 0.3 A-1)
   HFRCUT  =    0.0000 spherical cutoff for potential kernel
   ALDAX   =    0.7500 LDA exchange part
   AGGAX   =    0.7500 GGA exchange part
   ALDAC   =    1.0000 LDA correlation
   AGGAC   =    1.0000 GGA correlation
   NBANDSGWLOW=     1    first orbital included in HF term
 Linear response parameters
   LEPSILON=     F    determine dielectric tensor
   LRPA    =     F    only Hartree local field effects (RPA)
   LNABLA  =     F    use nabla operator in PAW spheres
   LVEL    =     F    velocity operator in full k-point grid
   LINTERFAST=   F  fast interpolation
   KINTER  =     0    interpolate to denser k-point grid
   CSHIFT  =0.1000    complex shift for real part using Kramers Kronig
   OMEGAMAX=  -1.0    maximum frequency
   DEG_THRESHOLD= 0.2000000E-02 threshold for treating states as degnerate
   RTIME   =    0.100 relaxation time in fs

 Orbital magnetization related:
   ORBITALMAG=     F  switch on orbital magnetization
   LCHIMAG   =     F  perturbation theory with respect to B field
   DQ        =  0.001000  dq finite difference perturbation B field



--------------------------------------------------------------------------------------------------------


 Static calculation
 charge density and potential will be updated during run
 spin polarized calculation
 Conjugate gradient for all bands, subspace preconditioning
 preconditioned conjugated gradient                                        
 perform sub-space diagonalisation
    before iterative eigenvector-optimisation
 modified Broyden-mixing scheme, WC =      100.0
 initial mixing is a Kerker type mixing with AMIX =  0.4000 and BMIX =      1.0000
 Hartree-type preconditioning will be used
 using additional bands           28
 reciprocal scheme for non local part
 use partial core corrections
 no Harris-corrections to forces 
 use gradient corrections 
 use of overlap-Matrix (Vanderbilt PP)
 Gauss-broadening in eV      SIGMA  =   0.20


--------------------------------------------------------------------------------------------------------


  energy-cutoff  :      245.34
  volume of cell :       41.45
      direct lattice vectors                 reciprocal lattice vectors
     3.364150000  0.000000000  1.942293000     0.297251906 -0.105094356  0.000000000
     1.121383000  3.171752000  1.942293000     0.000000000  0.315283162  0.000000000
     0.000000000  0.000000000  3.884586000    -0.148625953 -0.105094403  0.257427690

  length of vectors
     3.884585862  3.884586552  3.884586000     0.315283237  0.315283162  0.315283242


 
 k-points in units of 2pi/SCALE and weight: HSE run along symmetry lines            
   0.00000000  0.00000000  0.00000000       0.002
   0.03715649 -0.01313679  0.00000000       0.016
   0.07431298 -0.02627359  0.00000000       0.016
   0.11146946 -0.03941038  0.00000000       0.016
   0.14862595 -0.05254718  0.00000000       0.008
   0.03715649  0.02627360  0.00000000       0.012
   0.07431298  0.01313681  0.00000000       0.047
   0.11146946  0.00000001  0.00000000       0.047
   0.14862595 -0.01313678  0.00000000       0.047
  -0.11146946  0.07882078  0.00000000       0.047
  -0.07431298  0.06568398  0.00000000       0.047
  -0.03715649  0.05254719  0.00000000       0.023
   0.07431298  0.05254720  0.00000000       0.012
   0.11146946  0.03941041  0.00000000       0.047
   0.14862595  0.02627361  0.00000000       0.047
  -0.11146946  0.11823117  0.00000000       0.047
  -0.07431298  0.10509438  0.00000000       0.023
   0.11146946  0.07882080  0.00000000       0.012
   0.14862595  0.06568401  0.00000000       0.047
  -0.11146946  0.15764157  0.00000000       0.023
   0.14862595  0.10509440  0.00000000       0.006
   0.09289122  0.02627361  0.03217846       0.047
   0.13004771  0.01313681  0.03217846       0.094
  -0.13004771  0.10509437  0.03217846       0.047
   0.13004771  0.05254721  0.03217846       0.047
  -0.13004771  0.14450477  0.03217846       0.094
  -0.09289122  0.13136797  0.03217846       0.047
  -0.13004771  0.18391516  0.03217846       0.023
  -0.11146946  0.15764157  0.06435692       0.012
   0.00000000  0.00000000  0.00000000       0.000
   0.00323100 -0.00456932  0.00559625       0.000
   0.00646200 -0.00913864  0.01119251       0.000
   0.00969300 -0.01370796  0.01678876       0.000
   0.01292400 -0.01827728  0.02238502       0.000
   0.01615499 -0.02284660  0.02798127       0.000
   0.01938599 -0.02741593  0.03357752       0.000
   0.02261699 -0.03198525  0.03917378       0.000
   0.02584799 -0.03655457  0.04477003       0.000
   0.02907899 -0.04112389  0.05036629       0.000
   0.03230999 -0.04569321  0.05596254       0.000
   0.03554099 -0.05026253  0.06155880       0.000
   0.03877199 -0.05483185  0.06715505       0.000
   0.04200299 -0.05940117  0.07275130       0.000
   0.04523399 -0.06397049  0.07834756       0.000
   0.04846498 -0.06853981  0.08394381       0.000
   0.05169598 -0.07310913  0.08954007       0.000
   0.05492698 -0.07767845  0.09513632       0.000
   0.05815798 -0.08224778  0.10073257       0.000
   0.06138898 -0.08681710  0.10632883       0.000
   0.06461998 -0.09138642  0.11192508       0.000
   0.06785098 -0.09595574  0.11752134       0.000
   0.07108198 -0.10052506  0.12311759       0.000
   0.07431298 -0.10509438  0.12871384       0.000
   0.07431298 -0.10509438  0.12871384       0.000
   0.07121660 -0.10071545  0.13407692       0.000
   0.06812023 -0.09633651  0.13944000       0.000
   0.06502385 -0.09195758  0.14480308       0.000
   0.06192748 -0.08757865  0.15016615       0.000
   0.05883111 -0.08319972  0.15552923       0.000
   0.05573473 -0.07882078  0.16089231       0.000
   0.05263836 -0.07444185  0.16625538       0.000
   0.04954198 -0.07006292  0.17161846       0.000
   0.04644561 -0.06568399  0.17698154       0.000
   0.04334924 -0.06130505  0.18234461       0.000
   0.04025286 -0.05692612  0.18770769       0.000
   0.03715649 -0.05254719  0.19307077       0.000
   0.03715649 -0.05254719  0.19307077       0.000
   0.03302799 -0.04670861  0.19307077       0.000
   0.02889949 -0.04087004  0.19307077       0.000
   0.02477099 -0.03503146  0.19307077       0.000
   0.02064249 -0.02919288  0.19307077       0.000
   0.01651399 -0.02335431  0.19307077       0.000
   0.01238550 -0.01751573  0.19307077       0.000
   0.00825700 -0.01167715  0.19307077       0.000
   0.00412850 -0.00583858  0.19307077       0.000
   0.00000000  0.00000000  0.19307077       0.000
   0.00000000  0.00000000  0.19307077       0.000
   0.00000000  0.00000000  0.18534794       0.000
   0.00000000  0.00000000  0.17762511       0.000
   0.00000000  0.00000000  0.16990228       0.000
   0.00000000  0.00000000  0.16217944       0.000
   0.00000000  0.00000000  0.15445661       0.000
   0.00000000  0.00000000  0.14673378       0.000
   0.00000000  0.00000000  0.13901095       0.000
   0.00000000  0.00000000  0.13128812       0.000
   0.00000000  0.00000000  0.12356529       0.000
   0.00000000  0.00000000  0.11584246       0.000
   0.00000000  0.00000000  0.10811963       0.000
   0.00000000  0.00000000  0.10039680       0.000
   0.00000000  0.00000000  0.09267397       0.000
   0.00000000  0.00000000  0.08495114       0.000
   0.00000000  0.00000000  0.07722831       0.000
   0.00000000  0.00000000  0.06950548       0.000
   0.00000000  0.00000000  0.06178265       0.000
   0.00000000  0.00000000  0.05405981       0.000
   0.00000000  0.00000000  0.04633698       0.000
   0.00000000  0.00000000  0.03861415       0.000
   0.00000000  0.00000000  0.03089132       0.000
   0.00000000  0.00000000  0.02316849       0.000
   0.00000000  0.00000000  0.01544566       0.000
   0.00000000  0.00000000  0.00772283       0.000
   0.00000000  0.00000000  0.00000000       0.000
   0.00000000  0.00000000  0.00000000       0.000
   0.00371565  0.00262736  0.00643569       0.000
   0.00743130  0.00525472  0.01287138       0.000
   0.01114695  0.00788208  0.01930708       0.000
   0.01486260  0.01050944  0.02574277       0.000
   0.01857824  0.01313680  0.03217846       0.000
   0.02229389  0.01576416  0.03861415       0.000
   0.02600954  0.01839152  0.04504985       0.000
   0.02972519  0.02101888  0.05148554       0.000
   0.03344084  0.02364624  0.05792123       0.000
   0.03715649  0.02627360  0.06435692       0.000
   0.04087214  0.02890096  0.07079261       0.000
   0.04458779  0.03152832  0.07722831       0.000
   0.04830343  0.03415568  0.08366400       0.000
   0.05201908  0.03678304  0.09009969       0.000
   0.05573473  0.03941040  0.09653538       0.000
   0.05945038  0.04203776  0.10297108       0.000
   0.06316603  0.04466512  0.10940677       0.000
   0.06688168  0.04729248  0.11584246       0.000
   0.07059733  0.04991984  0.12227815       0.000
   0.07431298  0.05254720  0.12871384       0.000
   0.07431298  0.05254720  0.12871384       0.000
   0.07555153  0.04554091  0.13085908       0.000
   0.07679008  0.03853462  0.13300431       0.000
   0.07802863  0.03152832  0.13514954       0.000
   0.07926717  0.02452203  0.13729477       0.000
   0.08050572  0.01751574  0.13944000       0.000
   0.08174427  0.01050945  0.14158523       0.000
   0.08298282  0.00350315  0.14373046       0.000
   0.08422137 -0.00350314  0.14587569       0.000
   0.08545992 -0.01050943  0.14802092       0.000
   0.08669847 -0.01751572  0.15016615       0.000
   0.08793702 -0.02452201  0.15231138       0.000
   0.08917557 -0.03152831  0.15445661       0.000
   0.09041412 -0.03853460  0.15660184       0.000
   0.09165267 -0.04554089  0.15874708       0.000
   0.09289122 -0.05254718  0.16089231       0.000
   0.09289122 -0.05254718  0.16089231       0.000
   0.08669847 -0.05254718  0.16446769       0.000
   0.08050572 -0.05254719  0.16804308       0.000
   0.07431298 -0.05254719  0.17161846       0.000
   0.06812023 -0.05254719  0.17519384       0.000
   0.06192748 -0.05254719  0.17876923       0.000
   0.05573473 -0.05254719  0.18234461       0.000
   0.04954198 -0.05254719  0.18592000       0.000
   0.04334924 -0.05254719  0.18949538       0.000
   0.03715649 -0.05254719  0.19307077       0.000
   0.03715649 -0.05254719  0.19307077       0.000
   0.03934216 -0.04636517  0.18928507       0.000
   0.04152784 -0.04018314  0.18549936       0.000
   0.04371352 -0.03400112  0.18171366       0.000
   0.04589919 -0.02781910  0.17792796       0.000
   0.04808487 -0.02163707  0.17414226       0.000
   0.05027054 -0.01545505  0.17035656       0.000
   0.05245622 -0.00927303  0.16657086       0.000
   0.05464189 -0.00309101  0.16278516       0.000
   0.05682757  0.00309102  0.15899946       0.000
   0.05901325  0.00927304  0.15521375       0.000
   0.06119892  0.01545506  0.15142805       0.000
   0.06338460  0.02163709  0.14764235       0.000
   0.06557027  0.02781911  0.14385665       0.000
   0.06775595  0.03400113  0.14007095       0.000
   0.06994162  0.04018316  0.13628525       0.000
   0.07212730  0.04636518  0.13249955       0.000
   0.07431298  0.05254720  0.12871384       0.000
   0.07431298  0.05254720  0.12871384       0.000
   0.06935878  0.04904405  0.13300431       0.000
   0.06440458  0.04554091  0.13729477       0.000
   0.05945038  0.04203776  0.14158523       0.000
   0.05449618  0.03853461  0.14587569       0.000
   0.04954198  0.03503147  0.15016615       0.000
   0.04458779  0.03152832  0.15445661       0.000
   0.03963359  0.02802517  0.15874708       0.000
   0.03467939  0.02452203  0.16303754       0.000
   0.02972519  0.02101888  0.16732800       0.000
   0.02477099  0.01751573  0.17161846       0.000
   0.01981679  0.01401259  0.17590892       0.000
   0.01486260  0.01050944  0.18019938       0.000
   0.00990840  0.00700629  0.18448984       0.000
   0.00495420  0.00350315  0.18878031       0.000
   0.00000000  0.00000000  0.19307077       0.000
   0.09289122 -0.05254718  0.16089231       0.000
   0.09082697 -0.05838576  0.15731692       0.000
   0.08876272 -0.06422434  0.15374154       0.000
   0.08669847 -0.07006292  0.15016615       0.000
   0.08463422 -0.07590149  0.14659077       0.000
   0.08256997 -0.08174007  0.14301538       0.000
   0.08050572 -0.08757865  0.13944000       0.000
   0.07844148 -0.09341722  0.13586461       0.000
   0.07637723 -0.09925580  0.13228923       0.000
   0.07431298 -0.10509438  0.12871384       0.000
 
 k-points in reciprocal lattice and weights: HSE run along symmetry lines            
   0.00000000  0.00000000  0.00000000       0.002
   0.12500000  0.00000000  0.00000000       0.016
   0.25000000  0.00000000  0.00000000       0.016
   0.37500000  0.00000000  0.00000000       0.016
   0.50000000  0.00000000  0.00000000       0.008
   0.12500000  0.12500000  0.00000000       0.012
   0.25000000  0.12500000  0.00000000       0.047
   0.37500000  0.12500000  0.00000000       0.047
   0.50000000  0.12500000  0.00000000       0.047
  -0.37500000  0.12500000  0.00000000       0.047
  -0.25000000  0.12500000  0.00000000       0.047
  -0.12500000  0.12500000  0.00000000       0.023
   0.25000000  0.25000000  0.00000000       0.012
   0.37500000  0.25000000  0.00000000       0.047
   0.50000000  0.25000000  0.00000000       0.047
  -0.37500000  0.25000000  0.00000000       0.047
  -0.25000000  0.25000000  0.00000000       0.023
   0.37500000  0.37500000  0.00000000       0.012
   0.50000000  0.37500000  0.00000000       0.047
  -0.37500000  0.37500000  0.00000000       0.023
   0.50000000  0.50000000  0.00000000       0.006
   0.37500000  0.25000000  0.12500000       0.047
   0.50000000  0.25000000  0.12500000       0.094
  -0.37500000  0.25000000  0.12500000       0.047
   0.50000000  0.37500000  0.12500000       0.047
  -0.37500000  0.37500000  0.12500000       0.094
  -0.25000000  0.37500000  0.12500000       0.047
  -0.37500000  0.50000000  0.12500000       0.023
  -0.25000000  0.50000000  0.25000000       0.012
   0.00000000  0.00000000  0.00000000       0.000
   0.02173913  0.00000000  0.02173913       0.000
   0.04347826  0.00000000  0.04347826       0.000
   0.06521739  0.00000000  0.06521739       0.000
   0.08695652  0.00000000  0.08695652       0.000
   0.10869565  0.00000000  0.10869565       0.000
   0.13043478  0.00000000  0.13043478       0.000
   0.15217391  0.00000000  0.15217391       0.000
   0.17391304  0.00000000  0.17391304       0.000
   0.19565217  0.00000000  0.19565217       0.000
   0.21739130  0.00000000  0.21739130       0.000
   0.23913043  0.00000000  0.23913043       0.000
   0.26086957  0.00000000  0.26086957       0.000
   0.28260870  0.00000000  0.28260870       0.000
   0.30434783  0.00000000  0.30434783       0.000
   0.32608696  0.00000000  0.32608696       0.000
   0.34782609  0.00000000  0.34782609       0.000
   0.36956522  0.00000000  0.36956522       0.000
   0.39130435  0.00000000  0.39130435       0.000
   0.41304348  0.00000000  0.41304348       0.000
   0.43478261  0.00000000  0.43478261       0.000
[...]
   36.720576    0.780130    0.780130    0.780130    0.000000    0.000000    0.000000
   36.848078    0.781254    0.781254    0.781254    0.000000    0.000000    0.000000
   36.975580    0.783190    0.783190    0.783190    0.000000    0.000000    0.000000
   37.103082    0.785139    0.785139    0.785139    0.000000    0.000000    0.000000
   37.230584    0.786162    0.786162    0.786162    0.000000    0.000000    0.000000
   37.358086    0.786680    0.786679    0.786680    0.000000    0.000000    0.000000
   37.485588    0.788019    0.788019    0.788019    0.000000    0.000000    0.000000
   37.613090    0.790816    0.790816    0.790816    0.000000    0.000000    0.000000
   37.740592    0.793660    0.793660    0.793660    0.000000    0.000000    0.000000
   37.868094    0.794930    0.794929    0.794930    0.000000    0.000000    0.000000
   37.995596    0.795053    0.795053    0.795053    0.000000    0.000000    0.000000
   38.123098    0.795229    0.795229    0.795229    0.000000    0.000000    0.000000
   38.250600    0.796249    0.796249    0.796249    0.000000    0.000000    0.000000
   38.378102    0.798422    0.798422    0.798422    0.000000    0.000000    0.000000
   38.505604    0.801068    0.801068    0.801068    0.000000    0.000000    0.000000
   38.633106    0.803520    0.803519    0.803520    0.000000    0.000000    0.000000
   38.760608    0.805741    0.805741    0.805741    0.000000    0.000000    0.000000
   38.888110    0.807694    0.807694    0.807694    0.000000    0.000000    0.000000
   39.015612    0.809404    0.809404    0.809404    0.000000    0.000000    0.000000
   39.143114    0.811063    0.811063    0.811063    0.000000    0.000000    0.000000
   39.270616    0.812407    0.812407    0.812407    0.000000    0.000000    0.000000
   39.398118    0.813374    0.813374    0.813374    0.000000    0.000000    0.000000
   39.525620    0.814563    0.814563    0.814563    0.000000    0.000000    0.000000
   39.653122    0.815820    0.815820    0.815820    0.000000    0.000000    0.000000
   39.780624    0.816639    0.816639    0.816639    0.000000    0.000000    0.000000
   39.908126    0.817307    0.817307    0.817307    0.000000    0.000000    0.000000
   40.035628    0.818223    0.818223    0.818223    0.000000    0.000000    0.000000
   40.163130    0.819155    0.819155    0.819155    0.000000    0.000000    0.000000
   40.290632    0.819456    0.819456    0.819456    0.000000    0.000000    0.000000
   40.418134    0.818575    0.818575    0.818575    0.000000    0.000000    0.000000
   40.545636    0.816892    0.816892    0.816892    0.000000    0.000000    0.000000
   40.673138    0.815626    0.815626    0.815626    0.000000    0.000000    0.000000
   40.800640    0.815478    0.815478    0.815478    0.000000    0.000000    0.000000
   40.928142    0.816326    0.816326    0.816326    0.000000    0.000000    0.000000
   41.055644    0.817903    0.817903    0.817903    0.000000    0.000000    0.000000
   41.183146    0.819505    0.819505    0.819505    0.000000    0.000000    0.000000
   41.310648    0.820493    0.820493    0.820493    0.000000    0.000000    0.000000
   41.438150    0.821345    0.821345    0.821345    0.000000    0.000000    0.000000
   41.565652    0.822680    0.822680    0.822680    0.000000    0.000000    0.000000
   41.693154    0.824207    0.824207    0.824207    0.000000    0.000000    0.000000
   41.820656    0.825811    0.825811    0.825811    0.000000    0.000000    0.000000
   41.948158    0.827566    0.827566    0.827566    0.000000    0.000000    0.000000
   42.075660    0.829216    0.829216    0.829216    0.000000    0.000000    0.000000
   42.203162    0.830525    0.830525    0.830525    0.000000    0.000000    0.000000
   42.330664    0.831494    0.831494    0.831494    0.000000    0.000000    0.000000
   42.458166    0.832491    0.832491    0.832491    0.000000    0.000000    0.000000
   42.585668    0.833766    0.833766    0.833766    0.000000    0.000000    0.000000
   42.713170    0.835251    0.835251    0.835251    0.000000    0.000000    0.000000
   42.840672    0.836385    0.836385    0.836385    0.000000    0.000000    0.000000
   42.968174    0.836324    0.836323    0.836324    0.000000    0.000000    0.000000
   43.095676    0.835404    0.835404    0.835404    0.000000    0.000000    0.000000
   43.223178    0.834719    0.834719    0.834719    0.000000    0.000000    0.000000
   43.350680    0.834836    0.834836    0.834836    0.000000    0.000000    0.000000
   43.478182    0.835863    0.835863    0.835863    0.000000    0.000000    0.000000
   43.605684    0.837619    0.837619    0.837619    0.000000    0.000000    0.000000
   43.733186    0.839676    0.839676    0.839676    0.000000    0.000000    0.000000
   43.860688    0.841490    0.841490    0.841490    0.000000    0.000000    0.000000
   43.988190    0.842848    0.842848    0.842848    0.000000    0.000000    0.000000
   44.115692    0.843682    0.843682    0.843682    0.000000    0.000000    0.000000
   44.243194    0.844071    0.844071    0.844071    0.000000    0.000000    0.000000
   44.370696    0.844609    0.844609    0.844609    0.000000    0.000000    0.000000
   44.498198    0.845721    0.845720    0.845721    0.000000    0.000000    0.000000
   44.625700    0.847135    0.847135    0.847135    0.000000    0.000000    0.000000
   44.753202    0.848485    0.848485    0.848485    0.000000    0.000000    0.000000
   44.880704    0.849678    0.849678    0.849678    0.000000    0.000000    0.000000
   45.008206    0.850634    0.850633    0.850633    0.000000    0.000000    0.000000
   45.135708    0.851242    0.851242    0.851242    0.000000    0.000000    0.000000
   45.263210    0.851647    0.851647    0.851647    0.000000    0.000000    0.000000
   45.390712    0.852245    0.852245    0.852245    0.000000    0.000000    0.000000
   45.518214    0.853068    0.853068    0.853068    0.000000    0.000000    0.000000
   45.645716    0.853972    0.853972    0.853972    0.000000    0.000000    0.000000
   45.773218    0.855031    0.855031    0.855031    0.000000    0.000000    0.000000
   45.900720    0.856250    0.856250    0.856250    0.000000    0.000000    0.000000
   46.028222    0.857468    0.857468    0.857468    0.000000    0.000000    0.000000
   46.155724    0.858678    0.858678    0.858678    0.000000    0.000000    0.000000
   46.283226    0.859869    0.859869    0.859869    0.000000    0.000000    0.000000
   46.410728    0.860786    0.860786    0.860786    0.000000    0.000000    0.000000
   46.538230    0.861270    0.861270    0.861270    0.000000    0.000000    0.000000
   46.665732    0.861552    0.861552    0.861552    0.000000    0.000000    0.000000
   46.793234    0.861954    0.861954    0.861954    0.000000    0.000000    0.000000
   46.920736    0.862533    0.862533    0.862533    0.000000    0.000000    0.000000
   47.048238    0.863315    0.863315    0.863315    0.000000    0.000000    0.000000
   47.175740    0.864322    0.864322    0.864322    0.000000    0.000000    0.000000
   47.303242    0.865386    0.865386    0.865386    0.000000    0.000000    0.000000
   47.430744    0.866341    0.866341    0.866341    0.000000    0.000000    0.000000
   47.558246    0.867140    0.867140    0.867140    0.000000    0.000000    0.000000
   47.685748    0.867915    0.867915    0.867915    0.000000    0.000000    0.000000
   47.813250    0.868828    0.868828    0.868828    0.000000    0.000000    0.000000
   47.940752    0.869771    0.869771    0.869771    0.000000    0.000000    0.000000
   48.068254    0.870574    0.870574    0.870574    0.000000    0.000000    0.000000
   48.195756    0.871219    0.871219    0.871219    0.000000    0.000000    0.000000
   48.323258    0.871750    0.871750    0.871750    0.000000    0.000000    0.000000
   48.450760    0.872334    0.872334    0.872334    0.000000    0.000000    0.000000
   48.578262    0.873091    0.873091    0.873091    0.000000    0.000000    0.000000
   48.705764    0.873929    0.873929    0.873929    0.000000    0.000000    0.000000
   48.833266    0.874755    0.874755    0.874755    0.000000    0.000000    0.000000
   48.960768    0.875494    0.875494    0.875494    0.000000    0.000000    0.000000
   49.088270    0.876099    0.876099    0.876099    0.000000    0.000000    0.000000
   49.215772    0.876689    0.876689    0.876689    0.000000    0.000000    0.000000
   49.343274    0.877379    0.877379    0.877379    0.000000    0.000000    0.000000
   49.470776    0.878123    0.878123    0.878123    0.000000    0.000000    0.000000
   49.598278    0.878875    0.878875    0.878875    0.000000    0.000000    0.000000
   49.725780    0.879632    0.879632    0.879632    0.000000    0.000000    0.000000
   49.853282    0.880360    0.880360    0.880360    0.000000    0.000000    0.000000
   49.980784    0.881036    0.881036    0.881036    0.000000    0.000000    0.000000
   50.108286    0.881697    0.881697    0.881697    0.000000    0.000000    0.000000
   50.235788    0.882382    0.882382    0.882382    0.000000    0.000000    0.000000
   50.363290    0.883080    0.883080    0.883080    0.000000    0.000000    0.000000
   50.490792    0.883772    0.883772    0.883772    0.000000    0.000000    0.000000
   50.618294    0.884442    0.884442    0.884442    0.000000    0.000000    0.000000
   50.745796    0.885067    0.885067    0.885067    0.000000    0.000000    0.000000
   50.873298    0.885657    0.885656    0.885656    0.000000    0.000000    0.000000
   51.000800    0.886256    0.886256    0.886256    0.000000    0.000000    0.000000
   51.128302    0.886879    0.886878    0.886879    0.000000    0.000000    0.000000
   51.255804    0.887498    0.887498    0.887498    0.000000    0.000000    0.000000
   51.383306    0.888113    0.888113    0.888113    0.000000    0.000000    0.000000
   51.510808    0.888727    0.888727    0.888727    0.000000    0.000000    0.000000
   51.638310    0.889338    0.889338    0.889338    0.000000    0.000000    0.000000
   51.765812    0.889943    0.889943    0.889943    0.000000    0.000000    0.000000
   51.893314    0.890543    0.890543    0.890543    0.000000    0.000000    0.000000
   52.020816    0.891135    0.891135    0.891135    0.000000    0.000000    0.000000
   52.148318    0.891708    0.891708    0.891708    0.000000    0.000000    0.000000
   52.275820    0.892252    0.892252    0.892252    0.000000    0.000000    0.000000
   52.403322    0.892784    0.892784    0.892784    0.000000    0.000000    0.000000
   52.530824    0.893331    0.893331    0.893331    0.000000    0.000000    0.000000
   52.658326    0.893890    0.893890    0.893890    0.000000    0.000000    0.000000
   52.785828    0.894450    0.894450    0.894450    0.000000    0.000000    0.000000
   52.913330    0.895002    0.895002    0.895002    0.000000    0.000000    0.000000
   53.040832    0.895547    0.895547    0.895547    0.000000    0.000000    0.000000
   53.168334    0.896087    0.896086    0.896087    0.000000    0.000000    0.000000
   53.295836    0.896620    0.896620    0.896620    0.000000    0.000000    0.000000
   53.423338    0.897149    0.897149    0.897149    0.000000    0.000000    0.000000
   53.550840    0.897672    0.897672    0.897672    0.000000    0.000000    0.000000
   53.678342    0.898191    0.898191    0.898191    0.000000    0.000000    0.000000
   53.805844    0.898706    0.898706    0.898706    0.000000    0.000000    0.000000
   53.933346    0.899216    0.899216    0.899216    0.000000    0.000000    0.000000
   54.060848    0.899721    0.899721    0.899721    0.000000    0.000000    0.000000
   54.188350    0.900223    0.900223    0.900223    0.000000    0.000000    0.000000
   54.315852    0.900720    0.900720    0.900720    0.000000    0.000000    0.000000
   54.443354    0.901213    0.901213    0.901213    0.000000    0.000000    0.000000
   54.570856    0.901702    0.901702    0.901702    0.000000    0.000000    0.000000
   54.698358    0.902187    0.902187    0.902187    0.000000    0.000000    0.000000
   54.825860    0.902668    0.902668    0.902668    0.000000    0.000000    0.000000
   54.953362    0.903145    0.903145    0.903145    0.000000    0.000000    0.000000
   55.080864    0.903619    0.903619    0.903619    0.000000    0.000000    0.000000
   55.208366    0.904089    0.904088    0.904089    0.000000    0.000000    0.000000
   55.335868    0.904554    0.904554    0.904554    0.000000    0.000000    0.000000
   55.463370    0.905017    0.905017    0.905017    0.000000    0.000000    0.000000
   55.590872    0.905476    0.905476    0.905476    0.000000    0.000000    0.000000
   55.718374    0.905931    0.905931    0.905931    0.000000    0.000000    0.000000
   55.845876    0.906382    0.906382    0.906382    0.000000    0.000000    0.000000
   55.973378    0.906831    0.906831    0.906831    0.000000    0.000000    0.000000
   56.100880    0.907275    0.907275    0.907275    0.000000    0.000000    0.000000
   56.228382    0.907717    0.907717    0.907717    0.000000    0.000000    0.000000
   56.355884    0.908155    0.908155    0.908155    0.000000    0.000000    0.000000
   56.483386    0.908590    0.908590    0.908590    0.000000    0.000000    0.000000
   56.610888    0.909021    0.909021    0.909021    0.000000    0.000000    0.000000
   56.738390    0.909450    0.909450    0.909450    0.000000    0.000000    0.000000
   56.865892    0.909875    0.909875    0.909875    0.000000    0.000000    0.000000
   56.993394    0.910297    0.910297    0.910297    0.000000    0.000000    0.000000
   57.120896    0.910716    0.910715    0.910716    0.000000    0.000000    0.000000
   57.248398    0.911131    0.911131    0.911131    0.000000    0.000000    0.000000
   57.375900    0.911544    0.911544    0.911544    0.000000    0.000000    0.000000
   57.503402    0.911954    0.911954    0.911954    0.000000    0.000000    0.000000
   57.630904    0.912360    0.912360    0.912360    0.000000    0.000000    0.000000
   57.758406    0.912764    0.912764    0.912764    0.000000    0.000000    0.000000
   57.885908    0.913165    0.913165    0.913165    0.000000    0.000000    0.000000
   58.013410    0.913563    0.913563    0.913563    0.000000    0.000000    0.000000
   58.140912    0.913958    0.913958    0.913958    0.000000    0.000000    0.000000
   58.268414    0.914350    0.914350    0.914350    0.000000    0.000000    0.000000
   58.395916    0.914740    0.914740    0.914740    0.000000    0.000000    0.000000
   58.523418    0.915127    0.915127    0.915127    0.000000    0.000000    0.000000
   58.650920    0.915511    0.915511    0.915511    0.000000    0.000000    0.000000
   58.778422    0.915892    0.915892    0.915892    0.000000    0.000000    0.000000
   58.905924    0.916271    0.916271    0.916271    0.000000    0.000000    0.000000
   59.033426    0.916647    0.916647    0.916647    0.000000    0.000000    0.000000
   59.160928    0.917020    0.917020    0.917020    0.000000    0.000000    0.000000
   59.288430    0.917391    0.917391    0.917391    0.000000    0.000000    0.000000
   59.415932    0.917759    0.917759    0.917759    0.000000    0.000000    0.000000
   59.543434    0.918125    0.918125    0.918125    0.000000    0.000000    0.000000
   59.670936    0.918488    0.918488    0.918488    0.000000    0.000000    0.000000
   59.798438    0.918848    0.918848    0.918848    0.000000    0.000000    0.000000
   59.925940    0.919207    0.919207    0.919207    0.000000    0.000000    0.000000
   60.053442    0.919562    0.919562    0.919562    0.000000    0.000000    0.000000
   60.180944    0.919916    0.919916    0.919916    0.000000    0.000000    0.000000
   60.308446    0.920266    0.920266    0.920266    0.000000    0.000000    0.000000
   60.435948    0.920615    0.920615    0.920615    0.000000    0.000000    0.000000
   60.563450    0.920961    0.920961    0.920961    0.000000    0.000000    0.000000
   60.690952    0.921305    0.921305    0.921305    0.000000    0.000000    0.000000
   60.818454    0.921647    0.921647    0.921647    0.000000    0.000000    0.000000
   60.945956    0.921986    0.921985    0.921986    0.000000    0.000000    0.000000
   61.073458    0.922323    0.922323    0.922323    0.000000    0.000000    0.000000
   61.200960    0.922657    0.922657    0.922657    0.000000    0.000000    0.000000
   61.328462    0.922990    0.922990    0.922990    0.000000    0.000000    0.000000
   61.455964    0.923320    0.923320    0.923320    0.000000    0.000000    0.000000
   61.583466    0.923648    0.923648    0.923648    0.000000    0.000000    0.000000
   61.710968    0.923975    0.923975    0.923975    0.000000    0.000000    0.000000
   61.838470    0.924298    0.924298    0.924298    0.000000    0.000000    0.000000
   61.965972    0.924620    0.924620    0.924620    0.000000    0.000000    0.000000
   62.093474    0.924939    0.924939    0.924939    0.000000    0.000000    0.000000
   62.220976    0.925257    0.925257    0.925257    0.000000    0.000000    0.000000
   62.348478    0.925572    0.925572    0.925572    0.000000    0.000000    0.000000
   62.475980    0.925886    0.925886    0.925886    0.000000    0.000000    0.000000
   62.603482    0.926197    0.926197    0.926197    0.000000    0.000000    0.000000
   62.730984    0.926507    0.926507    0.926507    0.000000    0.000000    0.000000
   62.858486    0.926814    0.926814    0.926814    0.000000    0.000000    0.000000
   62.985988    0.927120    0.927120    0.927120    0.000000    0.000000    0.000000
   63.113490    0.927423    0.927423    0.927423    0.000000    0.000000    0.000000
   63.240992    0.927725    0.927724    0.927725    0.000000    0.000000    0.000000
   63.368494    0.928024    0.928024    0.928024    0.000000    0.000000    0.000000
   63.495996    0.928322    0.928322    0.928322    0.000000    0.000000    0.000000
   63.623498    0.928618    0.928618    0.928618    0.000000    0.000000    0.000000
 
 The outermost node in the dielectric function lies at epsilon=  18.3


--------------------------------------------------------------------------------------------------------


    OPTICS:  cpu time   71.52: real time   72.13
    4ORBIT:  cpu time    0.00: real time    0.00
 


 total charge     
 
# of ion     s       p       d       tot
----------------------------------------
  1        0.761   0.946   0.000   1.707
  2        0.761   0.946   0.000   1.707
------------------------------------------------
tot        1.521   1.892   0.000   3.413
 


 magnetization (x)
 
# of ion     s       p       d       tot
----------------------------------------
  1        0.000   0.000   0.000   0.000
  2        0.000   0.000   0.000   0.000
------------------------------------------------
tot        0.000   0.000   0.000   0.000
 

 total amount of memory used by VASP on root node    50848. kBytes
========================================================================

   base      :      30000. kBytes
   nonl-proj :       4755. kBytes
   fftplans  :         93. kBytes
   grid      :        490. kBytes
   one-center:         12. kBytes
   HF        :         12. kBytes
   nonlr-proj:        666. kBytes
   wavefun   :      14820. kBytes
 
  
  
 General timing and accounting informations for this job:
 ========================================================
  
                  Total CPU time used (sec):    62705.410
                            User time (sec):    62662.812
                          System time (sec):       42.599
                         Elapsed time (sec):    63009.564
  
                   Maximum memory used (kb):      216228.
                   Average memory used (kb):           0.
  
                          Minor page faults:      7449780
                          Major page faults:            5
                 Voluntary context switches:          882
