<?xml version="1.0" encoding="ISO-8859-1"?>
<modeling>
 <generator>
  <i name="program" type="string">vasp </i>
  <i name="version" type="string">5.3.3  </i>
  <i name="subversion" type="string">18Dez12 (build Jan 30 2013 10:57:47) complex                          parallel </i>
  <i name="platform" type="string">LinuxIFC </i>
  <i name="date" type="string">2016 06 21 </i>
  <i name="time" type="string">10:50:28 </i>
 </generator>
 <incar>
  <i type="string" name="PREC">accurate</i>
  <i type="int" name="NELM">   400</i>
  <i type="int" name="IBRION">     2</i>
  <i name="EDIFF">      0.00000010</i>
  <i type="int" name="NSW">     1</i>
  <i name="ENCUT">    500.00000000</i>
  <i type="int" name="ISMEAR">     0</i>
  <i type="logical" name="LWAVE"> F  </i>
  <i type="logical" name="LCHARG"> F  </i>
  <i type="int" name="NELM">   400</i>
  <i type="string" name="GGA"> BO</i>
  <i name="PARAM1">      0.18333333</i>
  <i name="PARAM2">      0.22000000</i>
  <i type="logical" name="LUSE_VDW"> T  </i>
  <i name="AGGAC">      0.00000000</i>
 </incar>
 <kpoints>
  <generation param="Gamma">
   <v type="int" name="divisions">       3        3        3 </v>
   <v name="usershift">      0.00000000       0.00000000       0.00000000 </v>
   <v name="genvec1">      0.33333333       0.00000000       0.00000000 </v>
   <v name="genvec2">      0.00000000       0.33333333       0.00000000 </v>
   <v name="genvec3">      0.00000000       0.00000000       0.33333333 </v>
   <v name="shift">      0.00000000       0.00000000       0.00000000 </v>
  </generation>
  <varray name="kpointlist" >
   <v>       0.00000000       0.00000000       0.00000000 </v>
   <v>       0.33333333       0.00000000       0.00000000 </v>
   <v>       0.33333333       0.33333333       0.00000000 </v>
   <v>      -0.33333333       0.33333333       0.00000000 </v>
  </varray>
  <varray name="weights" >
   <v>       0.03703704 </v>
   <v>       0.29629630 </v>
   <v>       0.22222222 </v>
   <v>       0.44444444 </v>
  </varray>
 </kpoints>
 <parameters>
  <separator name="general" >
   <i type="string" name="SYSTEM">unknown system</i>
   <i type="logical" name="LCOMPAT"> F  </i>
  </separator>
  <separator name="electronic" >
   <i type="string" name="PREC">accura</i>
   <i name="ENMAX">    500.00000000</i>
   <i name="ENAUG">    322.06900000</i>
   <i name="EDIFF">      0.00000010</i>
   <i type="int" name="IALGO">    38</i>
   <i type="int" name="IWAVPR">    11</i>
   <i type="int" name="NBANDS">     8</i>
   <i name="NELECT">      8.00000000</i>
   <i type="int" name="TURBO">     0</i>
   <i type="int" name="IRESTART">     0</i>
   <i type="int" name="NREBOOT">     0</i>
   <i type="int" name="NMIN">     0</i>
   <i name="EREF">      0.00000000</i>
   <separator name="electronic smearing" >
    <i type="int" name="ISMEAR">     0</i>
    <i name="SIGMA">      0.20000000</i>
    <i name="KSPACING">      0.50000000</i>
    <i type="logical" name="KGAMMA"> T  </i>
   </separator>
   <separator name="electronic projectors" >
    <i type="logical" name="LREAL"> F  </i>
    <v name="ROPT">      0.00000000</v>
    <i type="int" name="LMAXPAW">  -100</i>
    <i type="int" name="LMAXMIX">     2</i>
    <i type="logical" name="NLSPLINE"> F  </i>
   </separator>
   <separator name="electronic startup" >
    <i type="int" name="ISTART">     0</i>
    <i type="int" name="ICHARG">     2</i>
    <i type="int" name="INIWAV">     1</i>
   </separator>
   <separator name="electronic spin" >
    <i type="int" name="ISPIN">     1</i>
    <i type="logical" name="LNONCOLLINEAR"> F  </i>
    <v name="MAGMOM">      1.00000000      1.00000000</v>
    <i name="NUPDOWN">     -1.00000000</i>
    <i type="logical" name="LSORBIT"> F  </i>
    <v name="SAXIS">      0.00000000      0.00000000      1.00000000</v>
    <i type="logical" name="LSPIRAL"> F  </i>
    <v name="QSPIRAL">      0.00000000      0.00000000      0.00000000</v>
    <i type="logical" name="LZEROZ"> F  </i>
   </separator>
   <separator name="electronic exchange-correlation" >
    <i type="logical" name="LASPH"> F  </i>
    <i type="logical" name="LMETAGGA"> F  </i>
   </separator>
   <separator name="electronic convergence" >
    <i type="int" name="NELM">   400</i>
    <i type="int" name="NELMDL">    -5</i>
    <i type="int" name="NELMIN">     2</i>
    <i name="ENINI">    500.00000000</i>
    <separator name="electronic convergence detail" >
     <i type="logical" name="LDIAG"> T  </i>
     <i type="logical" name="LSUBROT"> T  </i>
     <i name="WEIMIN">      0.00100000</i>
     <i name="EBREAK">      0.00000000</i>
     <i name="DEPER">      0.30000000</i>
     <i type="int" name="NRMM">     4</i>
     <i name="TIME">      0.40000000</i>
    </separator>
   </separator>
   <separator name="electronic mixer" >
    <i name="AMIX">      0.40000000</i>
    <i name="BMIX">      1.00000000</i>
    <i name="AMIN">      0.10000000</i>
    <i name="AMIX_MAG">      1.60000000</i>
    <i name="BMIX_MAG">      1.00000000</i>
    <separator name="electronic mixer details" >
     <i type="int" name="IMIX">     4</i>
     <i type="int" name="MAXMIX">   -45</i>
     <i name="WC">    100.00000000</i>
     <i type="int" name="INIMIX">     1</i>
     <i type="int" name="MIXPRE">     1</i>
     <i type="int" name="MREMOVE">     5</i>
    </separator>
   </separator>
   <separator name="electronic dipolcorrection" >
    <i type="logical" name="LDIPOL"> F  </i>
    <i type="logical" name="LMONO"> F  </i>
    <i type="int" name="IDIPOL">     0</i>
    <i name="EPSILON">      1.00000000</i>
    <v name="DIPOL">   -100.00000000   -100.00000000   -100.00000000</v>
    <i name="EFIELD">      0.00000000</i>
   </separator>
  </separator>
  <separator name="grids" >
   <i type="int" name="NGX">    28</i>
   <i type="int" name="NGY">    28</i>
   <i type="int" name="NGZ">    28</i>
   <i type="int" name="NGXF">    56</i>
   <i type="int" name="NGYF">    56</i>
   <i type="int" name="NGZF">    56</i>
   <i type="logical" name="ADDGRID"> F  </i>
  </separator>
  <separator name="ionic" >
   <i type="int" name="NSW">     1</i>
   <i type="int" name="IBRION">     2</i>
   <i type="int" name="ISIF">     2</i>
   <i name="PSTRESS">      0.00000000</i>
   <i name="EDIFFG">      0.00000100</i>
   <i type="int" name="NFREE">     1</i>
   <i name="POTIM">      0.50000000</i>
   <i name="SMASS">     -3.00000000</i>
   <i name="SCALEE">      1.00000000</i>
  </separator>
  <separator name="ionic md" >
   <i name="TEBEG">      0.00010000</i>
   <i name="TEEND">      0.00010000</i>
   <i type="int" name="NBLOCK">     1</i>
   <i type="int" name="KBLOCK">     1</i>
   <i type="int" name="NPACO">   256</i>
   <i name="APACO">     16.00000000</i>
  </separator>
  <separator name="symmetry" >
   <i type="int" name="ISYM">     2</i>
   <i name="SYMPREC">      0.00001000</i>
  </separator>
  <separator name="dos" >
   <i type="logical" name="LORBIT"> F  </i>
   <v name="RWIGS">     -1.00000000</v>
   <i type="int" name="NEDOS">   301</i>
   <i name="EMIN">     10.00000000</i>
   <i name="EMAX">    -10.00000000</i>
   <i name="EFERMI">      0.00000000</i>
  </separator>
  <separator name="writing" >
   <i type="int" name="NWRITE">     2</i>
   <i type="logical" name="LWAVE"> F  </i>
   <i type="logical" name="LCHARG"> F  </i>
   <i type="logical" name="LPARD"> F  </i>
   <i type="logical" name="LVTOT"> F  </i>
   <i type="logical" name="LVHAR"> F  </i>
   <i type="logical" name="LELF"> F  </i>
   <i type="logical" name="LOPTICS"> F  </i>
   <v name="STM">      0.00000000      0.00000000      0.00000000      0.00000000      0.00000000      0.00000000      0.00000000</v>
  </separator>
  <separator name="performance" >
   <i type="int" name="NPAR">     4</i>
   <i type="int" name="NSIM">     4</i>
   <i type="int" name="NBLK">    -1</i>
   <i type="logical" name="LPLANE"> T  </i>
   <i type="logical" name="LSCALAPACK"> F  </i>
   <i type="logical" name="LSCAAWARE"> F  </i>
   <i type="logical" name="LSCALU"> F  </i>
   <i type="logical" name="LASYNC"> F  </i>
   <i type="logical" name="LORBITALREAL"> F  </i>
  </separator>
  <separator name="miscellaneous" >
   <i type="int" name="IDIOT">     3</i>
   <i type="logical" name="LMUSIC"> F  </i>
   <v name="POMASS">     28.08500000</v>
   <v name="DARWINR">      0.00000000</v>
   <v name="DARWINV">      1.00000000</v>
   <i type="logical" name="LCORR"> T  </i>
  </separator>
  <i type="logical" name="GGA_COMPAT"> T  </i>
  <i type="logical" name="LBERRY"> F  </i>
  <i type="int" name="ICORELEVEL">     0</i>
  <i type="logical" name="LDAU"> F  </i>
  <i type="int" name="I_CONSTRAINED_M">     0</i>
  <separator name="electronic exchange-correlation" >
   <i type="string" name="GGA">BO</i>
   <i type="int" name="VOSKOWN">     0</i>
   <i type="logical" name="LHFCALC"> F  </i>
   <i type="string" name="PRECFOCK"></i>
   <i type="logical" name="LSYMGRAD"> F  </i>
   <i type="logical" name="LHFONE"> F  </i>
   <i type="logical" name="LRHFCALC"> F  </i>
   <i type="logical" name="LTHOMAS"> F  </i>
   <i type="logical" name="LMODELHF"> F  </i>
   <i name="ENCUT4O">     -1.00000000</i>
   <i type="int" name="EXXOEP">     0</i>
   <i type="int" name="FOURORBIT">     0</i>
   <i name="AEXX">      0.00000000</i>
   <i name="HFALPHA">      0.00000000</i>
   <i name="MCALPHA">      0.00000000</i>
   <i name="ALDAX">      1.00000000</i>
   <i name="AGGAX">      1.00000000</i>
   <i name="ALDAC">      1.00000000</i>
   <i name="AGGAC">      0.00000000</i>
   <i type="int" name="NKREDX">     1</i>
   <i type="int" name="NKREDY">     1</i>
   <i type="int" name="NKREDZ">     1</i>
   <i type="logical" name="SHIFTRED"> F  </i>
   <i type="logical" name="ODDONLY"> F  </i>
   <i type="logical" name="EVENONLY"> F  </i>
   <i type="int" name="LMAXFOCK">     0</i>
   <i type="int" name="NMAXFOCKAE">     0</i>
   <i type="logical" name="LFOCKAEDFT"> F  </i>
   <i name="HFSCREEN">      0.00000000</i>
   <i name="HFSCREENC">      0.00000000</i>
   <i type="int" name="NBANDSGWLOW">     0</i>
  </separator>
  <separator name="vdW DFT" >
   <i type="logical" name="LUSE_VDW"> T  </i>
   <i name="Zab_VDW">     -0.84910000</i>
   <i name="PARAM1">      0.18333333</i>
   <i name="PARAM2">      0.22000000</i>
   <i name="PARAM3">      0.00000000</i>
  </separator>
  <separator name="model GW" >
   <i type="int" name="MODEL_GW">     0</i>
   <i name="MODEL_EPS0">     12.26648953</i>
   <i name="MODEL_ALPHA">      1.00000000</i>
  </separator>
  <separator name="linear response parameters" >
   <i type="logical" name="LEPSILON"> F  </i>
   <i type="logical" name="LRPA"> F  </i>
   <i type="logical" name="LNABLA"> F  </i>
   <i type="logical" name="LVEL"> F  </i>
   <i type="int" name="KINTER">     0</i>
   <i name="CSHIFT">      0.10000000</i>
   <i name="OMEGAMAX">     -1.00000000</i>
   <i name="DEG_THRESHOLD">      0.00200000</i>
  </separator>
  <separator name="orbital magnetization" >
   <i type="logical" name="NUCIND"> F  </i>
   <v name="MAGPOS">      0.00000000      0.00000000      0.00000000</v>
   <i type="logical" name="LNICSALL"> T  </i>
   <i type="logical" name="ORBITALMAG"> F  </i>
   <i type="logical" name="LMAGBLOCH"> F  </i>
   <i type="logical" name="LCHIMAG"> F  </i>
   <i type="logical" name="LGAUGE"> T  </i>
   <i type="int" name="MAGATOM">     0</i>
   <v name="MAGDIPOL">      0.00000000      0.00000000      0.00000000</v>
   <v name="AVECCONST">      0.00000000      0.00000000      0.00000000</v>
  </separator>
  <separator name="response functions" >
   <i type="logical" name="LADDER"> F  </i>
   <i type="logical" name="LFXC"> F  </i>
   <i type="logical" name="LHARTREE"> T  </i>
   <i type="int" name="IBSE">     0</i>
   <i type="logical" name="LTCTE"> F  </i>
   <i type="logical" name="LTETE"> F  </i>
   <i type="logical" name="LTRIPLET"> F  </i>
   <i type="logical" name="LFXCEPS"> F  </i>
   <i type="logical" name="L2ORDER"> F  </i>
   <i type="logical" name="LUSEW"> F  </i>
   <i name="ENCUTGW">     -2.00000000</i>
   <i name="ENCUTGWSOFT">     -2.00000000</i>
   <i name="ENCUTLF">     -1.00000000</i>
   <i type="int" name="LMAXMP2">    -1</i>
   <i name="SCISSOR">      0.00000000</i>
   <i type="int" name="NOMEGA">     0</i>
   <i type="int" name="NOMEGAR">     0</i>
   <i type="int" name="NBANDSGW">    -1</i>
   <i type="int" name="NBANDSO">    -1</i>
   <i type="int" name="NBANDSV">    -1</i>
   <i type="int" name="NELM">   400</i>
   <i type="int" name="DIM">     3</i>
   <i type="int" name="ANTIRES">     0</i>
   <i name="OMEGAMAX">    -30.00000000</i>
   <i name="OMEGATL">   -200.00000000</i>
   <i type="int" name="OMEGAGRID">     0</i>
   <i name="CSHIFT">     -0.10000000</i>
   <i type="logical" name="SELFENERGY"> F  </i>
   <i type="logical" name="LSPECTRAL"> F  </i>
   <i type="logical" name="ODDONLYGW"> F  </i>
   <i type="logical" name="EVENONLYGW"> F  </i>
   <i type="int" name="NKREDLFX">     1</i>
   <i type="int" name="NKREDLFY">     1</i>
   <i type="int" name="NKREDLFZ">     1</i>
   <i type="int" name="MAXMEM">  1800</i>
   <i type="int" name="TELESCOPE">     0</i>
  </separator>
 </parameters>
 <atominfo>
  <atoms>       2 </atoms>
  <types>       1 </types>
  <array name="atoms" >
   <dimension dim="1">ion</dimension>
   <field type="string">element</field>
   <field type="int">atomtype</field>
   <set>
    <rc><c>Si</c><c>   1</c></rc>
    <rc><c>Si</c><c>   1</c></rc>
   </set>
  </array>
  <array name="atomtypes" >
   <dimension dim="1">type</dimension>
   <field type="int">atomspertype</field>
   <field type="string">element</field>
   <field>mass</field>
   <field>valence</field>
   <field type="string">pseudopotential</field>
   <set>
    <rc><c>   2</c><c>Si</c><c>     28.08500000</c><c>      4.00000000</c><c>  PAW_PBE Si 05Jan2001                  </c></rc>
   </set>
  </array>
 </atominfo>
 <structure name="initialpos" >
  <crystal>
   <varray name="basis" >
    <v>       3.34889800       0.00000000       1.93348700 </v>
    <v>       1.11629900       3.15737200       1.93348700 </v>
    <v>       0.00000000       0.00000000       3.86697500 </v>
   </varray>
   <i name="volume">     40.88829843 </i>
   <varray name="rec_basis" >
    <v>       0.29860569      -0.10557300       0.00000000 </v>
    <v>       0.00000000       0.31671909       0.00000000 </v>
    <v>      -0.14930281      -0.10557302       0.25860007 </v>
   </varray>
  </crystal>
  <varray name="positions" >
   <v>       0.87500000       0.87500000       0.87500000 </v>
   <v>       0.12500000       0.12500000       0.12500000 </v>
  </varray>
 </structure>
 <calculation>
  <scstep>
   <time name="dav">    0.04    0.04</time>
   <time name="total">    2.57    4.85</time>
   <energy>
    <i name="alphaZ">      3.29317992 </i>
    <i name="ewald">   -226.94489173 </i>
    <i name="hartreedc">    -11.32339116 </i>
    <i name="XCdc">    -20.24410377 </i>
    <i name="pawpsdc">    189.40224250 </i>
    <i name="pawaedc">   -152.61488262 </i>
    <i name="eentropy">     -0.01455554 </i>
    <i name="bandstr">     19.55777777 </i>
    <i name="atom">    208.59373829 </i>
    <i name="e_fr_energy">      9.70511365 </i>
    <i name="e_wo_entrp">      9.71966919 </i>
    <i name="e_0_energy">      9.71239142 </i>
   </energy>
  </scstep>
  <scstep>
   <time name="dav">    0.06    0.06</time>
   <time name="total">    0.06    0.58</time>
   <energy>
    <i name="e_fr_energy">     -7.63598359 </i>
    <i name="e_wo_entrp">     -7.63594722 </i>
    <i name="e_0_energy">     -7.63596540 </i>
   </energy>
  </scstep>
  <scstep>
   <time name="dav">    0.03    0.03</time>
   <time name="total">    0.04    0.34</time>
   <energy>
    <i name="e_fr_energy">     -7.87307236 </i>
    <i name="e_wo_entrp">     -7.87305179 </i>
    <i name="e_0_energy">     -7.87306208 </i>
   </energy>
  </scstep>
  <scstep>
   <time name="dav">    0.06    0.07</time>
   <time name="total">    0.07    0.28</time>
   <energy>
    <i name="e_fr_energy">     -7.87510572 </i>
    <i name="e_wo_entrp">     -7.87508518 </i>
    <i name="e_0_energy">     -7.87509545 </i>
   </energy>
  </scstep>
  <scstep>
   <time name="dav">    0.04    0.04</time>
   <time name="total">    0.08    0.44</time>
   <energy>
    <i name="e_fr_energy">     -7.87510675 </i>
    <i name="e_wo_entrp">     -7.87508621 </i>
    <i name="e_0_energy">     -7.87509648 </i>
   </energy>
  </scstep>
  <scstep>
   <time name="dav">    0.04    0.04</time>
   <time name="total">    1.09    1.82</time>
   <energy>
    <i name="e_fr_energy">     -7.78914005 </i>
    <i name="e_wo_entrp">     -7.78902706 </i>
    <i name="e_0_energy">     -7.78908355 </i>
   </energy>
  </scstep>
  <scstep>
   <time name="dav">    0.04    0.04</time>
   <time name="total">    1.10    1.56</time>
   <energy>
    <i name="e_fr_energy">     -7.76730241 </i>
    <i name="e_wo_entrp">     -7.76622573 </i>
    <i name="e_0_energy">     -7.76676407 </i>
   </energy>
  </scstep>
  <scstep>
   <time name="dav">    0.06    0.05</time>
   <time name="total">    1.10    1.49</time>
   <energy>
    <i name="e_fr_energy">     -7.74866847 </i>
    <i name="e_wo_entrp">     -7.74794502 </i>
    <i name="e_0_energy">     -7.74830675 </i>
   </energy>
  </scstep>
  <scstep>
   <time name="dav">    0.06    0.05</time>
   <time name="total">    1.10    2.10</time>
   <energy>
    <i name="e_fr_energy">     -7.75040912 </i>
    <i name="e_wo_entrp">     -7.74960470 </i>
    <i name="e_0_energy">     -7.75000691 </i>
   </energy>
  </scstep>
  <scstep>
   <time name="dav">    0.04    0.04</time>
   <time name="total">    1.11    1.91</time>
   <energy>
    <i name="e_fr_energy">     -7.74967754 </i>
    <i name="e_wo_entrp">     -7.74889852 </i>
    <i name="e_0_energy">     -7.74928803 </i>
   </energy>
  </scstep>
  <scstep>
   <time name="dav">    0.05    0.05</time>
   <time name="total">    1.63    2.93</time>
   <energy>
    <i name="e_fr_energy">     -7.74958027 </i>
    <i name="e_wo_entrp">     -7.74880011 </i>
    <i name="e_0_energy">     -7.74919019 </i>
   </energy>
  </scstep>
  <scstep>
   <time name="dav">    0.04    0.04</time>
   <time name="total">    1.07    3.67</time>
   <energy>
    <i name="e_fr_energy">     -7.74958747 </i>
    <i name="e_wo_entrp">     -7.74880790 </i>
    <i name="e_0_energy">     -7.74919768 </i>
   </energy>
  </scstep>
  <scstep>
   <time name="dav">    0.04    0.04</time>
   <time name="total">    1.10    5.26</time>
   <energy>
    <i name="e_fr_energy">     -7.74958779 </i>
    <i name="e_wo_entrp">     -7.74880843 </i>
    <i name="e_0_energy">     -7.74919811 </i>
   </energy>
  </scstep>
  <scstep>
   <time name="dav">    0.03    0.03</time>
   <time name="total">    1.07    1.45</time>
   <energy>
    <i name="e_fr_energy">     -7.74958727 </i>
    <i name="e_wo_entrp">     -7.74880790 </i>
    <i name="e_0_energy">     -7.74919759 </i>
   </energy>
  </scstep>
  <scstep>
   <time name="dav">    0.03    0.03</time>
   <time name="total">    1.06    2.06</time>
   <energy>
    <i name="e_fr_energy">     -7.74958687 </i>
    <i name="e_wo_entrp">     -7.74880751 </i>
    <i name="e_0_energy">     -7.74919719 </i>
   </energy>
  </scstep>
  <scstep>
   <time name="dav">    0.03    0.03</time>
   <time name="total">    1.04    1.50</time>
   <energy>
    <i name="e_fr_energy">     -7.74958699 </i>
    <i name="e_wo_entrp">     -7.74880762 </i>
    <i name="e_0_energy">     -7.74919731 </i>
   </energy>
  </scstep>
  <scstep>
   <time name="dav">    0.02    0.02</time>
   <time name="total">    1.05    1.93</time>
   <energy>
    <i name="alphaZ">      3.29317992 </i>
    <i name="ewald">   -226.94489173 </i>
    <i name="hartreedc">    -16.13024922 </i>
    <i name="XCdc">    -19.47380187 </i>
    <i name="pawpsdc">    551.30010789 </i>
    <i name="pawaedc">   -514.78196063 </i>
    <i name="eentropy">     -0.00077936 </i>
    <i name="bandstr">      6.39506972 </i>
    <i name="atom">    208.59373829 </i>
    <i name="e_fr_energy">     -7.74958699 </i>
    <i name="e_wo_entrp">     -7.74880763 </i>
    <i name="e_0_energy">     -7.74919731 </i>
   </energy>
  </scstep>
  <structure>
   <crystal>
    <varray name="basis" >
     <v>       3.34889800       0.00000000       1.93348700 </v>
     <v>       1.11629900       3.15737200       1.93348700 </v>
     <v>       0.00000000       0.00000000       3.86697500 </v>
    </varray>
    <i name="volume">     40.88829843 </i>
    <varray name="rec_basis" >
     <v>       0.29860569      -0.10557300       0.00000000 </v>
     <v>       0.00000000       0.31671909       0.00000000 </v>
     <v>      -0.14930281      -0.10557302       0.25860007 </v>
    </varray>
   </crystal>
   <varray name="positions" >
    <v>       0.87500000       0.87500000       0.87500000 </v>
    <v>       0.12500000       0.12500000       0.12500000 </v>
   </varray>
  </structure>
  <varray name="forces" >
   <v>       0.00000000       0.00000000       0.00000000 </v>
   <v>       0.00000000       0.00000000       0.00000000 </v>
  </varray>
  <varray name="stress" >
   <v>      28.99510592      -0.00000306      -0.00000433 </v>
   <v>      -0.00000306      28.99511852      -0.00000306 </v>
   <v>      -0.00000433      -0.00000306      28.99511606 </v>
  </varray>
  <energy>
   <i name="e_fr_energy">     -7.74958699 </i>
   <i name="e_wo_entrp">     -7.74919731 </i>
   <i name="e_0_energy">     -0.00077936 </i>
  </energy>
  <time name="totalsc">   18.59   38.36</time>
  <eigenvalues>
   <array>
    <dimension dim="1">band</dimension>
    <dimension dim="2">kpoint</dimension>
    <dimension dim="3">spin</dimension>
    <field>eigene</field>
    <field>occ</field>
    <set>
     <set comment="spin 1">
      <set comment="kpoint 1">
       <r>   -6.0676    1.0000 </r>
       <r>    5.6939    0.9960 </r>
       <r>    5.6939    0.9960 </r>
       <r>    5.6939    0.9960 </r>
       <r>    8.2803    0.0000 </r>
       <r>    8.2803    0.0000 </r>
       <r>    8.2803    0.0000 </r>
       <r>    8.9381    0.0000 </r>
      </set>
      <set comment="kpoint 2">
       <r>   -4.7164    1.0000 </r>
       <r>    0.4601    1.0000 </r>
       <r>    4.7210    1.0000 </r>
       <r>    4.7210    1.0000 </r>
       <r>    7.4410    0.0000 </r>
       <r>    9.2157    0.0000 </r>
       <r>    9.2157    0.0000 </r>
       <r>   13.4974    0.0000 </r>
      </set>
      <set comment="kpoint 3">
       <r>   -4.1974    1.0000 </r>
       <r>    0.7541    1.0000 </r>
       <r>    3.3406    1.0000 </r>
       <r>    3.3406    1.0000 </r>
       <r>    6.4748    0.0020 </r>
       <r>    7.7305    0.0000 </r>
       <r>   12.8799    0.0000 </r>
       <r>   12.8799    0.0000 </r>
      </set>
      <set comment="kpoint 4">
       <r>   -2.8672    1.0000 </r>
       <r>   -0.9691    1.0000 </r>
       <r>    1.3975    1.0000 </r>
       <r>    3.6384    1.0000 </r>
       <r>    7.3026    0.0000 </r>
       <r>   11.4622    0.0000 </r>
       <r>   12.1325    0.0000 </r>
       <r>   12.6842    0.0000 </r>
      </set>
     </set>
    </set>
   </array>
  </eigenvalues>
  <separator name="orbital magnetization" >
   <v name="MAGDIPOLOUT">      0.00000000      0.00000000      0.00000000</v>
  </separator>
  <dos>
   <i name="efermi">      6.06833816 </i>
   <total>
    <array>
     <dimension dim="1">gridpoints</dimension>
     <dimension dim="2">spin</dimension>
     <field>energy</field>
     <field>total</field>
     <field>integrated</field>
     <set>
      <set comment="spin 1">
       <r>    -8.0676     0.0000     0.0000 </r>
       <r>    -7.9890     0.0000     0.0000 </r>
       <r>    -7.9105     0.0000     0.0000 </r>
       <r>    -7.8319     0.0000     0.0000 </r>
       <r>    -7.7534     0.0000     0.0000 </r>
       <r>    -7.6748     0.0000     0.0000 </r>
       <r>    -7.5963     0.0000     0.0000 </r>
       <r>    -7.5177     0.0000     0.0000 </r>
       <r>    -7.4392     0.0000     0.0000 </r>
       <r>    -7.3606     0.0000     0.0000 </r>
       <r>    -7.2821     0.0000     0.0000 </r>
       <r>    -7.2035     0.0000     0.0000 </r>
       <r>    -7.1250     0.0000     0.0000 </r>
       <r>    -7.0464     0.0000     0.0000 </r>
       <r>    -6.9679     0.0000     0.0000 </r>
       <r>    -6.8893     0.0000     0.0000 </r>
       <r>    -6.8108     0.0000     0.0000 </r>
       <r>    -6.7322     0.0000     0.0000 </r>
       <r>    -6.6537     0.0000     0.0000 </r>
       <r>    -6.5751     0.0001     0.0000 </r>
       <r>    -6.4966     0.0010     0.0001 </r>
       <r>    -6.4180     0.0051     0.0005 </r>
       <r>    -6.3395     0.0195     0.0020 </r>
       <r>    -6.2609     0.0552     0.0064 </r>
       <r>    -6.1824     0.1157     0.0154 </r>
       <r>    -6.1038     0.1795     0.0295 </r>
       <r>    -6.0253     0.2063     0.0457 </r>
       <r>    -5.9467     0.1754     0.0595 </r>
       <r>    -5.8682     0.1105     0.0682 </r>
       <r>    -5.7896     0.0515     0.0722 </r>
       <r>    -5.7111     0.0178     0.0736 </r>
       <r>    -5.6325     0.0045     0.0740 </r>
       <r>    -5.5540     0.0009     0.0741 </r>
       <r>    -5.4754     0.0001     0.0741 </r>
       <r>    -5.3969     0.0000     0.0741 </r>
       <r>    -5.3183     0.0001     0.0741 </r>
       <r>    -5.2398     0.0007     0.0741 </r>
       <r>    -5.1612     0.0054     0.0746 </r>
       <r>    -5.0827     0.0300     0.0769 </r>
       <r>    -5.0041     0.1219     0.0865 </r>
       <r>    -4.9256     0.3668     0.1153 </r>
       <r>    -4.8470     0.8169     0.1795 </r>
       <r>    -4.7685     1.3470     0.2853 </r>
       <r>    -4.6899     1.6451     0.4145 </r>
       <r>    -4.6114     1.4937     0.5318 </r>
       <r>    -4.5328     1.0340     0.6130 </r>
       <r>    -4.4543     0.6380     0.6632 </r>
       <r>    -4.3757     0.5708     0.7080 </r>
       <r>    -4.2972     0.8217     0.7725 </r>
       <r>    -4.2186     1.1420     0.8622 </r>
       <r>    -4.1401     1.2295     0.9588 </r>
       <r>    -4.0615     0.9863     1.0363 </r>
       <r>    -3.9830     0.5862     1.0823 </r>
       <r>    -3.9044     0.2579     1.1026 </r>
       <r>    -3.8259     0.0840     1.1092 </r>
       <r>    -3.7473     0.0202     1.1108 </r>
       <r>    -3.6688     0.0036     1.1111 </r>
       <r>    -3.5902     0.0005     1.1111 </r>
       <r>    -3.5117     0.0001     1.1111 </r>
       <r>    -3.4331     0.0003     1.1111 </r>
       <r>    -3.3546     0.0029     1.1114 </r>
       <r>    -3.2760     0.0185     1.1128 </r>
       <r>    -3.1975     0.0887     1.1198 </r>
       <r>    -3.1189     0.3143     1.1445 </r>
       <r>    -3.0404     0.8240     1.2092 </r>
       <r>    -2.9618     1.5992     1.3348 </r>
       <r>    -2.8833     2.2975     1.5153 </r>
       <r>    -2.8047     2.4435     1.7072 </r>
       <r>    -2.7262     1.9239     1.8583 </r>
       <r>    -2.6476     1.1214     1.9464 </r>
       <r>    -2.5691     0.4838     1.9844 </r>
       <r>    -2.4905     0.1545     1.9966 </r>
       <r>    -2.4120     0.0365     1.9994 </r>
       <r>    -2.3334     0.0064     1.9999 </r>
       <r>    -2.2549     0.0008     2.0000 </r>
       <r>    -2.1763     0.0001     2.0000 </r>
       <r>    -2.0978     0.0000     2.0000 </r>
       <r>    -2.0192     0.0000     2.0000 </r>
       <r>    -1.9407     0.0000     2.0000 </r>
       <r>    -1.8621     0.0000     2.0000 </r>
       <r>    -1.7836     0.0000     2.0000 </r>
       <r>    -1.7050     0.0000     2.0000 </r>
       <r>    -1.6265     0.0000     2.0000 </r>
       <r>    -1.5479     0.0002     2.0000 </r>
       <r>    -1.4694     0.0020     2.0002 </r>
       <r>    -1.3908     0.0139     2.0013 </r>
       <r>    -1.3123     0.0700     2.0068 </r>
       <r>    -1.2337     0.2607     2.0273 </r>
       <r>    -1.1552     0.7182     2.0837 </r>
       <r>    -1.0766     1.4644     2.1987 </r>
       <r>    -0.9981     2.2100     2.3723 </r>
       <r>    -0.9195     2.4693     2.5663 </r>
       <r>    -0.8410     2.0425     2.7267 </r>
       <r>    -0.7624     1.2507     2.8249 </r>
       <r>    -0.6839     0.5669     2.8695 </r>
       <r>    -0.6053     0.1902     2.8844 </r>
       <r>    -0.5268     0.0472     2.8881 </r>
       <r>    -0.4482     0.0087     2.8888 </r>
       <r>    -0.3697     0.0012     2.8889 </r>
       <r>    -0.2911     0.0001     2.8889 </r>
       <r>    -0.2126     0.0000     2.8889 </r>
       <r>    -0.1340     0.0001     2.8889 </r>
       <r>    -0.0555     0.0009     2.8890 </r>
       <r>     0.0231     0.0065     2.8895 </r>
       <r>     0.1016     0.0349     2.8922 </r>
       <r>     0.1802     0.1380     2.9031 </r>
       <r>     0.2587     0.4038     2.9348 </r>
       <r>     0.3373     0.8781     3.0038 </r>
       <r>     0.4158     1.4309     3.1161 </r>
       <r>     0.4944     1.7895     3.2567 </r>
       <r>     0.5729     1.8251     3.4001 </r>
       <r>     0.6515     1.6968     3.5334 </r>
       <r>     0.7300     1.5737     3.6570 </r>
       <r>     0.8086     1.3915     3.7663 </r>
       <r>     0.8871     1.0431     3.8482 </r>
       <r>     0.9657     0.6198     3.8969 </r>
       <r>     1.0442     0.3262     3.9225 </r>
       <r>     1.1228     0.3121     3.9470 </r>
       <r>     1.2013     0.6628     3.9991 </r>
       <r>     1.2799     1.3629     4.1062 </r>
       <r>     1.3584     2.1324     4.2737 </r>
       <r>     1.4370     2.4757     4.4681 </r>
       <r>     1.5155     2.1283     4.6353 </r>
       <r>     1.5941     1.3546     4.7417 </r>
       <r>     1.6726     0.6382     4.7918 </r>
       <r>     1.7512     0.2225     4.8093 </r>
       <r>     1.8297     0.0574     4.8138 </r>
       <r>     1.9083     0.0110     4.8147 </r>
       <r>     1.9868     0.0015     4.8148 </r>
       <r>     2.0654     0.0002     4.8148 </r>
       <r>     2.1439     0.0000     4.8148 </r>
       <r>     2.2225     0.0000     4.8148 </r>
       <r>     2.3010     0.0000     4.8148 </r>
       <r>     2.3796     0.0000     4.8148 </r>
       <r>     2.4581     0.0000     4.8148 </r>
       <r>     2.5367     0.0000     4.8148 </r>
       <r>     2.6152     0.0000     4.8148 </r>
       <r>     2.6938     0.0000     4.8148 </r>
       <r>     2.7723     0.0003     4.8148 </r>
       <r>     2.8509     0.0027     4.8151 </r>
       <r>     2.9294     0.0176     4.8164 </r>
       <r>     3.0080     0.0850     4.8231 </r>
       <r>     3.0865     0.3044     4.8470 </r>
       <r>     3.1651     0.8081     4.9105 </r>
       <r>     3.2436     1.5996     5.0362 </r>
       <r>     3.3222     2.3964     5.2244 </r>
       <r>     3.4007     2.8316     5.4468 </r>
       <r>     3.4793     2.8952     5.6742 </r>
       <r>     3.5578     2.8896     5.9012 </r>
       <r>     3.6364     2.8734     6.1269 </r>
       <r>     3.7149     2.5538     6.3275 </r>
       <r>     3.7935     1.8237     6.4708 </r>
       <r>     3.8720     0.9927     6.5487 </r>
       <r>     3.9506     0.4039     6.5805 </r>
       <r>     4.0291     0.1220     6.5900 </r>
       <r>     4.1077     0.0274     6.5922 </r>
       <r>     4.1862     0.0056     6.5926 </r>
       <r>     4.2648     0.0088     6.5933 </r>
       <r>     4.3433     0.0477     6.5971 </r>
       <r>     4.4219     0.2025     6.6130 </r>
       <r>     4.5004     0.6367     6.6630 </r>
       <r>     4.5790     1.4816     6.7794 </r>
       <r>     4.6575     2.5520     6.9798 </r>
       <r>     4.7361     3.2540     7.2354 </r>
       <r>     4.8146     3.0718     7.4767 </r>
       <r>     4.8932     2.1467     7.6453 </r>
       <r>     4.9717     1.1105     7.7326 </r>
       <r>     5.0503     0.4252     7.7660 </r>
       <r>     5.1288     0.1206     7.7755 </r>
       <r>     5.2074     0.0260     7.7775 </r>
       <r>     5.2859     0.0086     7.7782 </r>
       <r>     5.3645     0.0230     7.7800 </r>
       <r>     5.4430     0.0796     7.7862 </r>
       <r>     5.5216     0.2080     7.8026 </r>
       <r>     5.6001     0.4022     7.8342 </r>
       <r>     5.6787     0.5758     7.8794 </r>
       <r>     5.7572     0.6102     7.9273 </r>
       <r>     5.8358     0.4788     7.9649 </r>
       <r>     5.9143     0.2783     7.9868 </r>
       <r>     5.9929     0.1212     7.9963 </r>
       <r>     6.0714     0.0485     8.0001 </r>
       <r>     6.1500     0.0578     8.0047 </r>
       <r>     6.2285     0.1712     8.0181 </r>
       <r>     6.3071     0.4359     8.0524 </r>
       <r>     6.3856     0.8280     8.1174 </r>
       <r>     6.4642     1.1649     8.2089 </r>
       <r>     6.5427     1.2133     8.3042 </r>
       <r>     6.6213     0.9356     8.3777 </r>
       <r>     6.6998     0.5342     8.4197 </r>
       <r>     6.7784     0.2267     8.4375 </r>
       <r>     6.8569     0.0787     8.4436 </r>
       <r>     6.9355     0.0617     8.4485 </r>
       <r>     7.0140     0.1914     8.4635 </r>
       <r>     7.0926     0.5873     8.5097 </r>
       <r>     7.1711     1.3780     8.6179 </r>
       <r>     7.2497     2.4664     8.8116 </r>
       <r>     7.3282     3.4151     9.0799 </r>
       <r>     7.4068     3.7310     9.3730 </r>
       <r>     7.4853     3.3208     9.6338 </r>
       <r>     7.5639     2.5770     9.8362 </r>
       <r>     7.6424     1.9769     9.9915 </r>
       <r>     7.7210     1.6446    10.1207 </r>
       <r>     7.7995     1.3648    10.2279 </r>
       <r>     7.8781     0.9726    10.3043 </r>
       <r>     7.9566     0.5604    10.3483 </r>
       <r>     8.0352     0.3096    10.3726 </r>
       <r>     8.1137     0.2897    10.3954 </r>
       <r>     8.1923     0.4329    10.4294 </r>
       <r>     8.2708     0.5868    10.4755 </r>
       <r>     8.3494     0.6060    10.5231 </r>
       <r>     8.4279     0.4652    10.5596 </r>
       <r>     8.5065     0.2652    10.5805 </r>
       <r>     8.5850     0.1161    10.5896 </r>
       <r>     8.6636     0.0540    10.5938 </r>
       <r>     8.7421     0.0669    10.5991 </r>
       <r>     8.8207     0.1480    10.6107 </r>
       <r>     8.8992     0.3289    10.6366 </r>
       <r>     8.9778     0.7136    10.6926 </r>
       <r>     9.0563     1.4390    10.8056 </r>
       <r>     9.1349     2.4353    10.9969 </r>
       <r>     9.2134     3.2179    11.2497 </r>
       <r>     9.2920     3.2112    11.5019 </r>
       <r>     9.3705     2.3892    11.6896 </r>
       <r>     9.4491     1.3192    11.7932 </r>
       <r>     9.5276     0.5396    11.8356 </r>
       <r>     9.6062     0.1634    11.8484 </r>
       <r>     9.6847     0.0366    11.8513 </r>
       <r>     9.7633     0.0061    11.8518 </r>
       <r>     9.8418     0.0007    11.8518 </r>
       <r>     9.9204     0.0001    11.8519 </r>
       <r>     9.9989     0.0000    11.8519 </r>
       <r>    10.0775     0.0000    11.8519 </r>
       <r>    10.1560     0.0000    11.8519 </r>
       <r>    10.2346     0.0000    11.8519 </r>
       <r>    10.3131     0.0000    11.8519 </r>
       <r>    10.3917     0.0000    11.8519 </r>
       <r>    10.4702     0.0000    11.8519 </r>
       <r>    10.5488     0.0000    11.8519 </r>
       <r>    10.6273     0.0000    11.8519 </r>
       <r>    10.7059     0.0000    11.8519 </r>
       <r>    10.7844     0.0000    11.8519 </r>
       <r>    10.8630     0.0001    11.8519 </r>
       <r>    10.9415     0.0012    11.8520 </r>
       <r>    11.0201     0.0087    11.8526 </r>
       <r>    11.0986     0.0474    11.8564 </r>
       <r>    11.1772     0.1908    11.8713 </r>
       <r>    11.2557     0.5683    11.9160 </r>
       <r>    11.3343     1.2528    12.0144 </r>
       <r>    11.4128     2.0443    12.1750 </r>
       <r>    11.4914     2.4695    12.3690 </r>
       <r>    11.5699     2.2089    12.5425 </r>
       <r>    11.6485     1.4653    12.6576 </r>
       <r>    11.7270     0.7366    12.7154 </r>
       <r>    11.8056     0.3543    12.7432 </r>
       <r>    11.8841     0.3996    12.7746 </r>
       <r>    11.9627     0.8675    12.8428 </r>
       <r>    12.0412     1.6371    12.9714 </r>
       <r>    12.1198     2.3188    13.1535 </r>
       <r>    12.1983     2.4363    13.3449 </r>
       <r>    12.2769     1.9101    13.4949 </r>
       <r>    12.3554     1.1800    13.5876 </r>
       <r>    12.4340     0.7924    13.6499 </r>
       <r>    12.5125     1.0274    13.7306 </r>
       <r>    12.5911     1.8292    13.8742 </r>
       <r>    12.6696     2.8559    14.0986 </r>
       <r>    12.7482     3.6543    14.3856 </r>
       <r>    12.8267     3.9196    14.6935 </r>
       <r>    12.9053     3.5702    14.9739 </r>
       <r>    12.9838     2.7110    15.1869 </r>
       <r>    13.0624     1.6591    15.3172 </r>
       <r>    13.1409     0.8183    15.3815 </r>
       <r>    13.2195     0.4230    15.4147 </r>
       <r>    13.2980     0.4874    15.4530 </r>
       <r>    13.3766     0.8988    15.5236 </r>
       <r>    13.4551     1.4057    15.6340 </r>
       <r>    13.5337     1.6503    15.7636 </r>
       <r>    13.6122     1.4363    15.8765 </r>
       <r>    13.6908     0.9255    15.9492 </r>
       <r>    13.7693     0.4415    15.9838 </r>
       <r>    13.8479     0.1559    15.9961 </r>
       <r>    13.9264     0.0407    15.9993 </r>
       <r>    14.0050     0.0079    15.9999 </r>
       <r>    14.0835     0.0011    16.0000 </r>
       <r>    14.1621     0.0001    16.0000 </r>
       <r>    14.2406     0.0000    16.0000 </r>
       <r>    14.3192     0.0000    16.0000 </r>
       <r>    14.3977     0.0000    16.0000 </r>
       <r>    14.4763     0.0000    16.0000 </r>
       <r>    14.5548     0.0000    16.0000 </r>
       <r>    14.6334     0.0000    16.0000 </r>
       <r>    14.7119     0.0000    16.0000 </r>
       <r>    14.7905     0.0000    16.0000 </r>
       <r>    14.8690     0.0000    16.0000 </r>
       <r>    14.9476     0.0000    16.0000 </r>
       <r>    15.0261     0.0000    16.0000 </r>
       <r>    15.1047     0.0000    16.0000 </r>
       <r>    15.1832     0.0000    16.0000 </r>
       <r>    15.2618     0.0000    16.0000 </r>
       <r>    15.3403     0.0000    16.0000 </r>
       <r>    15.4189     0.0000    16.0000 </r>
       <r>    15.4974     0.0000    16.0000 </r>
      </set>
     </set>
    </array>
   </total>
  </dos>
 </calculation>
 <structure name="finalpos" >
  <crystal>
   <varray name="basis" >
    <v>       3.34889800       0.00000000       1.93348700 </v>
    <v>       1.11629900       3.15737200       1.93348700 </v>
    <v>       0.00000000       0.00000000       3.86697500 </v>
   </varray>
   <i name="volume">     40.88829843 </i>
   <varray name="rec_basis" >
    <v>       0.29860569      -0.10557300       0.00000000 </v>
    <v>       0.00000000       0.31671909       0.00000000 </v>
    <v>      -0.14930281      -0.10557302       0.25860007 </v>
   </varray>
  </crystal>
  <varray name="positions" >
   <v>       0.87500000       0.87500000       0.87500000 </v>
   <v>       0.12500000       0.12500000       0.12500000 </v>
  </varray>
 </structure>
</modeling>
