 running on   16 total cores
 distrk:  each k-point on   16 cores,    1 groups
 distr:  one band on    4 cores,    4 groups
 using from now: INCAR     
 vasp.5.3.3 18Dez12 (build Jan 30 2013 10:57:47) complex                        
  
 POSCAR found type information on POSCAR  Si
 POSCAR found :  1 types and       2 ions

 ----------------------------------------------------------------------------- 
|                                                                             |
|  ADVICE TO THIS USER RUNNING 'VASP/VAMP'   (HEAR YOUR MASTER'S VOICE ...):  |
|                                                                             |
|      You have switched on vdW-DFT.                                          |
|      This routine was written and supplied by Jiri Klimes.                  |
|      We recommed that you carefully read and cite the following             |
|      publication                                                            |
|      J. Klimes, D.R. Bowler, A. Michelides                                  |
|        J. Phys.: Cond Matt. 22 022201 (2010)                                |
|      J. Klimes, D.R. Bowler, A. Michelides                                  |
|        Phys. Rev. B. 83, 195131 (2011)                                      |
|      and references therein.                                                |
|                                                                             |
 ----------------------------------------------------------------------------- 


 ----------------------------------------------------------------------------- 
|                                                                             |
|  ADVICE TO THIS USER RUNNING 'VASP/VAMP'   (HEAR YOUR MASTER'S VOICE ...):  |
|                                                                             |
|      You enforced a specific xc-type in the INCAR file,                     |
|      a different type was found on the POTCAR file                          |
|          I HOPE YOU KNOW, WHAT YOU ARE  DOING                               |
|                                                                             |
 ----------------------------------------------------------------------------- 

 LDA part: xc-table for Pade appr. of Perdew
 POSCAR, INCAR and KPOINTS ok, starting setup
 WARNING: small aliasing (wrap around) errors must be expected
 FFT: planning ...
 WAVECAR not read
 entering main loop
       N       E                     dE             d eps       ncg     rms          rms(c)
Total vdW correction in eV:      1.0792472
DAV:   1     0.970511365103E+01    0.97051E+01   -0.34838E+03    64   0.814E+02
DAV:   2    -0.763598358847E+01   -0.17341E+02   -0.17314E+02   104   0.834E+01
DAV:   3    -0.787307236443E+01   -0.23709E+00   -0.23709E+00    64   0.125E+01
DAV:   4    -0.787510572429E+01   -0.20334E-02   -0.20334E-02   112   0.140E+00
DAV:   5    -0.787510674756E+01   -0.10233E-05   -0.10236E-05    72   0.157E-02    0.400E+00
Total vdW correction in eV:      1.1365267
DAV:   6    -0.778914004635E+01    0.85967E-01   -0.11274E-01    80   0.198E+00    0.247E+00
Total vdW correction in eV:      1.2498338
DAV:   7    -0.776730241392E+01    0.21838E-01   -0.26748E-01    80   0.302E+00    0.214E-01
Total vdW correction in eV:      1.2452695
DAV:   8    -0.774866847049E+01    0.18634E-01   -0.75469E-03    80   0.611E-01    0.108E-01
Total vdW correction in eV:      1.2528172
DAV:   9    -0.775040912206E+01   -0.17407E-02   -0.90348E-04    96   0.201E-01    0.785E-02
Total vdW correction in eV:      1.2526740
DAV:  10    -0.774967753869E+01    0.73158E-03   -0.50938E-05    72   0.569E-02    0.296E-02
Total vdW correction in eV:      1.2526022
DAV:  11    -0.774958026647E+01    0.97272E-04   -0.11718E-06   104   0.943E-03    0.136E-03
Total vdW correction in eV:      1.2526353
DAV:  12    -0.774958747339E+01   -0.72069E-05   -0.74756E-08    72   0.255E-03    0.347E-04
Total vdW correction in eV:      1.2526278
DAV:  13    -0.774958778856E+01   -0.31517E-06   -0.45418E-09    80   0.573E-04    0.922E-05
Total vdW correction in eV:      1.2526285
DAV:  14    -0.774958726951E+01    0.51905E-06   -0.16668E-10    48   0.111E-04    0.120E-05
Total vdW correction in eV:      1.2526283
DAV:  15    -0.774958686659E+01    0.40292E-06   -0.21790E-11    56   0.343E-05    0.585E-06
Total vdW correction in eV:      1.2526284
DAV:  16    -0.774958698639E+01   -0.11980E-06   -0.45426E-12    40   0.105E-05    0.186E-06
Total vdW correction in eV:      1.2526284
DAV:  17    -0.774958698688E+01   -0.49090E-09   -0.21681E-12    32   0.463E-06
Total vdW correction in eV:      1.2526284
Total vdW correction in eV:      1.2526284
   1 F= -.77495870E+01 E0= -.77491973E+01  d E =-.774959E+01
 curvature:   0.00 expect dE= 0.000E+00 dE for cont linesearch  0.000E+00
 trial: gam= 0.00000 g(F)=  0.994E-45 g(S)=  0.000E+00 ort = 0.000E+00 (trialstep = 0.100E+01)
 search vector abs. value=  0.100E-09
 reached required accuracy - stopping structural energy minimisation
