    2    2    1    1
  0.2044415E+02  0.3866974E-09  0.3866975E-09  0.3866975E-09  0.5000000E-15
  1.000000000000000E-004
  CAR 
 unknown system                          
    8  220    8
 
  0.0000000E+00  0.0000000E+00  0.0000000E+00  0.1457938E-03
   1       -6.147160
   2        5.593589
   3        5.593589
   4        5.593591
   5        8.216240
   6        8.216242
   7        8.216244
   8        8.821478
 
  0.5263158E-01  0.3469447E-17  0.0000000E+00  0.1166351E-02
   1       -6.111545
   2        5.211856
   3        5.535960
   4        5.535961
   5        8.260642
   6        8.301801
   7        8.301804
   8        9.097523
 
  0.1052632E+00  0.1387779E-16  0.0000000E+00  0.1166351E-02
   1       -6.005059
   2        4.385106
   3        5.387743
   4        5.387744
   5        8.171117
   6        8.523148
   7        8.523151
   8        9.849699
 
  0.1578947E+00  0.2775558E-16  0.0000000E+00  0.1166351E-02
   1       -5.829181
   2        3.430545
   3        5.196529
   4        5.196531
   5        7.986197
   6        8.798641
   7        8.798644
   8       10.766139
 
  0.2105263E+00  0.1387779E-16  0.0000000E+00  0.1166351E-02
   1       -5.586664
   2        2.462116
   3        5.000199
   4        5.000201
   5        7.777647
   6        9.034843
   7        9.034846
   8       11.704866
 
  0.2631579E+00  0.1387779E-16  0.0000000E+00  0.1166351E-02
   1       -5.282736
   2        1.526263
   3        4.821091
   4        4.821093
   5        7.579495
   6        9.160921
   7        9.160924
   8       12.602924
 
  0.3157895E+00  0.5551115E-16  0.0000000E+00  0.1166351E-02
   1       -4.927221
   2        0.651953
   3        4.670994
   4        4.670996
   5        7.409466
   6        9.171536
   7        9.171539
   8       13.308431
 
  0.3684211E+00  0.5551115E-16  0.0000000E+00  0.1166351E-02
   1       -4.540465
   2       -0.130319
   3        4.555765
   4        4.555767
   5        7.276908
   6        9.117022
   7        9.117025
   8       13.503425
 
  0.4210526E+00  0.2775558E-16  0.0000000E+00  0.1166351E-02
   1       -4.168239
   2       -0.768889
   3        4.478077
   4        4.478080
   5        7.186656
   6        9.052134
   7        9.052136
   8       13.439734
 
  0.4736842E+00  0.8326673E-16  0.0000000E+00  0.1166351E-02
   1       -3.911932
   2       -1.159125
   3        4.439054
   4        4.439056
   5        7.141056
   6        9.011857
   7        9.011859
   8       13.380658
 
  0.5263158E-01  0.5263158E-01  0.0000000E+00  0.8747631E-03
   1       -6.099645
   2        5.285838
   3        5.412027
   4        5.412027
   5        8.102630
   6        8.456249
   7        8.456249
   8        9.118690
 
  0.1052632E+00  0.5263158E-01  0.0000000E+00  0.3499052E-02
   1       -6.016696
   2        4.628844
   3        5.220499
   4        5.350478
   5        8.091551
   6        8.537985
   7        8.727966
   8        9.667897
 
  0.1578947E+00  0.5263158E-01  0.0000000E+00  0.3499052E-02
   1       -5.863806
   2        3.726718
   3        5.007919
   4        5.215932
   5        8.146657
   6        8.535085
   7        9.040289
   8       10.472329
 
  0.2105263E+00  0.5263158E-01  0.0000000E+00  0.3499052E-02
   1       -5.643170
   2        2.773308
   3        4.805967
   4        5.024379
   5        8.043337
   6        8.702576
   7        9.308089
   8       11.184882
 
  0.2631579E+00  0.5263158E-01  0.0000000E+00  0.3499052E-02
   1       -5.359071
   2        1.833581
   3        4.632614
   4        4.818593
   5        7.869889
   6        8.885449
   7        9.457636
   8       11.649575
 
  0.3157895E+00  0.5263158E-01  0.0000000E+00  0.3499052E-02
   1       -5.019304
   2        0.942453
   3        4.497256
   4        4.623878
   5        7.701924
   6        8.969445
   7        9.470712
   8       12.107547
 
  0.3684211E+00  0.5263158E-01  0.0000000E+00  0.3499052E-02
   1       -4.639674
   2        0.129557
   3        4.404336
   4        4.453786
   5        7.562209
   6        8.969846
   7        9.392311
   8       12.695572
 
  0.4210526E+00  0.5263158E-01  0.0000000E+00  0.3499052E-02
   1       -4.254685
   2       -0.562690
   3        4.315750
   4        4.355366
   5        7.460102
   6        8.944945
   7        9.282481
   8       13.260903
 
  0.4736842E+00  0.5263158E-01  0.0000000E+00  0.3499052E-02
   1       -3.943642
   2       -1.050656
   3        4.214273
   4        4.350046
   5        7.400006
   6        8.938548
   7        9.183926
   8       13.471969
 
 -0.4736842E+00  0.5263158E-01  0.0000000E+00  0.3499052E-02
   1       -3.846839
   2       -1.191720
   3        4.152514
   4        4.386971
   5        7.383920
   6        8.971714
   7        9.119176
   8       13.503191
 
 -0.4210526E+00  0.5263158E-01  0.0000000E+00  0.3499052E-02
   1       -4.031549
   2       -0.918186
   3        4.132957
   4        4.463927
   5        7.412409
   6        9.048137
   7        9.094612
   8       13.513254
 
 -0.3684211E+00  0.5263158E-01  0.0000000E+00  0.3499052E-02
   1       -4.380378
   2       -0.348467
   3        4.157538
   4        4.578011
   5        7.484909
   6        9.101374
   7        9.156369
   8       13.415469
 
 -0.3157895E+00  0.5263158E-01  0.0000000E+00  0.3499052E-02
   1       -4.769428
   2        0.390533
   3        4.227525
   4        4.725358
   5        7.599500
   6        9.112065
   7        9.266581
   8       12.993278
 
 -0.2631579E+00  0.5263158E-01  0.0000000E+00  0.3499052E-02
   1       -5.138286
   2        1.232850
   3        4.343163
   4        4.900236
   5        7.752066
   6        9.078254
   7        9.324375
   8       12.392864
 
 -0.2105263E+00  0.5263158E-01  0.0000000E+00  0.3499052E-02
   1       -5.460675
   2        2.142145
   3        4.503121
   4        5.093203
   5        7.934557
   6        8.949446
   7        9.259139
   8       11.769713
 
 -0.1578947E+00  0.5263158E-01  0.0000000E+00  0.3499052E-02
   1       -5.724207
   2        3.086946
   3        4.703984
   4        5.287595
   5        8.131456
   6        8.726071
   7        9.037843
   8       11.065959
 
 -0.1052632E+00  0.5263158E-01  0.0000000E+00  0.3499052E-02
   1       -5.922556
   2        4.018232
   3        4.941467
   4        5.454359
   5        8.311739
   6        8.480956
   7        8.715130
   8       10.270631
 
 -0.5263158E-01  0.5263158E-01  0.0000000E+00  0.1749526E-02
   1       -6.052262
   2        4.808497
   3        5.229485
   4        5.550315
   5        8.314203
   6        8.379591
   7        8.431101
   8        9.522081
 
  0.1052632E+00  0.1052632E+00  0.0000000E+00  0.8747631E-03
   1       -5.957327
   2        4.579562
   3        5.000675
   4        5.000675
   5        7.811952
   6        9.041814
   7        9.041814
   8        9.712914
 
  0.1578947E+00  0.1052632E+00  0.0000000E+00  0.3499052E-02
   1       -5.827657
   2        3.902686
   3        4.771629
   4        4.870978
   5        7.759365
   6        9.130774
   7        9.395463
   8       10.192698
 
  0.2105263E+00  0.1052632E+00  0.0000000E+00  0.3499052E-02
   1       -5.629461
   2        3.028457
   3        4.561408
   4        4.705921
   5        7.873696
   6        9.053745
   7        9.710711
   8       10.553156
 
  0.2631579E+00  0.1052632E+00  0.0000000E+00  0.3499052E-02
   1       -5.366193
   2        2.122045
   3        4.386101
   4        4.485075
   5        7.981409
   6        9.030813
   7        9.908915
   8       10.690505
 
  0.3157895E+00  0.1052632E+00  0.0000000E+00  0.3499052E-02
   1       -5.044067
   2        1.238369
   3        4.250868
   4        4.254393
   5        7.978130
   6        9.054079
   7        9.953142
   8       10.947950
 
  0.3684211E+00  0.1052632E+00  0.0000000E+00  0.3499052E-02
   1       -4.675370
   2        0.413065
   3        4.030032
   4        4.170571
   5        7.908197
   6        9.042711
   7        9.876693
   8       11.458708
 
  0.4210526E+00  0.1052632E+00  0.0000000E+00  0.3499052E-02
   1       -4.286130
   2       -0.315092
   3        3.837185
   4        4.136172
   5        7.834905
   6        9.005738
   7        9.743263
   8       12.162616
 
  0.4736842E+00  0.1052632E+00  0.0000000E+00  0.3499052E-02
   1       -3.936659
   2       -0.878728
   3        3.680916
   4        4.150819
   5        7.789144
   6        8.984474
   7        9.603625
   8       12.948114
 
 -0.4736842E+00  0.1052632E+00  0.0000000E+00  0.3499052E-02
   1       -3.751853
   2       -1.149124
   3        3.567041
   4        4.212657
   5        7.782647
   6        9.003165
   7        9.486974
   8       13.605877
 
 -0.4210526E+00  0.1052632E+00  0.0000000E+00  0.3499052E-02
   1       -3.850543
   2       -1.006218
   3        3.500024
   4        4.318528
   5        7.818262
   6        9.069826
   7        9.405078
   8       13.760022
 
 -0.3684211E+00  0.1052632E+00  0.0000000E+00  0.3499052E-02
   1       -4.163333
   2       -0.520247
   3        3.483635
   4        4.463829
   5        7.894628
   6        9.179075
   7        9.354344
   8       13.394616
 
 -0.3157895E+00  0.1052632E+00  0.0000000E+00  0.3499052E-02
   1       -4.548706
   2        0.163693
   3        3.521378
   4        4.642138
   5        8.008222
   6        9.307783
   7        9.312954
   8       12.753128
 
 -0.2631579E+00  0.1052632E+00  0.0000000E+00  0.3499052E-02
   1       -4.927920
   2        0.959353
   3        3.617180
   4        4.844130
   5        8.153578
   6        9.237077
   7        9.401830
   8       12.100443
 
 -0.2105263E+00  0.1052632E+00  0.0000000E+00  0.3499052E-02
   1       -5.266954
   2        1.817012
   3        3.777600
   4        5.055452
   5        8.321394
   6        9.078188
   7        9.364494
   8       11.582234
 
 -0.1578947E+00  0.1052632E+00  0.0000000E+00  0.3499052E-02
   1       -5.550292
   2        2.685158
   3        4.019788
   4        5.252971
   5        8.492557
   6        8.840985
   7        9.119416
   8       11.210934
 
 -0.1052632E+00  0.1052632E+00  0.0000000E+00  0.1749526E-02
   1       -5.770217
   2        3.464279
   3        4.395338
   4        5.400746
   5        8.591567
   6        8.607631
   7        8.771960
   8       10.800841
 
  0.1578947E+00  0.1578947E+00  0.0000000E+00  0.8747631E-03
   1       -5.721138
   2        3.722933
   3        4.529842
   4        4.529842
   5        7.440988
   6        9.799455
   7        9.799455
   8        9.926172
 
  0.2105263E+00  0.1578947E+00  0.0000000E+00  0.3499052E-02
   1       -5.545630
   2        3.098844
   3        4.309729
   4        4.333427
   5        7.385018
   6        9.647849
   7       10.179398
   8       10.186587
 
  0.2631579E+00  0.1578947E+00  0.0000000E+00  0.3499052E-02
   1       -5.303852
   2        2.307802
   3        4.100406
   4        4.127157
   5        7.519449
   6        9.529445
   7       10.200173
   8       10.452236
 
  0.3157895E+00  0.1578947E+00  0.0000000E+00  0.3499052E-02
   1       -5.000780
   2        1.481500
   3        3.826871
   4        3.991006
   5        7.666361
   6        9.625695
   7       10.121838
   8       10.558574
 
  0.3684211E+00  0.1578947E+00  0.0000000E+00  0.3499052E-02
   1       -4.645977
   2        0.677695
   3        3.552566
   4        3.905926
   5        7.721971
   6        9.748157
   7       10.302241
   8       10.512017
 
  0.4210526E+00  0.1578947E+00  0.0000000E+00  0.3499052E-02
   1       -4.259107
   2       -0.059542
   3        3.302658
   4        3.873856
   5        7.721727
   6        9.677729
   7       10.377525
   8       10.930927
 
  0.4736842E+00  0.1578947E+00  0.0000000E+00  0.3499052E-02
   1       -3.885310
   2       -0.671599
   3        3.091047
   4        3.894828
   5        7.726883
   6        9.594500
   7       10.215563
   8       11.756954
 
 -0.4736842E+00  0.1578947E+00  0.0000000E+00  0.3499052E-02
   1       -3.627461
   2       -1.048377
   3        2.926327
   4        3.967256
   5        7.769361
   6        9.544293
   7       10.063142
   8       12.680487
 
 -0.4210526E+00  0.1578947E+00  0.0000000E+00  0.3499052E-02
   1       -3.631827
   2       -1.040679
   3        2.814925
   4        4.087968
   5        7.859316
   6        9.537068
   7        9.937039
   8       13.630666
 
 -0.3684211E+00  0.1578947E+00  0.0000000E+00  0.3499052E-02
   1       -3.894846
   2       -0.652943
   3        2.762787
   4        4.251877
   5        7.994847
   6        9.572937
   7        9.836954
   8       13.383210
 
 -0.3157895E+00  0.1578947E+00  0.0000000E+00  0.3499052E-02
   1       -4.269517
   2       -0.037904
   3        2.777155
   4        4.451324
   5        8.166364
   6        9.638881
   7        9.742524
   8       12.589584
 
 -0.2631579E+00  0.1578947E+00  0.0000000E+00  0.3499052E-02
   1       -4.655447
   2        0.689546
   3        2.870227
   4        4.674668
   5        8.357720
   6        9.608064
   7        9.688768
   8       11.874087
 
 -0.2105263E+00  0.1578947E+00  0.0000000E+00  0.3499052E-02
   1       -5.008734
   2        1.450852
   3        3.069058
   4        4.903773
   5        8.542568
   6        9.384960
   7        9.608570
   8       11.387275
 
 -0.1578947E+00  0.1578947E+00  0.0000000E+00  0.1749526E-02
   1       -5.310154
   2        2.149118
   3        3.434546
   4        5.110256
   5        8.655408
   6        9.095074
   7        9.326082
   8       11.226759
 
  0.2105263E+00  0.2105263E+00  0.0000000E+00  0.8747631E-03
   1       -5.392649
   2        2.813840
   3        4.079111
   4        4.079111
   5        7.067710
   6        9.373788
   7       10.645549
   8       10.645549
 
  0.2631579E+00  0.2105263E+00  0.0000000E+00  0.3499052E-02
   1       -5.172633
   2        2.244752
   3        3.842307
   4        3.886258
   5        7.032533
   6        9.068529
   7       10.899128
   8       11.024135
 
  0.3157895E+00  0.2105263E+00  0.0000000E+00  0.3499052E-02
   1       -4.889568
   2        1.556412
   3        3.531666
   4        3.740754
   5        7.186117
   6        8.974615
   7       10.887648
   8       11.231184
 
  0.3684211E+00  0.2105263E+00  0.0000000E+00  0.3499052E-02
   1       -4.550867
   2        0.835088
   3        3.190072
   4        3.647842
   5        7.330190
   6        9.205170
   7       10.778172
   8       11.248641
 
  0.4210526E+00  0.2105263E+00  0.0000000E+00  0.3499052E-02
   1       -4.171409
   2        0.135610
   3        2.865798
   4        3.609996
   5        7.388666
   6        9.760355
   7       10.652100
   8       11.137361
 
  0.4736842E+00  0.2105263E+00  0.0000000E+00  0.3499052E-02
   1       -3.784690
   2       -0.484937
   3        2.584431
   4        3.627742
   5        7.422769
   6       10.438749
   7       10.637415
   8       10.970620
 
 -0.4736842E+00  0.2105263E+00  0.0000000E+00  0.3499052E-02
   1       -3.471193
   2       -0.932228
   3        2.359124
   4        3.699961
   5        7.486835
   6       10.422128
   7       10.796321
   8       11.482524
 
 -0.4210526E+00  0.2105263E+00  0.0000000E+00  0.3499052E-02
   1       -3.381746
   2       -1.049282
   3        2.198723
   4        3.823847
   5        7.601991
   6       10.369681
   7       10.636991
   8       12.483963
 
 -0.3684211E+00  0.2105263E+00  0.0000000E+00  0.3499052E-02
   1       -3.582618
   2       -0.770850
   3        2.112531
   4        3.994557
   5        7.771052
   6       10.348510
   7       10.493502
   8       13.301675
 
 -0.3157895E+00  0.2105263E+00  0.0000000E+00  0.3499052E-02
   1       -3.939270
   2       -0.242927
   3        2.115317
   4        4.204280
   5        7.985562
   6       10.339821
   7       10.346905
   8       12.486961
 
 -0.2631579E+00  0.2105263E+00  0.0000000E+00  0.3499052E-02
   1       -4.327541
   2        0.379396
   3        2.237077
   4        4.440697
   5        8.225052
   6       10.115115
   7       10.302764
   8       11.751752
 
 -0.2105263E+00  0.2105263E+00  0.0000000E+00  0.1749526E-02
   1       -4.691899
   2        0.975248
   3        2.536689
   4        4.684169
   5        8.446549
   6        9.773624
   7       10.045129
   8       11.367206
 
  0.2631579E+00  0.2631579E+00  0.0000000E+00  0.8747631E-03
   1       -4.974133
   2        1.887721
   3        3.681720
   4        3.681720
   5        6.740504
   6        8.610362
   7       11.543606
   8       11.543606
 
  0.3157895E+00  0.2631579E+00  0.0000000E+00  0.3499052E-02
   1       -4.711475
   2        1.362252
   3        3.430166
   4        3.524159
   5        6.739378
   6        8.334479
   7       11.805257
   8       11.905043
 
  0.3684211E+00  0.2631579E+00  0.0000000E+00  0.3499052E-02
   1       -4.390368
   2        0.768858
   3        3.058940
   4        3.419589
   5        6.908261
   6        8.331626
   7       11.805421
   8       12.038665
 
  0.4210526E+00  0.2631579E+00  0.0000000E+00  0.3499052E-02
   1       -4.022071
   2        0.160844
   3        2.653100
   4        3.371095
   5        7.034476
   6        8.701551
   7       11.709907
   8       11.984334
 
  0.4736842E+00  0.2631579E+00  0.0000000E+00  0.3499052E-02
   1       -3.631223
   2       -0.414472
   3        2.279364
   4        3.379710
   5        7.096114
   6        9.380135
   7       11.596427
   8       11.832370
 
 -0.4736842E+00  0.2631579E+00  0.0000000E+00  0.3499052E-02
   1       -3.278815
   2       -0.881257
   3        1.971421
   4        3.444811
   5        7.169027
   6       10.231751
   7       11.507039
   8       11.648308
 
 -0.4210526E+00  0.2631579E+00  0.0000000E+00  0.3499052E-02
   1       -3.105112
   2       -1.091917
   3        1.747421
   4        3.564091
   5        7.290797
   6       11.063427
   7       11.462422
   8       11.576722
 
 -0.3684211E+00  0.2631579E+00  0.0000000E+00  0.3499052E-02
   1       -3.237883
   2       -0.922123
   3        1.624317
   4        3.733192
   5        7.470306
   6       11.239038
   7       11.272380
   8       12.388896
 
 -0.3157895E+00  0.2631579E+00  0.0000000E+00  0.3499052E-02
   1       -3.571178
   2       -0.499958
   3        1.630346
   4        3.944831
   5        7.702232
   6       11.028796
   7       11.190991
   8       12.452087
 
 -0.2631579E+00  0.2631579E+00  0.0000000E+00  0.1749526E-02
   1       -3.956960
   2       -0.023955
   3        1.816739
   4        4.187116
   5        7.968227
   6       10.638006
   7       10.929840
   8       11.857473
 
  0.3157895E+00  0.3157895E+00  0.0000000E+00  0.8747631E-03
   1       -4.468823
   2        0.961839
   3        3.353250
   4        3.353250
   5        6.488254
   6        7.899889
   7       12.476534
   8       12.476534
 
  0.3684211E+00  0.3157895E+00  0.0000000E+00  0.3499052E-02
   1       -4.165978
   2        0.471039
   3        3.106394
   4        3.234950
   5        6.528050
   6        7.692704
   7       12.753287
   8       12.812341
 
  0.4210526E+00  0.3157895E+00  0.0000000E+00  0.3499052E-02
   1       -3.811402
   2       -0.045326
   3        2.703823
   4        3.172990
   5        6.702078
   6        7.813591
   7       12.767531
   8       12.877116
 
  0.4736842E+00  0.3157895E+00  0.0000000E+00  0.3499052E-02
   1       -3.422978
   2       -0.549349
   3        2.259855
   4        3.168946
   5        6.806415
   6        8.338139
   7       12.682484
   8       12.770466
 
 -0.4736842E+00  0.3157895E+00  0.0000000E+00  0.3499052E-02
   1       -3.045933
   2       -0.990910
   3        1.859753
   4        3.222697
   5        6.885840
   6        9.130738
   7       12.575146
   8       12.590096
 
 -0.4210526E+00  0.3157895E+00  0.0000000E+00  0.3499052E-02
   1       -2.804947
   2       -1.248852
   3        1.553897
   4        3.332468
   5        7.006240
   6       10.069284
   7       12.378277
   8       12.479597
 
 -0.3684211E+00  0.3157895E+00  0.0000000E+00  0.3499052E-02
   1       -2.880222
   2       -1.158409
   3        1.381105
   4        3.494488
   5        7.185905
   6       11.074996
   7       12.113321
   8       12.418873
 
 -0.3157895E+00  0.3157895E+00  0.0000000E+00  0.1749526E-02
   1       -3.193478
   2       -0.833995
   3        1.388560
   4        3.702231
   5        7.422964
   6       11.678382
   7       11.772313
   8       12.590517
 
  0.3684211E+00  0.3684211E+00  0.0000000E+00  0.8747631E-03
   1       -3.880908
   2        0.049290
   3        3.101910
   4        3.101910
   5        6.329312
   6        7.307287
   7       13.435884
   8       13.435884
 
  0.4210526E+00  0.3684211E+00  0.0000000E+00  0.3499052E-02
   1       -3.541281
   2       -0.410844
   3        2.873988
   4        3.024950
   5        6.412532
   6        7.182201
   7       13.726145
   8       13.742248
 
  0.4736842E+00  0.3684211E+00  0.0000000E+00  0.3499052E-02
   1       -3.159845
   2       -0.865248
   3        2.469420
   4        3.006212
   5        6.572282
   6        7.451709
   7       13.746666
   8       13.753149
 
 -0.4736842E+00  0.3684211E+00  0.0000000E+00  0.3499052E-02
   1       -2.769353
   2       -1.277263
   3        2.024912
   4        3.046059
   5        6.662915
   6        8.122305
   7       13.591175
   8       13.677406
 
 -0.4210526E+00  0.3684211E+00  0.0000000E+00  0.3499052E-02
   1       -2.486307
   2       -1.544451
   3        1.644456
   4        3.143243
   5        6.776861
   6        9.007837
   7       13.335240
   8       13.572943
 
 -0.3684211E+00  0.3684211E+00  0.0000000E+00  0.1749526E-02
   1       -2.563574
   2       -1.446852
   3        1.405322
   4        3.294609
   5        6.950576
   6       10.015108
   7       12.874408
   8       13.359637
 
  0.4210526E+00  0.4210526E+00  0.0000000E+00  0.8747631E-03
   1       -3.215909
   2       -0.837046
   3        2.932283
   4        2.932283
   5        6.276598
   6        6.849753
   7       14.411900
   8       14.411900
 
  0.4736842E+00  0.4210526E+00  0.0000000E+00  0.3499052E-02
   1       -2.843989
   2       -1.266774
   3        2.734182
   4        2.897729
   5        6.398325
   6        6.816314
   7       14.678699
   8       14.706744
 
 -0.4736842E+00  0.4210526E+00  0.0000000E+00  0.3499052E-02
   1       -2.448186
   2       -1.664962
   3        2.353255
   4        2.922166
   5        6.512872
   6        7.263493
   7       14.590471
   8       14.739501
 
 -0.4210526E+00  0.4210526E+00  0.0000000E+00  0.1749526E-02
   1       -2.215377
   2       -1.857753
   3        1.947283
   4        3.004851
   5        6.613967
   6        8.050955
   7       14.172731
   8       14.628310
 
  0.4736842E+00  0.4736842E+00  0.0000000E+00  0.8747631E-03
   1       -2.480848
   2       -1.684397
   3        2.846903
   4        2.846903
   5        6.340269
   6        6.528928
   7       15.340684
   8       15.340685
 
 -0.4736842E+00  0.4736842E+00  0.0000000E+00  0.1749526E-02
   1       -2.100498
   2       -2.063880
   3        2.687518
   4        2.855133
   5        6.440404
   6        6.646969
   7       15.346359
   8       15.444316
 
  0.1578947E+00  0.1052632E+00  0.5263158E-01  0.3499052E-02
   1       -5.910462
   2        4.126421
   3        4.815431
   4        5.295190
   5        8.063006
   6        8.742287
   7        8.947101
   8       10.172380
 
  0.2105263E+00  0.1052632E+00  0.5263158E-01  0.6998105E-02
   1       -5.734923
   2        3.331325
   3        4.482093
   4        5.184328
   5        8.173804
   6        8.736588
   7        9.265353
   8       10.727141
 
  0.2631579E+00  0.1052632E+00  0.5263158E-01  0.6998105E-02
   1       -5.492883
   2        2.431318
   3        4.238592
   4        5.006854
   5        8.211755
   6        8.788069
   7        9.540097
   8       11.045480
 
  0.3157895E+00  0.1052632E+00  0.5263158E-01  0.6998105E-02
   1       -5.189455
   2        1.530821
   3        4.052020
   4        4.807069
   5        8.110777
   6        8.914113
   7        9.664852
   8       11.327111
 
  0.3684211E+00  0.1052632E+00  0.5263158E-01  0.6998105E-02
   1       -4.834364
   2        0.676900
   3        3.914411
   4        4.615882
   5        7.978483
   6        8.967774
   7        9.648927
   8       11.794764
 
  0.4210526E+00  0.1052632E+00  0.5263158E-01  0.6998105E-02
   1       -4.447682
   2       -0.093399
   3        3.821250
   4        4.453103
   5        7.863545
   6        8.948190
   7        9.564593
   8       12.443306
 
  0.4736842E+00  0.1052632E+00  0.5263158E-01  0.6998105E-02
   1       -4.074805
   2       -0.725806
   3        3.766559
   4        4.333424
   5        7.782039
   6        8.907727
   7        9.476093
   8       13.152050
 
 -0.4736842E+00  0.1052632E+00  0.5263158E-01  0.6998105E-02
   1       -3.817227
   2       -1.114175
   3        3.742465
   4        4.269333
   5        7.740168
   6        8.880768
   7        9.422757
   8       13.619403
 
  0.2105263E+00  0.1578947E+00  0.5263158E-01  0.3499052E-02
   1       -5.675160
   2        3.373425
   3        4.341865
   4        4.797994
   5        7.703545
   6        9.327249
   7        9.719838
   8       10.336411
 
  0.2631579E+00  0.1578947E+00  0.5263158E-01  0.6998105E-02
   1       -5.455228
   2        2.622164
   3        3.999729
   4        4.670826
   5        7.834866
   6        9.303954
   7       10.042437
   8       10.347371
 
  0.3157895E+00  0.1578947E+00  0.5263158E-01  0.6998105E-02
   1       -5.171934
   2        1.786390
   3        3.752356
   4        4.486643
   5        7.986949
   6        9.285544
   7       10.220440
   8       10.383955
 
  0.3684211E+00  0.1578947E+00  0.5263158E-01  0.6998105E-02
   1       -4.832967
   2        0.954139
   3        3.562551
   4        4.298678
   5        8.041718
   6        9.260946
   7       10.262252
   8       10.648431
 
  0.4210526E+00  0.1578947E+00  0.5263158E-01  0.6998105E-02
   1       -4.453671
   2        0.176439
   3        3.411753
   4        4.144992
   5        8.025313
   6        9.174423
   7       10.210126
   8       11.208163
 
  0.4736842E+00  0.1578947E+00  0.5263158E-01  0.6998105E-02
   1       -4.067972
   2       -0.495621
   3        3.288922
   4        4.049497
   5        8.001476
   6        9.069030
   7       10.114801
   8       11.973073
 
 -0.4736842E+00  0.1578947E+00  0.5263158E-01  0.6998105E-02
   1       -3.754968
   2       -0.974218
   3        3.190431
   4        4.023170
   5        8.004044
   6        8.984723
   7       10.027388
   8       12.840290
 
 -0.4210526E+00  0.1578947E+00  0.5263158E-01  0.6998105E-02
   1       -3.658102
   2       -1.111801
   3        3.120656
   4        4.065341
   5        8.043847
   6        8.939927
   7        9.972614
   8       13.671174
 
 -0.3684211E+00  0.1578947E+00  0.5263158E-01  0.6998105E-02
   1       -3.846294
   2       -0.838719
   3        3.088286
   4        4.168309
   5        8.119955
   6        8.940160
   7        9.957227
   8       13.096516
 
 -0.3157895E+00  0.1578947E+00  0.5263158E-01  0.6998105E-02
   1       -4.197441
   2       -0.279508
   3        3.102594
   4        4.321499
   5        8.225705
   6        8.976235
   7        9.972753
   8       12.275530
 
 -0.2631579E+00  0.1578947E+00  0.5263158E-01  0.6998105E-02
   1       -4.586612
   2        0.433917
   3        3.172809
   4        4.512308
   5        8.350744
   6        9.012762
   7        9.992072
   8       11.563618
 
 -0.2105263E+00  0.1578947E+00  0.5263158E-01  0.6998105E-02
   1       -4.954464
   2        1.226864
   3        3.310864
   4        4.724322
   5        8.473459
   6        8.982487
   7        9.963244
   8       11.055328
 
 -0.1578947E+00  0.1578947E+00  0.5263158E-01  0.6998105E-02
   1       -5.275497
   2        2.038620
   3        3.540482
   4        4.933387
   5        8.512298
   6        8.885012
   7        9.804829
   8       10.825026
 
 -0.1052632E+00  0.1578947E+00  0.5263158E-01  0.3499052E-02
   1       -5.537702
   2        2.776281
   3        3.916581
   4        5.102396
   5        8.349013
   6        8.858740
   7        9.509927
   8       10.805689
 
  0.2631579E+00  0.2105263E+00  0.5263158E-01  0.3499052E-02
   1       -5.348053
   2        2.573439
   3        3.890045
   4        4.262404
   5        7.338672
   6        9.465762
   7       10.329535
   8       10.584002
 
  0.3157895E+00  0.2105263E+00  0.5263158E-01  0.6998105E-02
   1       -5.085686
   2        1.891905
   3        3.546920
   4        4.116454
   5        7.492887
   6        9.355031
   7       10.283678
   8       10.902020
 
  0.3684211E+00  0.2105263E+00  0.5263158E-01  0.6998105E-02
   1       -4.764613
   2        1.145360
   3        3.270028
   4        3.943937
   5        7.662714
   6        9.518224
   7       10.136451
   8       11.038624
 
  0.4210526E+00  0.2105263E+00  0.5263158E-01  0.6998105E-02
   1       -4.396567
   2        0.404539
   3        3.032080
   4        3.805626
   5        7.739954
   6        9.934819
   7       10.032160
   8       11.021933
 
  0.4736842E+00  0.2105263E+00  0.5263158E-01  0.6998105E-02
   1       -4.006854
   2       -0.272287
   3        2.822674
   4        3.731786
   5        7.768795
   6        9.782231
   7       10.739498
   8       10.934952
 
 -0.4736842E+00  0.2105263E+00  0.5263158E-01  0.6998105E-02
   1       -3.655190
   2       -0.807756
   3        2.645597
   4        3.729285
   5        7.811689
   6        9.633455
   7       10.825203
   8       11.624190
 
 -0.4210526E+00  0.2105263E+00  0.5263158E-01  0.6998105E-02
   1       -3.470267
   2       -1.064580
   3        2.510535
   4        3.794048
   5        7.897086
   6        9.517009
   7       10.738936
   8       12.593952
 