Automatically generated mesh
     220
Reciprocal lattice
    0.00000000000000    0.00000000000000    0.00000000000000             1
    0.05263157894737    0.00000000000000    0.00000000000000             8
    0.10526315789474    0.00000000000000    0.00000000000000             8
    0.15789473684211    0.00000000000000    0.00000000000000             8
    0.21052631578947    0.00000000000000    0.00000000000000             8
    0.26315789473684    0.00000000000000    0.00000000000000             8
    0.31578947368421    0.00000000000000    0.00000000000000             8
    0.36842105263158    0.00000000000000    0.00000000000000             8
    0.42105263157895    0.00000000000000    0.00000000000000             8
    0.47368421052632    0.00000000000000    0.00000000000000             8
    0.05263157894737    0.05263157894737    0.00000000000000             6
    0.10526315789474    0.05263157894737    0.00000000000000            24
    0.15789473684211    0.05263157894737    0.00000000000000            24
    0.21052631578947    0.05263157894737    0.00000000000000            24
    0.26315789473684    0.05263157894737    0.00000000000000            24
    0.31578947368421    0.05263157894737    0.00000000000000            24
    0.36842105263158    0.05263157894737    0.00000000000000            24
    0.42105263157895    0.05263157894737    0.00000000000000            24
    0.47368421052632    0.05263157894737    0.00000000000000            24
   -0.47368421052632    0.05263157894737    0.00000000000000            24
   -0.42105263157895    0.05263157894737    0.00000000000000            24
   -0.36842105263158    0.05263157894737    0.00000000000000            24
   -0.31578947368421    0.05263157894737    0.00000000000000            24
   -0.26315789473684    0.05263157894737    0.00000000000000            24
   -0.21052631578947    0.05263157894737    0.00000000000000            24
   -0.15789473684211    0.05263157894737    0.00000000000000            24
   -0.10526315789474    0.05263157894737    0.00000000000000            24
   -0.05263157894737    0.05263157894737    0.00000000000000            12
    0.10526315789474    0.10526315789474    0.00000000000000             6
    0.15789473684211    0.10526315789474    0.00000000000000            24
    0.21052631578947    0.10526315789474    0.00000000000000            24
    0.26315789473684    0.10526315789474    0.00000000000000            24
    0.31578947368421    0.10526315789474    0.00000000000000            24
    0.36842105263158    0.10526315789474    0.00000000000000            24
    0.42105263157895    0.10526315789474    0.00000000000000            24
    0.47368421052632    0.10526315789474    0.00000000000000            24
   -0.47368421052632    0.10526315789474    0.00000000000000            24
   -0.42105263157895    0.10526315789474    0.00000000000000            24
   -0.36842105263158    0.10526315789474    0.00000000000000            24
   -0.31578947368421    0.10526315789474    0.00000000000000            24
   -0.26315789473684    0.10526315789474    0.00000000000000            24
   -0.21052631578947    0.10526315789474    0.00000000000000            24
   -0.15789473684211    0.10526315789474    0.00000000000000            24
   -0.10526315789474    0.10526315789474    0.00000000000000            12
    0.15789473684211    0.15789473684211    0.00000000000000             6
    0.21052631578947    0.15789473684211    0.00000000000000            24
    0.26315789473684    0.15789473684211    0.00000000000000            24
    0.31578947368421    0.15789473684211    0.00000000000000            24
    0.36842105263158    0.15789473684211    0.00000000000000            24
    0.42105263157895    0.15789473684211    0.00000000000000            24
    0.47368421052632    0.15789473684211    0.00000000000000            24
   -0.47368421052632    0.15789473684211    0.00000000000000            24
   -0.42105263157895    0.15789473684211    0.00000000000000            24
   -0.36842105263158    0.15789473684211    0.00000000000000            24
   -0.31578947368421    0.15789473684211    0.00000000000000            24
   -0.26315789473684    0.15789473684211    0.00000000000000            24
   -0.21052631578947    0.15789473684211    0.00000000000000            24
   -0.15789473684211    0.15789473684211    0.00000000000000            12
    0.21052631578947    0.21052631578947    0.00000000000000             6
    0.26315789473684    0.21052631578947    0.00000000000000            24
    0.31578947368421    0.21052631578947    0.00000000000000            24
    0.36842105263158    0.21052631578947    0.00000000000000            24
    0.42105263157895    0.21052631578947    0.00000000000000            24
    0.47368421052632    0.21052631578947    0.00000000000000            24
   -0.47368421052632    0.21052631578947    0.00000000000000            24
   -0.42105263157895    0.21052631578947    0.00000000000000            24
   -0.36842105263158    0.21052631578947    0.00000000000000            24
   -0.31578947368421    0.21052631578947    0.00000000000000            24
   -0.26315789473684    0.21052631578947    0.00000000000000            24
   -0.21052631578947    0.21052631578947    0.00000000000000            12
    0.26315789473684    0.26315789473684    0.00000000000000             6
    0.31578947368421    0.26315789473684    0.00000000000000            24
    0.36842105263158    0.26315789473684    0.00000000000000            24
    0.42105263157895    0.26315789473684    0.00000000000000            24
    0.47368421052632    0.26315789473684    0.00000000000000            24
   -0.47368421052632    0.26315789473684    0.00000000000000            24
   -0.42105263157895    0.26315789473684    0.00000000000000            24
   -0.36842105263158    0.26315789473684    0.00000000000000            24
   -0.31578947368421    0.26315789473684    0.00000000000000            24
   -0.26315789473684    0.26315789473684    0.00000000000000            12
    0.31578947368421    0.31578947368421    0.00000000000000             6
    0.36842105263158    0.31578947368421    0.00000000000000            24
    0.42105263157895    0.31578947368421    0.00000000000000            24
    0.47368421052632    0.31578947368421    0.00000000000000            24
   -0.47368421052632    0.31578947368421    0.00000000000000            24
   -0.42105263157895    0.31578947368421    0.00000000000000            24
   -0.36842105263158    0.31578947368421    0.00000000000000            24
   -0.31578947368421    0.31578947368421    0.00000000000000            12
    0.36842105263158    0.36842105263158    0.00000000000000             6
    0.42105263157895    0.36842105263158    0.00000000000000            24
    0.47368421052632    0.36842105263158    0.00000000000000            24
   -0.47368421052632    0.36842105263158    0.00000000000000            24
   -0.42105263157895    0.36842105263158    0.00000000000000            24
   -0.36842105263158    0.36842105263158    0.00000000000000            12
    0.42105263157895    0.42105263157895    0.00000000000000             6
    0.47368421052632    0.42105263157895    0.00000000000000            24
   -0.47368421052632    0.42105263157895    0.00000000000000            24
   -0.42105263157895    0.42105263157895    0.00000000000000            12
    0.47368421052632    0.47368421052632    0.00000000000000             6
   -0.47368421052632    0.47368421052632    0.00000000000000            12
    0.15789473684211    0.10526315789474    0.05263157894737            24
    0.21052631578947    0.10526315789474    0.05263157894737            48
    0.26315789473684    0.10526315789474    0.05263157894737            48
    0.31578947368421    0.10526315789474    0.05263157894737            48
    0.36842105263158    0.10526315789474    0.05263157894737            48
    0.42105263157895    0.10526315789474    0.05263157894737            48
    0.47368421052632    0.10526315789474    0.05263157894737            48
   -0.47368421052632    0.10526315789474    0.05263157894737            48
    0.21052631578947    0.15789473684211    0.05263157894737            24
    0.26315789473684    0.15789473684211    0.05263157894737            48
    0.31578947368421    0.15789473684211    0.05263157894737            48
    0.36842105263158    0.15789473684211    0.05263157894737            48
    0.42105263157895    0.15789473684211    0.05263157894737            48
    0.47368421052632    0.15789473684211    0.05263157894737            48
   -0.47368421052632    0.15789473684211    0.05263157894737            48
   -0.42105263157895    0.15789473684211    0.05263157894737            48
   -0.36842105263158    0.15789473684211    0.05263157894737            48
   -0.31578947368421    0.15789473684211    0.05263157894737            48
   -0.26315789473684    0.15789473684211    0.05263157894737            48
   -0.21052631578947    0.15789473684211    0.05263157894737            48
   -0.15789473684211    0.15789473684211    0.05263157894737            48
   -0.10526315789474    0.15789473684211    0.05263157894737            24
    0.26315789473684    0.21052631578947    0.05263157894737            24
    0.31578947368421    0.21052631578947    0.05263157894737            48
    0.36842105263158    0.21052631578947    0.05263157894737            48
    0.42105263157895    0.21052631578947    0.05263157894737            48
    0.47368421052632    0.21052631578947    0.05263157894737            48
   -0.47368421052632    0.21052631578947    0.05263157894737            48
   -0.42105263157895    0.21052631578947    0.05263157894737            48
   -0.36842105263158    0.21052631578947    0.05263157894737            48
   -0.31578947368421    0.21052631578947    0.05263157894737            48
   -0.26315789473684    0.21052631578947    0.05263157894737            48
   -0.21052631578947    0.21052631578947    0.05263157894737            48
   -0.15789473684211    0.21052631578947    0.05263157894737            24
    0.31578947368421    0.26315789473684    0.05263157894737            24
    0.36842105263158    0.26315789473684    0.05263157894737            48
    0.42105263157895    0.26315789473684    0.05263157894737            48
    0.47368421052632    0.26315789473684    0.05263157894737            48
   -0.47368421052632    0.26315789473684    0.05263157894737            48
   -0.42105263157895    0.26315789473684    0.05263157894737            48
   -0.36842105263158    0.26315789473684    0.05263157894737            48
   -0.31578947368421    0.26315789473684    0.05263157894737            48
   -0.26315789473684    0.26315789473684    0.05263157894737            48
   -0.21052631578947    0.26315789473684    0.05263157894737            24
    0.36842105263158    0.31578947368421    0.05263157894737            24
    0.42105263157895    0.31578947368421    0.05263157894737            48
    0.47368421052632    0.31578947368421    0.05263157894737            48
   -0.47368421052632    0.31578947368421    0.05263157894737            48
   -0.42105263157895    0.31578947368421    0.05263157894737            48
   -0.36842105263158    0.31578947368421    0.05263157894737            48
   -0.31578947368421    0.31578947368421    0.05263157894737            48
   -0.26315789473684    0.31578947368421    0.05263157894737            24
    0.42105263157895    0.36842105263158    0.05263157894737            24
    0.47368421052632    0.36842105263158    0.05263157894737            48
   -0.47368421052632    0.36842105263158    0.05263157894737            48
   -0.42105263157895    0.36842105263158    0.05263157894737            48
   -0.36842105263158    0.36842105263158    0.05263157894737            48
   -0.31578947368421    0.36842105263158    0.05263157894737            24
    0.47368421052632    0.42105263157895    0.05263157894737            24
   -0.47368421052632    0.42105263157895    0.05263157894737            48
   -0.42105263157895    0.42105263157895    0.05263157894737            48
   -0.36842105263158    0.42105263157895    0.05263157894737            24
   -0.47368421052632    0.47368421052632    0.05263157894737            24
   -0.42105263157895    0.47368421052632    0.05263157894737            24
    0.31578947368421    0.21052631578947    0.10526315789474            24
    0.36842105263158    0.21052631578947    0.10526315789474            48
    0.42105263157895    0.21052631578947    0.10526315789474            48
    0.47368421052632    0.21052631578947    0.10526315789474            48
   -0.47368421052632    0.21052631578947    0.10526315789474            48
   -0.42105263157895    0.21052631578947    0.10526315789474            48
    0.36842105263158    0.26315789473684    0.10526315789474            24
    0.42105263157895    0.26315789473684    0.10526315789474            48
    0.47368421052632    0.26315789473684    0.10526315789474            48
   -0.47368421052632    0.26315789473684    0.10526315789474            48
   -0.42105263157895    0.26315789473684    0.10526315789474            48
   -0.36842105263158    0.26315789473684    0.10526315789474            48
   -0.31578947368421    0.26315789473684    0.10526315789474            48
   -0.26315789473684    0.26315789473684    0.10526315789474            48
   -0.21052631578947    0.26315789473684    0.10526315789474            48
   -0.15789473684211    0.26315789473684    0.10526315789474            24
    0.42105263157895    0.31578947368421    0.10526315789474            24
    0.47368421052632    0.31578947368421    0.10526315789474            48
   -0.47368421052632    0.31578947368421    0.10526315789474            48
   -0.42105263157895    0.31578947368421    0.10526315789474            48
   -0.36842105263158    0.31578947368421    0.10526315789474            48
   -0.31578947368421    0.31578947368421    0.10526315789474            48
   -0.26315789473684    0.31578947368421    0.10526315789474            48
   -0.21052631578947    0.31578947368421    0.10526315789474            24
    0.47368421052632    0.36842105263158    0.10526315789474            24
   -0.47368421052632    0.36842105263158    0.10526315789474            48
   -0.42105263157895    0.36842105263158    0.10526315789474            48
   -0.36842105263158    0.36842105263158    0.10526315789474            48
   -0.31578947368421    0.36842105263158    0.10526315789474            48
   -0.26315789473684    0.36842105263158    0.10526315789474            24
   -0.47368421052632    0.42105263157895    0.10526315789474            24
   -0.42105263157895    0.42105263157895    0.10526315789474            48
   -0.36842105263158    0.42105263157895    0.10526315789474            48
   -0.31578947368421    0.42105263157895    0.10526315789474            24
   -0.42105263157895    0.47368421052632    0.10526315789474            24
   -0.36842105263158    0.47368421052632    0.10526315789474            24
    0.47368421052632    0.31578947368421    0.15789473684211            24
   -0.47368421052632    0.31578947368421    0.15789473684211            48
   -0.42105263157895    0.31578947368421    0.15789473684211            48
   -0.36842105263158    0.31578947368421    0.15789473684211            48
   -0.47368421052632    0.36842105263158    0.15789473684211            24
   -0.42105263157895    0.36842105263158    0.15789473684211            48
   -0.36842105263158    0.36842105263158    0.15789473684211            48
   -0.31578947368421    0.36842105263158    0.15789473684211            48
   -0.26315789473684    0.36842105263158    0.15789473684211            48
   -0.21052631578947    0.36842105263158    0.15789473684211            24
   -0.42105263157895    0.42105263157895    0.15789473684211            24
   -0.36842105263158    0.42105263157895    0.15789473684211            48
   -0.31578947368421    0.42105263157895    0.15789473684211            48
   -0.26315789473684    0.42105263157895    0.15789473684211            24
   -0.36842105263158    0.47368421052632    0.15789473684211            24
   -0.31578947368421    0.47368421052632    0.15789473684211            24
   -0.36842105263158    0.42105263157895    0.21052631578947            24
   -0.31578947368421    0.42105263157895    0.21052631578947            48
   -0.31578947368421    0.47368421052632    0.21052631578947            24
   -0.26315789473684    0.47368421052632    0.21052631578947            24
