<?xml version="1.0" encoding="ISO-8859-1"?>
<modeling>
 <generator>
  <i name="program" type="string">vasp </i>
  <i name="version" type="string">5.3.3  </i>
  <i name="subversion" type="string">18Dez12 (build Jan 30 2013 10:57:47) complex                          parallel </i>
  <i name="platform" type="string">LinuxIFC </i>
  <i name="date" type="string">2016 06 21 </i>
  <i name="time" type="string">15:02:33 </i>
 </generator>
 <incar>
  <i type="string" name="PREC">accurate</i>
  <i type="int" name="NELM">   400</i>
  <i type="int" name="IBRION">     2</i>
  <i name="EDIFF">      0.00000010</i>
  <i type="int" name="NSW">     1</i>
  <i name="ENCUT">    550.00000000</i>
  <i type="int" name="ISMEAR">     0</i>
  <i type="logical" name="LWAVE"> F  </i>
  <i type="logical" name="LCHARG"> F  </i>
  <i type="int" name="NELM">   400</i>
  <i type="string" name="GGA"> BO</i>
  <i name="PARAM1">      0.18333333</i>
  <i name="PARAM2">      0.22000000</i>
  <i type="logical" name="LUSE_VDW"> T  </i>
  <i name="AGGAC">      0.00000000</i>
 </incar>
 <kpoints>
  <generation param="Gamma">
   <v type="int" name="divisions">      19       19       19 </v>
   <v name="usershift">      0.00000000       0.00000000       0.00000000 </v>
   <v name="genvec1">      0.05263158       0.00000000       0.00000000 </v>
   <v name="genvec2">      0.00000000       0.05263158       0.00000000 </v>
   <v name="genvec3">      0.00000000       0.00000000       0.05263158 </v>
   <v name="shift">      0.00000000       0.00000000       0.00000000 </v>
  </generation>
  <varray name="kpointlist" >
   <v>       0.00000000       0.00000000       0.00000000 </v>
   <v>       0.05263158       0.00000000       0.00000000 </v>
   <v>       0.10526316       0.00000000       0.00000000 </v>
   <v>       0.15789474       0.00000000       0.00000000 </v>
   <v>       0.21052632       0.00000000       0.00000000 </v>
   <v>       0.26315789       0.00000000       0.00000000 </v>
   <v>       0.31578947       0.00000000       0.00000000 </v>
   <v>       0.36842105       0.00000000       0.00000000 </v>
   <v>       0.42105263       0.00000000       0.00000000 </v>
   <v>       0.47368421       0.00000000       0.00000000 </v>
   <v>       0.05263158       0.05263158       0.00000000 </v>
   <v>       0.10526316       0.05263158       0.00000000 </v>
   <v>       0.15789474       0.05263158       0.00000000 </v>
   <v>       0.21052632       0.05263158       0.00000000 </v>
   <v>       0.26315789       0.05263158       0.00000000 </v>
   <v>       0.31578947       0.05263158       0.00000000 </v>
   <v>       0.36842105       0.05263158       0.00000000 </v>
   <v>       0.42105263       0.05263158       0.00000000 </v>
   <v>       0.47368421       0.05263158       0.00000000 </v>
   <v>      -0.47368421       0.05263158       0.00000000 </v>
   <v>      -0.42105263       0.05263158       0.00000000 </v>
   <v>      -0.36842105       0.05263158       0.00000000 </v>
   <v>      -0.31578947       0.05263158       0.00000000 </v>
   <v>      -0.26315789       0.05263158       0.00000000 </v>
   <v>      -0.21052632       0.05263158       0.00000000 </v>
   <v>      -0.15789474       0.05263158       0.00000000 </v>
   <v>      -0.10526316       0.05263158       0.00000000 </v>
   <v>      -0.05263158       0.05263158       0.00000000 </v>
   <v>       0.10526316       0.10526316       0.00000000 </v>
   <v>       0.15789474       0.10526316       0.00000000 </v>
   <v>       0.21052632       0.10526316       0.00000000 </v>
   <v>       0.26315789       0.10526316       0.00000000 </v>
   <v>       0.31578947       0.10526316       0.00000000 </v>
   <v>       0.36842105       0.10526316       0.00000000 </v>
   <v>       0.42105263       0.10526316       0.00000000 </v>
   <v>       0.47368421       0.10526316       0.00000000 </v>
   <v>      -0.47368421       0.10526316       0.00000000 </v>
   <v>      -0.42105263       0.10526316       0.00000000 </v>
   <v>      -0.36842105       0.10526316       0.00000000 </v>
   <v>      -0.31578947       0.10526316       0.00000000 </v>
   <v>      -0.26315789       0.10526316       0.00000000 </v>
   <v>      -0.21052632       0.10526316       0.00000000 </v>
   <v>      -0.15789474       0.10526316       0.00000000 </v>
   <v>      -0.10526316       0.10526316       0.00000000 </v>
   <v>       0.15789474       0.15789474       0.00000000 </v>
   <v>       0.21052632       0.15789474       0.00000000 </v>
   <v>       0.26315789       0.15789474       0.00000000 </v>
   <v>       0.31578947       0.15789474       0.00000000 </v>
   <v>       0.36842105       0.15789474       0.00000000 </v>
   <v>       0.42105263       0.15789474       0.00000000 </v>
   <v>       0.47368421       0.15789474       0.00000000 </v>
   <v>      -0.47368421       0.15789474       0.00000000 </v>
   <v>      -0.42105263       0.15789474       0.00000000 </v>
   <v>      -0.36842105       0.15789474       0.00000000 </v>
   <v>      -0.31578947       0.15789474       0.00000000 </v>
   <v>      -0.26315789       0.15789474       0.00000000 </v>
   <v>      -0.21052632       0.15789474       0.00000000 </v>
   <v>      -0.15789474       0.15789474       0.00000000 </v>
   <v>       0.21052632       0.21052632       0.00000000 </v>
   <v>       0.26315789       0.21052632       0.00000000 </v>
   <v>       0.31578947       0.21052632       0.00000000 </v>
   <v>       0.36842105       0.21052632       0.00000000 </v>
   <v>       0.42105263       0.21052632       0.00000000 </v>
   <v>       0.47368421       0.21052632       0.00000000 </v>
   <v>      -0.47368421       0.21052632       0.00000000 </v>
   <v>      -0.42105263       0.21052632       0.00000000 </v>
   <v>      -0.36842105       0.21052632       0.00000000 </v>
   <v>      -0.31578947       0.21052632       0.00000000 </v>
   <v>      -0.26315789       0.21052632       0.00000000 </v>
   <v>      -0.21052632       0.21052632       0.00000000 </v>
   <v>       0.26315789       0.26315789       0.00000000 </v>
   <v>       0.31578947       0.26315789       0.00000000 </v>
   <v>       0.36842105       0.26315789       0.00000000 </v>
   <v>       0.42105263       0.26315789       0.00000000 </v>
   <v>       0.47368421       0.26315789       0.00000000 </v>
   <v>      -0.47368421       0.26315789       0.00000000 </v>
   <v>      -0.42105263       0.26315789       0.00000000 </v>
   <v>      -0.36842105       0.26315789       0.00000000 </v>
   <v>      -0.31578947       0.26315789       0.00000000 </v>
   <v>      -0.26315789       0.26315789       0.00000000 </v>
   <v>       0.31578947       0.31578947       0.00000000 </v>
   <v>       0.36842105       0.31578947       0.00000000 </v>
   <v>       0.42105263       0.31578947       0.00000000 </v>
   <v>       0.47368421       0.31578947       0.00000000 </v>
   <v>      -0.47368421       0.31578947       0.00000000 </v>
   <v>      -0.42105263       0.31578947       0.00000000 </v>
   <v>      -0.36842105       0.31578947       0.00000000 </v>
   <v>      -0.31578947       0.31578947       0.00000000 </v>
   <v>       0.36842105       0.36842105       0.00000000 </v>
   <v>       0.42105263       0.36842105       0.00000000 </v>
   <v>       0.47368421       0.36842105       0.00000000 </v>
   <v>      -0.47368421       0.36842105       0.00000000 </v>
   <v>      -0.42105263       0.36842105       0.00000000 </v>
   <v>      -0.36842105       0.36842105       0.00000000 </v>
   <v>       0.42105263       0.42105263       0.00000000 </v>
   <v>       0.47368421       0.42105263       0.00000000 </v>
   <v>      -0.47368421       0.42105263       0.00000000 </v>
   <v>      -0.42105263       0.42105263       0.00000000 </v>
   <v>       0.47368421       0.47368421       0.00000000 </v>
   <v>      -0.47368421       0.47368421       0.00000000 </v>
   <v>       0.15789474       0.10526316       0.05263158 </v>
   <v>       0.21052632       0.10526316       0.05263158 </v>
   <v>       0.26315789       0.10526316       0.05263158 </v>
   <v>       0.31578947       0.10526316       0.05263158 </v>
   <v>       0.36842105       0.10526316       0.05263158 </v>
   <v>       0.42105263       0.10526316       0.05263158 </v>
   <v>       0.47368421       0.10526316       0.05263158 </v>
   <v>      -0.47368421       0.10526316       0.05263158 </v>
   <v>       0.21052632       0.15789474       0.05263158 </v>
   <v>       0.26315789       0.15789474       0.05263158 </v>
   <v>       0.31578947       0.15789474       0.05263158 </v>
   <v>       0.36842105       0.15789474       0.05263158 </v>
   <v>       0.42105263       0.15789474       0.05263158 </v>
   <v>       0.47368421       0.15789474       0.05263158 </v>
   <v>      -0.47368421       0.15789474       0.05263158 </v>
   <v>      -0.42105263       0.15789474       0.05263158 </v>
   <v>      -0.36842105       0.15789474       0.05263158 </v>
   <v>      -0.31578947       0.15789474       0.05263158 </v>
   <v>      -0.26315789       0.15789474       0.05263158 </v>
   <v>      -0.21052632       0.15789474       0.05263158 </v>
   <v>      -0.15789474       0.15789474       0.05263158 </v>
   <v>      -0.10526316       0.15789474       0.05263158 </v>
   <v>       0.26315789       0.21052632       0.05263158 </v>
   <v>       0.31578947       0.21052632       0.05263158 </v>
   <v>       0.36842105       0.21052632       0.05263158 </v>
   <v>       0.42105263       0.21052632       0.05263158 </v>
   <v>       0.47368421       0.21052632       0.05263158 </v>
   <v>      -0.47368421       0.21052632       0.05263158 </v>
   <v>      -0.42105263       0.21052632       0.05263158 </v>
   <v>      -0.36842105       0.21052632       0.05263158 </v>
   <v>      -0.31578947       0.21052632       0.05263158 </v>
   <v>      -0.26315789       0.21052632       0.05263158 </v>
   <v>      -0.21052632       0.21052632       0.05263158 </v>
   <v>      -0.15789474       0.21052632       0.05263158 </v>
   <v>       0.31578947       0.26315789       0.05263158 </v>
   <v>       0.36842105       0.26315789       0.05263158 </v>
   <v>       0.42105263       0.26315789       0.05263158 </v>
   <v>       0.47368421       0.26315789       0.05263158 </v>
   <v>      -0.47368421       0.26315789       0.05263158 </v>
   <v>      -0.42105263       0.26315789       0.05263158 </v>
   <v>      -0.36842105       0.26315789       0.05263158 </v>
   <v>      -0.31578947       0.26315789       0.05263158 </v>
   <v>      -0.26315789       0.26315789       0.05263158 </v>
   <v>      -0.21052632       0.26315789       0.05263158 </v>
   <v>       0.36842105       0.31578947       0.05263158 </v>
   <v>       0.42105263       0.31578947       0.05263158 </v>
   <v>       0.47368421       0.31578947       0.05263158 </v>
   <v>      -0.47368421       0.31578947       0.05263158 </v>
   <v>      -0.42105263       0.31578947       0.05263158 </v>
   <v>      -0.36842105       0.31578947       0.05263158 </v>
   <v>      -0.31578947       0.31578947       0.05263158 </v>
   <v>      -0.26315789       0.31578947       0.05263158 </v>
   <v>       0.42105263       0.36842105       0.05263158 </v>
   <v>       0.47368421       0.36842105       0.05263158 </v>
   <v>      -0.47368421       0.36842105       0.05263158 </v>
   <v>      -0.42105263       0.36842105       0.05263158 </v>
   <v>      -0.36842105       0.36842105       0.05263158 </v>
   <v>      -0.31578947       0.36842105       0.05263158 </v>
   <v>       0.47368421       0.42105263       0.05263158 </v>
   <v>      -0.47368421       0.42105263       0.05263158 </v>
   <v>      -0.42105263       0.42105263       0.05263158 </v>
   <v>      -0.36842105       0.42105263       0.05263158 </v>
   <v>      -0.47368421       0.47368421       0.05263158 </v>
   <v>      -0.42105263       0.47368421       0.05263158 </v>
   <v>       0.31578947       0.21052632       0.10526316 </v>
   <v>       0.36842105       0.21052632       0.10526316 </v>
   <v>       0.42105263       0.21052632       0.10526316 </v>
   <v>       0.47368421       0.21052632       0.10526316 </v>
   <v>      -0.47368421       0.21052632       0.10526316 </v>
   <v>      -0.42105263       0.21052632       0.10526316 </v>
   <v>       0.36842105       0.26315789       0.10526316 </v>
   <v>       0.42105263       0.26315789       0.10526316 </v>
   <v>       0.47368421       0.26315789       0.10526316 </v>
   <v>      -0.47368421       0.26315789       0.10526316 </v>
   <v>      -0.42105263       0.26315789       0.10526316 </v>
   <v>      -0.36842105       0.26315789       0.10526316 </v>
   <v>      -0.31578947       0.26315789       0.10526316 </v>
   <v>      -0.26315789       0.26315789       0.10526316 </v>
   <v>      -0.21052632       0.26315789       0.10526316 </v>
   <v>      -0.15789474       0.26315789       0.10526316 </v>
   <v>       0.42105263       0.31578947       0.10526316 </v>
   <v>       0.47368421       0.31578947       0.10526316 </v>
   <v>      -0.47368421       0.31578947       0.10526316 </v>
   <v>      -0.42105263       0.31578947       0.10526316 </v>
   <v>      -0.36842105       0.31578947       0.10526316 </v>
   <v>      -0.31578947       0.31578947       0.10526316 </v>
   <v>      -0.26315789       0.31578947       0.10526316 </v>
   <v>      -0.21052632       0.31578947       0.10526316 </v>
   <v>       0.47368421       0.36842105       0.10526316 </v>
   <v>      -0.47368421       0.36842105       0.10526316 </v>
   <v>      -0.42105263       0.36842105       0.10526316 </v>
   <v>      -0.36842105       0.36842105       0.10526316 </v>
   <v>      -0.31578947       0.36842105       0.10526316 </v>
   <v>      -0.26315789       0.36842105       0.10526316 </v>
   <v>      -0.47368421       0.42105263       0.10526316 </v>
   <v>      -0.42105263       0.42105263       0.10526316 </v>
   <v>      -0.36842105       0.42105263       0.10526316 </v>
   <v>      -0.31578947       0.42105263       0.10526316 </v>
   <v>      -0.42105263       0.47368421       0.10526316 </v>
   <v>      -0.36842105       0.47368421       0.10526316 </v>
   <v>       0.47368421       0.31578947       0.15789474 </v>
   <v>      -0.47368421       0.31578947       0.15789474 </v>
   <v>      -0.42105263       0.31578947       0.15789474 </v>
   <v>      -0.36842105       0.31578947       0.15789474 </v>
   <v>      -0.47368421       0.36842105       0.15789474 </v>
   <v>      -0.42105263       0.36842105       0.15789474 </v>
   <v>      -0.36842105       0.36842105       0.15789474 </v>
   <v>      -0.31578947       0.36842105       0.15789474 </v>
   <v>      -0.26315789       0.36842105       0.15789474 </v>
   <v>      -0.21052632       0.36842105       0.15789474 </v>
   <v>      -0.42105263       0.42105263       0.15789474 </v>
   <v>      -0.36842105       0.42105263       0.15789474 </v>
   <v>      -0.31578947       0.42105263       0.15789474 </v>
   <v>      -0.26315789       0.42105263       0.15789474 </v>
   <v>      -0.36842105       0.47368421       0.15789474 </v>
   <v>      -0.31578947       0.47368421       0.15789474 </v>
   <v>      -0.36842105       0.42105263       0.21052632 </v>
   <v>      -0.31578947       0.42105263       0.21052632 </v>
   <v>      -0.31578947       0.47368421       0.21052632 </v>
   <v>      -0.26315789       0.47368421       0.21052632 </v>
  </varray>
  <varray name="weights" >
   <v>       0.00014579 </v>
   <v>       0.00116635 </v>
   <v>       0.00116635 </v>
   <v>       0.00116635 </v>
   <v>       0.00116635 </v>
   <v>       0.00116635 </v>
   <v>       0.00116635 </v>
   <v>       0.00116635 </v>
   <v>       0.00116635 </v>
   <v>       0.00116635 </v>
   <v>       0.00087476 </v>
   <v>       0.00349905 </v>
   <v>       0.00349905 </v>
   <v>       0.00349905 </v>
   <v>       0.00349905 </v>
   <v>       0.00349905 </v>
   <v>       0.00349905 </v>
   <v>       0.00349905 </v>
   <v>       0.00349905 </v>
   <v>       0.00349905 </v>
   <v>       0.00349905 </v>
   <v>       0.00349905 </v>
   <v>       0.00349905 </v>
   <v>       0.00349905 </v>
   <v>       0.00349905 </v>
   <v>       0.00349905 </v>
   <v>       0.00349905 </v>
   <v>       0.00174953 </v>
   <v>       0.00087476 </v>
   <v>       0.00349905 </v>
   <v>       0.00349905 </v>
   <v>       0.00349905 </v>
   <v>       0.00349905 </v>
   <v>       0.00349905 </v>
   <v>       0.00349905 </v>
   <v>       0.00349905 </v>
   <v>       0.00349905 </v>
   <v>       0.00349905 </v>
   <v>       0.00349905 </v>
   <v>       0.00349905 </v>
   <v>       0.00349905 </v>
   <v>       0.00349905 </v>
   <v>       0.00349905 </v>
   <v>       0.00174953 </v>
   <v>       0.00087476 </v>
   <v>       0.00349905 </v>
   <v>       0.00349905 </v>
   <v>       0.00349905 </v>
   <v>       0.00349905 </v>
   <v>       0.00349905 </v>
   <v>       0.00349905 </v>
   <v>       0.00349905 </v>
   <v>       0.00349905 </v>
   <v>       0.00349905 </v>
   <v>       0.00349905 </v>
   <v>       0.00349905 </v>
   <v>       0.00349905 </v>
   <v>       0.00174953 </v>
   <v>       0.00087476 </v>
   <v>       0.00349905 </v>
   <v>       0.00349905 </v>
   <v>       0.00349905 </v>
   <v>       0.00349905 </v>
   <v>       0.00349905 </v>
   <v>       0.00349905 </v>
   <v>       0.00349905 </v>
   <v>       0.00349905 </v>
   <v>       0.00349905 </v>
   <v>       0.00349905 </v>
   <v>       0.00174953 </v>
   <v>       0.00087476 </v>
   <v>       0.00349905 </v>
   <v>       0.00349905 </v>
   <v>       0.00349905 </v>
   <v>       0.00349905 </v>
   <v>       0.00349905 </v>
   <v>       0.00349905 </v>
   <v>       0.00349905 </v>
   <v>       0.00349905 </v>
   <v>       0.00174953 </v>
   <v>       0.00087476 </v>
   <v>       0.00349905 </v>
   <v>       0.00349905 </v>
   <v>       0.00349905 </v>
   <v>       0.00349905 </v>
   <v>       0.00349905 </v>
   <v>       0.00349905 </v>
   <v>       0.00174953 </v>
   <v>       0.00087476 </v>
   <v>       0.00349905 </v>
   <v>       0.00349905 </v>
   <v>       0.00349905 </v>
   <v>       0.00349905 </v>
   <v>       0.00174953 </v>
   <v>       0.00087476 </v>
   <v>       0.00349905 </v>
   <v>       0.00349905 </v>
   <v>       0.00174953 </v>
   <v>       0.00087476 </v>
   <v>       0.00174953 </v>
   <v>       0.00349905 </v>
   <v>       0.00699810 </v>
   <v>       0.00699810 </v>
   <v>       0.00699810 </v>
   <v>       0.00699810 </v>
   <v>       0.00699810 </v>
   <v>       0.00699810 </v>
   <v>       0.00699810 </v>
   <v>       0.00349905 </v>
   <v>       0.00699810 </v>
   <v>       0.00699810 </v>
   <v>       0.00699810 </v>
   <v>       0.00699810 </v>
   <v>       0.00699810 </v>
   <v>       0.00699810 </v>
   <v>       0.00699810 </v>
   <v>       0.00699810 </v>
   <v>       0.00699810 </v>
   <v>       0.00699810 </v>
   <v>       0.00699810 </v>
   <v>       0.00699810 </v>
   <v>       0.00349905 </v>
   <v>       0.00349905 </v>
   <v>       0.00699810 </v>
   <v>       0.00699810 </v>
   <v>       0.00699810 </v>
   <v>       0.00699810 </v>
   <v>       0.00699810 </v>
   <v>       0.00699810 </v>
   <v>       0.00699810 </v>
   <v>       0.00699810 </v>
   <v>       0.00699810 </v>
   <v>       0.00699810 </v>
   <v>       0.00349905 </v>
   <v>       0.00349905 </v>
   <v>       0.00699810 </v>
   <v>       0.00699810 </v>
   <v>       0.00699810 </v>
   <v>       0.00699810 </v>
   <v>       0.00699810 </v>
   <v>       0.00699810 </v>
   <v>       0.00699810 </v>
   <v>       0.00699810 </v>
   <v>       0.00349905 </v>
   <v>       0.00349905 </v>
   <v>       0.00699810 </v>
   <v>       0.00699810 </v>
   <v>       0.00699810 </v>
   <v>       0.00699810 </v>
   <v>       0.00699810 </v>
   <v>       0.00699810 </v>
   <v>       0.00349905 </v>
   <v>       0.00349905 </v>
   <v>       0.00699810 </v>
   <v>       0.00699810 </v>
   <v>       0.00699810 </v>
   <v>       0.00699810 </v>
   <v>       0.00349905 </v>
   <v>       0.00349905 </v>
   <v>       0.00699810 </v>
   <v>       0.00699810 </v>
   <v>       0.00349905 </v>
   <v>       0.00349905 </v>
   <v>       0.00349905 </v>
   <v>       0.00349905 </v>
   <v>       0.00699810 </v>
   <v>       0.00699810 </v>
   <v>       0.00699810 </v>
   <v>       0.00699810 </v>
   <v>       0.00699810 </v>
   <v>       0.00349905 </v>
   <v>       0.00699810 </v>
   <v>       0.00699810 </v>
   <v>       0.00699810 </v>
   <v>       0.00699810 </v>
   <v>       0.00699810 </v>
   <v>       0.00699810 </v>
   <v>       0.00699810 </v>
   <v>       0.00699810 </v>
   <v>       0.00349905 </v>
   <v>       0.00349905 </v>
   <v>       0.00699810 </v>
   <v>       0.00699810 </v>
   <v>       0.00699810 </v>
   <v>       0.00699810 </v>
   <v>       0.00699810 </v>
   <v>       0.00699810 </v>
   <v>       0.00349905 </v>
   <v>       0.00349905 </v>
   <v>       0.00699810 </v>
   <v>       0.00699810 </v>
   <v>       0.00699810 </v>
   <v>       0.00699810 </v>
   <v>       0.00349905 </v>
   <v>       0.00349905 </v>
   <v>       0.00699810 </v>
   <v>       0.00699810 </v>
   <v>       0.00349905 </v>
   <v>       0.00349905 </v>
   <v>       0.00349905 </v>
   <v>       0.00349905 </v>
   <v>       0.00699810 </v>
   <v>       0.00699810 </v>
   <v>       0.00699810 </v>
   <v>       0.00349905 </v>
   <v>       0.00699810 </v>
   <v>       0.00699810 </v>
   <v>       0.00699810 </v>
   <v>       0.00699810 </v>
   <v>       0.00349905 </v>
   <v>       0.00349905 </v>
   <v>       0.00699810 </v>
   <v>       0.00699810 </v>
   <v>       0.00349905 </v>
   <v>       0.00349905 </v>
   <v>       0.00349905 </v>
   <v>       0.00349905 </v>
   <v>       0.00699810 </v>
   <v>       0.00349905 </v>
   <v>       0.00349905 </v>
  </varray>
 </kpoints>
 <parameters>
  <separator name="general" >
   <i type="string" name="SYSTEM">unknown system</i>
   <i type="logical" name="LCOMPAT"> F  </i>
  </separator>
  <separator name="electronic" >
   <i type="string" name="PREC">accura</i>
   <i name="ENMAX">    550.00000000</i>
   <i name="ENAUG">    322.06900000</i>
   <i name="EDIFF">      0.00000010</i>
   <i type="int" name="IALGO">    38</i>
   <i type="int" name="IWAVPR">    11</i>
   <i type="int" name="NBANDS">     8</i>
   <i name="NELECT">      8.00000000</i>
   <i type="int" name="TURBO">     0</i>
   <i type="int" name="IRESTART">     0</i>
   <i type="int" name="NREBOOT">     0</i>
   <i type="int" name="NMIN">     0</i>
   <i name="EREF">      0.00000000</i>
   <separator name="electronic smearing" >
    <i type="int" name="ISMEAR">     0</i>
    <i name="SIGMA">      0.20000000</i>
    <i name="KSPACING">      0.50000000</i>
    <i type="logical" name="KGAMMA"> T  </i>
   </separator>
   <separator name="electronic projectors" >
    <i type="logical" name="LREAL"> F  </i>
    <v name="ROPT">      0.00000000</v>
    <i type="int" name="LMAXPAW">  -100</i>
    <i type="int" name="LMAXMIX">     2</i>
    <i type="logical" name="NLSPLINE"> F  </i>
   </separator>
   <separator name="electronic startup" >
    <i type="int" name="ISTART">     0</i>
    <i type="int" name="ICHARG">     2</i>
    <i type="int" name="INIWAV">     1</i>
   </separator>
   <separator name="electronic spin" >
    <i type="int" name="ISPIN">     1</i>
    <i type="logical" name="LNONCOLLINEAR"> F  </i>
    <v name="MAGMOM">      1.00000000      1.00000000</v>
    <i name="NUPDOWN">     -1.00000000</i>
    <i type="logical" name="LSORBIT"> F  </i>
    <v name="SAXIS">      0.00000000      0.00000000      1.00000000</v>
    <i type="logical" name="LSPIRAL"> F  </i>
    <v name="QSPIRAL">      0.00000000      0.00000000      0.00000000</v>
    <i type="logical" name="LZEROZ"> F  </i>
   </separator>
   <separator name="electronic exchange-correlation" >
    <i type="logical" name="LASPH"> F  </i>
    <i type="logical" name="LMETAGGA"> F  </i>
   </separator>
   <separator name="electronic convergence" >
    <i type="int" name="NELM">   400</i>
    <i type="int" name="NELMDL">    -5</i>
    <i type="int" name="NELMIN">     2</i>
    <i name="ENINI">    550.00000000</i>
    <separator name="electronic convergence detail" >
     <i type="logical" name="LDIAG"> T  </i>
     <i type="logical" name="LSUBROT"> T  </i>
     <i name="WEIMIN">      0.00100000</i>
     <i name="EBREAK">      0.00000000</i>
     <i name="DEPER">      0.30000000</i>
     <i type="int" name="NRMM">     4</i>
     <i name="TIME">      0.40000000</i>
    </separator>
   </separator>
   <separator name="electronic mixer" >
    <i name="AMIX">      0.40000000</i>
    <i name="BMIX">      1.00000000</i>
    <i name="AMIN">      0.10000000</i>
    <i name="AMIX_MAG">      1.60000000</i>
    <i name="BMIX_MAG">      1.00000000</i>
    <separator name="electronic mixer details" >
     <i type="int" name="IMIX">     4</i>
     <i type="int" name="MAXMIX">   -45</i>
     <i name="WC">    100.00000000</i>
     <i type="int" name="INIMIX">     1</i>
     <i type="int" name="MIXPRE">     1</i>
     <i type="int" name="MREMOVE">     5</i>
    </separator>
   </separator>
   <separator name="electronic dipolcorrection" >
    <i type="logical" name="LDIPOL"> F  </i>
    <i type="logical" name="LMONO"> F  </i>
    <i type="int" name="IDIPOL">     0</i>
    <i name="EPSILON">      1.00000000</i>
    <v name="DIPOL">   -100.00000000   -100.00000000   -100.00000000</v>
    <i name="EFIELD">      0.00000000</i>
   </separator>
  </separator>
  <separator name="grids" >
   <i type="int" name="NGX">    30</i>
   <i type="int" name="NGY">    30</i>
   <i type="int" name="NGZ">    30</i>
   <i type="int" name="NGXF">    60</i>
   <i type="int" name="NGYF">    60</i>
   <i type="int" name="NGZF">    60</i>
   <i type="logical" name="ADDGRID"> F  </i>
  </separator>
  <separator name="ionic" >
   <i type="int" name="NSW">     1</i>
   <i type="int" name="IBRION">     2</i>
   <i type="int" name="ISIF">     2</i>
   <i name="PSTRESS">      0.00000000</i>
   <i name="EDIFFG">      0.00000100</i>
   <i type="int" name="NFREE">     1</i>
   <i name="POTIM">      0.50000000</i>
   <i name="SMASS">     -3.00000000</i>
   <i name="SCALEE">      1.00000000</i>
  </separator>
  <separator name="ionic md" >
   <i name="TEBEG">      0.00010000</i>
   <i name="TEEND">      0.00010000</i>
   <i type="int" name="NBLOCK">     1</i>
   <i type="int" name="KBLOCK">     1</i>
   <i type="int" name="NPACO">   256</i>
   <i name="APACO">     16.00000000</i>
  </separator>
  <separator name="symmetry" >
   <i type="int" name="ISYM">     2</i>
   <i name="SYMPREC">      0.00001000</i>
  </separator>
  <separator name="dos" >
   <i type="logical" name="LORBIT"> F  </i>
   <v name="RWIGS">     -1.00000000</v>
   <i type="int" name="NEDOS">   301</i>
   <i name="EMIN">     10.00000000</i>
   <i name="EMAX">    -10.00000000</i>
   <i name="EFERMI">      0.00000000</i>
  </separator>
  <separator name="writing" >
   <i type="int" name="NWRITE">     2</i>
   <i type="logical" name="LWAVE"> F  </i>
   <i type="logical" name="LCHARG"> F  </i>
   <i type="logical" name="LPARD"> F  </i>
   <i type="logical" name="LVTOT"> F  </i>
   <i type="logical" name="LVHAR"> F  </i>
   <i type="logical" name="LELF"> F  </i>
   <i type="logical" name="LOPTICS"> F  </i>
   <v name="STM">      0.00000000      0.00000000      0.00000000      0.00000000      0.00000000      0.00000000      0.00000000</v>
  </separator>
  <separator name="performance" >
   <i type="int" name="NPAR">     4</i>
   <i type="int" name="NSIM">     4</i>
   <i type="int" name="NBLK">    -1</i>
   <i type="logical" name="LPLANE"> T  </i>
   <i type="logical" name="LSCALAPACK"> F  </i>
   <i type="logical" name="LSCAAWARE"> F  </i>
   <i type="logical" name="LSCALU"> F  </i>
   <i type="logical" name="LASYNC"> F  </i>
   <i type="logical" name="LORBITALREAL"> F  </i>
  </separator>
  <separator name="miscellaneous" >
   <i type="int" name="IDIOT">     3</i>
   <i type="logical" name="LMUSIC"> F  </i>
   <v name="POMASS">     28.08500000</v>
   <v name="DARWINR">      0.00000000</v>
   <v name="DARWINV">      1.00000000</v>
   <i type="logical" name="LCORR"> T  </i>
  </separator>
  <i type="logical" name="GGA_COMPAT"> T  </i>
  <i type="logical" name="LBERRY"> F  </i>
  <i type="int" name="ICORELEVEL">     0</i>
  <i type="logical" name="LDAU"> F  </i>
  <i type="int" name="I_CONSTRAINED_M">     0</i>
  <separator name="electronic exchange-correlation" >
   <i type="string" name="GGA">BO</i>
   <i type="int" name="VOSKOWN">     0</i>
   <i type="logical" name="LHFCALC"> F  </i>
   <i type="string" name="PRECFOCK"></i>
   <i type="logical" name="LSYMGRAD"> F  </i>
   <i type="logical" name="LHFONE"> F  </i>
   <i type="logical" name="LRHFCALC"> F  </i>
   <i type="logical" name="LTHOMAS"> F  </i>
   <i type="logical" name="LMODELHF"> F  </i>
   <i name="ENCUT4O">     -1.00000000</i>
   <i type="int" name="EXXOEP">     0</i>
   <i type="int" name="FOURORBIT">     0</i>
   <i name="AEXX">      0.00000000</i>
   <i name="HFALPHA">      0.00000000</i>
   <i name="MCALPHA">      0.00000000</i>
   <i name="ALDAX">      1.00000000</i>
   <i name="AGGAX">      1.00000000</i>
   <i name="ALDAC">      1.00000000</i>
   <i name="AGGAC">      0.00000000</i>
   <i type="int" name="NKREDX">     1</i>
   <i type="int" name="NKREDY">     1</i>
   <i type="int" name="NKREDZ">     1</i>
   <i type="logical" name="SHIFTRED"> F  </i>
   <i type="logical" name="ODDONLY"> F  </i>
   <i type="logical" name="EVENONLY"> F  </i>
   <i type="int" name="LMAXFOCK">     0</i>
   <i type="int" name="NMAXFOCKAE">     0</i>
   <i type="logical" name="LFOCKAEDFT"> F  </i>
   <i name="HFSCREEN">      0.00000000</i>
   <i name="HFSCREENC">      0.00000000</i>
   <i type="int" name="NBANDSGWLOW">     0</i>
  </separator>
  <separator name="vdW DFT" >
   <i type="logical" name="LUSE_VDW"> T  </i>
   <i name="Zab_VDW">     -0.84910000</i>
   <i name="PARAM1">      0.18333333</i>
   <i name="PARAM2">      0.22000000</i>
   <i name="PARAM3">      0.00000000</i>
  </separator>
  <separator name="model GW" >
   <i type="int" name="MODEL_GW">     0</i>
   <i name="MODEL_EPS0">     12.26648953</i>
   <i name="MODEL_ALPHA">      1.00000000</i>
  </separator>
  <separator name="linear response parameters" >
   <i type="logical" name="LEPSILON"> F  </i>
   <i type="logical" name="LRPA"> F  </i>
   <i type="logical" name="LNABLA"> F  </i>
   <i type="logical" name="LVEL"> F  </i>
   <i type="int" name="KINTER">     0</i>
   <i name="CSHIFT">      0.10000000</i>
   <i name="OMEGAMAX">     -1.00000000</i>
   <i name="DEG_THRESHOLD">      0.00200000</i>
  </separator>
  <separator name="orbital magnetization" >
   <i type="logical" name="NUCIND"> F  </i>
   <v name="MAGPOS">      0.00000000      0.00000000      0.00000000</v>
   <i type="logical" name="LNICSALL"> T  </i>
   <i type="logical" name="ORBITALMAG"> F  </i>
   <i type="logical" name="LMAGBLOCH"> F  </i>
   <i type="logical" name="LCHIMAG"> F  </i>
   <i type="logical" name="LGAUGE"> T  </i>
   <i type="int" name="MAGATOM">     0</i>
   <v name="MAGDIPOL">      0.00000000      0.00000000      0.00000000</v>
   <v name="AVECCONST">      0.00000000      0.00000000      0.00000000</v>
  </separator>
  <separator name="response functions" >
   <i type="logical" name="LADDER"> F  </i>
   <i type="logical" name="LFXC"> F  </i>
   <i type="logical" name="LHARTREE"> T  </i>
   <i type="int" name="IBSE">     0</i>
   <i type="logical" name="LTCTE"> F  </i>
   <i type="logical" name="LTETE"> F  </i>
   <i type="logical" name="LTRIPLET"> F  </i>
   <i type="logical" name="LFXCEPS"> F  </i>
   <i type="logical" name="L2ORDER"> F  </i>
   <i type="logical" name="LUSEW"> F  </i>
   <i name="ENCUTGW">     -2.00000000</i>
   <i name="ENCUTGWSOFT">     -2.00000000</i>
   <i name="ENCUTLF">     -1.00000000</i>
   <i type="int" name="LMAXMP2">    -1</i>
   <i name="SCISSOR">      0.00000000</i>
   <i type="int" name="NOMEGA">     0</i>
   <i type="int" name="NOMEGAR">     0</i>
   <i type="int" name="NBANDSGW">    -1</i>
   <i type="int" name="NBANDSO">    -1</i>
   <i type="int" name="NBANDSV">    -1</i>
   <i type="int" name="NELM">   400</i>
   <i type="int" name="DIM">     3</i>
   <i type="int" name="ANTIRES">     0</i>
   <i name="OMEGAMAX">    -30.00000000</i>
   <i name="OMEGATL">   -200.00000000</i>
   <i type="int" name="OMEGAGRID">     0</i>
   <i name="CSHIFT">     -0.10000000</i>
   <i type="logical" name="SELFENERGY"> F  </i>
   <i type="logical" name="LSPECTRAL"> F  </i>
   <i type="logical" name="ODDONLYGW"> F  </i>
   <i type="logical" name="EVENONLYGW"> F  </i>
   <i type="int" name="NKREDLFX">     1</i>
   <i type="int" name="NKREDLFY">     1</i>
   <i type="int" name="NKREDLFZ">     1</i>
   <i type="int" name="MAXMEM">  1800</i>
   <i type="int" name="TELESCOPE">     0</i>
  </separator>
 </parameters>
 <atominfo>
  <atoms>       2 </atoms>
  <types>       1 </types>
  <array name="atoms" >
   <dimension dim="1">ion</dimension>
   <field type="string">element</field>
   <field type="int">atomtype</field>
   <set>
    <rc><c>Si</c><c>   1</c></rc>
    <rc><c>Si</c><c>   1</c></rc>
   </set>
  </array>
  <array name="atomtypes" >
   <dimension dim="1">type</dimension>
   <field type="int">atomspertype</field>
   <field type="string">element</field>
   <field>mass</field>
   <field>valence</field>
   <field type="string">pseudopotential</field>
   <set>
    <rc><c>   2</c><c>Si</c><c>     28.08500000</c><c>      4.00000000</c><c>  PAW_PBE Si 05Jan2001                  </c></rc>
   </set>
  </array>
 </atominfo>
 <structure name="initialpos" >
  <crystal>
   <varray name="basis" >
    <v>       3.34889800       0.00000000       1.93348700 </v>
    <v>       1.11629900       3.15737200       1.93348700 </v>
    <v>       0.00000000       0.00000000       3.86697500 </v>
   </varray>
   <i name="volume">     40.88829843 </i>
   <varray name="rec_basis" >
    <v>       0.29860569      -0.10557300       0.00000000 </v>
    <v>       0.00000000       0.31671909       0.00000000 </v>
    <v>      -0.14930281      -0.10557302       0.25860007 </v>
   </varray>
  </crystal>
  <varray name="positions" >
   <v>       0.87500000       0.87500000       0.87500000 </v>
   <v>       0.12500000       0.12500000       0.12500000 </v>
  </varray>
 </structure>
 <calculation>
  <scstep>
   <time name="dav">    1.45    1.46</time>
   <time name="total">    4.22    4.44</time>
   <energy>
    <i name="alphaZ">      3.29317992 </i>
    <i name="ewald">   -226.94489173 </i>
    <i name="hartreedc">    -11.32339116 </i>
    <i name="XCdc">    -20.24410379 </i>
    <i name="pawpsdc">    189.40224250 </i>
    <i name="pawaedc">   -152.61488262 </i>
    <i name="eentropy">     -0.00901658 </i>
    <i name="bandstr">     18.66811487 </i>
    <i name="atom">    208.59416316 </i>
    <i name="e_fr_energy">      8.82141455 </i>
    <i name="e_wo_entrp">      8.83043114 </i>
    <i name="e_0_energy">      8.82592284 </i>
   </energy>
  </scstep>
  <scstep>
   <time name="dav">    2.18    2.20</time>
   <time name="total">    2.20    2.79</time>
   <energy>
    <i name="e_fr_energy">     -8.18083012 </i>
    <i name="e_wo_entrp">     -8.18082921 </i>
    <i name="e_0_energy">     -8.18082966 </i>
   </energy>
  </scstep>
  <scstep>
   <time name="dav">    2.02    2.04</time>
   <time name="total">    2.02    2.98</time>
   <energy>
    <i name="e_fr_energy">     -8.41378787 </i>
    <i name="e_wo_entrp">     -8.41378679 </i>
    <i name="e_0_energy">     -8.41378733 </i>
   </energy>
  </scstep>
  <scstep>
   <time name="dav">    2.23    2.25</time>
   <time name="total">    2.24    2.68</time>
   <energy>
    <i name="e_fr_energy">     -8.41478217 </i>
    <i name="e_wo_entrp">     -8.41478109 </i>
    <i name="e_0_energy">     -8.41478163 </i>
   </energy>
  </scstep>
  <scstep>
   <time name="dav">    2.02    2.04</time>
   <time name="total">    2.12    2.56</time>
   <energy>
    <i name="e_fr_energy">     -8.41478369 </i>
    <i name="e_wo_entrp">     -8.41478261 </i>
    <i name="e_0_energy">     -8.41478315 </i>
   </energy>
  </scstep>
  <scstep>
   <time name="dav">    1.74    1.75</time>
   <time name="total">    3.28    3.92</time>
   <energy>
    <i name="e_fr_energy">     -8.36150471 </i>
    <i name="e_wo_entrp">     -8.36149985 </i>
    <i name="e_0_energy">     -8.36150228 </i>
   </energy>
  </scstep>
  <scstep>
   <time name="dav">    1.98    1.98</time>
   <time name="total">    3.53    3.88</time>
   <energy>
    <i name="e_fr_energy">     -8.35619463 </i>
    <i name="e_wo_entrp">     -8.35615814 </i>
    <i name="e_0_energy">     -8.35617639 </i>
   </energy>
  </scstep>
  <scstep>
   <time name="dav">    1.99    2.34</time>
   <time name="total">    3.56    4.21</time>
   <energy>
    <i name="e_fr_energy">     -8.33944014 </i>
    <i name="e_wo_entrp">     -8.33941488 </i>
    <i name="e_0_energy">     -8.33942751 </i>
   </energy>
  </scstep>
  <scstep>
   <time name="dav">    2.10    2.10</time>
   <time name="total">    3.71    3.98</time>
   <energy>
    <i name="e_fr_energy">     -8.34109204 </i>
    <i name="e_wo_entrp">     -8.34106433 </i>
    <i name="e_0_energy">     -8.34107818 </i>
   </energy>
  </scstep>
  <scstep>
   <time name="dav">    2.02    2.03</time>
   <time name="total">    3.61    4.43</time>
   <energy>
    <i name="e_fr_energy">     -8.34040416 </i>
    <i name="e_wo_entrp">     -8.34037714 </i>
    <i name="e_0_energy">     -8.34039065 </i>
   </energy>
  </scstep>
  <scstep>
   <time name="dav">    2.18    2.20</time>
   <time name="total">    3.78    4.17</time>
   <energy>
    <i name="e_fr_energy">     -8.34037071 </i>
    <i name="e_wo_entrp">     -8.34034363 </i>
    <i name="e_0_energy">     -8.34035717 </i>
   </energy>
  </scstep>
  <scstep>
   <time name="dav">    1.96    1.97</time>
   <time name="total">    3.56    3.81</time>
   <energy>
    <i name="e_fr_energy">     -8.34036922 </i>
    <i name="e_wo_entrp">     -8.34034216 </i>
    <i name="e_0_energy">     -8.34035569 </i>
   </energy>
  </scstep>
  <scstep>
   <time name="dav">    1.28    1.29</time>
   <time name="total">    2.87    5.02</time>
   <energy>
    <i name="e_fr_energy">     -8.34036591 </i>
    <i name="e_wo_entrp">     -8.34033885 </i>
    <i name="e_0_energy">     -8.34035238 </i>
   </energy>
  </scstep>
  <scstep>
   <time name="dav">    1.15    1.16</time>
   <time name="total">    2.74    2.93</time>
   <energy>
    <i name="e_fr_energy">     -8.34036571 </i>
    <i name="e_wo_entrp">     -8.34033865 </i>
    <i name="e_0_energy">     -8.34035218 </i>
   </energy>
  </scstep>
  <scstep>
   <time name="dav">    1.16    1.16</time>
   <time name="total">    2.76    2.94</time>
   <energy>
    <i name="e_fr_energy">     -8.34036548 </i>
    <i name="e_wo_entrp">     -8.34033842 </i>
    <i name="e_0_energy">     -8.34035195 </i>
   </energy>
  </scstep>
  <scstep>
   <time name="dav">    1.02    1.02</time>
   <time name="total">    2.54    3.13</time>
   <energy>
    <i name="alphaZ">      3.29317992 </i>
    <i name="ewald">   -226.94489173 </i>
    <i name="hartreedc">    -15.37245442 </i>
    <i name="XCdc">    -19.57624684 </i>
    <i name="pawpsdc">    538.68749019 </i>
    <i name="pawaedc">   -502.15086628 </i>
    <i name="eentropy">     -0.00002705 </i>
    <i name="bandstr">      5.12928755 </i>
    <i name="atom">    208.59416316 </i>
    <i name="e_fr_energy">     -8.34036552 </i>
    <i name="e_wo_entrp">     -8.34033847 </i>
    <i name="e_0_energy">     -8.34035200 </i>
   </energy>
  </scstep>
  <structure>
   <crystal>
    <varray name="basis" >
     <v>       3.34889800       0.00000000       1.93348700 </v>
     <v>       1.11629900       3.15737200       1.93348700 </v>
     <v>       0.00000000       0.00000000       3.86697500 </v>
    </varray>
    <i name="volume">     40.88829843 </i>
    <varray name="rec_basis" >
     <v>       0.29860569      -0.10557300       0.00000000 </v>
     <v>       0.00000000       0.31671909       0.00000000 </v>
     <v>      -0.14930281      -0.10557302       0.25860007 </v>
    </varray>
   </crystal>
   <varray name="positions" >
    <v>       0.87500000       0.87500000       0.87500000 </v>
    <v>       0.12500000       0.12500000       0.12500000 </v>
   </varray>
  </structure>
  <varray name="forces" >
   <v>       0.00000000       0.00000000       0.00000000 </v>
   <v>       0.00000000       0.00000000       0.00000000 </v>
  </varray>
  <varray name="stress" >
   <v>      12.27839430      -0.00000130      -0.00000183 </v>
   <v>      -0.00000130      12.27839964      -0.00000130 </v>
   <v>      -0.00000183      -0.00000130      12.27839860 </v>
  </varray>
  <energy>
   <i name="e_fr_energy">     -8.34036552 </i>
   <i name="e_wo_entrp">     -8.34035200 </i>
   <i name="e_0_energy">     -0.00002705 </i>
  </energy>
  <time name="totalsc">   52.55   62.50</time>
  <eigenvalues>
   <array>
    <dimension dim="1">band</dimension>
    <dimension dim="2">kpoint</dimension>
    <dimension dim="3">spin</dimension>
    <field>eigene</field>
    <field>occ</field>
    <set>
     <set comment="spin 1">
      <set comment="kpoint 1">
       <r>   -6.1472    1.0000 </r>
       <r>    5.5936    0.9925 </r>
       <r>    5.5936    0.9925 </r>
       <r>    5.5936    0.9925 </r>
       <r>    8.2162    0.0000 </r>
       <r>    8.2162    0.0000 </r>
       <r>    8.2162    0.0000 </r>
       <r>    8.8215    0.0000 </r>
      </set>
      <set comment="kpoint 2">
       <r>   -6.1115    1.0000 </r>
       <r>    5.2119    1.0000 </r>
       <r>    5.5360    0.9977 </r>
       <r>    5.5360    0.9977 </r>
       <r>    8.2606    0.0000 </r>
       <r>    8.3018    0.0000 </r>
       <r>    8.3018    0.0000 </r>
       <r>    9.0975    0.0000 </r>
      </set>
      <set comment="kpoint 3">
       <r>   -6.0051    1.0000 </r>
       <r>    4.3851    1.0000 </r>
       <r>    5.3877    0.9999 </r>
       <r>    5.3877    0.9999 </r>
       <r>    8.1711    0.0000 </r>
       <r>    8.5231    0.0000 </r>
       <r>    8.5232    0.0000 </r>
       <r>    9.8497    0.0000 </r>
      </set>
      <set comment="kpoint 4">
       <r>   -5.8292    1.0000 </r>
       <r>    3.4305    1.0000 </r>
       <r>    5.1965    1.0000 </r>
       <r>    5.1965    1.0000 </r>
       <r>    7.9862    0.0000 </r>
       <r>    8.7986    0.0000 </r>
       <r>    8.7986    0.0000 </r>
       <r>   10.7661    0.0000 </r>
      </set>
      <set comment="kpoint 5">
       <r>   -5.5867    1.0000 </r>
       <r>    2.4621    1.0000 </r>
       <r>    5.0002    1.0000 </r>
       <r>    5.0002    1.0000 </r>
       <r>    7.7776    0.0000 </r>
       <r>    9.0348    0.0000 </r>
       <r>    9.0348    0.0000 </r>
       <r>   11.7049    0.0000 </r>
      </set>
      <set comment="kpoint 6">
       <r>   -5.2827    1.0000 </r>
       <r>    1.5263    1.0000 </r>
       <r>    4.8211    1.0000 </r>
       <r>    4.8211    1.0000 </r>
       <r>    7.5795    0.0000 </r>
       <r>    9.1609    0.0000 </r>
       <r>    9.1609    0.0000 </r>
       <r>   12.6029    0.0000 </r>
      </set>
      <set comment="kpoint 7">
       <r>   -4.9272    1.0000 </r>
       <r>    0.6520    1.0000 </r>
       <r>    4.6710    1.0000 </r>
       <r>    4.6710    1.0000 </r>
       <r>    7.4095    0.0000 </r>
       <r>    9.1715    0.0000 </r>
       <r>    9.1715    0.0000 </r>
       <r>   13.3084    0.0000 </r>
      </set>
      <set comment="kpoint 8">
       <r>   -4.5405    1.0000 </r>
       <r>   -0.1303    1.0000 </r>
       <r>    4.5558    1.0000 </r>
       <r>    4.5558    1.0000 </r>
       <r>    7.2769    0.0000 </r>
       <r>    9.1170    0.0000 </r>
       <r>    9.1170    0.0000 </r>
       <r>   13.5034    0.0000 </r>
      </set>
      <set comment="kpoint 9">
       <r>   -4.1682    1.0000 </r>
       <r>   -0.7689    1.0000 </r>
       <r>    4.4781    1.0000 </r>
       <r>    4.4781    1.0000 </r>
       <r>    7.1867    0.0000 </r>
       <r>    9.0521    0.0000 </r>
       <r>    9.0521    0.0000 </r>
       <r>   13.4397    0.0000 </r>
      </set>
      <set comment="kpoint 10">
       <r>   -3.9119    1.0000 </r>
       <r>   -1.1591    1.0000 </r>
       <r>    4.4391    1.0000 </r>
       <r>    4.4391    1.0000 </r>
       <r>    7.1411    0.0000 </r>
       <r>    9.0119    0.0000 </r>
       <r>    9.0119    0.0000 </r>
       <r>   13.3807    0.0000 </r>
      </set>
      <set comment="kpoint 11">
       <r>   -6.0996    1.0000 </r>
       <r>    5.2858    1.0000 </r>
       <r>    5.4120    0.9999 </r>
       <r>    5.4120    0.9999 </r>
       <r>    8.1026    0.0000 </r>
       <r>    8.4562    0.0000 </r>
       <r>    8.4562    0.0000 </r>
       <r>    9.1187    0.0000 </r>
      </set>
      <set comment="kpoint 12">
       <r>   -6.0167    1.0000 </r>
       <r>    4.6288    1.0000 </r>
       <r>    5.2205    1.0000 </r>
       <r>    5.3505    1.0000 </r>
       <r>    8.0916    0.0000 </r>
       <r>    8.5380    0.0000 </r>
       <r>    8.7280    0.0000 </r>
       <r>    9.6679    0.0000 </r>
      </set>
      <set comment="kpoint 13">
       <r>   -5.8638    1.0000 </r>
       <r>    3.7267    1.0000 </r>
       <r>    5.0079    1.0000 </r>
       <r>    5.2159    1.0000 </r>
       <r>    8.1467    0.0000 </r>
       <r>    8.5351    0.0000 </r>
       <r>    9.0403    0.0000 </r>
       <r>   10.4723    0.0000 </r>
      </set>
      <set comment="kpoint 14">
       <r>   -5.6432    1.0000 </r>
       <r>    2.7733    1.0000 </r>
       <r>    4.8060    1.0000 </r>
       <r>    5.0244    1.0000 </r>
       <r>    8.0433    0.0000 </r>
       <r>    8.7026    0.0000 </r>
       <r>    9.3081    0.0000 </r>
       <r>   11.1849    0.0000 </r>
      </set>
      <set comment="kpoint 15">
       <r>   -5.3591    1.0000 </r>
       <r>    1.8336    1.0000 </r>
       <r>    4.6326    1.0000 </r>
       <r>    4.8186    1.0000 </r>
       <r>    7.8699    0.0000 </r>
       <r>    8.8854    0.0000 </r>
       <r>    9.4576    0.0000 </r>
       <r>   11.6496    0.0000 </r>
      </set>
      <set comment="kpoint 16">
       <r>   -5.0193    1.0000 </r>
       <r>    0.9425    1.0000 </r>
       <r>    4.4973    1.0000 </r>
       <r>    4.6239    1.0000 </r>
       <r>    7.7019    0.0000 </r>
       <r>    8.9694    0.0000 </r>
       <r>    9.4707    0.0000 </r>
       <r>   12.1075    0.0000 </r>
      </set>
      <set comment="kpoint 17">
       <r>   -4.6397    1.0000 </r>
       <r>    0.1296    1.0000 </r>
       <r>    4.4043    1.0000 </r>
       <r>    4.4538    1.0000 </r>
       <r>    7.5622    0.0000 </r>
       <r>    8.9698    0.0000 </r>
       <r>    9.3923    0.0000 </r>
       <r>   12.6956    0.0000 </r>
      </set>
      <set comment="kpoint 18">
       <r>   -4.2547    1.0000 </r>
       <r>   -0.5627    1.0000 </r>
       <r>    4.3158    1.0000 </r>
       <r>    4.3554    1.0000 </r>
       <r>    7.4601    0.0000 </r>
       <r>    8.9449    0.0000 </r>
       <r>    9.2825    0.0000 </r>
       <r>   13.2609    0.0000 </r>
      </set>
      <set comment="kpoint 19">
       <r>   -3.9436    1.0000 </r>
       <r>   -1.0507    1.0000 </r>
       <r>    4.2143    1.0000 </r>
       <r>    4.3500    1.0000 </r>
       <r>    7.4000    0.0000 </r>
       <r>    8.9385    0.0000 </r>
       <r>    9.1839    0.0000 </r>
       <r>   13.4720    0.0000 </r>
      </set>
      <set comment="kpoint 20">
       <r>   -3.8468    1.0000 </r>
       <r>   -1.1917    1.0000 </r>
       <r>    4.1525    1.0000 </r>
       <r>    4.3870    1.0000 </r>
       <r>    7.3839    0.0000 </r>
       <r>    8.9717    0.0000 </r>
       <r>    9.1192    0.0000 </r>
       <r>   13.5032    0.0000 </r>
      </set>
      <set comment="kpoint 21">
       <r>   -4.0315    1.0000 </r>
       <r>   -0.9182    1.0000 </r>
       <r>    4.1330    1.0000 </r>
       <r>    4.4639    1.0000 </r>
       <r>    7.4124    0.0000 </r>
       <r>    9.0481    0.0000 </r>
       <r>    9.0946    0.0000 </r>
       <r>   13.5133    0.0000 </r>
      </set>
      <set comment="kpoint 22">
       <r>   -4.3804    1.0000 </r>
       <r>   -0.3485    1.0000 </r>
       <r>    4.1575    1.0000 </r>
       <r>    4.5780    1.0000 </r>
       <r>    7.4849    0.0000 </r>
       <r>    9.1014    0.0000 </r>
       <r>    9.1564    0.0000 </r>
       <r>   13.4155    0.0000 </r>
      </set>
      <set comment="kpoint 23">
       <r>   -4.7694    1.0000 </r>
       <r>    0.3905    1.0000 </r>
       <r>    4.2275    1.0000 </r>
       <r>    4.7254    1.0000 </r>
       <r>    7.5995    0.0000 </r>
       <r>    9.1121    0.0000 </r>
       <r>    9.2666    0.0000 </r>
       <r>   12.9933    0.0000 </r>
      </set>
      <set comment="kpoint 24">
       <r>   -5.1383    1.0000 </r>
       <r>    1.2329    1.0000 </r>
       <r>    4.3432    1.0000 </r>
       <r>    4.9002    1.0000 </r>
       <r>    7.7521    0.0000 </r>
       <r>    9.0783    0.0000 </r>
       <r>    9.3244    0.0000 </r>
       <r>   12.3929    0.0000 </r>
      </set>
      <set comment="kpoint 25">
       <r>   -5.4607    1.0000 </r>
       <r>    2.1421    1.0000 </r>
       <r>    4.5031    1.0000 </r>
       <r>    5.0932    1.0000 </r>
       <r>    7.9346    0.0000 </r>
       <r>    8.9494    0.0000 </r>
       <r>    9.2591    0.0000 </r>
       <r>   11.7697    0.0000 </r>
      </set>
      <set comment="kpoint 26">
       <r>   -5.7242    1.0000 </r>
       <r>    3.0869    1.0000 </r>
       <r>    4.7040    1.0000 </r>
       <r>    5.2876    1.0000 </r>
       <r>    8.1315    0.0000 </r>
       <r>    8.7261    0.0000 </r>
       <r>    9.0378    0.0000 </r>
       <r>   11.0660    0.0000 </r>
      </set>
      <set comment="kpoint 27">
       <r>   -5.9226    1.0000 </r>
       <r>    4.0182    1.0000 </r>
       <r>    4.9415    1.0000 </r>
       <r>    5.4544    0.9997 </r>
       <r>    8.3117    0.0000 </r>
       <r>    8.4810    0.0000 </r>
       <r>    8.7151    0.0000 </r>
       <r>   10.2706    0.0000 </r>
      </set>
      <set comment="kpoint 28">
       <r>   -6.0523    1.0000 </r>
       <r>    4.8085    1.0000 </r>
       <r>    5.2295    1.0000 </r>
       <r>    5.5503    0.9969 </r>
       <r>    8.3142    0.0000 </r>
       <r>    8.3796    0.0000 </r>
       <r>    8.4311    0.0000 </r>
       <r>    9.5221    0.0000 </r>
      </set>
      <set comment="kpoint 29">
       <r>   -5.9573    1.0000 </r>
       <r>    4.5796    1.0000 </r>
       <r>    5.0007    1.0000 </r>
       <r>    5.0007    1.0000 </r>
       <r>    7.8120    0.0000 </r>
       <r>    9.0418    0.0000 </r>
       <r>    9.0418    0.0000 </r>
       <r>    9.7129    0.0000 </r>
      </set>
      <set comment="kpoint 30">
       <r>   -5.8277    1.0000 </r>
       <r>    3.9027    1.0000 </r>
       <r>    4.7716    1.0000 </r>
       <r>    4.8710    1.0000 </r>
       <r>    7.7594    0.0000 </r>
       <r>    9.1308    0.0000 </r>
       <r>    9.3955    0.0000 </r>
       <r>   10.1927    0.0000 </r>
      </set>
      <set comment="kpoint 31">
       <r>   -5.6295    1.0000 </r>
       <r>    3.0285    1.0000 </r>
       <r>    4.5614    1.0000 </r>
       <r>    4.7059    1.0000 </r>
       <r>    7.8737    0.0000 </r>
       <r>    9.0537    0.0000 </r>
       <r>    9.7107    0.0000 </r>
       <r>   10.5532    0.0000 </r>
      </set>
      <set comment="kpoint 32">
       <r>   -5.3662    1.0000 </r>
       <r>    2.1220    1.0000 </r>
       <r>    4.3861    1.0000 </r>
       <r>    4.4851    1.0000 </r>
       <r>    7.9814    0.0000 </r>
       <r>    9.0308    0.0000 </r>
       <r>    9.9089    0.0000 </r>
       <r>   10.6905    0.0000 </r>
      </set>
      <set comment="kpoint 33">
       <r>   -5.0441    1.0000 </r>
       <r>    1.2384    1.0000 </r>
       <r>    4.2509    1.0000 </r>
       <r>    4.2544    1.0000 </r>
       <r>    7.9781    0.0000 </r>
       <r>    9.0541    0.0000 </r>
       <r>    9.9531    0.0000 </r>
       <r>   10.9480    0.0000 </r>
      </set>
      <set comment="kpoint 34">
       <r>   -4.6754    1.0000 </r>
       <r>    0.4131    1.0000 </r>
       <r>    4.0300    1.0000 </r>
       <r>    4.1706    1.0000 </r>
       <r>    7.9082    0.0000 </r>
       <r>    9.0427    0.0000 </r>
       <r>    9.8767    0.0000 </r>
       <r>   11.4587    0.0000 </r>
      </set>
      <set comment="kpoint 35">
       <r>   -4.2861    1.0000 </r>
       <r>   -0.3151    1.0000 </r>
       <r>    3.8372    1.0000 </r>
       <r>    4.1362    1.0000 </r>
       <r>    7.8349    0.0000 </r>
       <r>    9.0057    0.0000 </r>
       <r>    9.7433    0.0000 </r>
       <r>   12.1626    0.0000 </r>
      </set>
      <set comment="kpoint 36">
       <r>   -3.9367    1.0000 </r>
       <r>   -0.8787    1.0000 </r>
       <r>    3.6809    1.0000 </r>
       <r>    4.1508    1.0000 </r>
       <r>    7.7891    0.0000 </r>
       <r>    8.9845    0.0000 </r>
       <r>    9.6036    0.0000 </r>
       <r>   12.9481    0.0000 </r>
      </set>
      <set comment="kpoint 37">
       <r>   -3.7519    1.0000 </r>
       <r>   -1.1491    1.0000 </r>
       <r>    3.5670    1.0000 </r>
       <r>    4.2127    1.0000 </r>
       <r>    7.7826    0.0000 </r>
       <r>    9.0032    0.0000 </r>
       <r>    9.4870    0.0000 </r>
       <r>   13.6059    0.0000 </r>
      </set>
      <set comment="kpoint 38">
       <r>   -3.8505    1.0000 </r>
       <r>   -1.0062    1.0000 </r>
       <r>    3.5000    1.0000 </r>
       <r>    4.3185    1.0000 </r>
       <r>    7.8183    0.0000 </r>
       <r>    9.0698    0.0000 </r>
       <r>    9.4051    0.0000 </r>
       <r>   13.7600    0.0000 </r>
      </set>
      <set comment="kpoint 39">
       <r>   -4.1633    1.0000 </r>
       <r>   -0.5202    1.0000 </r>
       <r>    3.4836    1.0000 </r>
       <r>    4.4638    1.0000 </r>
       <r>    7.8946    0.0000 </r>
       <r>    9.1791    0.0000 </r>
       <r>    9.3543    0.0000 </r>
       <r>   13.3946    0.0000 </r>
      </set>
      <set comment="kpoint 40">
       <r>   -4.5487    1.0000 </r>
       <r>    0.1637    1.0000 </r>
       <r>    3.5214    1.0000 </r>
       <r>    4.6421    1.0000 </r>
       <r>    8.0082    0.0000 </r>
       <r>    9.3078    0.0000 </r>
       <r>    9.3130    0.0000 </r>
       <r>   12.7531    0.0000 </r>
      </set>
      <set comment="kpoint 41">
       <r>   -4.9279    1.0000 </r>
       <r>    0.9594    1.0000 </r>
       <r>    3.6172    1.0000 </r>
       <r>    4.8441    1.0000 </r>
       <r>    8.1536    0.0000 </r>
       <r>    9.2371    0.0000 </r>
       <r>    9.4018    0.0000 </r>
       <r>   12.1004    0.0000 </r>
      </set>
      <set comment="kpoint 42">
       <r>   -5.2670    1.0000 </r>
       <r>    1.8170    1.0000 </r>
       <r>    3.7776    1.0000 </r>
       <r>    5.0555    1.0000 </r>
       <r>    8.3214    0.0000 </r>
       <r>    9.0782    0.0000 </r>
       <r>    9.3645    0.0000 </r>
       <r>   11.5822    0.0000 </r>
      </set>
      <set comment="kpoint 43">
       <r>   -5.5503    1.0000 </r>
       <r>    2.6852    1.0000 </r>
       <r>    4.0198    1.0000 </r>
       <r>    5.2530    1.0000 </r>
       <r>    8.4926    0.0000 </r>
       <r>    8.8410    0.0000 </r>
       <r>    9.1194    0.0000 </r>
       <r>   11.2109    0.0000 </r>
      </set>
      <set comment="kpoint 44">
       <r>   -5.7702    1.0000 </r>
       <r>    3.4643    1.0000 </r>
       <r>    4.3953    1.0000 </r>
       <r>    5.4007    0.9999 </r>
       <r>    8.5916    0.0000 </r>
       <r>    8.6076    0.0000 </r>
       <r>    8.7720    0.0000 </r>
       <r>   10.8008    0.0000 </r>
      </set>
      <set comment="kpoint 45">
       <r>   -5.7211    1.0000 </r>
       <r>    3.7229    1.0000 </r>
       <r>    4.5298    1.0000 </r>
       <r>    4.5298    1.0000 </r>
       <r>    7.4410    0.0000 </r>
       <r>    9.7995    0.0000 </r>
       <r>    9.7995    0.0000 </r>
       <r>    9.9262    0.0000 </r>
      </set>
      <set comment="kpoint 46">
       <r>   -5.5456    1.0000 </r>
       <r>    3.0988    1.0000 </r>
       <r>    4.3097    1.0000 </r>
       <r>    4.3334    1.0000 </r>
       <r>    7.3850    0.0000 </r>
       <r>    9.6478    0.0000 </r>
       <r>   10.1794    0.0000 </r>
       <r>   10.1866    0.0000 </r>
      </set>
      <set comment="kpoint 47">
       <r>   -5.3039    1.0000 </r>
       <r>    2.3078    1.0000 </r>
       <r>    4.1004    1.0000 </r>
       <r>    4.1272    1.0000 </r>
       <r>    7.5194    0.0000 </r>
       <r>    9.5294    0.0000 </r>
       <r>   10.2002    0.0000 </r>
       <r>   10.4522    0.0000 </r>
      </set>
      <set comment="kpoint 48">
       <r>   -5.0008    1.0000 </r>
       <r>    1.4815    1.0000 </r>
       <r>    3.8269    1.0000 </r>
       <r>    3.9910    1.0000 </r>
       <r>    7.6664    0.0000 </r>
       <r>    9.6257    0.0000 </r>
       <r>   10.1218    0.0000 </r>
       <r>   10.5586    0.0000 </r>
      </set>
      <set comment="kpoint 49">
       <r>   -4.6460    1.0000 </r>
       <r>    0.6777    1.0000 </r>
       <r>    3.5526    1.0000 </r>
       <r>    3.9059    1.0000 </r>
       <r>    7.7220    0.0000 </r>
       <r>    9.7482    0.0000 </r>
       <r>   10.3022    0.0000 </r>
       <r>   10.5120    0.0000 </r>
      </set>
      <set comment="kpoint 50">
       <r>   -4.2591    1.0000 </r>
       <r>   -0.0595    1.0000 </r>
       <r>    3.3027    1.0000 </r>
       <r>    3.8739    1.0000 </r>
       <r>    7.7217    0.0000 </r>
       <r>    9.6777    0.0000 </r>
       <r>   10.3775    0.0000 </r>
       <r>   10.9309    0.0000 </r>
      </set>
      <set comment="kpoint 51">
       <r>   -3.8853    1.0000 </r>
       <r>   -0.6716    1.0000 </r>
       <r>    3.0910    1.0000 </r>
       <r>    3.8948    1.0000 </r>
       <r>    7.7269    0.0000 </r>
       <r>    9.5945    0.0000 </r>
       <r>   10.2156    0.0000 </r>
       <r>   11.7570    0.0000 </r>
      </set>
      <set comment="kpoint 52">
       <r>   -3.6275    1.0000 </r>
       <r>   -1.0484    1.0000 </r>
       <r>    2.9263    1.0000 </r>
       <r>    3.9673    1.0000 </r>
       <r>    7.7694    0.0000 </r>
       <r>    9.5443    0.0000 </r>
       <r>   10.0631    0.0000 </r>
       <r>   12.6805    0.0000 </r>
      </set>
      <set comment="kpoint 53">
       <r>   -3.6318    1.0000 </r>
       <r>   -1.0407    1.0000 </r>
       <r>    2.8149    1.0000 </r>
       <r>    4.0880    1.0000 </r>
       <r>    7.8593    0.0000 </r>
       <r>    9.5371    0.0000 </r>
       <r>    9.9370    0.0000 </r>
       <r>   13.6307    0.0000 </r>
      </set>
      <set comment="kpoint 54">
       <r>   -3.8948    1.0000 </r>
       <r>   -0.6529    1.0000 </r>
       <r>    2.7628    1.0000 </r>
       <r>    4.2519    1.0000 </r>
       <r>    7.9948    0.0000 </r>
       <r>    9.5729    0.0000 </r>
       <r>    9.8370    0.0000 </r>
       <r>   13.3832    0.0000 </r>
      </set>
      <set comment="kpoint 55">
       <r>   -4.2695    1.0000 </r>
       <r>   -0.0379    1.0000 </r>
       <r>    2.7772    1.0000 </r>
       <r>    4.4513    1.0000 </r>
       <r>    8.1664    0.0000 </r>
       <r>    9.6389    0.0000 </r>
       <r>    9.7425    0.0000 </r>
       <r>   12.5896    0.0000 </r>
      </set>
      <set comment="kpoint 56">
       <r>   -4.6554    1.0000 </r>
       <r>    0.6895    1.0000 </r>
       <r>    2.8702    1.0000 </r>
       <r>    4.6747    1.0000 </r>
       <r>    8.3577    0.0000 </r>
       <r>    9.6081    0.0000 </r>
       <r>    9.6888    0.0000 </r>
       <r>   11.8741    0.0000 </r>
      </set>
      <set comment="kpoint 57">
       <r>   -5.0087    1.0000 </r>
       <r>    1.4509    1.0000 </r>
       <r>    3.0691    1.0000 </r>
       <r>    4.9038    1.0000 </r>
       <r>    8.5426    0.0000 </r>
       <r>    9.3850    0.0000 </r>
       <r>    9.6086    0.0000 </r>
       <r>   11.3873    0.0000 </r>
      </set>
      <set comment="kpoint 58">
       <r>   -5.3102    1.0000 </r>
       <r>    2.1491    1.0000 </r>
       <r>    3.4345    1.0000 </r>
       <r>    5.1103    1.0000 </r>
       <r>    8.6554    0.0000 </r>
       <r>    9.0951    0.0000 </r>
       <r>    9.3261    0.0000 </r>
       <r>   11.2268    0.0000 </r>
      </set>
      <set comment="kpoint 59">
       <r>   -5.3926    1.0000 </r>
       <r>    2.8138    1.0000 </r>
       <r>    4.0791    1.0000 </r>
       <r>    4.0791    1.0000 </r>
       <r>    7.0677    0.0000 </r>
       <r>    9.3738    0.0000 </r>
       <r>   10.6455    0.0000 </r>
       <r>   10.6455    0.0000 </r>
      </set>
      <set comment="kpoint 60">
       <r>   -5.1726    1.0000 </r>
       <r>    2.2448    1.0000 </r>
       <r>    3.8423    1.0000 </r>
       <r>    3.8863    1.0000 </r>
       <r>    7.0325    0.0000 </r>
       <r>    9.0685    0.0000 </r>
       <r>   10.8991    0.0000 </r>
       <r>   11.0241    0.0000 </r>
      </set>
      <set comment="kpoint 61">
       <r>   -4.8896    1.0000 </r>
       <r>    1.5564    1.0000 </r>
       <r>    3.5317    1.0000 </r>
       <r>    3.7408    1.0000 </r>
       <r>    7.1861    0.0000 </r>
       <r>    8.9746    0.0000 </r>
       <r>   10.8876    0.0000 </r>
       <r>   11.2312    0.0000 </r>
      </set>
      <set comment="kpoint 62">
       <r>   -4.5509    1.0000 </r>
       <r>    0.8351    1.0000 </r>
       <r>    3.1901    1.0000 </r>
       <r>    3.6478    1.0000 </r>
       <r>    7.3302    0.0000 </r>
       <r>    9.2052    0.0000 </r>
       <r>   10.7782    0.0000 </r>
       <r>   11.2486    0.0000 </r>
      </set>
      <set comment="kpoint 63">
       <r>   -4.1714    1.0000 </r>
       <r>    0.1356    1.0000 </r>
       <r>    2.8658    1.0000 </r>
       <r>    3.6100    1.0000 </r>
       <r>    7.3887    0.0000 </r>
       <r>    9.7604    0.0000 </r>
       <r>   10.6521    0.0000 </r>
       <r>   11.1374    0.0000 </r>
      </set>
      <set comment="kpoint 64">
       <r>   -3.7847    1.0000 </r>
       <r>   -0.4849    1.0000 </r>
       <r>    2.5844    1.0000 </r>
       <r>    3.6277    1.0000 </r>
       <r>    7.4228    0.0000 </r>
       <r>   10.4387    0.0000 </r>
       <r>   10.6374    0.0000 </r>
       <r>   10.9706    0.0000 </r>
      </set>
      <set comment="kpoint 65">
       <r>   -3.4712    1.0000 </r>
       <r>   -0.9322    1.0000 </r>
       <r>    2.3591    1.0000 </r>
       <r>    3.7000    1.0000 </r>
       <r>    7.4868    0.0000 </r>
       <r>   10.4221    0.0000 </r>
       <r>   10.7963    0.0000 </r>
       <r>   11.4825    0.0000 </r>
      </set>
      <set comment="kpoint 66">
       <r>   -3.3817    1.0000 </r>
       <r>   -1.0493    1.0000 </r>
       <r>    2.1987    1.0000 </r>
       <r>    3.8238    1.0000 </r>
       <r>    7.6020    0.0000 </r>
       <r>   10.3697    0.0000 </r>
       <r>   10.6370    0.0000 </r>
       <r>   12.4840    0.0000 </r>
      </set>
      <set comment="kpoint 67">
       <r>   -3.5826    1.0000 </r>
       <r>   -0.7708    1.0000 </r>
       <r>    2.1125    1.0000 </r>
       <r>    3.9946    1.0000 </r>
       <r>    7.7711    0.0000 </r>
       <r>   10.3485    0.0000 </r>
       <r>   10.4935    0.0000 </r>
       <r>   13.3017    0.0000 </r>
      </set>
      <set comment="kpoint 68">
       <r>   -3.9393    1.0000 </r>
       <r>   -0.2429    1.0000 </r>
       <r>    2.1153    1.0000 </r>
       <r>    4.2043    1.0000 </r>
       <r>    7.9856    0.0000 </r>
       <r>   10.3398    0.0000 </r>
       <r>   10.3469    0.0000 </r>
       <r>   12.4870    0.0000 </r>
      </set>
      <set comment="kpoint 69">
       <r>   -4.3275    1.0000 </r>
       <r>    0.3794    1.0000 </r>
       <r>    2.2371    1.0000 </r>
       <r>    4.4407    1.0000 </r>
       <r>    8.2251    0.0000 </r>
       <r>   10.1151    0.0000 </r>
       <r>   10.3028    0.0000 </r>
       <r>   11.7518    0.0000 </r>
      </set>
      <set comment="kpoint 70">
       <r>   -4.6919    1.0000 </r>
       <r>    0.9752    1.0000 </r>
       <r>    2.5367    1.0000 </r>
       <r>    4.6842    1.0000 </r>
       <r>    8.4465    0.0000 </r>
       <r>    9.7736    0.0000 </r>
       <r>   10.0451    0.0000 </r>
       <r>   11.3672    0.0000 </r>
      </set>
      <set comment="kpoint 71">
       <r>   -4.9741    1.0000 </r>
       <r>    1.8877    1.0000 </r>
       <r>    3.6817    1.0000 </r>
       <r>    3.6817    1.0000 </r>
       <r>    6.7405    0.0000 </r>
       <r>    8.6104    0.0000 </r>
       <r>   11.5436    0.0000 </r>
       <r>   11.5436    0.0000 </r>
      </set>
      <set comment="kpoint 72">
       <r>   -4.7115    1.0000 </r>
       <r>    1.3623    1.0000 </r>
       <r>    3.4302    1.0000 </r>
       <r>    3.5242    1.0000 </r>
       <r>    6.7394    0.0000 </r>
       <r>    8.3345    0.0000 </r>
       <r>   11.8053    0.0000 </r>
       <r>   11.9050    0.0000 </r>
      </set>
      <set comment="kpoint 73">
       <r>   -4.3904    1.0000 </r>
       <r>    0.7689    1.0000 </r>
       <r>    3.0589    1.0000 </r>
       <r>    3.4196    1.0000 </r>
       <r>    6.9083    0.0000 </r>
       <r>    8.3316    0.0000 </r>
       <r>   11.8054    0.0000 </r>
       <r>   12.0387    0.0000 </r>
      </set>
      <set comment="kpoint 74">
       <r>   -4.0221    1.0000 </r>
       <r>    0.1608    1.0000 </r>
       <r>    2.6531    1.0000 </r>
       <r>    3.3711    1.0000 </r>
       <r>    7.0345    0.0000 </r>
       <r>    8.7016    0.0000 </r>
       <r>   11.7099    0.0000 </r>
       <r>   11.9843    0.0000 </r>
      </set>
      <set comment="kpoint 75">
       <r>   -3.6312    1.0000 </r>
       <r>   -0.4145    1.0000 </r>
       <r>    2.2794    1.0000 </r>
       <r>    3.3797    1.0000 </r>
       <r>    7.0961    0.0000 </r>
       <r>    9.3801    0.0000 </r>
       <r>   11.5964    0.0000 </r>
       <r>   11.8324    0.0000 </r>
      </set>
      <set comment="kpoint 76">
       <r>   -3.2788    1.0000 </r>
       <r>   -0.8813    1.0000 </r>
       <r>    1.9714    1.0000 </r>
       <r>    3.4448    1.0000 </r>
       <r>    7.1690    0.0000 </r>
       <r>   10.2318    0.0000 </r>
       <r>   11.5070    0.0000 </r>
       <r>   11.6483    0.0000 </r>
      </set>
      <set comment="kpoint 77">
       <r>   -3.1051    1.0000 </r>
       <r>   -1.0919    1.0000 </r>
       <r>    1.7474    1.0000 </r>
       <r>    3.5641    1.0000 </r>
       <r>    7.2908    0.0000 </r>
       <r>   11.0634    0.0000 </r>
       <r>   11.4624    0.0000 </r>
       <r>   11.5767    0.0000 </r>
      </set>
      <set comment="kpoint 78">
       <r>   -3.2379    1.0000 </r>
       <r>   -0.9221    1.0000 </r>
       <r>    1.6243    1.0000 </r>
       <r>    3.7332    1.0000 </r>
       <r>    7.4703    0.0000 </r>
       <r>   11.2390    0.0000 </r>
       <r>   11.2724    0.0000 </r>
       <r>   12.3889    0.0000 </r>
      </set>
      <set comment="kpoint 79">
       <r>   -3.5712    1.0000 </r>
       <r>   -0.5000    1.0000 </r>
       <r>    1.6303    1.0000 </r>
       <r>    3.9448    1.0000 </r>
       <r>    7.7022    0.0000 </r>
       <r>   11.0288    0.0000 </r>
       <r>   11.1910    0.0000 </r>
       <r>   12.4521    0.0000 </r>
      </set>
      <set comment="kpoint 80">
       <r>   -3.9570    1.0000 </r>
       <r>   -0.0240    1.0000 </r>
       <r>    1.8167    1.0000 </r>
       <r>    4.1871    1.0000 </r>
       <r>    7.9682    0.0000 </r>
       <r>   10.6380    0.0000 </r>
       <r>   10.9298    0.0000 </r>
       <r>   11.8575    0.0000 </r>
      </set>
      <set comment="kpoint 81">
       <r>   -4.4688    1.0000 </r>
       <r>    0.9618    1.0000 </r>
       <r>    3.3532    1.0000 </r>
       <r>    3.3532    1.0000 </r>
       <r>    6.4883    0.0000 </r>
       <r>    7.8999    0.0000 </r>
       <r>   12.4765    0.0000 </r>
       <r>   12.4765    0.0000 </r>
      </set>
      <set comment="kpoint 82">
       <r>   -4.1660    1.0000 </r>
       <r>    0.4710    1.0000 </r>
       <r>    3.1064    1.0000 </r>
       <r>    3.2349    1.0000 </r>
       <r>    6.5281    0.0000 </r>
       <r>    7.6927    0.0000 </r>
       <r>   12.7533    0.0000 </r>
       <r>   12.8123    0.0000 </r>
      </set>
      <set comment="kpoint 83">
       <r>   -3.8114    1.0000 </r>
       <r>   -0.0453    1.0000 </r>
       <r>    2.7038    1.0000 </r>
       <r>    3.1730    1.0000 </r>
       <r>    6.7021    0.0000 </r>
       <r>    7.8136    0.0000 </r>
       <r>   12.7675    0.0000 </r>
       <r>   12.8771    0.0000 </r>
      </set>
      <set comment="kpoint 84">
       <r>   -3.4230    1.0000 </r>
       <r>   -0.5493    1.0000 </r>
       <r>    2.2599    1.0000 </r>
       <r>    3.1689    1.0000 </r>
       <r>    6.8064    0.0000 </r>
       <r>    8.3381    0.0000 </r>
       <r>   12.6825    0.0000 </r>
       <r>   12.7705    0.0000 </r>
      </set>
      <set comment="kpoint 85">
       <r>   -3.0459    1.0000 </r>
       <r>   -0.9909    1.0000 </r>
       <r>    1.8598    1.0000 </r>
       <r>    3.2227    1.0000 </r>
       <r>    6.8858    0.0000 </r>
       <r>    9.1307    0.0000 </r>
       <r>   12.5751    0.0000 </r>
       <r>   12.5901    0.0000 </r>
      </set>
      <set comment="kpoint 86">
       <r>   -2.8049    1.0000 </r>
       <r>   -1.2489    1.0000 </r>
       <r>    1.5539    1.0000 </r>
       <r>    3.3325    1.0000 </r>
       <r>    7.0062    0.0000 </r>
       <r>   10.0693    0.0000 </r>
       <r>   12.3783    0.0000 </r>
       <r>   12.4796    0.0000 </r>
      </set>
      <set comment="kpoint 87">
       <r>   -2.8802    1.0000 </r>
       <r>   -1.1584    1.0000 </r>
       <r>    1.3811    1.0000 </r>
       <r>    3.4945    1.0000 </r>
       <r>    7.1859    0.0000 </r>
       <r>   11.0750    0.0000 </r>
       <r>   12.1133    0.0000 </r>
       <r>   12.4189    0.0000 </r>
      </set>
      <set comment="kpoint 88">
       <r>   -3.1935    1.0000 </r>
       <r>   -0.8340    1.0000 </r>
       <r>    1.3886    1.0000 </r>
       <r>    3.7022    1.0000 </r>
       <r>    7.4230    0.0000 </r>
       <r>   11.6784    0.0000 </r>
       <r>   11.7723    0.0000 </r>
       <r>   12.5905    0.0000 </r>
      </set>
      <set comment="kpoint 89">
       <r>   -3.8809    1.0000 </r>
       <r>    0.0493    1.0000 </r>
       <r>    3.1019    1.0000 </r>
       <r>    3.1019    1.0000 </r>
       <r>    6.3293    0.0028 </r>
       <r>    7.3073    0.0000 </r>
       <r>   13.4359    0.0000 </r>
       <r>   13.4359    0.0000 </r>
      </set>
      <set comment="kpoint 90">
       <r>   -3.5413    1.0000 </r>
       <r>   -0.4108    1.0000 </r>
       <r>    2.8740    1.0000 </r>
       <r>    3.0249    1.0000 </r>
       <r>    6.4125    0.0004 </r>
       <r>    7.1822    0.0000 </r>
       <r>   13.7261    0.0000 </r>
       <r>   13.7422    0.0000 </r>
      </set>
      <set comment="kpoint 91">
       <r>   -3.1598    1.0000 </r>
       <r>   -0.8652    1.0000 </r>
       <r>    2.4694    1.0000 </r>
       <r>    3.0062    1.0000 </r>
       <r>    6.5723    0.0000 </r>
       <r>    7.4517    0.0000 </r>
       <r>   13.7467    0.0000 </r>
       <r>   13.7531    0.0000 </r>
      </set>
      <set comment="kpoint 92">
       <r>   -2.7694    1.0000 </r>
       <r>   -1.2773    1.0000 </r>
       <r>    2.0249    1.0000 </r>
       <r>    3.0461    1.0000 </r>
       <r>    6.6629    0.0000 </r>
       <r>    8.1223    0.0000 </r>
       <r>   13.5912    0.0000 </r>
       <r>   13.6774    0.0000 </r>
      </set>
      <set comment="kpoint 93">
       <r>   -2.4863    1.0000 </r>
       <r>   -1.5445    1.0000 </r>
       <r>    1.6445    1.0000 </r>
       <r>    3.1432    1.0000 </r>
       <r>    6.7769    0.0000 </r>
       <r>    9.0078    0.0000 </r>
       <r>   13.3352    0.0000 </r>
       <r>   13.5729    0.0000 </r>
      </set>
      <set comment="kpoint 94">
       <r>   -2.5636    1.0000 </r>
       <r>   -1.4469    1.0000 </r>
       <r>    1.4053    1.0000 </r>
       <r>    3.2946    1.0000 </r>
       <r>    6.9506    0.0000 </r>
       <r>   10.0151    0.0000 </r>
       <r>   12.8744    0.0000 </r>
       <r>   13.3596    0.0000 </r>
      </set>
      <set comment="kpoint 95">
       <r>   -3.2159    1.0000 </r>
       <r>   -0.8370    1.0000 </r>
       <r>    2.9323    1.0000 </r>
       <r>    2.9323    1.0000 </r>
       <r>    6.2766    0.0083 </r>
       <r>    6.8498    0.0000 </r>
       <r>   14.4119    0.0000 </r>
       <r>   14.4119    0.0000 </r>
      </set>
      <set comment="kpoint 96">
       <r>   -2.8440    1.0000 </r>
       <r>   -1.2668    1.0000 </r>
       <r>    2.7342    1.0000 </r>
       <r>    2.8977    1.0000 </r>
       <r>    6.3983    0.0006 </r>
       <r>    6.8163    0.0000 </r>
       <r>   14.6787    0.0000 </r>
       <r>   14.7067    0.0000 </r>
      </set>
      <set comment="kpoint 97">
       <r>   -2.4482    1.0000 </r>
       <r>   -1.6650    1.0000 </r>
       <r>    2.3533    1.0000 </r>
       <r>    2.9222    1.0000 </r>
       <r>    6.5129    0.0000 </r>
       <r>    7.2635    0.0000 </r>
       <r>   14.5905    0.0000 </r>
       <r>   14.7395    0.0000 </r>
      </set>
      <set comment="kpoint 98">
       <r>   -2.2154    1.0000 </r>
       <r>   -1.8578    1.0000 </r>
       <r>    1.9473    1.0000 </r>
       <r>    3.0049    1.0000 </r>
       <r>    6.6140    0.0000 </r>
       <r>    8.0510    0.0000 </r>
       <r>   14.1727    0.0000 </r>
       <r>   14.6283    0.0000 </r>
      </set>
      <set comment="kpoint 99">
       <r>   -2.4808    1.0000 </r>
       <r>   -1.6844    1.0000 </r>
       <r>    2.8469    1.0000 </r>
       <r>    2.8469    1.0000 </r>
       <r>    6.3403    0.0022 </r>
       <r>    6.5289    0.0000 </r>
       <r>   15.3407    0.0000 </r>
       <r>   15.3407    0.0000 </r>
      </set>
      <set comment="kpoint 100">
       <r>   -2.1005    1.0000 </r>
       <r>   -2.0639    1.0000 </r>
       <r>    2.6875    1.0000 </r>
       <r>    2.8551    1.0000 </r>
       <r>    6.4404    0.0002 </r>
       <r>    6.6470    0.0000 </r>
       <r>   15.3464    0.0000 </r>
       <r>   15.4443    0.0000 </r>
      </set>
      <set comment="kpoint 101">
       <r>   -5.9105    1.0000 </r>
       <r>    4.1264    1.0000 </r>
       <r>    4.8154    1.0000 </r>
       <r>    5.2952    1.0000 </r>
       <r>    8.0630    0.0000 </r>
       <r>    8.7423    0.0000 </r>
       <r>    8.9471    0.0000 </r>
       <r>   10.1724    0.0000 </r>
      </set>
      <set comment="kpoint 102">
       <r>   -5.7349    1.0000 </r>
       <r>    3.3313    1.0000 </r>
       <r>    4.4821    1.0000 </r>
       <r>    5.1843    1.0000 </r>
       <r>    8.1738    0.0000 </r>
       <r>    8.7366    0.0000 </r>
       <r>    9.2654    0.0000 </r>
       <r>   10.7271    0.0000 </r>
      </set>
      <set comment="kpoint 103">
       <r>   -5.4929    1.0000 </r>
       <r>    2.4313    1.0000 </r>
       <r>    4.2386    1.0000 </r>
       <r>    5.0069    1.0000 </r>
       <r>    8.2118    0.0000 </r>
       <r>    8.7881    0.0000 </r>
       <r>    9.5401    0.0000 </r>
       <r>   11.0455    0.0000 </r>
      </set>
      <set comment="kpoint 104">
       <r>   -5.1895    1.0000 </r>
       <r>    1.5308    1.0000 </r>
       <r>    4.0520    1.0000 </r>
       <r>    4.8071    1.0000 </r>
       <r>    8.1108    0.0000 </r>
       <r>    8.9141    0.0000 </r>
       <r>    9.6649    0.0000 </r>
       <r>   11.3271    0.0000 </r>
      </set>
      <set comment="kpoint 105">
       <r>   -4.8344    1.0000 </r>
       <r>    0.6769    1.0000 </r>
       <r>    3.9144    1.0000 </r>
       <r>    4.6159    1.0000 </r>
       <r>    7.9785    0.0000 </r>
       <r>    8.9678    0.0000 </r>
       <r>    9.6489    0.0000 </r>
       <r>   11.7948    0.0000 </r>
      </set>
      <set comment="kpoint 106">
       <r>   -4.4477    1.0000 </r>
       <r>   -0.0934    1.0000 </r>
       <r>    3.8212    1.0000 </r>
       <r>    4.4531    1.0000 </r>
       <r>    7.8635    0.0000 </r>
       <r>    8.9482    0.0000 </r>
       <r>    9.5646    0.0000 </r>
       <r>   12.4433    0.0000 </r>
      </set>
      <set comment="kpoint 107">
       <r>   -4.0748    1.0000 </r>
       <r>   -0.7258    1.0000 </r>
       <r>    3.7666    1.0000 </r>
       <r>    4.3334    1.0000 </r>
       <r>    7.7820    0.0000 </r>
       <r>    8.9077    0.0000 </r>
       <r>    9.4761    0.0000 </r>
       <r>   13.1521    0.0000 </r>
      </set>
      <set comment="kpoint 108">
       <r>   -3.8172    1.0000 </r>
       <r>   -1.1142    1.0000 </r>
       <r>    3.7425    1.0000 </r>
       <r>    4.2693    1.0000 </r>
       <r>    7.7402    0.0000 </r>
       <r>    8.8808    0.0000 </r>
       <r>    9.4228    0.0000 </r>
       <r>   13.6194    0.0000 </r>
      </set>
      <set comment="kpoint 109">
       <r>   -5.6752    1.0000 </r>
       <r>    3.3734    1.0000 </r>
       <r>    4.3419    1.0000 </r>
       <r>    4.7980    1.0000 </r>
       <r>    7.7035    0.0000 </r>
       <r>    9.3272    0.0000 </r>
       <r>    9.7198    0.0000 </r>
       <r>   10.3364    0.0000 </r>
      </set>
      <set comment="kpoint 110">
       <r>   -5.4552    1.0000 </r>
       <r>    2.6222    1.0000 </r>
       <r>    3.9997    1.0000 </r>
       <r>    4.6708    1.0000 </r>
       <r>    7.8349    0.0000 </r>
       <r>    9.3040    0.0000 </r>
       <r>   10.0424    0.0000 </r>
       <r>   10.3474    0.0000 </r>
      </set>
      <set comment="kpoint 111">
       <r>   -5.1719    1.0000 </r>
       <r>    1.7864    1.0000 </r>
       <r>    3.7524    1.0000 </r>
       <r>    4.4866    1.0000 </r>
       <r>    7.9869    0.0000 </r>
       <r>    9.2855    0.0000 </r>
       <r>   10.2204    0.0000 </r>
       <r>   10.3840    0.0000 </r>
      </set>
      <set comment="kpoint 112">
       <r>   -4.8330    1.0000 </r>
       <r>    0.9541    1.0000 </r>
       <r>    3.5626    1.0000 </r>
       <r>    4.2987    1.0000 </r>
       <r>    8.0417    0.0000 </r>
       <r>    9.2609    0.0000 </r>
       <r>   10.2623    0.0000 </r>
       <r>   10.6484    0.0000 </r>
      </set>
      <set comment="kpoint 113">
       <r>   -4.4537    1.0000 </r>
       <r>    0.1764    1.0000 </r>
       <r>    3.4118    1.0000 </r>
       <r>    4.1450    1.0000 </r>
       <r>    8.0253    0.0000 </r>
       <r>    9.1744    0.0000 </r>
       <r>   10.2101    0.0000 </r>
       <r>   11.2082    0.0000 </r>
      </set>
      <set comment="kpoint 114">
       <r>   -4.0680    1.0000 </r>
       <r>   -0.4956    1.0000 </r>
       <r>    3.2889    1.0000 </r>
       <r>    4.0495    1.0000 </r>
       <r>    8.0015    0.0000 </r>
       <r>    9.0690    0.0000 </r>
       <r>   10.1148    0.0000 </r>
       <r>   11.9731    0.0000 </r>
      </set>
      <set comment="kpoint 115">
       <r>   -3.7550    1.0000 </r>
       <r>   -0.9742    1.0000 </r>
       <r>    3.1904    1.0000 </r>
       <r>    4.0232    1.0000 </r>
       <r>    8.0040    0.0000 </r>
       <r>    8.9847    0.0000 </r>
       <r>   10.0274    0.0000 </r>
       <r>   12.8403    0.0000 </r>
      </set>
      <set comment="kpoint 116">
       <r>   -3.6581    1.0000 </r>
       <r>   -1.1118    1.0000 </r>
       <r>    3.1207    1.0000 </r>
       <r>    4.0653    1.0000 </r>
       <r>    8.0438    0.0000 </r>
       <r>    8.9399    0.0000 </r>
       <r>    9.9726    0.0000 </r>
       <r>   13.6712    0.0000 </r>
      </set>
[...]
       <r>   -0.9811    1.0000 </r>
       <r>    1.5965    1.0000 </r>
       <r>    2.8664    1.0000 </r>
       <r>    8.9909    0.0000 </r>
       <r>    9.6224    0.0000 </r>
       <r>   10.6508    0.0000 </r>
       <r>   12.5517    0.0000 </r>
      </set>
      <set comment="kpoint 210">
       <r>   -3.3517    1.0000 </r>
       <r>   -0.5919    1.0000 </r>
       <r>    1.7305    1.0000 </r>
       <r>    3.0789    1.0000 </r>
       <r>    9.2281    0.0000 </r>
       <r>    9.3025    0.0000 </r>
       <r>   10.0187    0.0000 </r>
       <r>   13.2642    0.0000 </r>
      </set>
      <set comment="kpoint 211">
       <r>   -2.9670    1.0000 </r>
       <r>   -0.9777    1.0000 </r>
       <r>    2.0176    1.0000 </r>
       <r>    2.5406    1.0000 </r>
       <r>    8.1568    0.0000 </r>
       <r>    8.5539    0.0000 </r>
       <r>   11.2434    0.0000 </r>
       <r>   13.9862    0.0000 </r>
      </set>
      <set comment="kpoint 212">
       <r>   -2.5985    1.0000 </r>
       <r>   -1.3370    1.0000 </r>
       <r>    1.7977    1.0000 </r>
       <r>    2.4081    1.0000 </r>
       <r>    8.4067    0.0000 </r>
       <r>    9.2285    0.0000 </r>
       <r>   11.0341    0.0000 </r>
       <r>   12.8477    0.0000 </r>
      </set>
      <set comment="kpoint 213">
       <r>   -2.4224    1.0000 </r>
       <r>   -1.4996    1.0000 </r>
       <r>    1.5957    1.0000 </r>
       <r>    2.4551    1.0000 </r>
       <r>    8.5570    0.0000 </r>
       <r>   10.1161    0.0000 </r>
       <r>   10.9078    0.0000 </r>
       <r>   11.7673    0.0000 </r>
      </set>
      <set comment="kpoint 214">
       <r>   -2.6259    1.0000 </r>
       <r>   -1.2976    1.0000 </r>
       <r>    1.5097    1.0000 </r>
       <r>    2.6191    1.0000 </r>
       <r>    8.7517    0.0000 </r>
       <r>   10.3473    0.0000 </r>
       <r>   10.8786    0.0000 </r>
       <r>   11.4718    0.0000 </r>
      </set>
      <set comment="kpoint 215">
       <r>   -2.3188    1.0000 </r>
       <r>   -1.6482    1.0000 </r>
       <r>    2.0543    1.0000 </r>
       <r>    2.2256    1.0000 </r>
       <r>    8.1820    0.0000 </r>
       <r>    8.3119    0.0000 </r>
       <r>   12.0960    0.0000 </r>
       <r>   13.0206    0.0000 </r>
      </set>
      <set comment="kpoint 216">
       <r>   -2.1234    1.0000 </r>
       <r>   -1.8061    1.0000 </r>
       <r>    1.7944    1.0000 </r>
       <r>    2.2556    1.0000 </r>
       <r>    8.3722    0.0000 </r>
       <r>    9.1619    0.0000 </r>
       <r>   11.8457    0.0000 </r>
       <r>   11.9569    0.0000 </r>
      </set>
      <set comment="kpoint 217">
       <r>   -2.8016    1.0000 </r>
       <r>   -1.1166    1.0000 </r>
       <r>    1.6988    1.0000 </r>
       <r>    2.5162    1.0000 </r>
       <r>    9.2333    0.0000 </r>
       <r>    9.4851    0.0000 </r>
       <r>   10.1169    0.0000 </r>
       <r>   12.6759    0.0000 </r>
      </set>
      <set comment="kpoint 218">
       <r>   -2.4932    1.0000 </r>
       <r>   -1.4126    1.0000 </r>
       <r>    1.6304    1.0000 </r>
       <r>    2.3542    1.0000 </r>
       <r>    9.4199    0.0000 </r>
       <r>    9.7339    0.0000 </r>
       <r>   10.5049    0.0000 </r>
       <r>   11.5808    0.0000 </r>
      </set>
      <set comment="kpoint 219">
       <r>   -2.2314    1.0000 </r>
       <r>   -1.6640    1.0000 </r>
       <r>    1.8127    1.0000 </r>
       <r>    2.0852    1.0000 </r>
       <r>    9.2473    0.0000 </r>
       <r>    9.3461    0.0000 </r>
       <r>   10.8343    0.0000 </r>
       <r>   11.7100    0.0000 </r>
      </set>
      <set comment="kpoint 220">
       <r>   -2.1617    1.0000 </r>
       <r>   -1.7186    1.0000 </r>
       <r>    1.7186    1.0000 </r>
       <r>    2.0968    1.0000 </r>
       <r>    9.4320    0.0000 </r>
       <r>   10.0868    0.0000 </r>
       <r>   10.7209    0.0000 </r>
       <r>   10.8066    0.0000 </r>
      </set>
     </set>
    </set>
   </array>
  </eigenvalues>
  <separator name="orbital magnetization" >
   <v name="MAGDIPOLOUT">      0.00000000      0.00000000      0.00000000</v>
  </separator>
  <dos>
   <i name="efermi">      5.93763975 </i>
   <total>
    <array>
     <dimension dim="1">gridpoints</dimension>
     <dimension dim="2">spin</dimension>
     <field>energy</field>
     <field>total</field>
     <field>integrated</field>
     <set>
      <set comment="spin 1">
       <r>    -8.1472     0.0000     0.0000 </r>
       <r>    -8.0619     0.0000     0.0000 </r>
       <r>    -7.9765     0.0000     0.0000 </r>
       <r>    -7.8912     0.0000     0.0000 </r>
       <r>    -7.8059     0.0000     0.0000 </r>
       <r>    -7.7206     0.0000     0.0000 </r>
       <r>    -7.6353     0.0000     0.0000 </r>
       <r>    -7.5500     0.0000     0.0000 </r>
       <r>    -7.4647     0.0000     0.0000 </r>
       <r>    -7.3794     0.0000     0.0000 </r>
       <r>    -7.2941     0.0000     0.0000 </r>
       <r>    -7.2088     0.0000     0.0000 </r>
       <r>    -7.1235     0.0000     0.0000 </r>
       <r>    -7.0382     0.0000     0.0000 </r>
       <r>    -6.9529     0.0000     0.0000 </r>
       <r>    -6.8676     0.0000     0.0000 </r>
       <r>    -6.7823     0.0000     0.0000 </r>
       <r>    -6.6970     0.0000     0.0000 </r>
       <r>    -6.6117     0.0000     0.0000 </r>
       <r>    -6.5264     0.0001     0.0000 </r>
       <r>    -6.4411     0.0007     0.0001 </r>
       <r>    -6.3558     0.0031     0.0003 </r>
       <r>    -6.2705     0.0106     0.0012 </r>
       <r>    -6.1851     0.0279     0.0036 </r>
       <r>    -6.0998     0.0574     0.0085 </r>
       <r>    -6.0145     0.0961     0.0167 </r>
       <r>    -5.9292     0.1371     0.0284 </r>
       <r>    -5.8439     0.1745     0.0433 </r>
       <r>    -5.7586     0.2067     0.0609 </r>
       <r>    -5.6733     0.2345     0.0809 </r>
       <r>    -5.5880     0.2596     0.1031 </r>
       <r>    -5.5027     0.2829     0.1272 </r>
       <r>    -5.4174     0.3043     0.1532 </r>
       <r>    -5.3321     0.3254     0.1809 </r>
       <r>    -5.2468     0.3466     0.2105 </r>
       <r>    -5.1615     0.3656     0.2417 </r>
       <r>    -5.0762     0.3839     0.2744 </r>
       <r>    -4.9909     0.4052     0.3090 </r>
       <r>    -4.9056     0.4264     0.3454 </r>
       <r>    -4.8203     0.4428     0.3831 </r>
       <r>    -4.7350     0.4607     0.4224 </r>
       <r>    -4.6497     0.4858     0.4639 </r>
       <r>    -4.5644     0.5099     0.5074 </r>
       <r>    -4.4790     0.5269     0.5523 </r>
       <r>    -4.3937     0.5466     0.5989 </r>
       <r>    -4.3084     0.5784     0.6483 </r>
       <r>    -4.2231     0.6150     0.7007 </r>
       <r>    -4.1378     0.6463     0.7559 </r>
       <r>    -4.0525     0.6807     0.8140 </r>
       <r>    -3.9672     0.7349     0.8766 </r>
       <r>    -3.8819     0.7995     0.9448 </r>
       <r>    -3.7966     0.8399     1.0165 </r>
       <r>    -3.7113     0.8435     1.0884 </r>
       <r>    -3.6260     0.8336     1.1596 </r>
       <r>    -3.5407     0.8247     1.2299 </r>
       <r>    -3.4554     0.8025     1.2984 </r>
       <r>    -3.3701     0.7627     1.3634 </r>
       <r>    -3.2848     0.7253     1.4253 </r>
       <r>    -3.1995     0.7014     1.4851 </r>
       <r>    -3.1142     0.6784     1.5430 </r>
       <r>    -3.0289     0.6434     1.5979 </r>
       <r>    -2.9436     0.6029     1.6493 </r>
       <r>    -2.8583     0.5725     1.6981 </r>
       <r>    -2.7729     0.5490     1.7450 </r>
       <r>    -2.6876     0.5130     1.7887 </r>
       <r>    -2.6023     0.4655     1.8284 </r>
       <r>    -2.5170     0.4278     1.8649 </r>
       <r>    -2.4317     0.3983     1.8989 </r>
       <r>    -2.3464     0.3516     1.9289 </r>
       <r>    -2.2611     0.2857     1.9533 </r>
       <r>    -2.1758     0.2261     1.9726 </r>
       <r>    -2.0905     0.1855     1.9884 </r>
       <r>    -2.0052     0.1568     2.0018 </r>
       <r>    -1.9199     0.1414     2.0138 </r>
       <r>    -1.8346     0.1555     2.0271 </r>
       <r>    -1.7493     0.2062     2.0447 </r>
       <r>    -1.6640     0.2740     2.0681 </r>
       <r>    -1.5787     0.3299     2.0962 </r>
       <r>    -1.4934     0.3736     2.1281 </r>
       <r>    -1.4081     0.4412     2.1657 </r>
       <r>    -1.3228     0.5644     2.2138 </r>
       <r>    -1.2375     0.7402     2.2770 </r>
       <r>    -1.1522     0.9383     2.3570 </r>
       <r>    -1.0669     1.1113     2.4518 </r>
       <r>    -0.9815     1.1990     2.5541 </r>
       <r>    -0.8962     1.1650     2.6535 </r>
       <r>    -0.8109     1.0367     2.7419 </r>
       <r>    -0.7256     0.8882     2.8177 </r>
       <r>    -0.6403     0.7786     2.8841 </r>
       <r>    -0.5550     0.7149     2.9451 </r>
       <r>    -0.4697     0.6678     3.0021 </r>
       <r>    -0.3844     0.6138     3.0544 </r>
       <r>    -0.2991     0.5615     3.1023 </r>
       <r>    -0.2138     0.5288     3.1474 </r>
       <r>    -0.1285     0.5106     3.1910 </r>
       <r>    -0.0432     0.4875     3.2326 </r>
       <r>     0.0421     0.4542     3.2713 </r>
       <r>     0.1274     0.4221     3.3073 </r>
       <r>     0.2127     0.3999     3.3415 </r>
       <r>     0.2980     0.3892     3.3746 </r>
       <r>     0.3833     0.3823     3.4073 </r>
       <r>     0.4686     0.3628     3.4382 </r>
       <r>     0.5539     0.3295     3.4663 </r>
       <r>     0.6392     0.3050     3.4923 </r>
       <r>     0.7246     0.3004     3.5180 </r>
       <r>     0.8099     0.3019     3.5437 </r>
       <r>     0.8952     0.2941     3.5688 </r>
       <r>     0.9805     0.2735     3.5921 </r>
       <r>     1.0658     0.2514     3.6136 </r>
       <r>     1.1511     0.2495     3.6349 </r>
       <r>     1.2364     0.2879     3.6594 </r>
       <r>     1.3217     0.3813     3.6919 </r>
       <r>     1.4070     0.5344     3.7375 </r>
       <r>     1.4923     0.7234     3.7992 </r>
       <r>     1.5776     0.9023     3.8762 </r>
       <r>     1.6629     1.0345     3.9645 </r>
       <r>     1.7482     1.1070     4.0589 </r>
       <r>     1.8335     1.1236     4.1547 </r>
       <r>     1.9188     1.1068     4.2492 </r>
       <r>     2.0041     1.0920     4.3423 </r>
       <r>     2.0894     1.0894     4.4352 </r>
       <r>     2.1747     1.0767     4.5271 </r>
       <r>     2.2600     1.0542     4.6170 </r>
       <r>     2.3453     1.0589     4.7073 </r>
       <r>     2.4307     1.1031     4.8014 </r>
       <r>     2.5160     1.1599     4.9004 </r>
       <r>     2.6013     1.2196     5.0044 </r>
       <r>     2.6866     1.2953     5.1149 </r>
       <r>     2.7719     1.3718     5.2319 </r>
       <r>     2.8572     1.4138     5.3525 </r>
       <r>     2.9425     1.4314     5.4747 </r>
       <r>     3.0278     1.4723     5.6002 </r>
       <r>     3.1131     1.5306     5.7308 </r>
       <r>     3.1984     1.5408     5.8623 </r>
       <r>     3.2837     1.4859     5.9890 </r>
       <r>     3.3690     1.4278     6.1108 </r>
       <r>     3.4543     1.4076     6.2309 </r>
       <r>     3.5396     1.3960     6.3500 </r>
       <r>     3.6249     1.3651     6.4664 </r>
       <r>     3.7102     1.3371     6.5805 </r>
       <r>     3.7955     1.3277     6.6937 </r>
       <r>     3.8808     1.3153     6.8059 </r>
       <r>     3.9661     1.2885     6.9159 </r>
       <r>     4.0514     1.2608     7.0234 </r>
       <r>     4.1367     1.2370     7.1289 </r>
       <r>     4.2221     1.2075     7.2319 </r>
       <r>     4.3074     1.1631     7.3312 </r>
       <r>     4.3927     1.0976     7.4248 </r>
       <r>     4.4780     1.0074     7.5107 </r>
       <r>     4.5633     0.8986     7.5874 </r>
       <r>     4.6486     0.7877     7.6546 </r>
       <r>     4.7339     0.6892     7.7134 </r>
       <r>     4.8192     0.6030     7.7648 </r>
       <r>     4.9045     0.5224     7.8094 </r>
       <r>     4.9898     0.4483     7.8476 </r>
       <r>     5.0751     0.3871     7.8806 </r>
       <r>     5.1604     0.3409     7.9097 </r>
       <r>     5.2457     0.3012     7.9354 </r>
       <r>     5.3310     0.2550     7.9571 </r>
       <r>     5.4163     0.1983     7.9741 </r>
       <r>     5.5016     0.1392     7.9859 </r>
       <r>     5.5869     0.0871     7.9934 </r>
       <r>     5.6722     0.0471     7.9974 </r>
       <r>     5.7575     0.0210     7.9992 </r>
       <r>     5.8428     0.0074     7.9998 </r>
       <r>     5.9282     0.0022     8.0000 </r>
       <r>     6.0135     0.0018     8.0001 </r>
       <r>     6.0988     0.0057     8.0006 </r>
       <r>     6.1841     0.0179     8.0022 </r>
       <r>     6.2694     0.0443     8.0059 </r>
       <r>     6.3547     0.0886     8.0135 </r>
       <r>     6.4400     0.1485     8.0262 </r>
       <r>     6.5253     0.2171     8.0447 </r>
       <r>     6.6106     0.2889     8.0693 </r>
       <r>     6.6959     0.3609     8.1001 </r>
       <r>     6.7812     0.4248     8.1363 </r>
       <r>     6.8665     0.4703     8.1765 </r>
       <r>     6.9518     0.5012     8.2192 </r>
       <r>     7.0371     0.5361     8.2650 </r>
       <r>     7.1224     0.5915     8.3154 </r>
       <r>     7.2077     0.6727     8.3728 </r>
       <r>     7.2930     0.7769     8.4391 </r>
       <r>     7.3783     0.8888     8.5149 </r>
       <r>     7.4636     0.9821     8.5987 </r>
       <r>     7.5489     1.0530     8.6885 </r>
       <r>     7.6343     1.1377     8.7855 </r>
       <r>     7.7196     1.2535     8.8925 </r>
       <r>     7.8049     1.3633     9.0088 </r>
       <r>     7.8902     1.4393     9.1316 </r>
       <r>     7.9755     1.4983     9.2594 </r>
       <r>     8.0608     1.5436     9.3910 </r>
       <r>     8.1461     1.5415     9.5225 </r>
       <r>     8.2314     1.4770     9.6485 </r>
       <r>     8.3167     1.3824     9.7665 </r>
       <r>     8.4020     1.2959     9.8770 </r>
       <r>     8.4873     1.2184     9.9810 </r>
       <r>     8.5726     1.1431    10.0785 </r>
       <r>     8.6579     1.1089    10.1731 </r>
       <r>     8.7432     1.1795    10.2737 </r>
       <r>     8.8285     1.3768    10.3911 </r>
       <r>     8.9138     1.6467    10.5316 </r>
       <r>     8.9991     1.8756    10.6916 </r>
       <r>     9.0844     1.9696    10.8596 </r>
       <r>     9.1697     1.9416    11.0252 </r>
       <r>     9.2550     1.8769    11.1853 </r>
       <r>     9.3403     1.8160    11.3403 </r>
       <r>     9.4257     1.7299    11.4878 </r>
       <r>     9.5110     1.5950    11.6239 </r>
       <r>     9.5963     1.4322    11.7461 </r>
       <r>     9.6816     1.2820    11.8554 </r>
       <r>     9.7669     1.1816    11.9562 </r>
       <r>     9.8522     1.1632    12.0554 </r>
       <r>     9.9375     1.2357    12.1608 </r>
       <r>    10.0228     1.3526    12.2762 </r>
       <r>    10.1081     1.4317    12.3984 </r>
       <r>    10.1934     1.4262    12.5200 </r>
       <r>    10.2787     1.3530    12.6354 </r>
       <r>    10.3640     1.2557    12.7425 </r>
       <r>    10.4493     1.1756    12.8428 </r>
       <r>    10.5346     1.1506    12.9410 </r>
       <r>    10.6199     1.1951    13.0429 </r>
       <r>    10.7052     1.2769    13.1519 </r>
       <r>    10.7905     1.3429    13.2664 </r>
       <r>    10.8758     1.3600    13.3824 </r>
       <r>    10.9611     1.3127    13.4944 </r>
       <r>    11.0464     1.1994    13.5967 </r>
       <r>    11.1318     1.0558    13.6868 </r>
       <r>    11.2171     0.9488    13.7677 </r>
       <r>    11.3024     0.9250    13.8466 </r>
       <r>    11.3877     0.9777    13.9300 </r>
       <r>    11.4730     1.0655    14.0209 </r>
       <r>    11.5583     1.1534    14.1193 </r>
       <r>    11.6436     1.2299    14.2242 </r>
       <r>    11.7289     1.2774    14.3332 </r>
       <r>    11.8142     1.2464    14.4395 </r>
       <r>    11.8995     1.1043    14.5337 </r>
       <r>    11.9848     0.9044    14.6109 </r>
       <r>    12.0701     0.7434    14.6743 </r>
       <r>    12.1554     0.6601    14.7306 </r>
       <r>    12.2407     0.6367    14.7849 </r>
       <r>    12.3260     0.6710    14.8422 </r>
       <r>    12.4113     0.7669    14.9076 </r>
       <r>    12.4966     0.8868    14.9832 </r>
       <r>    12.5819     0.9816    15.0670 </r>
       <r>    12.6672     1.0273    15.1546 </r>
       <r>    12.7525     0.9998    15.2399 </r>
       <r>    12.8379     0.8765    15.3147 </r>
       <r>    12.9232     0.6925    15.3737 </r>
       <r>    13.0085     0.5299    15.4189 </r>
       <r>    13.0938     0.4368    15.4562 </r>
       <r>    13.1791     0.4013    15.4904 </r>
       <r>    13.2644     0.4013    15.5247 </r>
       <r>    13.3497     0.4294    15.5613 </r>
       <r>    13.4350     0.4760    15.6019 </r>
       <r>    13.5203     0.5315    15.6472 </r>
       <r>    13.6056     0.5882    15.6974 </r>
       <r>    13.6909     0.6101    15.7495 </r>
       <r>    13.7762     0.5426    15.7958 </r>
       <r>    13.8615     0.3886    15.8289 </r>
       <r>    13.9468     0.2252    15.8481 </r>
       <r>    14.0321     0.1239    15.8587 </r>
       <r>    14.1174     0.0928    15.8666 </r>
       <r>    14.2027     0.1028    15.8754 </r>
       <r>    14.2880     0.1278    15.8863 </r>
       <r>    14.3733     0.1518    15.8992 </r>
       <r>    14.4586     0.1674    15.9135 </r>
       <r>    14.5439     0.1779    15.9287 </r>
       <r>    14.6293     0.1861    15.9445 </r>
       <r>    14.7146     0.1772    15.9597 </r>
       <r>    14.7999     0.1377    15.9714 </r>
       <r>    14.8852     0.0816    15.9784 </r>
       <r>    14.9705     0.0373    15.9815 </r>
       <r>    15.0558     0.0180    15.9831 </r>
       <r>    15.1411     0.0194    15.9847 </r>
       <r>    15.2264     0.0307    15.9873 </r>
       <r>    15.3117     0.0408    15.9908 </r>
       <r>    15.3970     0.0417    15.9944 </r>
       <r>    15.4823     0.0328    15.9972 </r>
       <r>    15.5676     0.0198    15.9989 </r>
       <r>    15.6529     0.0092    15.9996 </r>
       <r>    15.7382     0.0032    15.9999 </r>
       <r>    15.8235     0.0008    16.0000 </r>
       <r>    15.9088     0.0002    16.0000 </r>
       <r>    15.9941     0.0000    16.0000 </r>
       <r>    16.0794     0.0000    16.0000 </r>
       <r>    16.1647     0.0000    16.0000 </r>
       <r>    16.2500     0.0000    16.0000 </r>
       <r>    16.3354     0.0000    16.0000 </r>
       <r>    16.4207     0.0000    16.0000 </r>
       <r>    16.5060     0.0000    16.0000 </r>
       <r>    16.5913     0.0000    16.0000 </r>
       <r>    16.6766     0.0000    16.0000 </r>
       <r>    16.7619     0.0000    16.0000 </r>
       <r>    16.8472     0.0000    16.0000 </r>
       <r>    16.9325     0.0000    16.0000 </r>
       <r>    17.0178     0.0000    16.0000 </r>
       <r>    17.1031     0.0000    16.0000 </r>
       <r>    17.1884     0.0000    16.0000 </r>
       <r>    17.2737     0.0000    16.0000 </r>
       <r>    17.3590     0.0000    16.0000 </r>
       <r>    17.4443     0.0000    16.0000 </r>
      </set>
     </set>
    </array>
   </total>
  </dos>
 </calculation>
 <structure name="finalpos" >
  <crystal>
   <varray name="basis" >
    <v>       3.34889800       0.00000000       1.93348700 </v>
    <v>       1.11629900       3.15737200       1.93348700 </v>
    <v>       0.00000000       0.00000000       3.86697500 </v>
   </varray>
   <i name="volume">     40.88829843 </i>
   <varray name="rec_basis" >
    <v>       0.29860569      -0.10557300       0.00000000 </v>
    <v>       0.00000000       0.31671909       0.00000000 </v>
    <v>      -0.14930281      -0.10557302       0.25860007 </v>
   </varray>
  </crystal>
  <varray name="positions" >
   <v>       0.87500000       0.87500000       0.87500000 </v>
   <v>       0.12500000       0.12500000       0.12500000 </v>
  </varray>
 </structure>
</modeling>
