datafile (written by JARVIS-Tools) 

12 	 atoms 
1  atom types
0.0 5.77232  xlo xhi
0.0 4.998980377574611  ylo yhi
0.0 25.06963  zlo zhi
2.88616 0.0 0.0  xy xz yz


Atoms 

     1   1 0.000000 5.050779401642482 2.9160713905988613 1.1782732737621648
     2   1 0.000000 2.1646217950725535 1.2497448816852263 3.534815
     3   1 0.000000 7.9369441885026255 4.58239799519701 5.891356726237834
     4   1 0.000000 3.6076982049274475 0.4165816272284091 1.1782732737621642
     5   1 0.000000 3.6077005983575186 3.7492347407401923 3.534815
     6   1 0.000000 6.49386299178759 2.0829082318265573 5.891356726237836
     7   1 0.000000 2.1646170082124105 2.9160713905988613 1.1782732737621642
     8   1 0.000000 5.050779401642481 1.2497448816852266 3.534815
     9   1 0.000000 5.050781795072553 4.5823979951970095 5.891356726237836
    10   1 0.000000 0.7215358114973747 0.4165816272284091 1.1782732737621642
    11   1 0.000000 6.493858204927447 3.7492347407401923 3.534815
    12   1 0.000000 3.607700598357517 2.0829082318265573 5.891356726237836
