LAMMPS data file via write_data, version 19 Oct 2016, timestep = 99

12 atoms
1 atom types

5.8447812802310893e-02 5.7138721871976914e+00 xlo xhi
5.0619600081016299e-02 4.9483607774935905e+00 ylo yhi
-2.7772718123092666e-02 2.5097402718123082e+01 zlo zhi
2.8277095745391523e+00 0.0000000000000000e+00 0.0000000000000000e+00 xy xz yz

Masses

1 26.982

Atoms # charge

1 1 0.0000000000000000e+00 5.0069422753354598e+00 2.9076349169765785e+00 1.1529937479037700e+00 0 0 0
2 1 0.0000000000000000e+00 2.1792313000373884e+00 1.2750545245067824e+00 3.5148741821176688e+00 0 0 0
3 1 0.0000000000000000e+00 7.8346542736746700e+00 4.5402153094490769e+00 5.8767546163309268e+00 0 0 0
4 1 0.0000000000000000e+00 3.5930874880642820e+00 4.5876432827045283e-01 1.1529937479038617e+00 0 0 0
5 1 0.0000000000000000e+00 3.5930860873054056e+00 3.7239251132131508e+00 3.5148741821177301e+00 0 0 0
6 1 0.0000000000000000e+00 6.4207994864034967e+00 2.0913447207429527e+00 5.8767546163310183e+00 0 0 0
7 1 0.0000000000000000e+00 2.1792300881360522e+00 2.9076349169757214e+00 1.1529937479036623e+00 0 0 0
8 1 0.0000000000000000e+00 5.0069434872341416e+00 1.2750545245055231e+00 3.5148741821169507e+00 0 0 0
9 1 0.0000000000000000e+00 5.0069420864752656e+00 4.5402153094482207e+00 5.8767546163308202e+00 0 0 0
10 1 0.0000000000000000e+00 7.6537530086487648e-01 4.5876432826959640e-01 1.1529937479037544e+00 0 0 0
11 1 0.0000000000000000e+00 6.4207982745021575e+00 3.7239251132118913e+00 3.5148741821170111e+00 0 0 0
12 1 0.0000000000000000e+00 3.5930872992040888e+00 2.0913447207420952e+00 5.8767546163309117e+00 0 0 0

Velocities

1 0.0000000000000000e+00 0.0000000000000000e+00 0.0000000000000000e+00
2 0.0000000000000000e+00 0.0000000000000000e+00 0.0000000000000000e+00
3 0.0000000000000000e+00 0.0000000000000000e+00 0.0000000000000000e+00
4 0.0000000000000000e+00 0.0000000000000000e+00 0.0000000000000000e+00
5 0.0000000000000000e+00 0.0000000000000000e+00 0.0000000000000000e+00
6 0.0000000000000000e+00 0.0000000000000000e+00 0.0000000000000000e+00
7 0.0000000000000000e+00 0.0000000000000000e+00 0.0000000000000000e+00
8 0.0000000000000000e+00 0.0000000000000000e+00 0.0000000000000000e+00
9 0.0000000000000000e+00 0.0000000000000000e+00 0.0000000000000000e+00
10 0.0000000000000000e+00 0.0000000000000000e+00 0.0000000000000000e+00
11 0.0000000000000000e+00 0.0000000000000000e+00 0.0000000000000000e+00
12 0.0000000000000000e+00 0.0000000000000000e+00 0.0000000000000000e+00
