LAMMPS (19 Oct 2016)
include inelast.mod
# Compute elastic constant tensor for a crystal
#
# Written by Aidan Thompson (Sandia, athomps@sandia.gov)
#
#  This script uses the following three include files.
#
#   init.mod      (must be modified for different crystal structures)
# 	       	  Define units, deformation parameters and initial
#		  configuration of the atoms and simulation cell.
#
#
#   potential.mod    (must be modified for different pair styles)
# 		     Define pair style and other attributes
#		     not stored in restart file
#
#
#   displace.mod    (displace.mod should not need to be modified)
# 		    Perform positive and negative box displacements
# 		    in direction ${dir} and size ${up}.
# 		    It uses the resultant changes
#		    in stress to compute one
# 		    row of the elastic stiffness tensor
#
#		    Inputs variables:
#		    	   dir = the Voigt deformation component
#		    		    (1,2,3,4,5,6)
#		    Global constants:
#       	    	   up = the deformation magnitude (strain units)
#       		   cfac = conversion from LAMMPS pressure units to
#               	   output units for elastic constants
#
#
#  To run this on a different system, it should only be necessary to
#  modify the files init.mod and potential.mod. In order to calculate
#  the elastic constants correctly, care must be taken to specify
#  the correct units in init.mod (units, cfac and cunits). It is also
#  important to verify that the minimization of energy w.r.t atom
#  positions in the deformed cell is fully converged.
#  One indication of this is that the elastic constants are insensitive
#  to the choice of the variable ${up} in init.mod. Another is to check
#  the final max and two-norm forces reported in the log file. If you know
#  that minimization is not required, you can set maxiter = 0.0 in
#  init.mod.
#
#  There are two alternate versions of displace.mod provided.
#  They are displace_restart.mod and displace_reverse.mod.
#  The former resets the box using a restart file while
#  the latter reverses the deformation. Copy whichever
#  one you like best to displace.mod.
#

include init.mod
variable dump_file string "None"
variable up  equal 1.0e-6
variable cfac  equal 1.0e-4
variable cunits  string GPa
variable etol  equal 0
variable ftol  equal 1.0e-10
variable maxiter equal 1000
variable maxeval equal 10000
variable dmax equal 1.0e-2
variable data_file string "data"
units metal
atom_style charge
boundary p p p
atom_modify sort 0 0.0

read_data data
  triclinic box = (0 0 0) to (5.77232 4.99898 25.0696) with tilt (2.88616 0 0)
  1 by 1 by 1 MPI processor grid
  reading atoms ...
  12 atoms

### interactions
mass 1 26.9815386
include potential.mod
pair_style eam/alloy
pair_coeff * * /users/knc6/Software/LAMMPS/lammps-master/potentials/Al_zhou.eam.alloy  Al
Reading potential file /users/knc6/Software/LAMMPS/lammps-master/potentials/Al_zhou.eam.alloy with DATE: 2007-10-12
neighbor 1.0 nsq
neigh_modify once no every 1 delay 0 check yes
min_style  cg
min_modify           dmax ${dmax} line quadratic
min_modify           dmax 0.01 line quadratic
thermo          1
thermo_style custom step temp press cpu pxx pyy pzz             pxy pxz pyz ke pe etotal vol lx ly lz atoms
thermo_modify norm no
#fix 3 all nph aniso 0.0 0.0 1.0
#fix langevin all langevin 0.0 0.0 1.0 12233

#fix 3 all box/relax tri 0.0 vmax 0.001
fix            3 all box/relax aniso 0.0 vmax 0.001
#fix 3 all box/relax  aniso 0.0
#dump            2a all cfg 100 *.cfg mass type xs ys zs  vx vy vz fx fy fz
#dump_modify     2a element  Mo S

#fix 1a all qeq/comb 1 0.0001 file fq.out
#fix             2 all qeq/reax 1 0.0 10.0 1e-6 /scratch/lfs/kamal/JARVIS/All2/ReaxFF/param.qeq
minimize ${etol} ${ftol} ${maxiter} ${maxeval}
minimize 0 ${ftol} ${maxiter} ${maxeval}
minimize 0 1e-10 ${maxiter} ${maxeval}
minimize 0 1e-10 1000 ${maxeval}
minimize 0 1e-10 1000 10000
Neighbor list info ...
  1 neighbor list requests
  update every 1 steps, delay 0 steps, check yes
  max neighbors/atom: 2000, page size: 100000
  master list distance cutoff = 11.1025
  ghost atom cutoff = 11.1025
Memory usage per processor = 3.86583 Mbytes
Step Temp Press CPU Pxx Pyy Pzz Pxy Pxz Pyz KinEng PotEng TotEng Volume Lx Ly Lz Atoms 
       0            0   -10961.485            0    -13453.24   -13453.395   -5977.8197 -0.011779824 -0.050317943  0.012691755            0   -39.945354   -39.945354    723.40208      5.77232    4.9989804     25.06963       12 
       1            0   -10352.584 0.00010085106   -12754.684    -12754.84   -5548.2275 -0.011522808 -0.050865443    0.0128659            0   -39.958361   -39.958361    721.63522    5.7665477    4.9939814    25.058491       12 
       2            0   -9738.9382 0.00020503998   -12049.528   -12049.685   -5117.6014 -0.011202287  -0.05136404   0.01301339            0   -39.970604   -39.970604      719.878    5.7607755    4.9889824    25.047592       12 
       3            0   -9121.0243 0.00030684471   -11338.274    -11338.43   -4686.3699  -0.01081491 -0.051812602  0.013133021            0   -39.982082   -39.982082    718.13104    5.7550033    4.9839834    25.036956       12 
       4            0   -8499.3538 0.00040698051   -10621.446   -10621.602    -4255.013 -0.010356907 -0.052210849  0.013223602            0   -39.992794   -39.992794    716.39508     5.749231    4.9789845    25.026612       12 
       5            0   -7874.4837 0.00050806999   -9899.6104   -9899.7652   -3824.0754 -0.009823738 -0.052558131  0.013283685            0   -40.002739   -40.002739    714.67102    5.7434588    4.9739855    25.016592       12 
       6            0   -7247.0284 0.00060892105   -9173.3735   -9173.5273   -3394.1844 -0.0092097474 -0.052853387  0.013311394            0   -40.011919   -40.011919    712.95994    5.7376865    4.9689865    25.006936       12 
       7            0   -6617.6771 0.00071001053   -8443.4026   -8443.5548    -2966.074 -0.0085081882  -0.05309547  0.013304648            0   -40.020335   -40.020335    711.26315    5.7319143    4.9639875    24.997693       12 
       8            0   -5987.2171 0.00081086159   -7710.4412   -7710.5915   -2540.6186 -0.0077105357 -0.053283311  0.013260831            0   -40.027991   -40.027991    709.58229    5.7261421    4.9589885    24.988923       12 
       9            0   -5356.5686 0.00091099739   -6975.3379   -6975.4857   -2118.8823 -0.0068058267 -0.053415202  0.013176545            0    -40.03489    -40.03489    707.91945    5.7203699    4.9539896    24.980702       12 
      10            0   -4726.8361 0.0010108948   -6239.0865   -6239.2314   -1702.1904 -0.0057798247 -0.053488764  0.013047419            0    -40.04104    -40.04104     706.2773    5.7145977    4.9489906    24.973129       12 
      11            0    -4099.387 0.0011110306   -5502.8897   -5503.0311   -1292.2402 -0.0046136111 -0.053500758  0.012867711            0   -40.046449   -40.046449    704.65937    5.7088255    4.9439916    24.966332       12 
      12            0   -3475.9778  0.001210928   -4768.2595   -4768.3968   -891.27695 -0.0032813999 -0.053446888   0.01262973            0   -40.051129   -40.051129    703.07044    5.7030533    4.9389926    24.960485       12 
      13            0    -2858.965 0.0013098717    -4037.187   -4037.3194   -502.38862 -0.0017466335 -0.053320692  0.012322607            0   -40.055096   -40.055096    701.51725    5.6972812    4.9339936    24.955836       12 
      14            0   -2251.6828 0.0014090538   -3312.4451   -3312.5717   -130.03176 4.4633616e-05 -0.053112377  0.011930469            0   -40.058373   -40.058373    700.00971    5.6915091    4.9289947    24.952743       12 
      15            0   -1659.1717 0.0015149117   -2598.1746   -2598.2942    218.95379 0.0021766851 -0.052806284  0.011428786            0    -40.06099    -40.06099    698.56327     5.685737    4.9239957    24.951768       12 
      16            0   -1089.7412 0.0016150475   -1901.1423    -1901.253     533.1716 0.0047916465 -0.052375478  0.010776728            0   -40.062995   -40.062995    697.20403    5.6799649    4.9189967    24.953858       12 
      17            0   -558.84471 0.0017139912   -1233.8615   -1233.9609    791.28831 0.0081579186 -0.051768212 0.0098982122            0   -40.064463   -40.064463     695.9815    5.6741929    4.9139977    24.960808       12 
      18            0   -100.99219 0.0018320084   -624.20535   -624.28883    945.51761  0.012878337 -0.050866878 0.0086256228            0   -40.065529   -40.065529    695.00789    5.6684211    4.9089987     24.97668       12 
      19            0    85.604196 0.0019319057   -312.00007   -312.06566    880.87832  0.018181913 -0.049821096  0.007171914            0   -40.066213   -40.066213    694.75672    5.6645549    4.9056501     25.00175       12 
      20            0     89.51299 0.0020320415   -221.85014   -221.90059    712.28969  0.022685526 -0.048915401 0.0059408036            0   -40.066652   -40.066652    694.94322    5.6624771    4.9038503    25.026819       12 
      21            0    68.749736 0.0021309853   -162.09619    -162.1322    530.47759  0.026985099 -0.048033428 0.0047789337            0   -40.066981   -40.066981    695.18984    5.6606475    4.9022654    25.051889       12 
      22            0    45.502131 0.0022308826   -105.83045    -105.8526    348.18944  0.031124309 -0.047154308 0.0036747178            0   -40.067213   -40.067213    695.44363    5.6588502    4.9007085    25.076959       12 
      23            0    22.365491 0.0023310184   -49.928052   -49.937169    166.96169  0.035030911 -0.046261379 0.0026472563            0   -40.067349   -40.067349    695.69845      5.65706    4.8991579    25.102028       12 
      24            0  -0.76393936 0.0025150776  -0.85869644  -0.85744051  -0.57568111  0.038199962 -0.045351923  0.001830027            0   -40.067389   -40.067389    695.93934    5.6554301    4.8977461    25.125197       12 
      25            0 -0.0054388493 0.0026979446  0.013268008  0.014222051 -0.043806607  0.038130338 -0.045298731 0.0018504424            0   -40.067389   -40.067389    695.93739     5.655424    4.8977408    25.125182       12 
      26            0 0.0050330723  0.002879858 -0.0083452174 -0.0092429689  0.032687403  0.037737212 -0.044845333 0.0019704886            0   -40.067389   -40.067389    695.93728    5.6554247    4.8977414    25.125171       12 
      27            0 -0.023445375 0.0030620098 -0.027924888 -0.026303693 -0.016107545  0.039429988 -0.041080317 0.0016287523            0   -40.067389   -40.067389    695.93739    5.6554246    4.8977413    25.125176       12 
      28            0 0.0020848441 0.0032548904 0.0019591374  0.003203109 0.0010922858  0.039361601 -0.040943722 0.0016513952            0   -40.067389   -40.067389    695.93733    5.6554244    4.8977411    25.125175       12 
      29            0 0.00019734486 0.0034389496  0.014924423 -0.015711407 0.0013790187  0.032008194  -0.03535524 0.0038073393            0   -40.067389   -40.067389    695.93733     5.655424    4.8977416    25.125175       12 
      30            0 -0.00038434328  0.003620863 -0.0018484958 0.00084482366 -0.00014935772  0.041995027 -0.032498076 0.0011977839            0   -40.067389   -40.067389    695.93733    5.6554244    4.8977411    25.125175       12 
      31            0  0.021110762 0.0038030148  0.025105689  0.025833778  0.012392819  0.042502196 -0.028518476 0.0011808744            0   -40.067389   -40.067389    695.93728    5.6554242     4.897741    25.125175       12 
      32            0 -0.0011519974 0.0039849281 0.0014086887 -0.00013239462 -0.0047322863  0.042916406 -0.024572048 0.0011880264            0   -40.067389   -40.067389    695.93734    5.6554243    4.8977412    25.125176       12 
      33            0 0.0010244162 0.0041790009 -0.004654772 -0.0013521172 0.0090801377  0.044865687 -0.022272204 0.00073072073            0   -40.067389   -40.067389    695.93732    5.6554245    4.8977412    25.125174       12 
      34            0  0.014607329 0.0043618679  0.019030344   0.01398877  0.010802873  0.047206663 -0.004662302 0.00062468375            0   -40.067389   -40.067389    695.93729    5.6554242    4.8977411    25.125175       12 
      35            0 -0.00033751365  0.004543066 0.0019641184 -0.0024511061 -0.00052555317   0.04780397 -0.0030580222 0.00051128861            0   -40.067389   -40.067389    695.93733    5.6554243    4.8977412    25.125175       12 
      36            0 -8.2620778e-05 0.0047259331 -0.00098426303 0.00080822302 -7.1822321e-05   0.04964386 -0.0026020205 2.7863689e-05            0   -40.067389   -40.067389    695.93733    5.6554244    4.8977412    25.125175       12 
      37            0 0.0069955065 0.0049078465   0.00733118 0.0072274408 0.0064278986  0.049398495 -0.0015385182 0.00011859652            0   -40.067389   -40.067389    695.93731    5.6554243    4.8977411    25.125175       12 
      38            0 6.4853304e-05 0.0050899982 -0.0002632508 -0.0014889094 0.0019467202  0.049260925 -0.00088035688 0.00017082425            0   -40.067389   -40.067389    695.93733    5.6554244    4.8977412    25.125175       12 
      39            0 0.00079175083 0.0052728653 0.00083092914 0.00099526483 0.00054905851  0.049663633 -0.00081323137 6.3847859e-05            0   -40.067389   -40.067389    695.93733    5.6554244    4.8977412    25.125175       12 
      40            0 -0.00027565297 0.0054540634 -0.00033589371 -6.3821118e-05 -0.00042724407  0.049695355 -0.00080604607 5.5378821e-05            0   -40.067389   -40.067389    695.93733    5.6554244    4.8977412    25.125175       12 
      41            0 -2.921876e-05 0.0056359768 0.00060990031 -0.00042229217 -0.00027526442  0.049332885 -0.00080903081 0.00015038742            0   -40.067389   -40.067389    695.93733    5.6554244    4.8977412    25.125175       12 
      42            0 2.1488449e-06 0.0058178902 -5.2653518e-05 3.2931792e-05 2.6168261e-05  0.049658909 -0.00074655066 6.359889e-05            0   -40.067389   -40.067389    695.93733    5.6554244    4.8977412    25.125175       12 
      43            0 0.00019777489  0.006000042 0.00025188515 0.00022474738 0.00011669213  0.049679097 -0.0005460702 5.3785365e-05            0   -40.067389   -40.067389    695.93733    5.6554244    4.8977412    25.125175       12 
      44            0 -3.6419148e-05 0.0061819553 -2.2330065e-05 -4.3646775e-05 -4.3280605e-05  0.049681968 -0.0005411713 5.292144e-05            0   -40.067389   -40.067389    695.93733    5.6554244    4.8977412    25.125175       12 
      45            0 3.2147724e-05 0.0063638687 -0.00021077247 7.4511558e-05 0.00023270408  0.049789328 -0.00045411179 2.2770577e-05            0   -40.067389   -40.067389    695.93733    5.6554244    4.8977412    25.125175       12 
      46            0 1.7092821e-05 0.0065460205 5.1549874e-05 -1.3687046e-05 1.3415634e-05  0.049703284 -0.00041057249 4.4258585e-05            0   -40.067389   -40.067389    695.93733    5.6554244    4.8977412    25.125175       12 
      47            0 -0.00018086882 0.0067279339 -0.0002062233 -0.00016308043 -0.00017330274  0.049739517 -0.00038648657 3.4193262e-05            0   -40.067389   -40.067389    695.93733    5.6554244    4.8977412    25.125175       12 
      48            0 2.6373791e-05 0.0069088936 -6.2225454e-05 0.00027021139 -0.00012886456  0.049839152 -0.00031080279 6.2812883e-06            0   -40.067389   -40.067389    695.93733    5.6554244    4.8977412    25.125175       12 
      49            0 -1.0884395e-05 0.0070910454 -1.4172496e-05 -4.3132857e-05 2.4652166e-05  0.049786456 -0.00012538276 1.5524258e-05            0   -40.067389   -40.067389    695.93733    5.6554244    4.8977412    25.125175       12 
      50            0 9.2884318e-05  0.007281065 0.00011218013 0.00010448461 6.198822e-05  0.049797229 -0.00010635314 1.222405e-05            0   -40.067389   -40.067389    695.93733    5.6554244    4.8977412    25.125175       12 
      51            0 -2.5656493e-05  0.007463932 -1.3751521e-05 2.8680458e-05 -9.1898418e-05  0.049821317 -6.6596839e-05 4.9087082e-06            0   -40.067389   -40.067389    695.93733    5.6554244    4.8977412    25.125175       12 
      52            0 1.6985681e-05 0.0076458454 1.3752347e-05 -2.8269598e-06 4.0031655e-05  0.049819859 -8.3851568e-06 3.7679555e-06            0   -40.067389   -40.067389    695.93733    5.6554244    4.8977412    25.125175       12 
      53            0 -8.8539799e-05 0.0078389645 -0.0001047801 -0.00010340864 -5.7430652e-05  0.049829391 9.404038e-06 7.8998236e-07            0   -40.067389   -40.067389    695.93733    5.6554244    4.8977412    25.125175       12 
      54            0 1.6106921e-06 0.0080220699  6.87887e-06 4.6101354e-05 -4.8148147e-05  0.049849763 4.799127e-05 -5.600075e-06            0   -40.067389   -40.067389    695.93733    5.6554244    4.8977412    25.125175       12 
      55            0 -9.2114228e-06 0.0082039833 -5.2520705e-06 -3.5102162e-05 1.2719965e-05  0.049836204 6.9887481e-05 -2.696441e-06            0   -40.067389   -40.067389    695.93733    5.6554244    4.8977412    25.125175       12 
      56            0 5.6750214e-05 0.0084040165 6.116966e-05 5.4839672e-05 5.4241311e-05  0.049844693 7.7584606e-05 -5.1528713e-06            0   -40.067389   -40.067389    695.93733    5.6554244    4.8977412    25.125175       12 
      57            0 -5.3941348e-06 0.0085859299 -2.5814893e-05 1.9503192e-05 -9.870703e-06  0.049862846 9.258092e-05 -1.0370968e-05            0   -40.067389   -40.067389    695.93733    5.6554244    4.8977412    25.125175       12 
      58            0 7.9167558e-06 0.0087668896 2.4980445e-05 -3.0386876e-06 1.8085096e-06   0.04984283 9.3881149e-05 -5.2349574e-06            0   -40.067389   -40.067389    695.93733    5.6554244    4.8977412    25.125175       12 
      59            0 -3.0696969e-05 0.0089490414 -2.5721271e-05 -4.6095069e-05 -2.0274567e-05  0.049845286 9.5214691e-05 -5.9489334e-06            0   -40.067389   -40.067389    695.93733    5.6554244    4.8977412    25.125175       12 
      60            0 4.5227052e-06 0.0091300011 -9.7610741e-06 7.9886885e-06 1.5340501e-05  0.049856729 9.8667308e-05 -9.1279067e-06            0   -40.067389   -40.067389    695.93733    5.6554244    4.8977412    25.125175       12 
      61            0 -1.1271106e-05 0.0093109608 2.5931511e-07 -1.1506319e-05 -2.2566312e-05  0.049848034 9.6742601e-05 -6.9099737e-06            0   -40.067389   -40.067389    695.93733    5.6554244    4.8977412    25.125175       12 
      62            0 2.598618e-05 0.0094928741 4.2011097e-05 2.995514e-05 5.9923031e-06    0.0498477 9.5785338e-05 -6.8563719e-06            0   -40.067389   -40.067389    695.93733    5.6554244    4.8977412    25.125175       12 
      63            0 -4.4706889e-07 0.0096750259 -1.039645e-05 -4.8013918e-06 1.3856635e-05  0.049851546 9.1838715e-05 -8.0110378e-06            0   -40.067389   -40.067389    695.93733    5.6554244    4.8977412    25.125175       12 
      64            0 1.6110457e-05 0.0098559856 3.0896214e-05 2.604211e-05 -8.6069519e-06  0.049846852 8.4969601e-05 -6.8497506e-06            0   -40.067389   -40.067389    695.93733    5.6554244    4.8977412    25.125175       12 
      65            0 -2.2417969e-05  0.010037899 -1.2701358e-05 -1.810917e-05 -3.6443378e-05   0.04984608 8.2602153e-05 -6.6679204e-06            0   -40.067389   -40.067389    695.93733    5.6554244    4.8977412    25.125175       12 
      66            0 3.9493116e-06  0.010218859 -2.5666903e-06 2.9169348e-07 1.4122932e-05  0.049846175 7.418625e-05 -6.7573056e-06            0   -40.067389   -40.067389    695.93733    5.6554244    4.8977412    25.125175       12 
      67            0 -2.6084839e-05  0.010401011 -2.2093077e-05 -2.6353643e-05 -2.9807795e-05  0.049842137 6.6247514e-05 -5.69559e-06            0   -40.067389   -40.067389    695.93733    5.6554244    4.8977412    25.125175       12 
      68            0 5.419563e-06  0.010596037 1.6337275e-05 1.1335716e-05 -1.1414301e-05  0.049841189 6.3390557e-05 -5.4443513e-06            0   -40.067389   -40.067389    695.93733    5.6554244    4.8977412    25.125175       12 
      69            0 -9.3455402e-07   0.01077795 -9.209572e-06 -3.3321075e-06 9.7380174e-06  0.049842501 5.6824994e-05 -5.7739883e-06            0   -40.067389   -40.067389    695.93733    5.6554244    4.8977412    25.125175       12 
      70            0 2.852703e-05  0.010959864 3.7698076e-05 3.0175422e-05 1.7707593e-05  0.049836551 4.8195006e-05 -4.1470879e-06            0   -40.067389   -40.067389    695.93733    5.6554244    4.8977412    25.125175       12 
      71            0 -5.8812565e-06  0.011142015 4.882181e-06 -8.3032828e-06 -1.4222668e-05  0.049833468 4.2352789e-05 -3.2930359e-06            0   -40.067389   -40.067389    695.93733    5.6554244    4.8977412    25.125175       12 
      72            0 6.2510112e-06  0.011348009 -8.526206e-06 1.4534071e-05 1.2745169e-05  0.049841403 3.4176688e-05 -5.3155624e-06            0   -40.067389   -40.067389    695.93733    5.6554244    4.8977412    25.125175       12 
      73            0 -2.7277257e-05   0.01154089 -3.7513937e-05 -3.2655355e-05 -1.1662479e-05  0.049834184 2.5769953e-05 -3.325318e-06            0   -40.067389   -40.067389    695.93733    5.6554244    4.8977412    25.125175       12 
      74            0 3.7366592e-06  0.011695862 1.2298599e-05 -6.37666e-06 5.2880391e-06  0.049825139 1.6016992e-05 -8.3657776e-07            0   -40.067389   -40.067389    695.93733    5.6554244    4.8977412    25.125175       12 
      75            0 -1.1519688e-05  0.011854887 -1.7861073e-05 1.8325506e-06 -1.8530543e-05  0.049833767 8.2245305e-06 -3.0108629e-06            0   -40.067389   -40.067389    695.93733    5.6554244    4.8977412    25.125175       12 
      76            0 1.7810786e-05  0.012027025 1.4570782e-05 3.4780925e-05 4.0806493e-06  0.049832805 3.9387407e-06 -2.6988402e-06            0   -40.067389   -40.067389    695.93733    5.6554244    4.8977412    25.125175       12 
      77            0 -1.2953505e-06  0.012194872 -2.8387614e-06 -5.6970002e-06  4.64971e-06  0.049823321 -8.0363632e-06 -3.1683217e-08            0   -40.067389   -40.067389    695.93733    5.6554244    4.8977412    25.125175       12 
      78            0 2.305917e-05   0.01235199 2.8268354e-05 3.410394e-05 6.8052166e-06  0.049825871 -7.5061604e-06 -6.9319221e-07            0   -40.067389   -40.067389    695.93733    5.6554244    4.8977412    25.125175       12 
      79            0 -1.2052869e-05  0.012506008 -7.6818817e-06 8.3851009e-06 -3.6861827e-05  0.049828902 -6.7713576e-06 -1.4683253e-06            0   -40.067389   -40.067389    695.93733    5.6554244    4.8977412    25.125175       12 
      80            0 -1.2270973e-07  0.012676954 4.3759309e-06 -3.4184885e-06 -1.3255716e-06  0.049822329 -6.6820479e-06 3.9415522e-07            0   -40.067389   -40.067389    695.93733    5.6554244    4.8977412    25.125175       12 
      81            0 3.5337387e-08  0.012843847 -5.4217271e-06 3.4939231e-06 2.0338161e-06  0.049827186 -5.8237665e-06 -8.8215489e-07            0   -40.067389   -40.067389    695.93733    5.6554244    4.8977412    25.125175       12 
      82            0 8.8360114e-06  0.013005018 9.923546e-06 1.0444991e-05 6.1394976e-06  0.049825022 -5.2540553e-06 -2.1035868e-07            0   -40.067389   -40.067389    695.93733    5.6554244    4.8977412    25.125175       12 
      83            0 -6.779168e-07   0.01316905 -4.464921e-07 -8.5491019e-07 -7.3234811e-07   0.04982478 -5.1984642e-06 -1.3617487e-07            0   -40.067389   -40.067389    695.93733    5.6554244    4.8977412    25.125175       12 
      84            0 2.6603907e-07  0.013326883 -3.4091549e-06 -1.1149304e-07 4.3187651e-06  0.049826246 -3.5976948e-06 -3.7577529e-07            0   -40.067389   -40.067389    695.93733    5.6554244    4.8977412    25.125175       12 
      85            0 1.3942999e-06  0.013480902 1.7740201e-06 1.3760603e-06 1.0328193e-06  0.049825216 -3.6253941e-06 -8.8502348e-08            0   -40.067389   -40.067389    695.93733    5.6554244    4.8977412    25.125175       12 
      86            0 -4.5747873e-07  0.013635874 -1.4025472e-07 -6.6181207e-07 -5.7036939e-07  0.049825185 -3.6140504e-06 -7.8508415e-08            0   -40.067389   -40.067389    695.93733    5.6554244    4.8977412    25.125175       12 
      87            0 -1.2071368e-07  0.013789892 -1.1727395e-06 1.6334256e-06 -8.2282712e-07   0.04982623 -3.1598476e-06 -3.2374781e-07            0   -40.067389   -40.067389    695.93733    5.6554244    4.8977412    25.125175       12 
      88            0 2.2603847e-07  0.013957024 3.2185354e-07 1.2949254e-07 2.2676932e-07  0.049825405 -3.1470595e-06 -8.9486947e-08            0   -40.067389   -40.067389    695.93733    5.6554244    4.8977412    25.125175       12 
      89            0 -6.4040674e-07  0.014111042 -6.475814e-07 -8.9766088e-07 -3.7597794e-07  0.049825397 -3.1186752e-06 -8.40826e-08            0   -40.067389   -40.067389    695.93733    5.6554244    4.8977412    25.125175       12 
      90            0 -1.6223012e-07  0.014266014 -3.1959597e-07 5.4161075e-07 -7.0870515e-07   0.04982619 -1.3565361e-06 -1.1489906e-07            0   -40.067389   -40.067389    695.93733    5.6554244    4.8977412    25.125175       12 
      91            0 3.5128868e-07  0.014420033 4.7253112e-07 2.8980735e-07 2.9152756e-07  0.049825914 -1.3103112e-06 -3.198625e-08            0   -40.067389   -40.067389    695.93733    5.6554244    4.8977412    25.125175       12 
      92            0 -1.7991494e-07  0.014574051 -1.3070749e-07 -4.2960491e-07 2.0567577e-08  0.049825886 -1.2946028e-06 -2.2413001e-08            0   -40.067389   -40.067389    695.93733    5.6554244    4.8977412    25.125175       12 
      93            0 -1.5188489e-08  0.014728069 -8.6445209e-07 3.7661423e-07 4.4227239e-07  0.049826465 -7.3970293e-07 -1.2451032e-07            0   -40.067389   -40.067389    695.93733    5.6554244    4.8977412    25.125175       12 
      94            0 4.7035994e-07  0.014881849 5.8637544e-07 5.3230658e-07 2.9239778e-07  0.049826144 -6.0481496e-07 -1.902847e-08            0   -40.067389   -40.067389    695.93733    5.6554244    4.8977412    25.125175       12 
      95            0 -1.476065e-07  0.015035868 2.4022255e-08 -2.4689057e-07 -2.199512e-07  0.049826091 -5.7801143e-07 -1.2204238e-09            0   -40.067389   -40.067389    695.93733    5.6554244    4.8977412    25.125175       12 
      96            0 -2.4142589e-07  0.015197039 -7.5879744e-07 -9.2309882e-08 1.2682966e-07  0.049826489 -7.4173059e-08 -5.7647951e-08            0   -40.067389   -40.067389    695.93733    5.6554244    4.8977412    25.125175       12 
      97            0 3.0147451e-07  0.015352964 3.6310384e-08 4.5392272e-07 4.1419042e-07  0.049826428 -4.8749323e-08 -3.7368603e-08            0   -40.067389   -40.067389    695.93733    5.6554244    4.8977412    25.125175       12 
      98            0 6.784683e-09  0.015570879 5.2943185e-08 -3.3795279e-08 1.2061438e-09  0.049826291 -3.837014e-08 2.3700431e-09            0   -40.067389   -40.067389    695.93733    5.6554244    4.8977412    25.125175       12 
Loop time of 0.015579 on 1 procs for 98 steps with 12 atoms

102.7% CPU use with 1 MPI tasks x no OpenMP threads

Minimization stats:
  Stopping criterion = force tolerance
  Energy initial, next-to-last, final = 
        -39.9453542053     -40.0673893929     -40.0673893929
  Force two-norm initial, final = 9.01355 5.17146e-11
  Force max component initial, final = 6.07437 2.34723e-11
  Final line search alpha, max atom move = 1 2.34723e-11
  Iterations, force evaluations = 98 173

MPI task timing breakdown:
Section |  min time  |  avg time  |  max time  |%varavg| %total
---------------------------------------------------------------
Pair    | 0.01159    | 0.01159    | 0.01159    |   0.0 | 74.40
Neigh   | 0          | 0          | 0          |   0.0 |  0.00
Comm    | 0.00067115 | 0.00067115 | 0.00067115 |   0.0 |  4.31
Output  | 0.0011077  | 0.0011077  | 0.0011077  |   0.0 |  7.11
Modify  | 0          | 0          | 0          |   0.0 |  0.00
Other   |            | 0.00221    |            |       | 14.19

Nlocal:    12 ave 12 max 12 min
Histogram: 1 0 0 0 0 0 0 0 0 0
Nghost:    672 ave 672 max 672 min
Histogram: 1 0 0 0 0 0 0 0 0 0
Neighs:    876 ave 876 max 876 min
Histogram: 1 0 0 0 0 0 0 0 0 0

Total # of neighbors = 876
Ave neighs/atom = 73
Neighbor list builds = 0
Dangerous builds = 0
#minimize ${etol} ${ftol} ${maxiter} ${maxeval}
#minimize ${etol} ${ftol} ${maxiter} ${maxeval}

variable tmp equal pxx
variable pxx0 equal ${tmp}
variable pxx0 equal 5.29431846291738e-08
variable tmp equal pyy
variable pyy0 equal ${tmp}
variable pyy0 equal -3.37952793378317e-08
variable tmp equal pzz
variable pzz0 equal ${tmp}
variable pzz0 equal 1.2061437959768e-09
variable tmp equal pyz
variable pyz0 equal ${tmp}
variable pyz0 equal 2.37004310489317e-09
variable tmp equal pxz
variable pxz0 equal ${tmp}
variable pxz0 equal -3.83701396228841e-08
variable tmp equal pxy
variable pxy0 equal ${tmp}
variable pxy0 equal 0.0498262909959666

variable tmp equal lx
variable lx0 equal ${tmp}
variable lx0 equal 5.65542437439538
variable tmp equal ly
variable ly0 equal ${tmp}
variable ly0 equal 4.89774117741257
variable tmp equal lz
variable lz0 equal ${tmp}
variable lz0 equal 25.1251754362462

# These formulas define the derivatives w.r.t. strain components
# Constants uses $, variables use v_
variable d1 equal -(v_pxx1-${pxx0})/(v_delta/v_len0)*${cfac}
variable d1 equal -(v_pxx1-5.29431846291738e-08)/(v_delta/v_len0)*${cfac}
variable d1 equal -(v_pxx1-5.29431846291738e-08)/(v_delta/v_len0)*0.0001
variable d2 equal -(v_pyy1-${pyy0})/(v_delta/v_len0)*${cfac}
variable d2 equal -(v_pyy1--3.37952793378317e-08)/(v_delta/v_len0)*${cfac}
variable d2 equal -(v_pyy1--3.37952793378317e-08)/(v_delta/v_len0)*0.0001
variable d3 equal -(v_pzz1-${pzz0})/(v_delta/v_len0)*${cfac}
variable d3 equal -(v_pzz1-1.2061437959768e-09)/(v_delta/v_len0)*${cfac}
variable d3 equal -(v_pzz1-1.2061437959768e-09)/(v_delta/v_len0)*0.0001
variable d4 equal -(v_pyz1-${pyz0})/(v_delta/v_len0)*${cfac}
variable d4 equal -(v_pyz1-2.37004310489317e-09)/(v_delta/v_len0)*${cfac}
variable d4 equal -(v_pyz1-2.37004310489317e-09)/(v_delta/v_len0)*0.0001
variable d5 equal -(v_pxz1-${pxz0})/(v_delta/v_len0)*${cfac}
variable d5 equal -(v_pxz1--3.83701396228841e-08)/(v_delta/v_len0)*${cfac}
variable d5 equal -(v_pxz1--3.83701396228841e-08)/(v_delta/v_len0)*0.0001
variable d6 equal -(v_pxy1-${pxy0})/(v_delta/v_len0)*${cfac}
variable d6 equal -(v_pxy1-0.0498262909959666)/(v_delta/v_len0)*${cfac}
variable d6 equal -(v_pxy1-0.0498262909959666)/(v_delta/v_len0)*0.0001

# Write restart
unfix 3
minimize ${etol} ${ftol} ${maxiter} ${maxeval}
minimize 0 ${ftol} ${maxiter} ${maxeval}
minimize 0 1e-10 ${maxiter} ${maxeval}
minimize 0 1e-10 1000 ${maxeval}
minimize 0 1e-10 1000 10000
Memory usage per processor = 3.86583 Mbytes
Step Temp Press CPU Pxx Pyy Pzz Pxy Pxz Pyz KinEng PotEng TotEng Volume Lx Ly Lz Atoms 
      98            0 6.8203967e-09            0 5.3000709e-08 -3.3767132e-08 1.2276132e-09  0.049826291 -3.8370762e-08 2.3715605e-09            0   -40.067389   -40.067389    695.93733    5.6554244    4.8977412    25.125175       12 
      99            0 6.3110182e-09 0.00020694733 5.2495205e-08 -3.4116734e-08 5.5458364e-10  0.049826292 -3.4245393e-08 2.1216384e-09            0   -40.067389   -40.067389    695.93733    5.6554244    4.8977412    25.125175       12 
Loop time of 0.000216007 on 1 procs for 1 steps with 12 atoms

0.0% CPU use with 1 MPI tasks x no OpenMP threads

Minimization stats:
  Stopping criterion = force tolerance
  Energy initial, next-to-last, final = 
        -40.0673893929     -40.0673893929     -40.0673893929
  Force two-norm initial, final = 4.35706e-11 1.65218e-11
  Force max component initial, final = 1.21601e-11 7.20074e-12
  Final line search alpha, max atom move = 1 7.20074e-12
  Iterations, force evaluations = 1 2

MPI task timing breakdown:
Section |  min time  |  avg time  |  max time  |%varavg| %total
---------------------------------------------------------------
Pair    | 0.0001862  | 0.0001862  | 0.0001862  |   0.0 | 86.20
Neigh   | 0          | 0          | 0          |   0.0 |  0.00
Comm    | 1.2875e-05 | 1.2875e-05 | 1.2875e-05 |   0.0 |  5.96
Output  | 0          | 0          | 0          |   0.0 |  0.00
Modify  | 0          | 0          | 0          |   0.0 |  0.00
Other   |            | 1.693e-05  |            |       |  7.84

Nlocal:    12 ave 12 max 12 min
Histogram: 1 0 0 0 0 0 0 0 0 0
Nghost:    760 ave 760 max 760 min
Histogram: 1 0 0 0 0 0 0 0 0 0
Neighs:    948 ave 948 max 948 min
Histogram: 1 0 0 0 0 0 0 0 0 0

Total # of neighbors = 948
Ave neighs/atom = 79
Neighbor list builds = 0
Dangerous builds = 0
#fix 1a all qeq/comb 1 0.0001 file fq.out
write_restart restart.equil
write_data data0

# uxx Perturbation

variable dir equal 1
include /users/knc6/displace.mod
# NOTE: This script should not need to be
# modified. See in.elastic for more info.
#
# Find which reference length to use

if "${dir} == 1" then    "variable len0 equal ${lx0}"
variable len0 equal ${lx0}
variable len0 equal 5.65542437439538
if "${dir} == 2" then    "variable len0 equal ${ly0}"
if "${dir} == 3" then    "variable len0 equal ${lz0}"
if "${dir} == 4" then    "variable len0 equal ${lz0}"
if "${dir} == 5" then    "variable len0 equal ${lz0}"
if "${dir} == 6" then    "variable len0 equal ${ly0}"

# Reset box and simulation parameters

clear
box tilt large
read_restart restart.equil
  triclinic box = (0.0584478 0.0506196 -0.0277727) to (5.71387 4.94836 25.0974) with tilt (2.82771 0 0)
  1 by 1 by 1 MPI processor grid
  12 atoms
include potential.mod
pair_style eam/alloy
pair_coeff * * /users/knc6/Software/LAMMPS/lammps-master/potentials/Al_zhou.eam.alloy  Al
Reading potential file /users/knc6/Software/LAMMPS/lammps-master/potentials/Al_zhou.eam.alloy with DATE: 2007-10-12
neighbor 1.0 nsq
neigh_modify once no every 1 delay 0 check yes
min_style  cg
min_modify           dmax ${dmax} line quadratic
min_modify           dmax 0.01 line quadratic
thermo          1
thermo_style custom step temp press cpu pxx pyy pzz             pxy pxz pyz ke pe etotal vol lx ly lz atoms
thermo_modify norm no
# Negative deformation

variable delta equal -${up}*${len0}
variable delta equal -1e-06*${len0}
variable delta equal -1e-06*5.65542437439538
if "${dir} == 1" then    "change_box all x delta 0 ${delta} remap units box"
change_box all x delta 0 ${delta} remap units box
change_box all x delta 0 -5.65542437439538e-06 remap units box
WARNING: Triclinic box skew is large (../domain.cpp:196)
  triclinic box = (0.0584478 0.0506196 -0.0277727) to (5.71387 4.94836 25.0974) with tilt (2.82771 0 0)
if "${dir} == 2" then    "change_box all y delta 0 ${delta} remap units box"
if "${dir} == 3" then    "change_box all z delta 0 ${delta} remap units box"
if "${dir} == 4" then    "change_box all yz delta ${delta} remap units box"
if "${dir} == 5" then    "change_box all xz delta ${delta} remap units box"
if "${dir} == 6" then    "change_box all xy delta ${delta} remap units box"

# Relax atoms positions

minimize ${etol} ${ftol} ${maxiter} ${maxeval}
minimize 0 ${ftol} ${maxiter} ${maxeval}
minimize 0 1e-10 ${maxiter} ${maxeval}
minimize 0 1e-10 1000 ${maxeval}
minimize 0 1e-10 1000 10000
Neighbor list info ...
  1 neighbor list requests
  update every 1 steps, delay 0 steps, check yes
  max neighbors/atom: 2000, page size: 100000
  master list distance cutoff = 11.1025
  ghost atom cutoff = 11.1025
Memory usage per processor = 3.87288 Mbytes
Step Temp Press CPU Pxx Pyy Pzz Pxy Pxz Pyz KinEng PotEng TotEng Volume Lx Ly Lz Atoms 
      99            0   0.28997947            0   0.45058012   0.25573666   0.16362163 -0.0064200003 -0.0085667423  0.014838025            0   -40.067389   -40.067389    695.93663    5.6554187    4.8977412    25.125175       12 
     100            0   0.16996057 0.00029110909   0.35227908   0.15903921 -0.001436564 -0.0059570649 -0.0068563753  0.011875543            0   -40.067389   -40.067389    695.93663    5.6554187    4.8977412    25.125175       12 
     101            0   0.17052257 0.0004491806    0.3510055   0.16122588 -0.00066366788 -0.0049581721 -0.0031658053 0.0054833126            0   -40.067389   -40.067389    695.93663    5.6554187    4.8977412    25.125175       12 
     102            0   0.17182361 0.00060319901   0.35127053    0.1630747 0.0011256101 -0.0045009661 -0.0014765858 0.0025575091            0   -40.067389   -40.067389    695.93663    5.6554187    4.8977412    25.125175       12 
     103            0   0.17182361 0.0010251999   0.35127053    0.1630747 0.0011256101 -0.0045009661 -0.0014765858 0.0025575091            0   -40.067389   -40.067389    695.93663    5.6554187    4.8977412    25.125175       12 
Loop time of 0.00104022 on 1 procs for 4 steps with 12 atoms

0.0% CPU use with 1 MPI tasks x no OpenMP threads

Minimization stats:
  Stopping criterion = linesearch alpha is zero
  Energy initial, next-to-last, final = 
        -40.0673893928     -40.0673893929     -40.0673893929
  Force two-norm initial, final = 1.06971e-05 2.05495e-07
  Force max component initial, final = 3.76142e-06 5.89183e-08
  Final line search alpha, max atom move = 0.5 2.94592e-08
  Iterations, force evaluations = 4 6

MPI task timing breakdown:
Section |  min time  |  avg time  |  max time  |%varavg| %total
---------------------------------------------------------------
Pair    | 0.0008862  | 0.0008862  | 0.0008862  |   0.0 | 85.19
Neigh   | 0          | 0          | 0          |   0.0 |  0.00
Comm    | 5.579e-05  | 5.579e-05  | 5.579e-05  |   0.0 |  5.36
Output  | 5.6744e-05 | 5.6744e-05 | 5.6744e-05 |   0.0 |  5.45
Modify  | 0          | 0          | 0          |   0.0 |  0.00
Other   |            | 4.148e-05  |            |       |  3.99

Nlocal:    12 ave 12 max 12 min
Histogram: 1 0 0 0 0 0 0 0 0 0
Nghost:    760 ave 760 max 760 min
Histogram: 1 0 0 0 0 0 0 0 0 0
Neighs:    948 ave 948 max 948 min
Histogram: 1 0 0 0 0 0 0 0 0 0

Total # of neighbors = 948
Ave neighs/atom = 79
Neighbor list builds = 0
Dangerous builds = 0

# Obtain new stress tensor

variable tmp equal pxx
variable pxx1 equal ${tmp}
variable pxx1 equal 0.351270526859656
variable tmp equal pyy
variable pyy1 equal ${tmp}
variable pyy1 equal 0.163074703736065
variable tmp equal pzz
variable pzz1 equal ${tmp}
variable pzz1 equal 0.00112561011665024
variable tmp equal pxy
variable pxy1 equal ${tmp}
variable pxy1 equal -0.00450096605340025
variable tmp equal pxz
variable pxz1 equal ${tmp}
variable pxz1 equal -0.00147658583302531
variable tmp equal pyz
variable pyz1 equal ${tmp}
variable pyz1 equal 0.0025575091184995

# Compute elastic constant from pressure tensor

variable C1neg equal ${d1}
variable C1neg equal 35.1270473916471
variable C2neg equal ${d2}
variable C2neg equal 16.3074737531344
variable C3neg equal ${d3}
variable C3neg equal 0.112560891050644
variable C4neg equal ${d4}
variable C4neg equal 0.255750674845639
variable C5neg equal ${d5}
variable C5neg equal -0.147654746288569
variable C6neg equal ${d6}
variable C6neg equal -5.43272570493668

# Reset box and simulation parameters

clear
box tilt large
read_restart restart.equil
  triclinic box = (0.0584478 0.0506196 -0.0277727) to (5.71387 4.94836 25.0974) with tilt (2.82771 0 0)
  1 by 1 by 1 MPI processor grid
  12 atoms
include potential.mod
pair_style eam/alloy
pair_coeff * * /users/knc6/Software/LAMMPS/lammps-master/potentials/Al_zhou.eam.alloy  Al
Reading potential file /users/knc6/Software/LAMMPS/lammps-master/potentials/Al_zhou.eam.alloy with DATE: 2007-10-12
neighbor 1.0 nsq
neigh_modify once no every 1 delay 0 check yes
min_style  cg
min_modify           dmax ${dmax} line quadratic
min_modify           dmax 0.01 line quadratic
thermo          1
thermo_style custom step temp press cpu pxx pyy pzz             pxy pxz pyz ke pe etotal vol lx ly lz atoms
thermo_modify norm no

# Positive deformation

variable delta equal ${up}*${len0}
variable delta equal 1e-06*${len0}
variable delta equal 1e-06*5.65542437439538
if "${dir} == 1" then    "change_box all x delta 0 ${delta} remap units box"
change_box all x delta 0 ${delta} remap units box
change_box all x delta 0 5.65542437439538e-06 remap units box
  triclinic box = (0.0584478 0.0506196 -0.0277727) to (5.71388 4.94836 25.0974) with tilt (2.82771 0 0)
if "${dir} == 2" then    "change_box all y delta 0 ${delta} remap units box"
if "${dir} == 3" then    "change_box all z delta 0 ${delta} remap units box"
if "${dir} == 4" then    "change_box all yz delta ${delta} remap units box"
if "${dir} == 5" then    "change_box all xz delta ${delta} remap units box"
if "${dir} == 6" then    "change_box all xy delta ${delta} remap units box"

# Relax atoms positions

minimize ${etol} ${ftol} ${maxiter} ${maxeval}
minimize 0 ${ftol} ${maxiter} ${maxeval}
minimize 0 1e-10 ${maxiter} ${maxeval}
minimize 0 1e-10 1000 ${maxeval}
minimize 0 1e-10 1000 10000
Neighbor list info ...
  1 neighbor list requests
  update every 1 steps, delay 0 steps, check yes
  max neighbors/atom: 2000, page size: 100000
  master list distance cutoff = 11.1025
  ghost atom cutoff = 11.1025
Memory usage per processor = 3.87288 Mbytes
Step Temp Press CPU Pxx Pyy Pzz Pxy Pxz Pyz KinEng PotEng TotEng Volume Lx Ly Lz Atoms 
      99            0  -0.28997888            0  -0.45057891  -0.25573632  -0.16362142    0.1060726 0.0085666005 -0.014837896            0   -40.067389   -40.067389    695.93803      5.65543    4.8977412    25.125175       12 
     100            0    -0.169961 0.00024104118   -0.3522786  -0.15903964 0.0014352521   0.10560966 0.0068563522 -0.011875598            0   -40.067389   -40.067389    695.93803      5.65543    4.8977412    25.125175       12 
     101            0    -0.170523 0.0003721714  -0.35100503  -0.16122632 0.00066234369   0.10461078 0.0031658079 -0.0054833681            0   -40.067389   -40.067389    695.93803      5.65543    4.8977412    25.125175       12 
     102            0  -0.17182146 0.00049901009  -0.35126794  -0.16307306 -0.0011233901   0.10415358 0.0014765745 -0.0025575199            0   -40.067389   -40.067389    695.93803      5.65543    4.8977412    25.125175       12 
     103            0  -0.16961917 0.00062608719  -0.34910952  -0.16165335  0.001905347   0.10394033 0.00068869484 -0.0011928644            0   -40.067389   -40.067389    695.93803      5.65543    4.8977412    25.125175       12 
     104            0  -0.17159414 0.00087809563  -0.35050863  -0.16346303 -0.00081075771   0.10382181 0.00025080661 -0.00043441599            0   -40.067389   -40.067389    695.93803      5.65543    4.8977412    25.125175       12 
     105            0  -0.17116443 0.0011160374   -0.3500483   -0.1632252 -0.00021979941   0.10375758 1.3495972e-05 -2.3378316e-05            0   -40.067389   -40.067389    695.93803      5.65543    4.8977412    25.125175       12 
     106            0   -0.1710539 0.0013730526  -0.34994768  -0.16314623 -6.7780314e-05   0.10375134 -9.588144e-06 1.6605112e-05            0   -40.067389   -40.067389    695.93803      5.65543    4.8977412    25.125175       12 
     107            0  -0.17102237 0.0016109943  -0.34992232  -0.16312036 -2.441913e-05   0.10375148 -9.044899e-06 1.5664438e-05            0   -40.067389   -40.067389    695.93803      5.65543    4.8977412    25.125175       12 
     108            0  -0.17100122 0.0018479824  -0.34990575  -0.16310257 4.6588455e-06   0.10375183 -7.7436613e-06 1.3410955e-05            0   -40.067389   -40.067389    695.93803      5.65543    4.8977412    25.125175       12 
     109            0  -0.17099946 0.0019741058  -0.34990657  -0.16309889 7.0888862e-06   0.10375313 -2.9409308e-06 5.0933273e-06            0   -40.067389   -40.067389    695.93803      5.65543    4.8977412    25.125175       12 
     110            0  -0.17100263 0.0022101402  -0.34990978  -0.16310084 2.7198115e-06    0.1037535 -1.6089218e-06 2.7864723e-06            0   -40.067389   -40.067389    695.93803      5.65543    4.8977412    25.125175       12 
     111            0  -0.17100657 0.0024471283  -0.34991351   -0.1631035 -2.6898602e-06    0.1037538 -4.6751812e-07 8.0971027e-07            0   -40.067389   -40.067389    695.93803      5.65543    4.8977412    25.125175       12 
     112            0  -0.17100552 0.0026841164   -0.3499127  -0.16310261 -1.2511864e-06   0.10375383 -3.7961805e-07 6.5750134e-07            0   -40.067389   -40.067389    695.93803      5.65543    4.8977412    25.125175       12 
     113            0  -0.17100436 0.0030331612   -0.3499118  -0.16310163 3.3911486e-07   0.10375385 -2.83542e-07 4.9109145e-07            0   -40.067389   -40.067389    695.93803      5.65543    4.8977412    25.125175       12 
Loop time of 0.00304699 on 1 procs for 14 steps with 12 atoms

0.0% CPU use with 1 MPI tasks x no OpenMP threads

Minimization stats:
  Stopping criterion = force tolerance
  Energy initial, next-to-last, final = 
        -40.0673893928     -40.0673893928     -40.0673893928
  Force two-norm initial, final = 1.06971e-05 4.49031e-11
  Force max component initial, final = 3.76143e-06 1.18158e-11
  Final line search alpha, max atom move = 1 1.18158e-11
  Iterations, force evaluations = 14 24

MPI task timing breakdown:
Section |  min time  |  avg time  |  max time  |%varavg| %total
---------------------------------------------------------------
Pair    | 0.0025764  | 0.0025764  | 0.0025764  |   0.0 | 84.55
Neigh   | 0          | 0          | 0          |   0.0 |  0.00
Comm    | 0.00017571 | 0.00017571 | 0.00017571 |   0.0 |  5.77
Output  | 0.00021529 | 0.00021529 | 0.00021529 |   0.0 |  7.07
Modify  | 0          | 0          | 0          |   0.0 |  0.00
Other   |            | 7.963e-05  |            |       |  2.61

Nlocal:    12 ave 12 max 12 min
Histogram: 1 0 0 0 0 0 0 0 0 0
Nghost:    760 ave 760 max 760 min
Histogram: 1 0 0 0 0 0 0 0 0 0
Neighs:    948 ave 948 max 948 min
Histogram: 1 0 0 0 0 0 0 0 0 0

Total # of neighbors = 948
Ave neighs/atom = 79
Neighbor list builds = 0
Dangerous builds = 0

# Obtain new stress tensor

variable tmp equal pe
variable e1 equal ${tmp}
variable e1 equal -40.0673893928252
variable tmp equal press
variable p1 equal ${tmp}
variable p1 equal -0.171004364228172
variable tmp equal pxx
variable pxx1 equal ${tmp}
variable pxx1 equal -0.349911802859712
variable tmp equal pyy
variable pyy1 equal ${tmp}
variable pyy1 equal -0.163101628939665
variable tmp equal pzz
variable pzz1 equal ${tmp}
variable pzz1 equal 3.39114861050855e-07
variable tmp equal pxy
variable pxy1 equal ${tmp}
variable pxy1 equal 0.1037538538416
variable tmp equal pxz
variable pxz1 equal ${tmp}
variable pxz1 equal -2.8354200460579e-07
variable tmp equal pyz
variable pyz1 equal ${tmp}
variable pyz1 equal 4.91091454625477e-07

# Compute elastic constant from pressure tensor

variable C1pos equal ${d1}
variable C1pos equal 34.9911855802897
variable C2pos equal ${d2}
variable C2pos equal 16.3101595144386
variable C3pos equal ${d3}
variable C3pos equal -3.37908717254878e-05
variable C4pos equal ${d4}
variable C4pos equal -4.88721411520584e-05
variable C5pos equal ${d5}
variable C5pos equal 2.45171864982906e-05
variable C6pos equal ${d6}
variable C6pos equal -5.39275628456334

# Combine positive and negative

variable C1${dir} equal 0.5*(${C1neg}+${C1pos})
variable C11 equal 0.5*(${C1neg}+${C1pos})
variable C11 equal 0.5*(35.1270473916471+${C1pos})
variable C11 equal 0.5*(35.1270473916471+34.9911855802897)
variable C2${dir} equal 0.5*(${C2neg}+${C2pos})
variable C21 equal 0.5*(${C2neg}+${C2pos})
variable C21 equal 0.5*(16.3074737531344+${C2pos})
variable C21 equal 0.5*(16.3074737531344+16.3101595144386)
variable C3${dir} equal 0.5*(${C3neg}+${C3pos})
variable C31 equal 0.5*(${C3neg}+${C3pos})
variable C31 equal 0.5*(0.112560891050644+${C3pos})
variable C31 equal 0.5*(0.112560891050644+-3.37908717254878e-05)
variable C4${dir} equal 0.5*(${C4neg}+${C4pos})
variable C41 equal 0.5*(${C4neg}+${C4pos})
variable C41 equal 0.5*(0.255750674845639+${C4pos})
variable C41 equal 0.5*(0.255750674845639+-4.88721411520584e-05)
variable C5${dir} equal 0.5*(${C5neg}+${C5pos})
variable C51 equal 0.5*(${C5neg}+${C5pos})
variable C51 equal 0.5*(-0.147654746288569+${C5pos})
variable C51 equal 0.5*(-0.147654746288569+2.45171864982906e-05)
variable C6${dir} equal 0.5*(${C6neg}+${C6pos})
variable C61 equal 0.5*(${C6neg}+${C6pos})
variable C61 equal 0.5*(-5.43272570493668+${C6pos})
variable C61 equal 0.5*(-5.43272570493668+-5.39275628456334)

# Delete dir to make sure it is not reused

variable dir delete

# uyy Perturbation

variable dir equal 2
include /users/knc6/displace.mod
# NOTE: This script should not need to be
# modified. See in.elastic for more info.
#
# Find which reference length to use

if "${dir} == 1" then    "variable len0 equal ${lx0}"
if "${dir} == 2" then    "variable len0 equal ${ly0}"
variable len0 equal ${ly0}
variable len0 equal 4.89774117741257
if "${dir} == 3" then    "variable len0 equal ${lz0}"
if "${dir} == 4" then    "variable len0 equal ${lz0}"
if "${dir} == 5" then    "variable len0 equal ${lz0}"
if "${dir} == 6" then    "variable len0 equal ${ly0}"

# Reset box and simulation parameters

clear
box tilt large
read_restart restart.equil
  triclinic box = (0.0584478 0.0506196 -0.0277727) to (5.71387 4.94836 25.0974) with tilt (2.82771 0 0)
  1 by 1 by 1 MPI processor grid
  12 atoms
include potential.mod
pair_style eam/alloy
pair_coeff * * /users/knc6/Software/LAMMPS/lammps-master/potentials/Al_zhou.eam.alloy  Al
Reading potential file /users/knc6/Software/LAMMPS/lammps-master/potentials/Al_zhou.eam.alloy with DATE: 2007-10-12
neighbor 1.0 nsq
neigh_modify once no every 1 delay 0 check yes
min_style  cg
min_modify           dmax ${dmax} line quadratic
min_modify           dmax 0.01 line quadratic
thermo          1
thermo_style custom step temp press cpu pxx pyy pzz             pxy pxz pyz ke pe etotal vol lx ly lz atoms
thermo_modify norm no
# Negative deformation

variable delta equal -${up}*${len0}
variable delta equal -1e-06*${len0}
variable delta equal -1e-06*4.89774117741257
if "${dir} == 1" then    "change_box all x delta 0 ${delta} remap units box"
if "${dir} == 2" then    "change_box all y delta 0 ${delta} remap units box"
change_box all y delta 0 ${delta} remap units box
change_box all y delta 0 -4.89774117741257e-06 remap units box
  triclinic box = (0.0584478 0.0506196 -0.0277727) to (5.71387 4.94836 25.0974) with tilt (2.82771 0 0)
if "${dir} == 3" then    "change_box all z delta 0 ${delta} remap units box"
if "${dir} == 4" then    "change_box all yz delta ${delta} remap units box"
if "${dir} == 5" then    "change_box all xz delta ${delta} remap units box"
if "${dir} == 6" then    "change_box all xy delta ${delta} remap units box"

# Relax atoms positions

minimize ${etol} ${ftol} ${maxiter} ${maxeval}
minimize 0 ${ftol} ${maxiter} ${maxeval}
minimize 0 1e-10 ${maxiter} ${maxeval}
minimize 0 1e-10 1000 ${maxeval}
minimize 0 1e-10 1000 10000
Neighbor list info ...
  1 neighbor list requests
  update every 1 steps, delay 0 steps, check yes
  max neighbors/atom: 2000, page size: 100000
  master list distance cutoff = 11.1025
  ghost atom cutoff = 11.1025
Memory usage per processor = 3.87288 Mbytes
Step Temp Press CPU Pxx Pyy Pzz Pxy Pxz Pyz KinEng PotEng TotEng Volume Lx Ly Lz Atoms 
      99            0   0.28997946            0   0.25573697    0.4505798   0.16362162  0.049826429 -5.3101391e-09 -0.014838043            0   -40.067389   -40.067389    695.93663    5.6554244    4.8977363    25.125175       12 
     100            0   0.17022117 0.00020813942   0.15924949    0.3524922 -0.0010781696  0.049826448 -2.9090778e-08 -0.011881991            0   -40.067389   -40.067389    695.93663    5.6554244    4.8977363    25.125175       12 
     101            0   0.17064199 0.00032305717   0.16131865   0.35110675 -0.00049944223  0.049826454 -1.5507955e-08 -0.0055001802            0   -40.067389   -40.067389    695.93663    5.6554244    4.8977363    25.125175       12 
     102            0   0.17162108 0.00043416023   0.16290837    0.3511078 0.00084707519  0.049826458 -7.9838607e-09 -0.002565379            0   -40.067389   -40.067389    695.93663    5.6554244    4.8977363    25.125175       12 
     103            0   0.17162108 0.00073695183   0.16290837    0.3511078 0.00084707519  0.049826458 -7.9838607e-09 -0.002565379            0   -40.067389   -40.067389    695.93663    5.6554244    4.8977363    25.125175       12 
Loop time of 0.000754118 on 1 procs for 4 steps with 12 atoms

0.0% CPU use with 1 MPI tasks x no OpenMP threads

Minimization stats:
  Stopping criterion = linesearch alpha is zero
  Energy initial, next-to-last, final = 
        -40.0673893928     -40.0673893928     -40.0673893928
  Force two-norm initial, final = 1.06826e-05 1.75664e-07
  Force max component initial, final = 3.76142e-06 5.90992e-08
  Final line search alpha, max atom move = 0.5 2.95496e-08
  Iterations, force evaluations = 4 6

MPI task timing breakdown:
Section |  min time  |  avg time  |  max time  |%varavg| %total
---------------------------------------------------------------
Pair    | 0.00062656 | 0.00062656 | 0.00062656 |   0.0 | 83.09
Neigh   | 0          | 0          | 0          |   0.0 |  0.00
Comm    | 4.8161e-05 | 4.8161e-05 | 4.8161e-05 |   0.0 |  6.39
Output  | 4.4107e-05 | 4.4107e-05 | 4.4107e-05 |   0.0 |  5.85
Modify  | 0          | 0          | 0          |   0.0 |  0.00
Other   |            | 3.529e-05  |            |       |  4.68

Nlocal:    12 ave 12 max 12 min
Histogram: 1 0 0 0 0 0 0 0 0 0
Nghost:    760 ave 760 max 760 min
Histogram: 1 0 0 0 0 0 0 0 0 0
Neighs:    948 ave 948 max 948 min
Histogram: 1 0 0 0 0 0 0 0 0 0

Total # of neighbors = 948
Ave neighs/atom = 79
Neighbor list builds = 0
Dangerous builds = 0

# Obtain new stress tensor

variable tmp equal pxx
variable pxx1 equal ${tmp}
variable pxx1 equal 0.162908372903348
variable tmp equal pyy
variable pyy1 equal ${tmp}
variable pyy1 equal 0.351107799182207
variable tmp equal pzz
variable pzz1 equal ${tmp}
variable pzz1 equal 0.000847075193286829
variable tmp equal pxy
variable pxy1 equal ${tmp}
variable pxy1 equal 0.0498264578328925
variable tmp equal pxz
variable pxz1 equal ${tmp}
variable pxz1 equal -7.98386068624752e-09
variable tmp equal pyz
variable pyz1 equal ${tmp}
variable pyz1 equal -0.00256537896795275

# Compute elastic constant from pressure tensor

variable C1neg equal ${d1}
variable C1neg equal 16.2908319960163
variable C2neg equal ${d2}
variable C2neg equal 35.1107832977486
variable C3neg equal ${d3}
variable C3neg equal 0.0847073987143033
variable C4neg equal ${d4}
variable C4neg equal -0.256538133799586
variable C5neg equal ${d5}
variable C5neg equal 3.03862789366366e-06
variable C6neg equal ${d6}
variable C6neg equal 1.66836925899472e-05

# Reset box and simulation parameters

clear
box tilt large
read_restart restart.equil
  triclinic box = (0.0584478 0.0506196 -0.0277727) to (5.71387 4.94836 25.0974) with tilt (2.82771 0 0)
  1 by 1 by 1 MPI processor grid
  12 atoms
include potential.mod
pair_style eam/alloy
pair_coeff * * /users/knc6/Software/LAMMPS/lammps-master/potentials/Al_zhou.eam.alloy  Al
Reading potential file /users/knc6/Software/LAMMPS/lammps-master/potentials/Al_zhou.eam.alloy with DATE: 2007-10-12
neighbor 1.0 nsq
neigh_modify once no every 1 delay 0 check yes
min_style  cg
min_modify           dmax ${dmax} line quadratic
min_modify           dmax 0.01 line quadratic
thermo          1
thermo_style custom step temp press cpu pxx pyy pzz             pxy pxz pyz ke pe etotal vol lx ly lz atoms
thermo_modify norm no

# Positive deformation

variable delta equal ${up}*${len0}
variable delta equal 1e-06*${len0}
variable delta equal 1e-06*4.89774117741257
if "${dir} == 1" then    "change_box all x delta 0 ${delta} remap units box"
if "${dir} == 2" then    "change_box all y delta 0 ${delta} remap units box"
change_box all y delta 0 ${delta} remap units box
change_box all y delta 0 4.89774117741257e-06 remap units box
  triclinic box = (0.0584478 0.0506196 -0.0277727) to (5.71387 4.94837 25.0974) with tilt (2.82771 0 0)
if "${dir} == 3" then    "change_box all z delta 0 ${delta} remap units box"
if "${dir} == 4" then    "change_box all yz delta ${delta} remap units box"
if "${dir} == 5" then    "change_box all xz delta ${delta} remap units box"
if "${dir} == 6" then    "change_box all xy delta ${delta} remap units box"

# Relax atoms positions

minimize ${etol} ${ftol} ${maxiter} ${maxeval}
minimize 0 ${ftol} ${maxiter} ${maxeval}
minimize 0 1e-10 ${maxiter} ${maxeval}
minimize 0 1e-10 1000 ${maxeval}
minimize 0 1e-10 1000 10000
Neighbor list info ...
  1 neighbor list requests
  update every 1 steps, delay 0 steps, check yes
  max neighbors/atom: 2000, page size: 100000
  master list distance cutoff = 11.1025
  ghost atom cutoff = 11.1025
Memory usage per processor = 3.87288 Mbytes
Step Temp Press CPU Pxx Pyy Pzz Pxy Pxz Pyz KinEng PotEng TotEng Volume Lx Ly Lz Atoms 
      99            0  -0.28997887            0  -0.25573617  -0.45057904   -0.1636214  0.049826155 -6.3180601e-08  0.014837906            0   -40.067389   -40.067389    695.93803    5.6554244    4.8977461    25.125175       12 
     100            0  -0.17022159 0.00021004677  -0.15924945  -0.35249219 0.0010768652   0.04982614 -2.5769459e-08  0.011882038            0   -40.067389   -40.067389    695.93803    5.6554244    4.8977461    25.125175       12 
     101            0  -0.17064241 0.00033998489  -0.16131861  -0.35110674 0.00049812696  0.049826141 -9.8764794e-09 0.0055002277            0   -40.067389   -40.067389    695.93803    5.6554244    4.8977461    25.125175       12 
     102            0  -0.17064241 0.00066494942  -0.16131861  -0.35110674 0.00049812696  0.049826141 -9.8764794e-09 0.0055002277            0   -40.067389   -40.067389    695.93803    5.6554244    4.8977461    25.125175       12 
Loop time of 0.000677109 on 1 procs for 3 steps with 12 atoms

0.0% CPU use with 1 MPI tasks x no OpenMP threads

Minimization stats:
  Stopping criterion = linesearch alpha is zero
  Energy initial, next-to-last, final = 
        -40.0673893928     -40.0673893928     -40.0673893928
  Force two-norm initial, final = 1.06826e-05 3.59097e-07
  Force max component initial, final = 3.76143e-06 1.26464e-07
  Final line search alpha, max atom move = 0.5 6.32319e-08
  Iterations, force evaluations = 3 5

MPI task timing breakdown:
Section |  min time  |  avg time  |  max time  |%varavg| %total
---------------------------------------------------------------
Pair    | 0.00056124 | 0.00056124 | 0.00056124 |   0.0 | 82.89
Neigh   | 0          | 0          | 0          |   0.0 |  0.00
Comm    | 3.9101e-05 | 3.9101e-05 | 3.9101e-05 |   0.0 |  5.77
Output  | 4.5061e-05 | 4.5061e-05 | 4.5061e-05 |   0.0 |  6.65
Modify  | 0          | 0          | 0          |   0.0 |  0.00
Other   |            | 3.171e-05  |            |       |  4.68

Nlocal:    12 ave 12 max 12 min
Histogram: 1 0 0 0 0 0 0 0 0 0
Nghost:    760 ave 760 max 760 min
Histogram: 1 0 0 0 0 0 0 0 0 0
Neighs:    948 ave 948 max 948 min
Histogram: 1 0 0 0 0 0 0 0 0 0

Total # of neighbors = 948
Ave neighs/atom = 79
Neighbor list builds = 0
Dangerous builds = 0

# Obtain new stress tensor

variable tmp equal pe
variable e1 equal ${tmp}
variable e1 equal -40.0673893928443
variable tmp equal press
variable p1 equal ${tmp}
variable p1 equal -0.170642408200791
variable tmp equal pxx
variable pxx1 equal ${tmp}
variable pxx1 equal -0.161318613704409
variable tmp equal pyy
variable pyy1 equal ${tmp}
variable pyy1 equal -0.351106737858518
variable tmp equal pzz
variable pzz1 equal ${tmp}
variable pzz1 equal 0.000498126960553728
variable tmp equal pxy
variable pxy1 equal ${tmp}
variable pxy1 equal 0.0498261414429735
variable tmp equal pxz
variable pxz1 equal ${tmp}
variable pxz1 equal -9.87647937160957e-09
variable tmp equal pyz
variable pyz1 equal ${tmp}
variable pyz1 equal 0.00550022771055428

# Compute elastic constant from pressure tensor

variable C1pos equal ${d1}
variable C1pos equal 16.1318666647594
variable C2pos equal ${d2}
variable C2pos equal 35.1106704063239
variable C3pos equal ${d3}
variable C3pos equal -0.0498125754409932
variable C4pos equal ${d4}
variable C4pos equal -0.550022534051118
variable C5pos equal ${d5}
variable C5pos equal -2.84936602512745e-06
variable C6pos equal ${d6}
variable C6pos equal 1.49552993100599e-05

# Combine positive and negative

variable C1${dir} equal 0.5*(${C1neg}+${C1pos})
variable C12 equal 0.5*(${C1neg}+${C1pos})
variable C12 equal 0.5*(16.2908319960163+${C1pos})
variable C12 equal 0.5*(16.2908319960163+16.1318666647594)
variable C2${dir} equal 0.5*(${C2neg}+${C2pos})
variable C22 equal 0.5*(${C2neg}+${C2pos})
variable C22 equal 0.5*(35.1107832977486+${C2pos})
variable C22 equal 0.5*(35.1107832977486+35.1106704063239)
variable C3${dir} equal 0.5*(${C3neg}+${C3pos})
variable C32 equal 0.5*(${C3neg}+${C3pos})
variable C32 equal 0.5*(0.0847073987143033+${C3pos})
variable C32 equal 0.5*(0.0847073987143033+-0.0498125754409932)
variable C4${dir} equal 0.5*(${C4neg}+${C4pos})
variable C42 equal 0.5*(${C4neg}+${C4pos})
variable C42 equal 0.5*(-0.256538133799586+${C4pos})
variable C42 equal 0.5*(-0.256538133799586+-0.550022534051118)
variable C5${dir} equal 0.5*(${C5neg}+${C5pos})
variable C52 equal 0.5*(${C5neg}+${C5pos})
variable C52 equal 0.5*(3.03862789366366e-06+${C5pos})
variable C52 equal 0.5*(3.03862789366366e-06+-2.84936602512745e-06)
variable C6${dir} equal 0.5*(${C6neg}+${C6pos})
variable C62 equal 0.5*(${C6neg}+${C6pos})
variable C62 equal 0.5*(1.66836925899472e-05+${C6pos})
variable C62 equal 0.5*(1.66836925899472e-05+1.49552993100599e-05)

# Delete dir to make sure it is not reused

variable dir delete

# uzz Perturbation

variable dir equal 3
include /users/knc6/displace.mod
# NOTE: This script should not need to be
# modified. See in.elastic for more info.
#
# Find which reference length to use

if "${dir} == 1" then    "variable len0 equal ${lx0}"
if "${dir} == 2" then    "variable len0 equal ${ly0}"
if "${dir} == 3" then    "variable len0 equal ${lz0}"
variable len0 equal ${lz0}
variable len0 equal 25.1251754362462
if "${dir} == 4" then    "variable len0 equal ${lz0}"
if "${dir} == 5" then    "variable len0 equal ${lz0}"
if "${dir} == 6" then    "variable len0 equal ${ly0}"

# Reset box and simulation parameters

clear
box tilt large
read_restart restart.equil
  triclinic box = (0.0584478 0.0506196 -0.0277727) to (5.71387 4.94836 25.0974) with tilt (2.82771 0 0)
  1 by 1 by 1 MPI processor grid
  12 atoms
include potential.mod
pair_style eam/alloy
pair_coeff * * /users/knc6/Software/LAMMPS/lammps-master/potentials/Al_zhou.eam.alloy  Al
Reading potential file /users/knc6/Software/LAMMPS/lammps-master/potentials/Al_zhou.eam.alloy with DATE: 2007-10-12
neighbor 1.0 nsq
neigh_modify once no every 1 delay 0 check yes
min_style  cg
min_modify           dmax ${dmax} line quadratic
min_modify           dmax 0.01 line quadratic
thermo          1
thermo_style custom step temp press cpu pxx pyy pzz             pxy pxz pyz ke pe etotal vol lx ly lz atoms
thermo_modify norm no
# Negative deformation

variable delta equal -${up}*${len0}
variable delta equal -1e-06*${len0}
variable delta equal -1e-06*25.1251754362462
if "${dir} == 1" then    "change_box all x delta 0 ${delta} remap units box"
if "${dir} == 2" then    "change_box all y delta 0 ${delta} remap units box"
if "${dir} == 3" then    "change_box all z delta 0 ${delta} remap units box"
change_box all z delta 0 ${delta} remap units box
change_box all z delta 0 -2.51251754362462e-05 remap units box
  triclinic box = (0.0584478 0.0506196 -0.0277727) to (5.71387 4.94836 25.0974) with tilt (2.82771 0 0)
if "${dir} == 4" then    "change_box all yz delta ${delta} remap units box"
if "${dir} == 5" then    "change_box all xz delta ${delta} remap units box"
if "${dir} == 6" then    "change_box all xy delta ${delta} remap units box"

# Relax atoms positions

minimize ${etol} ${ftol} ${maxiter} ${maxeval}
minimize 0 ${ftol} ${maxiter} ${maxeval}
minimize 0 1e-10 ${maxiter} ${maxeval}
minimize 0 1e-10 1000 ${maxeval}
minimize 0 1e-10 1000 10000
Neighbor list info ...
  1 neighbor list requests
  update every 1 steps, delay 0 steps, check yes
  max neighbors/atom: 2000, page size: 100000
  master list distance cutoff = 11.1025
  ghost atom cutoff = 11.1025
Memory usage per processor = 3.87288 Mbytes
Step Temp Press CPU Pxx Pyy Pzz Pxy Pxz Pyz KinEng PotEng TotEng Volume Lx Ly Lz Atoms 
      99            0   0.20141409            0   0.16362186   0.16362178   0.27699862  0.049826313  5.91431e-09 2.1183435e-09            0   -40.067389   -40.067389    695.93663    5.6554244    4.8977412     25.12515       12 
     100            0 -1.3419805e-06 0.00019001961 -1.0429142e-06 -1.1293057e-06 -1.8537215e-06  0.049826342 -3.5417986e-08 1.7013072e-09            0   -40.067389   -40.067389    695.93663    5.6554244    4.8977412     25.12515       12 
     101            0 -1.3420044e-06 0.00038099289 -1.0429671e-06 -1.1293058e-06 -1.8537403e-06  0.049826342 -3.2595918e-08 1.5645946e-09            0   -40.067389   -40.067389    695.93663    5.6554244    4.8977412     25.12515       12 
     102            0 6.2049752e-09 0.00065588951 5.2188574e-08 -3.3954331e-08 3.8068229e-10  0.049826344 -2.613776e-08 1.2523725e-09            0   -40.067389   -40.067389    695.93663    5.6554244    4.8977412     25.12515       12 
Loop time of 0.000666857 on 1 procs for 3 steps with 12 atoms

0.0% CPU use with 1 MPI tasks x no OpenMP threads

Minimization stats:
  Stopping criterion = force tolerance
  Energy initial, next-to-last, final = 
        -40.0673893929     -40.0673893929     -40.0673893929
  Force two-norm initial, final = 1.80109e-05 2.09066e-12
  Force max component initial, final = 6.3678e-06 8.26658e-13
  Final line search alpha, max atom move = 1 8.26658e-13
  Iterations, force evaluations = 3 6

MPI task timing breakdown:
Section |  min time  |  avg time  |  max time  |%varavg| %total
---------------------------------------------------------------
Pair    | 0.00057197 | 0.00057197 | 0.00057197 |   0.0 | 85.77
Neigh   | 0          | 0          | 0          |   0.0 |  0.00
Comm    | 4.1008e-05 | 4.1008e-05 | 4.1008e-05 |   0.0 |  6.15
Output  | 2.8133e-05 | 2.8133e-05 | 2.8133e-05 |   0.0 |  4.22
Modify  | 0          | 0          | 0          |   0.0 |  0.00
Other   |            | 2.575e-05  |            |       |  3.86

Nlocal:    12 ave 12 max 12 min
Histogram: 1 0 0 0 0 0 0 0 0 0
Nghost:    760 ave 760 max 760 min
Histogram: 1 0 0 0 0 0 0 0 0 0
Neighs:    948 ave 948 max 948 min
Histogram: 1 0 0 0 0 0 0 0 0 0

Total # of neighbors = 948
Ave neighs/atom = 79
Neighbor list builds = 0
Dangerous builds = 0

# Obtain new stress tensor

variable tmp equal pxx
variable pxx1 equal ${tmp}
variable pxx1 equal 5.21885740528973e-08
variable tmp equal pyy
variable pyy1 equal ${tmp}
variable pyy1 equal -3.39543307873754e-08
variable tmp equal pzz
variable pzz1 equal ${tmp}
variable pzz1 equal 3.80682287086547e-10
variable tmp equal pxy
variable pxy1 equal ${tmp}
variable pxy1 equal 0.0498263441345371
variable tmp equal pxz
variable pxz1 equal ${tmp}
variable pxz1 equal -2.6137760034889e-08
variable tmp equal pyz
variable pyz1 equal ${tmp}
variable pyz1 equal 1.25237248551031e-09

# Compute elastic constant from pressure tensor

variable C1neg equal ${d1}
variable C1neg equal -7.54610576276501e-08
variable C2neg equal ${d2}
variable C2neg equal -1.590514495437e-08
variable C3neg equal ${d3}
variable C3neg equal -8.25461508890253e-08
variable C4neg equal ${d4}
variable C4neg equal -1.11767061938286e-07
variable C5neg equal ${d5}
variable C5neg equal 1.22323795879951e-06
variable C6neg equal ${d6}
variable C6neg equal 5.31385704952148e-06

# Reset box and simulation parameters

clear
box tilt large
read_restart restart.equil
  triclinic box = (0.0584478 0.0506196 -0.0277727) to (5.71387 4.94836 25.0974) with tilt (2.82771 0 0)
  1 by 1 by 1 MPI processor grid
  12 atoms
include potential.mod
pair_style eam/alloy
pair_coeff * * /users/knc6/Software/LAMMPS/lammps-master/potentials/Al_zhou.eam.alloy  Al
Reading potential file /users/knc6/Software/LAMMPS/lammps-master/potentials/Al_zhou.eam.alloy with DATE: 2007-10-12
neighbor 1.0 nsq
neigh_modify once no every 1 delay 0 check yes
min_style  cg
min_modify           dmax ${dmax} line quadratic
min_modify           dmax 0.01 line quadratic
thermo          1
thermo_style custom step temp press cpu pxx pyy pzz             pxy pxz pyz ke pe etotal vol lx ly lz atoms
thermo_modify norm no

# Positive deformation

variable delta equal ${up}*${len0}
variable delta equal 1e-06*${len0}
variable delta equal 1e-06*25.1251754362462
if "${dir} == 1" then    "change_box all x delta 0 ${delta} remap units box"
if "${dir} == 2" then    "change_box all y delta 0 ${delta} remap units box"
if "${dir} == 3" then    "change_box all z delta 0 ${delta} remap units box"
change_box all z delta 0 ${delta} remap units box
change_box all z delta 0 2.51251754362462e-05 remap units box
  triclinic box = (0.0584478 0.0506196 -0.0277727) to (5.71387 4.94836 25.0974) with tilt (2.82771 0 0)
if "${dir} == 4" then    "change_box all yz delta ${delta} remap units box"
if "${dir} == 5" then    "change_box all xz delta ${delta} remap units box"
if "${dir} == 6" then    "change_box all xy delta ${delta} remap units box"

# Relax atoms positions

minimize ${etol} ${ftol} ${maxiter} ${maxeval}
minimize 0 ${ftol} ${maxiter} ${maxeval}
minimize 0 1e-10 ${maxiter} ${maxeval}
minimize 0 1e-10 1000 ${maxeval}
minimize 0 1e-10 1000 10000
Neighbor list info ...
  1 neighbor list requests
  update every 1 steps, delay 0 steps, check yes
  max neighbors/atom: 2000, page size: 100000
  master list distance cutoff = 11.1025
  ghost atom cutoff = 11.1025
Memory usage per processor = 3.87288 Mbytes
Step Temp Press CPU Pxx Pyy Pzz Pxy Pxz Pyz KinEng PotEng TotEng Volume Lx Ly Lz Atoms 
      99            0  -0.20141294            0  -0.16362115  -0.16362124  -0.27699643  0.049826271 -7.4418311e-08 2.1152416e-09            0   -40.067389   -40.067389    695.93803    5.6554244    4.8977412    25.125201       12 
     100            0 -1.3419767e-06 0.00018000603 -1.0429202e-06 -1.1293036e-06 -1.8537064e-06  0.049826246 -1.9519071e-08 1.6982746e-09            0   -40.067389   -40.067389    695.93803    5.6554244    4.8977412    25.125201       12 
     101            0 -3.6548617e-08 0.00044512749 1.7487019e-08 -6.8734351e-08 -5.8398517e-08  0.049826247 -1.5777952e-08 1.3712944e-09            0   -40.067389   -40.067389    695.93803    5.6554244    4.8977412    25.125201       12 
Loop time of 0.000456095 on 1 procs for 2 steps with 12 atoms

0.0% CPU use with 1 MPI tasks x no OpenMP threads

Minimization stats:
  Stopping criterion = force tolerance
  Energy initial, next-to-last, final = 
        -40.0673893929     -40.0673893929     -40.0673893929
  Force two-norm initial, final = 1.80107e-05 2.61953e-11
  Force max component initial, final = 6.36775e-06 7.75105e-12
  Final line search alpha, max atom move = 1 7.75105e-12
  Iterations, force evaluations = 2 4

MPI task timing breakdown:
Section |  min time  |  avg time  |  max time  |%varavg| %total
---------------------------------------------------------------
Pair    | 0.00039077 | 0.00039077 | 0.00039077 |   0.0 | 85.68
Neigh   | 0          | 0          | 0          |   0.0 |  0.00
Comm    | 2.6226e-05 | 2.6226e-05 | 2.6226e-05 |   0.0 |  5.75
Output  | 1.3828e-05 | 1.3828e-05 | 1.3828e-05 |   0.0 |  3.03
Modify  | 0          | 0          | 0          |   0.0 |  0.00
Other   |            | 2.527e-05  |            |       |  5.54

Nlocal:    12 ave 12 max 12 min
Histogram: 1 0 0 0 0 0 0 0 0 0
Nghost:    760 ave 760 max 760 min
Histogram: 1 0 0 0 0 0 0 0 0 0
Neighs:    948 ave 948 max 948 min
Histogram: 1 0 0 0 0 0 0 0 0 0

Total # of neighbors = 948
Ave neighs/atom = 79
Neighbor list builds = 0
Dangerous builds = 0

# Obtain new stress tensor

variable tmp equal pe
variable e1 equal ${tmp}
variable e1 equal -40.0673893929203
variable tmp equal press
variable p1 equal ${tmp}
variable p1 equal -3.65486165337035e-08
variable tmp equal pxx
variable pxx1 equal ${tmp}
variable pxx1 equal 1.74870185851129e-08
variable tmp equal pyy
variable pyy1 equal ${tmp}
variable pyy1 equal -6.87343510194804e-08
variable tmp equal pzz
variable pzz1 equal ${tmp}
variable pzz1 equal -5.83985171667432e-08
variable tmp equal pxy
variable pxy1 equal ${tmp}
variable pxy1 equal 0.0498262472720604
variable tmp equal pxz
variable pxz1 equal ${tmp}
variable pxz1 equal -1.57779521495085e-08
variable tmp equal pyz
variable pyz1 equal ${tmp}
variable pyz1 equal 1.37129437279781e-09

# Compute elastic constant from pressure tensor

variable C1pos equal ${d1}
variable C1pos equal 3.54561660440609e-06
variable C2pos equal ${d2}
variable C2pos equal 3.49390716816487e-06
variable C3pos equal ${d3}
variable C3pos equal 5.960466096272e-06
variable C4pos equal ${d4}
variable C4pos equal 9.9874873209536e-08
variable C5pos equal ${d5}
variable C5pos equal -2.25921874733756e-06
variable C6pos equal ${d6}
variable C6pos equal 4.37239062039962e-06

# Combine positive and negative

variable C1${dir} equal 0.5*(${C1neg}+${C1pos})
variable C13 equal 0.5*(${C1neg}+${C1pos})
variable C13 equal 0.5*(-7.54610576276501e-08+${C1pos})
variable C13 equal 0.5*(-7.54610576276501e-08+3.54561660440609e-06)
variable C2${dir} equal 0.5*(${C2neg}+${C2pos})
variable C23 equal 0.5*(${C2neg}+${C2pos})
variable C23 equal 0.5*(-1.590514495437e-08+${C2pos})
variable C23 equal 0.5*(-1.590514495437e-08+3.49390716816487e-06)
variable C3${dir} equal 0.5*(${C3neg}+${C3pos})
variable C33 equal 0.5*(${C3neg}+${C3pos})
variable C33 equal 0.5*(-8.25461508890253e-08+${C3pos})
variable C33 equal 0.5*(-8.25461508890253e-08+5.960466096272e-06)
variable C4${dir} equal 0.5*(${C4neg}+${C4pos})
variable C43 equal 0.5*(${C4neg}+${C4pos})
variable C43 equal 0.5*(-1.11767061938286e-07+${C4pos})
variable C43 equal 0.5*(-1.11767061938286e-07+9.9874873209536e-08)
variable C5${dir} equal 0.5*(${C5neg}+${C5pos})
variable C53 equal 0.5*(${C5neg}+${C5pos})
variable C53 equal 0.5*(1.22323795879951e-06+${C5pos})
variable C53 equal 0.5*(1.22323795879951e-06+-2.25921874733756e-06)
variable C6${dir} equal 0.5*(${C6neg}+${C6pos})
variable C63 equal 0.5*(${C6neg}+${C6pos})
variable C63 equal 0.5*(5.31385704952148e-06+${C6pos})
variable C63 equal 0.5*(5.31385704952148e-06+4.37239062039962e-06)

# Delete dir to make sure it is not reused

variable dir delete

# uyz Perturbation

variable dir equal 4
include /users/knc6/displace.mod
# NOTE: This script should not need to be
# modified. See in.elastic for more info.
#
# Find which reference length to use

if "${dir} == 1" then    "variable len0 equal ${lx0}"
if "${dir} == 2" then    "variable len0 equal ${ly0}"
if "${dir} == 3" then    "variable len0 equal ${lz0}"
if "${dir} == 4" then    "variable len0 equal ${lz0}"
variable len0 equal ${lz0}
variable len0 equal 25.1251754362462
if "${dir} == 5" then    "variable len0 equal ${lz0}"
if "${dir} == 6" then    "variable len0 equal ${ly0}"

# Reset box and simulation parameters

clear
box tilt large
read_restart restart.equil
  triclinic box = (0.0584478 0.0506196 -0.0277727) to (5.71387 4.94836 25.0974) with tilt (2.82771 0 0)
  1 by 1 by 1 MPI processor grid
  12 atoms
include potential.mod
pair_style eam/alloy
pair_coeff * * /users/knc6/Software/LAMMPS/lammps-master/potentials/Al_zhou.eam.alloy  Al
Reading potential file /users/knc6/Software/LAMMPS/lammps-master/potentials/Al_zhou.eam.alloy with DATE: 2007-10-12
neighbor 1.0 nsq
neigh_modify once no every 1 delay 0 check yes
min_style  cg
min_modify           dmax ${dmax} line quadratic
min_modify           dmax 0.01 line quadratic
thermo          1
thermo_style custom step temp press cpu pxx pyy pzz             pxy pxz pyz ke pe etotal vol lx ly lz atoms
thermo_modify norm no
# Negative deformation

variable delta equal -${up}*${len0}
variable delta equal -1e-06*${len0}
variable delta equal -1e-06*25.1251754362462
if "${dir} == 1" then    "change_box all x delta 0 ${delta} remap units box"
if "${dir} == 2" then    "change_box all y delta 0 ${delta} remap units box"
if "${dir} == 3" then    "change_box all z delta 0 ${delta} remap units box"
if "${dir} == 4" then    "change_box all yz delta ${delta} remap units box"
change_box all yz delta ${delta} remap units box
change_box all yz delta -2.51251754362462e-05 remap units box
  triclinic box = (0.0584478 0.0506196 -0.0277727) to (5.71387 4.94836 25.0974) with tilt (2.82771 0 -2.51252e-05)
if "${dir} == 5" then    "change_box all xz delta ${delta} remap units box"
if "${dir} == 6" then    "change_box all xy delta ${delta} remap units box"

# Relax atoms positions

minimize ${etol} ${ftol} ${maxiter} ${maxeval}
minimize 0 ${ftol} ${maxiter} ${maxeval}
minimize 0 1e-10 ${maxiter} ${maxeval}
minimize 0 1e-10 1000 ${maxeval}
minimize 0 1e-10 1000 10000
Neighbor list info ...
  1 neighbor list requests
  update every 1 steps, delay 0 steps, check yes
  max neighbors/atom: 2000, page size: 100000
  master list distance cutoff = 11.1025
  ghost atom cutoff = 11.1025
Memory usage per processor = 3.87288 Mbytes
Step Temp Press CPU Pxx Pyy Pzz Pxy Pxz Pyz KinEng PotEng TotEng Volume Lx Ly Lz Atoms 
      99            0 1.3743921e-08            0  0.014838013 -0.014838075 1.0318164e-07  0.049826316 -5.180288e-08  0.054821223            0   -40.067389   -40.067389    695.93733    5.6554244    4.8977412    25.125175       12 
     100            0 -1.9436695e-07 9.1075897e-05 0.0069205559 -0.0069208837 -2.5531812e-07  0.049826311 -1.4793497e-08   0.02556952            0   -40.067389   -40.067389    695.93733    5.6554244    4.8977412    25.125175       12 
     101            0 3.0491004e-07 0.00019598007 0.0032282041 -0.003227705 4.1558558e-07  0.049826307 -2.529937e-09  0.011926032            0   -40.067389   -40.067389    695.93733    5.6554244    4.8977412    25.125175       12 
     102            0 -5.1007049e-07 0.00028896332 0.0015051803 -0.0015060018 -7.0865223e-07  0.049826305 8.4976768e-10 0.0055624889            0   -40.067389   -40.067389    695.93733    5.6554244    4.8977412    25.125175       12 
     103            0 8.7910944e-07 0.00038003922  0.000702972 -0.00070153576 1.2010847e-06  0.049826303 1.3514031e-09 0.0025944317            0   -40.067389   -40.067389    695.93733    5.6554244    4.8977412    25.125175       12 
     104            0 8.7910944e-07 0.00062894821  0.000702972 -0.00070153576 1.2010847e-06  0.049826303 1.3514031e-09 0.0025944317            0   -40.067389   -40.067389    695.93733    5.6554244    4.8977412    25.125175       12 
Loop time of 0.000638962 on 1 procs for 5 steps with 12 atoms

0.0% CPU use with 1 MPI tasks x no OpenMP threads

Minimization stats:
  Stopping criterion = linesearch alpha is zero
  Energy initial, next-to-last, final = 
        -40.0673893929     -40.0673893929     -40.0673893929
  Force two-norm initial, final = 3.56456e-06 1.69237e-07
  Force max component initial, final = 1.26026e-06 6.2379e-08
  Final line search alpha, max atom move = 0.5 3.11895e-08
  Iterations, force evaluations = 5 6

MPI task timing breakdown:
Section |  min time  |  avg time  |  max time  |%varavg| %total
---------------------------------------------------------------
Pair    | 0.00052571 | 0.00052571 | 0.00052571 |   0.0 | 82.28
Neigh   | 0          | 0          | 0          |   0.0 |  0.00
Comm    | 3.3855e-05 | 3.3855e-05 | 3.3855e-05 |   0.0 |  5.30
[...]
variable C1pos equal -1.02499747794406e-05
variable C2pos equal ${d2}
variable C2pos equal -1.03913569867479e-05
variable C3pos equal ${d3}
variable C3pos equal -1.74722249387974e-05
variable C4pos equal ${d4}
variable C4pos equal 2.64880604821878e-07
variable C5pos equal ${d5}
variable C5pos equal -8.46953781888978e-05
variable C6pos equal ${d6}
variable C6pos equal -2.292376014984e-05

# Combine positive and negative

variable C1${dir} equal 0.5*(${C1neg}+${C1pos})
variable C15 equal 0.5*(${C1neg}+${C1pos})
variable C15 equal 0.5*(1.91336955347883e-05+${C1pos})
variable C15 equal 0.5*(1.91336955347883e-05+-1.02499747794406e-05)
variable C2${dir} equal 0.5*(${C2neg}+${C2pos})
variable C25 equal 0.5*(${C2neg}+${C2pos})
variable C25 equal 0.5*(1.9246817026853e-05+${C2pos})
variable C25 equal 0.5*(1.9246817026853e-05+-1.03913569867479e-05)
variable C3${dir} equal 0.5*(${C3neg}+${C3pos})
variable C35 equal 0.5*(${C3neg}+${C3pos})
variable C35 equal 0.5*(3.24836033473919e-05+${C3pos})
variable C35 equal 0.5*(3.24836033473919e-05+-1.74722249387974e-05)
variable C4${dir} equal 0.5*(${C4neg}+${C4pos})
variable C45 equal 0.5*(${C4neg}+${C4pos})
variable C45 equal 0.5*(-2.12860629429541e-07+${C4pos})
variable C45 equal 0.5*(-2.12860629429541e-07+2.64880604821878e-07)
variable C5${dir} equal 0.5*(${C5neg}+${C5pos})
variable C55 equal 0.5*(${C5neg}+${C5pos})
variable C55 equal 0.5*(-7.59745926659347e-05+${C5pos})
variable C55 equal 0.5*(-7.59745926659347e-05+-8.46953781888978e-05)
variable C6${dir} equal 0.5*(${C6neg}+${C6pos})
variable C65 equal 0.5*(${C6neg}+${C6pos})
variable C65 equal 0.5*(-2.05637465000574e-05+${C6pos})
variable C65 equal 0.5*(-2.05637465000574e-05+-2.292376014984e-05)

# Delete dir to make sure it is not reused

variable dir delete

# uxy Perturbation

variable dir equal 6
include /users/knc6/displace.mod
# NOTE: This script should not need to be
# modified. See in.elastic for more info.
#
# Find which reference length to use

if "${dir} == 1" then    "variable len0 equal ${lx0}"
if "${dir} == 2" then    "variable len0 equal ${ly0}"
if "${dir} == 3" then    "variable len0 equal ${lz0}"
if "${dir} == 4" then    "variable len0 equal ${lz0}"
if "${dir} == 5" then    "variable len0 equal ${lz0}"
if "${dir} == 6" then    "variable len0 equal ${ly0}"
variable len0 equal ${ly0}
variable len0 equal 4.89774117741257

# Reset box and simulation parameters

clear
box tilt large
read_restart restart.equil
  triclinic box = (0.0584478 0.0506196 -0.0277727) to (5.71387 4.94836 25.0974) with tilt (2.82771 0 0)
  1 by 1 by 1 MPI processor grid
  12 atoms
include potential.mod
pair_style eam/alloy
pair_coeff * * /users/knc6/Software/LAMMPS/lammps-master/potentials/Al_zhou.eam.alloy  Al
Reading potential file /users/knc6/Software/LAMMPS/lammps-master/potentials/Al_zhou.eam.alloy with DATE: 2007-10-12
neighbor 1.0 nsq
neigh_modify once no every 1 delay 0 check yes
min_style  cg
min_modify           dmax ${dmax} line quadratic
min_modify           dmax 0.01 line quadratic
thermo          1
thermo_style custom step temp press cpu pxx pyy pzz             pxy pxz pyz ke pe etotal vol lx ly lz atoms
thermo_modify norm no
# Negative deformation

variable delta equal -${up}*${len0}
variable delta equal -1e-06*${len0}
variable delta equal -1e-06*4.89774117741257
if "${dir} == 1" then    "change_box all x delta 0 ${delta} remap units box"
if "${dir} == 2" then    "change_box all y delta 0 ${delta} remap units box"
if "${dir} == 3" then    "change_box all z delta 0 ${delta} remap units box"
if "${dir} == 4" then    "change_box all yz delta ${delta} remap units box"
if "${dir} == 5" then    "change_box all xz delta ${delta} remap units box"
if "${dir} == 6" then    "change_box all xy delta ${delta} remap units box"
change_box all xy delta ${delta} remap units box
change_box all xy delta -4.89774117741257e-06 remap units box
  triclinic box = (0.0584478 0.0506196 -0.0277727) to (5.71387 4.94836 25.0974) with tilt (2.8277 0 0)

# Relax atoms positions

minimize ${etol} ${ftol} ${maxiter} ${maxeval}
minimize 0 ${ftol} ${maxiter} ${maxeval}
minimize 0 1e-10 ${maxiter} ${maxeval}
minimize 0 1e-10 1000 ${maxeval}
minimize 0 1e-10 1000 10000
Neighbor list info ...
  1 neighbor list requests
  update every 1 steps, delay 0 steps, check yes
  max neighbors/atom: 2000, page size: 100000
  master list distance cutoff = 11.1025
  ghost atom cutoff = 11.1025
Memory usage per processor = 3.87288 Mbytes
Step Temp Press CPU Pxx Pyy Pzz Pxy Pxz Pyz KinEng PotEng TotEng Volume Lx Ly Lz Atoms 
      99            0 -2.1230264e-08            0 -2.6390964e-07 2.3731369e-07 -3.709484e-08   0.14724772   0.01483794 4.8802491e-08            0   -40.067389   -40.067389    695.93733    5.6554244    4.8977412    25.125175       12 
     100            0 3.7405774e-08 7.390976e-05 -2.202876e-07 2.921836e-07 4.0321324e-08   0.14510482 0.0069206457 2.6326219e-08            0   -40.067389   -40.067389    695.93733    5.6554244    4.8977412    25.125175       12 
     101            0 -4.8094863e-08 0.00015187263 -2.9317145e-07 2.2634537e-07 -7.7458508e-08   0.14410533 0.0032278966 1.4869961e-08            0   -40.067389   -40.067389    695.93733    5.6554244    4.8977412    25.125175       12 
     102            0 -4.8094863e-08 0.00035786629 -2.9317145e-07 2.2634537e-07 -7.7458508e-08   0.14410533 0.0032278966 1.4869961e-08            0   -40.067389   -40.067389    695.93733    5.6554244    4.8977412    25.125175       12 
Loop time of 0.000365973 on 1 procs for 3 steps with 12 atoms

0.0% CPU use with 1 MPI tasks x no OpenMP threads

Minimization stats:
  Stopping criterion = linesearch alpha is zero
  Energy initial, next-to-last, final = 
        -40.0673893929     -40.0673893929     -40.0673893929
  Force two-norm initial, final = 9.64785e-07 2.09883e-07
  Force max component initial, final = 3.41109e-07 7.43266e-08
  Final line search alpha, max atom move = 0.5 3.71633e-08
  Iterations, force evaluations = 3 4

MPI task timing breakdown:
Section |  min time  |  avg time  |  max time  |%varavg| %total
---------------------------------------------------------------
Pair    | 0.00030589 | 0.00030589 | 0.00030589 |   0.0 | 83.58
Neigh   | 0          | 0          | 0          |   0.0 |  0.00
Comm    | 2.2173e-05 | 2.2173e-05 | 2.2173e-05 |   0.0 |  6.06
Output  | 1.9073e-05 | 1.9073e-05 | 1.9073e-05 |   0.0 |  5.21
Modify  | 0          | 0          | 0          |   0.0 |  0.00
Other   |            | 1.884e-05  |            |       |  5.15

Nlocal:    12 ave 12 max 12 min
Histogram: 1 0 0 0 0 0 0 0 0 0
Nghost:    760 ave 760 max 760 min
Histogram: 1 0 0 0 0 0 0 0 0 0
Neighs:    948 ave 948 max 948 min
Histogram: 1 0 0 0 0 0 0 0 0 0

Total # of neighbors = 948
Ave neighs/atom = 79
Neighbor list builds = 0
Dangerous builds = 0

# Obtain new stress tensor

variable tmp equal pxx
variable pxx1 equal ${tmp}
variable pxx1 equal -2.93171454660786e-07
variable tmp equal pyy
variable pyy1 equal ${tmp}
variable pyy1 equal 2.26345373292556e-07
variable tmp equal pzz
variable pzz1 equal ${tmp}
variable pzz1 equal -7.74585076864076e-08
variable tmp equal pxy
variable pxy1 equal ${tmp}
variable pxy1 equal 0.144105332943317
variable tmp equal pxz
variable pxz1 equal ${tmp}
variable pxz1 equal 0.00322789659700713
variable tmp equal pyz
variable pyz1 equal ${tmp}
variable pyz1 equal 1.4869961397456e-08

# Compute elastic constant from pressure tensor

variable C1neg equal ${d1}
variable C1neg equal -3.4611463928996e-05
variable C2neg equal ${d2}
variable C2neg equal 2.60140652630388e-05
variable C3neg equal ${d3}
variable C3neg equal -7.86646514823844e-06
variable C4neg equal ${d4}
variable C4neg equal 1.24999182925628e-06
variable C5neg equal ${d5}
variable C5neg equal 0.322793496714675
variable C6neg equal ${d6}
variable C6neg equal 9.42790419473504

# Reset box and simulation parameters

clear
box tilt large
read_restart restart.equil
  triclinic box = (0.0584478 0.0506196 -0.0277727) to (5.71387 4.94836 25.0974) with tilt (2.82771 0 0)
  1 by 1 by 1 MPI processor grid
  12 atoms
include potential.mod
pair_style eam/alloy
pair_coeff * * /users/knc6/Software/LAMMPS/lammps-master/potentials/Al_zhou.eam.alloy  Al
Reading potential file /users/knc6/Software/LAMMPS/lammps-master/potentials/Al_zhou.eam.alloy with DATE: 2007-10-12
neighbor 1.0 nsq
neigh_modify once no every 1 delay 0 check yes
min_style  cg
min_modify           dmax ${dmax} line quadratic
min_modify           dmax 0.01 line quadratic
thermo          1
thermo_style custom step temp press cpu pxx pyy pzz             pxy pxz pyz ke pe etotal vol lx ly lz atoms
thermo_modify norm no

# Positive deformation

variable delta equal ${up}*${len0}
variable delta equal 1e-06*${len0}
variable delta equal 1e-06*4.89774117741257
if "${dir} == 1" then    "change_box all x delta 0 ${delta} remap units box"
if "${dir} == 2" then    "change_box all y delta 0 ${delta} remap units box"
if "${dir} == 3" then    "change_box all z delta 0 ${delta} remap units box"
if "${dir} == 4" then    "change_box all yz delta ${delta} remap units box"
if "${dir} == 5" then    "change_box all xz delta ${delta} remap units box"
if "${dir} == 6" then    "change_box all xy delta ${delta} remap units box"
change_box all xy delta ${delta} remap units box
change_box all xy delta 4.89774117741257e-06 remap units box
WARNING: Triclinic box skew is large (../domain.cpp:196)
  triclinic box = (0.0584478 0.0506196 -0.0277727) to (5.71387 4.94836 25.0974) with tilt (2.82771 0 0)

# Relax atoms positions

minimize ${etol} ${ftol} ${maxiter} ${maxeval}
minimize 0 ${ftol} ${maxiter} ${maxeval}
minimize 0 1e-10 ${maxiter} ${maxeval}
minimize 0 1e-10 1000 ${maxeval}
minimize 0 1e-10 1000 10000
Neighbor list info ...
  1 neighbor list requests
  update every 1 steps, delay 0 steps, check yes
  max neighbors/atom: 2000, page size: 100000
  master list distance cutoff = 11.1025
  ghost atom cutoff = 11.1025
Memory usage per processor = 3.87288 Mbytes
Step Temp Press CPU Pxx Pyy Pzz Pxy Pxz Pyz KinEng PotEng TotEng Volume Lx Ly Lz Atoms 
      99            0 1.6382414e-08            0 6.5428403e-08 -3.6357531e-08 2.007637e-08 -0.047595133 -0.014838009 9.2281117e-10            0   -40.067389   -40.067389    695.93733    5.6554244    4.8977412    25.125175       12 
     100            0 -2.7564194e-08 7.2002411e-05 3.3405209e-08 -7.1068305e-08 -4.5029487e-08 -0.045452221 -0.0069206777 -1.0792779e-09            0   -40.067389   -40.067389    695.93733    5.6554244    4.8977412    25.125175       12 
     101            0 -2.7564194e-08 0.00027489662 3.3405209e-08 -7.1068305e-08 -4.5029487e-08 -0.045452221 -0.0069206777 -1.0792779e-09            0   -40.067389   -40.067389    695.93733    5.6554244    4.8977412    25.125175       12 
Loop time of 0.000283003 on 1 procs for 2 steps with 12 atoms

0.0% CPU use with 1 MPI tasks x no OpenMP threads

Minimization stats:
  Stopping criterion = linesearch alpha is zero
  Energy initial, next-to-last, final = 
        -40.0673893929     -40.0673893929     -40.0673893929
  Force two-norm initial, final = 9.64789e-07 4.49993e-07
  Force max component initial, final = 3.41111e-07 1.59121e-07
  Final line search alpha, max atom move = 0.5 7.95605e-08
  Iterations, force evaluations = 2 3

MPI task timing breakdown:
Section |  min time  |  avg time  |  max time  |%varavg| %total
---------------------------------------------------------------
Pair    | 0.0002389  | 0.0002389  | 0.0002389  |   0.0 | 84.41
Neigh   | 0          | 0          | 0          |   0.0 |  0.00
Comm    | 1.5974e-05 | 1.5974e-05 | 1.5974e-05 |   0.0 |  5.64
Output  | 1.0014e-05 | 1.0014e-05 | 1.0014e-05 |   0.0 |  3.54
Modify  | 0          | 0          | 0          |   0.0 |  0.00
Other   |            | 1.812e-05  |            |       |  6.40

Nlocal:    12 ave 12 max 12 min
Histogram: 1 0 0 0 0 0 0 0 0 0
Nghost:    760 ave 760 max 760 min
Histogram: 1 0 0 0 0 0 0 0 0 0
Neighs:    948 ave 948 max 948 min
Histogram: 1 0 0 0 0 0 0 0 0 0

Total # of neighbors = 948
Ave neighs/atom = 79
Neighbor list builds = 0
Dangerous builds = 0

# Obtain new stress tensor

variable tmp equal pe
variable e1 equal ${tmp}
variable e1 equal -40.0673893929217
variable tmp equal press
variable p1 equal ${tmp}
variable p1 equal -2.75641944170316e-08
variable tmp equal pxx
variable pxx1 equal ${tmp}
variable pxx1 equal 3.34052086933791e-08
variable tmp equal pyy
variable pyy1 equal ${tmp}
variable pyy1 equal -7.10683046145298e-08
variable tmp equal pzz
variable pzz1 equal ${tmp}
variable pzz1 equal -4.50294873299442e-08
variable tmp equal pxy
variable pxy1 equal ${tmp}
variable pxy1 equal -0.0454522213651191
variable tmp equal pxz
variable pxz1 equal ${tmp}
variable pxz1 equal -0.00692067766033328
variable tmp equal pyz
variable pyz1 equal ${tmp}
variable pyz1 equal -1.07927788040688e-09

# Compute elastic constant from pressure tensor

variable C1pos equal ${d1}
variable C1pos equal 1.95379759357947e-06
variable C2pos equal ${d2}
variable C2pos equal 3.72730252766981e-06
variable C3pos equal ${d3}
variable C3pos equal 4.6235631125921e-06
variable C4pos equal ${d4}
variable C4pos equal 3.44932098530005e-07
variable C5pos equal ${d5}
variable C5pos equal 0.692063929019366
variable C6pos equal ${d6}
variable C6pos equal 9.52785123610857

# Combine positive and negative

variable C1${dir} equal 0.5*(${C1neg}+${C1pos})
variable C16 equal 0.5*(${C1neg}+${C1pos})
variable C16 equal 0.5*(-3.4611463928996e-05+${C1pos})
variable C16 equal 0.5*(-3.4611463928996e-05+1.95379759357947e-06)
variable C2${dir} equal 0.5*(${C2neg}+${C2pos})
variable C26 equal 0.5*(${C2neg}+${C2pos})
variable C26 equal 0.5*(2.60140652630388e-05+${C2pos})
variable C26 equal 0.5*(2.60140652630388e-05+3.72730252766981e-06)
variable C3${dir} equal 0.5*(${C3neg}+${C3pos})
variable C36 equal 0.5*(${C3neg}+${C3pos})
variable C36 equal 0.5*(-7.86646514823844e-06+${C3pos})
variable C36 equal 0.5*(-7.86646514823844e-06+4.6235631125921e-06)
variable C4${dir} equal 0.5*(${C4neg}+${C4pos})
variable C46 equal 0.5*(${C4neg}+${C4pos})
variable C46 equal 0.5*(1.24999182925628e-06+${C4pos})
variable C46 equal 0.5*(1.24999182925628e-06+3.44932098530005e-07)
variable C5${dir} equal 0.5*(${C5neg}+${C5pos})
variable C56 equal 0.5*(${C5neg}+${C5pos})
variable C56 equal 0.5*(0.322793496714675+${C5pos})
variable C56 equal 0.5*(0.322793496714675+0.692063929019366)
variable C6${dir} equal 0.5*(${C6neg}+${C6pos})
variable C66 equal 0.5*(${C6neg}+${C6pos})
variable C66 equal 0.5*(9.42790419473504+${C6pos})
variable C66 equal 0.5*(9.42790419473504+9.52785123610857)

# Delete dir to make sure it is not reused

variable dir delete

# Output final values

variable C11all equal ${C11}
variable C11all equal 35.0591164859684
variable C22all equal ${C22}
variable C22all equal 35.1107268520363
variable C33all equal ${C33}
variable C33all equal 2.93895997269149e-06

variable C12all equal 0.5*(${C12}+${C21})
variable C12all equal 0.5*(16.2113493303879+${C21})
variable C12all equal 0.5*(16.2113493303879+16.3088166337865)
variable C13all equal 0.5*(${C13}+${C31})
variable C13all equal 0.5*(1.73507777338922e-06+${C31})
variable C13all equal 0.5*(1.73507777338922e-06+0.0562635500894593)
variable C23all equal 0.5*(${C23}+${C32})
variable C23all equal 0.5*(1.73900101160525e-06+${C32})
variable C23all equal 0.5*(1.73900101160525e-06+0.0174474116366551)

variable C44all equal ${C44}
variable C44all equal 0.407844806898748
variable C55all equal ${C55}
variable C55all equal -8.03349854274163e-05
variable C66all equal ${C66}
variable C66all equal 9.4778777154218

variable C14all equal 0.5*(${C14}+${C41})
variable C14all equal 0.5*(0.110444041674918+${C41})
variable C14all equal 0.5*(0.110444041674918+0.127850901352243)
variable C15all equal 0.5*(${C15}+${C51})
variable C15all equal 0.5*(4.44186037767385e-06+${C51})
variable C15all equal 0.5*(4.44186037767385e-06+-0.0738151145510354)
variable C16all equal 0.5*(${C16}+${C61})
variable C16all equal 0.5*(-1.63288331677083e-05+${C61})
variable C16all equal 0.5*(-1.63288331677083e-05+-5.41274099475001)

variable C24all equal 0.5*(${C24}+${C42})
variable C24all equal 0.5*(-0.11033115129312+${C42})
variable C24all equal 0.5*(-0.11033115129312+-0.403280333925352)
variable C25all equal 0.5*(${C25}+${C52})
variable C25all equal 0.5*(4.42773002005255e-06+${C52})
variable C25all equal 0.5*(4.42773002005255e-06+9.46309342681049e-08)
variable C26all equal 0.5*(${C26}+${C62})
variable C26all equal 0.5*(1.48706838953543e-05+${C62})
variable C26all equal 0.5*(1.48706838953543e-05+1.58194959500036e-05)

variable C34all equal 0.5*(${C34}+${C43})
variable C34all equal 0.5*(9.5487645854557e-05+${C43})
variable C34all equal 0.5*(9.5487645854557e-05+-5.946094364375e-09)
variable C35all equal 0.5*(${C35}+${C53})
variable C35all equal 0.5*(7.50568920429725e-06+${C53})
variable C35all equal 0.5*(7.50568920429725e-06+-5.17990394269025e-07)
variable C36all equal 0.5*(${C36}+${C63})
variable C36all equal 0.5*(-1.62145101782317e-06+${C63})
variable C36all equal 0.5*(-1.62145101782317e-06+4.84312383496055e-06)

variable C45all equal 0.5*(${C45}+${C54})
variable C45all equal 0.5*(2.60099876961685e-08+${C54})
variable C45all equal 0.5*(2.60099876961685e-08+4.57932132829855e-07)
variable C46all equal 0.5*(${C46}+${C64})
variable C46all equal 0.5*(7.97461963893143e-07+${C64})
variable C46all equal 0.5*(7.97461963893143e-07+3.37752429843683e-07)
variable C56all equal 0.5*(${C56}+${C65})
variable C56all equal 0.5*(0.507428712867021+${C65})
variable C56all equal 0.5*(0.507428712867021+-2.17437533249487e-05)

# For Stillinger-Weber silicon, the analytical results
# are known to be (E. R. Cowley, 1988):
#               C11 = 151.4 GPa
#               C12 = 76.4 GPa
#               C44 = 56.4 GPa

print "Elastic Constant C11all = ${C11all} ${cunits}"
Elastic Constant C11all = 35.0591164859684 GPa
print "Elastic Constant C22all = ${C22all} ${cunits}"
Elastic Constant C22all = 35.1107268520363 GPa
print "Elastic Constant C33all = ${C33all} ${cunits}"
Elastic Constant C33all = 2.93895997269149e-06 GPa

print "Elastic Constant C12all = ${C12all} ${cunits}"
Elastic Constant C12all = 16.2600829820872 GPa
print "Elastic Constant C13all = ${C13all} ${cunits}"
Elastic Constant C13all = 0.0281326425836163 GPa
print "Elastic Constant C23all = ${C23all} ${cunits}"
Elastic Constant C23all = 0.00872457531883335 GPa

print "Elastic Constant C44all = ${C44all} ${cunits}"
Elastic Constant C44all = 0.407844806898748 GPa
print "Elastic Constant C55all = ${C55all} ${cunits}"
Elastic Constant C55all = -8.03349854274163e-05 GPa
print "Elastic Constant C66all = ${C66all} ${cunits}"
Elastic Constant C66all = 9.4778777154218 GPa

print "Elastic Constant C14all = ${C14all} ${cunits}"
Elastic Constant C14all = 0.119147471513581 GPa
print "Elastic Constant C15all = ${C15all} ${cunits}"
Elastic Constant C15all = -0.0369053363453289 GPa
print "Elastic Constant C16all = ${C16all} ${cunits}"
Elastic Constant C16all = -2.70637866179159 GPa

print "Elastic Constant C24all = ${C24all} ${cunits}"
Elastic Constant C24all = -0.256805742609236 GPa
print "Elastic Constant C25all = ${C25all} ${cunits}"
Elastic Constant C25all = 2.26118047716033e-06 GPa
print "Elastic Constant C26all = ${C26all} ${cunits}"
Elastic Constant C26all = 1.5345089922679e-05 GPa

print "Elastic Constant C34all = ${C34all} ${cunits}"
Elastic Constant C34all = 4.77408498800963e-05 GPa
print "Elastic Constant C35all = ${C35all} ${cunits}"
Elastic Constant C35all = 3.49384940501411e-06 GPa
print "Elastic Constant C36all = ${C36all} ${cunits}"
Elastic Constant C36all = 1.61083640856869e-06 GPa

print "Elastic Constant C45all = ${C45all} ${cunits}"
Elastic Constant C45all = 2.41971060263012e-07 GPa
print "Elastic Constant C46all = ${C46all} ${cunits}"
Elastic Constant C46all = 5.67607196868413e-07 GPa
print "Elastic Constant C56all = ${C56all} ${cunits}"
Elastic Constant C56all = 0.253703484556848 GPa

Total wall time: 0:00:00
