    2    2    1    1
  0.2072484E+02  0.3884592E-09  0.3884592E-09  0.3884592E-09  0.5000000E-15
   1.0000000000000000E-004
  CAR 
 unknown system                          
      8      4     16

  0.3742002E-15  0.3742002E-15  0.3742002E-15  0.3703704E-01
    1       -6.112402   1.000000
    2        5.558282   0.996638
    3        5.558282   0.996638
    4        5.558282   0.996638
    5        8.137977   0.000000
    6        8.137977   0.000000
    7        8.137977   0.000000
    8        8.646018   0.000000
    9       13.263481   0.000000
   10       13.263481   0.000000
   11       13.391154   0.000000
   12       16.681413   0.000000
   13       16.681413   0.000000
   14       16.681413   0.000000
   15       20.781013   0.000000
   16       28.250091   0.000000

  0.3333333E+00  0.3608225E-15  0.3608225E-15  0.2962963E+00
    1       -4.778350   1.000000
    2        0.362687   1.000000
    3        4.595798   1.000000
    4        4.595798   1.000000
    5        7.256109   0.000000
    6        9.075914   0.000000
    7        9.075914   0.000000
    8       13.297806   0.000000
    9       13.487856   0.000000
   10       13.487856   0.000000
   11       14.467556   0.000000
   12       18.889566   0.000000
   13       19.933836   0.000000
   14       19.933836   0.000000
   15       21.966094   0.000000
   16       22.951160   0.000000

  0.3333333E+00  0.3333333E+00  0.3742002E-15  0.2222222E+00
    1       -4.264340   1.000000
    2        0.628974   1.000000
    3        3.235290   1.000000
    4        3.235290   1.000000
    5        6.356289   0.001681
    6        7.610788   0.000000
    7       12.684189   0.000000
    8       12.684189   0.000000
    9       15.053541   0.000000
   10       15.359769   0.000000
   11       18.388233   0.000000
   12       18.826266   0.000000
   13       18.826266   0.000000
   14       20.514970   0.000000
   15       21.526694   0.000000
   16       21.679353   0.000000

 -0.3333333E+00  0.3333333E+00  0.3885781E-15  0.4444444E+00
    1       -2.955079   1.000000
    2       -1.071206   1.000000
    3        1.323990   1.000000
    4        3.528240   1.000000
    5        7.177141   0.000000
    6       11.310980   0.000000
    7       11.949412   0.000000
    8       12.476723   0.000000
    9       12.806517   0.000000
   10       13.177612   0.000000
   11       19.732551   0.000000
   12       20.266925   0.000000
   13       20.857694   0.000000
   14       21.040036   0.000000
   15       21.864784   0.000000
   16       22.750960   0.000000
