       N       E                     dE             d eps       ncg     rms          rms(c)
DAV:   1     0.611585789018E+01    0.61159E+01   -0.41318E+03   128   0.497E+02
DAV:   2    -0.777571091145E+01   -0.13892E+02   -0.13402E+02   192   0.438E+01
DAV:   3    -0.787318939076E+01   -0.97478E-01   -0.97478E-01   128   0.481E+00
DAV:   4    -0.787352072811E+01   -0.33134E-03   -0.33134E-03   256   0.329E-01
DAV:   5    -0.787352073283E+01   -0.47174E-08   -0.50127E-08   144   0.140E-03    0.393E+00
DAV:   6    -0.779257723772E+01    0.80943E-01   -0.10793E-01   208   0.968E-01    0.242E+00
DAV:   7    -0.777058403332E+01    0.21993E-01   -0.25656E-01   176   0.147E+00    0.210E-01
DAV:   8    -0.775268239666E+01    0.17902E-01   -0.59644E-03   128   0.278E-01    0.113E-01
DAV:   9    -0.775326099514E+01   -0.57860E-03   -0.74547E-04   160   0.102E-01    0.560E-02
DAV:  10    -0.775351045390E+01   -0.24946E-03   -0.24870E-05   208   0.231E-02    0.410E-03
DAV:  11    -0.775324896759E+01    0.26149E-03   -0.12747E-06   192   0.397E-03    0.129E-03
DAV:  12    -0.775324253635E+01    0.64312E-05   -0.49547E-08   192   0.124E-03    0.320E-04
DAV:  13    -0.775322783415E+01    0.14702E-04   -0.62248E-09   176   0.310E-04    0.176E-04
DAV:  14    -0.775323160060E+01   -0.37665E-05   -0.30101E-10   128   0.868E-05    0.294E-05
DAV:  15    -0.775323171288E+01   -0.11229E-06   -0.27426E-12   128   0.165E-05    0.777E-06
DAV:  16    -0.775323173507E+01   -0.22187E-07    0.36070E-12    64   0.577E-06
   1 F= -.77532317E+01 E0= -.77529023E+01  d E =-.775323E+01
