 vasp.5.4.1 24Jun15 (build Feb  9 2019 14:16:27) complex                         
 executed on           IFC91_ompi date 2020.09.26  22:23:20
 running on   16 total cores
 distrk:  each k-point on   16 cores,    1 groups
 distr:  one band on NCORES_PER_BAND=   1 cores,   16 groups


--------------------------------------------------------------------------------------------------------


 INCAR:
 POTCAR:    PAW_PBE Si 05Jan2001                  

 ----------------------------------------------------------------------------- 
|                                                                             |
|           W    W    AA    RRRRR   N    N  II  N    N   GGGG   !!!           |
|           W    W   A  A   R    R  NN   N  II  NN   N  G    G  !!!           |
|           W    W  A    A  R    R  N N  N  II  N N  N  G       !!!           |
|           W WW W  AAAAAA  RRRRR   N  N N  II  N  N N  G  GGG   !            |
|           WW  WW  A    A  R   R   N   NN  II  N   NN  G    G                |
|           W    W  A    A  R    R  N    N  II  N    N   GGGG   !!!           |
|                                                                             |
|      For optimal performance we recommend to set                            |
|        NCORE= 4 - approx SQRT( number of cores)                             |
|      NCORE specifies how many cores store one orbital (NPAR=cpu/NCORE).     |
|      This setting can  greatly improve the performance of VASP for DFT.     |
|      The default, NPAR=number of cores might be grossly inefficient         |
|      on modern multi-core architectures or massively parallel machines.     |
|      Do your own testing !!!!                                               |
|      Unfortunately you need to use the default for GW and RPA calculations. |
|      (for HF NCORE is supported but not extensively tested yet)             |
|                                                                             |
 ----------------------------------------------------------------------------- 


 ----------------------------------------------------------------------------- 
|                                                                             |
|  ADVICE TO THIS USER RUNNING 'VASP/VAMP'   (HEAR YOUR MASTER'S VOICE ...):  |
|                                                                             |
|      You have switched on vdW-DFT.                                          |
|      This routine was written and supplied by Jiri Klimes.                  |
|      We recommed that you carefully read and cite the following             |
|      publication                                                            |
|      J. Klimes, D.R. Bowler, A. Michelides                                  |
|        J. Phys.: Cond Matt. 22 022201 (2010)                                |
|      J. Klimes, D.R. Bowler, A. Michelides                                  |
|        Phys. Rev. B. 83, 195131 (2011)                                      |
|      and references therein.                                                |
|                                                                             |
 ----------------------------------------------------------------------------- 

 POTCAR:    PAW_PBE Si 05Jan2001                  
   VRHFIN =Si: s2p2                                                             
   LEXCH  = PE                                                                  
   EATOM  =   103.0669 eV,    7.5752 Ry                                         
                                                                                
   TITEL  = PAW_PBE Si 05Jan2001                                                
   LULTRA =        F    use ultrasoft PP ?                                      
   IUNSCR =        1    unscreen: 0-lin 1-nonlin 2-no                           
   RPACOR =    1.500    partial core radius                                     
   POMASS =   28.085; ZVAL   =    4.000    mass and valenz                      
   RCORE  =    1.900    outmost cutoff radius                                   
   RWIGS  =    2.480; RWIGS  =    1.312    wigner-seitz radius (au A)           
   ENMAX  =  245.345; ENMIN  =  184.009 eV                                      
   ICORE  =        2    local potential                                         
   LCOR   =        T    correct aug charges                                     
   LPAW   =        T    paw PP                                                  
   EAUG   =  322.069                                                            
   DEXC   =    0.000                                                            
   RMAX   =    1.950    core radius for proj-oper                               
   RAUG   =    1.300    factor for augmentation sphere                          
   RDEP   =    1.993    radius for radial grids                                 
   RDEPT  =    1.837    core radius for aug-charge                              
                                                                                
   Atomic configuration                                                         
    6 entries                                                                   
     n  l   j            E        occ.                                          
     1  0  0.50     -1785.8828   2.0000                                         
     2  0  0.50      -139.4969   2.0000                                         
     2  1  1.50       -95.5546   6.0000                                         
     3  0  0.50       -10.8127   2.0000                                         
     3  1  0.50        -4.0811   2.0000                                         
     3  2  1.50        -4.0817   0.0000                                         
   Description                                                                  
     l       E           TYP  RCUT    TYP  RCUT                                 
     0    -10.8127223     23  1.900                                             
     0     -7.6451159     23  1.900                                             
     1     -4.0811372     23  1.900                                             
     1      2.4879257     23  1.900                                             
     2     -4.0817478      7  1.900                                             
  local pseudopotential read in
  partial core-charges read in
  partial kinetic energy density read in
  atomic valenz-charges read in
  non local Contribution for L=           0  read in
    real space projection operators read in
  non local Contribution for L=           0  read in
    real space projection operators read in
  non local Contribution for L=           1  read in
    real space projection operators read in
  non local Contribution for L=           1  read in
    real space projection operators read in
    PAW grid and wavefunctions read in

   number of l-projection  operators is LMAX  =           4
   number of lm-projection operators is LMMAX =           8


 ----------------------------------------------------------------------------- 
|                                                                             |
|  ADVICE TO THIS USER RUNNING 'VASP/VAMP'   (HEAR YOUR MASTER'S VOICE ...):  |
|                                                                             |
|      You enforced a specific xc-type in the INCAR file,                     |
|      a different type was found on the POTCAR file                          |
|          I HOPE YOU KNOW, WHAT YOU ARE  DOING                               |
|                                                                             |
 ----------------------------------------------------------------------------- 

  PAW_PBE Si 05Jan2001                  :
 energy of atom  1       EATOM= -103.0669
 kinetic energy error for atom=    0.0003 (will be added to EATOM!!)


 POSCAR: bulk@JVASP-1002                         
  positions in direct lattice
  No initial velocities read in
 exchange correlation table for  LEXCH =       42
   RHO(1)=    0.500       N(1)  =     2000
   RHO(2)=  100.500       N(2)  =     4000



--------------------------------------------------------------------------------------------------------


 ion  position               nearest neighbor table
   1  0.750  0.750  0.750-   2 2.38   2 2.38   2 2.38   2 2.38
   2  0.500  0.500  0.500-   1 2.38   1 2.38   1 2.38   1 2.38

  LATTYP: Found a face centered cubic cell.
 ALAT       =     5.4936422752
  
  Lattice vectors:
  
 A1 = (   0.0000000000,   2.7468211376,   2.7468211376)
 A2 = (   2.7468211376,   0.0000000000,   2.7468211376)
 A3 = (   2.7468211376,   2.7468211376,   0.0000000000)


Analysis of symmetry for initial positions (statically):
=====================================================================
 Subroutine PRICEL returns:
 Original cell was already a primitive cell.
 

 Routine SETGRP: Setting up the symmetry group for a 
 face centered cubic supercell.


 Subroutine GETGRP returns: Found 48 space group operations
 (whereof 24 operations were pure point group operations)
 out of a pool of 48 trial point group operations.


The static configuration has the point symmetry T_d .
 The point group associated with its full space group is O_h .


Analysis of symmetry for dynamics (positions and initial velocities):
=====================================================================
 Subroutine PRICEL returns:
 Original cell was already a primitive cell.
 

 Routine SETGRP: Setting up the symmetry group for a 
 face centered cubic supercell.


 Subroutine GETGRP returns: Found 48 space group operations
 (whereof 24 operations were pure point group operations)
 out of a pool of 48 trial point group operations.


The dynamic configuration has the point symmetry T_d .
 The point group associated with its full space group is O_h .


 KPOINTS: Automatic kpoint scheme                 

Automatic generation of k-mesh.
Space group operators:
 irot       det(A)        alpha          n_x          n_y          n_z        tau_x        tau_y        tau_z
    1     1.000000     0.000000     1.000000     0.000000     0.000000     0.000000     0.000000     0.000000
    2     1.000000   120.000000    -0.577350    -0.577350    -0.577350     0.000000     0.000000     0.000000
    3     1.000000   120.000000     0.577350     0.577350     0.577350     0.000000     0.000000     0.000000
    4    -1.000000    90.000000     0.000000     0.000000    -1.000000     0.000000     0.000000     0.000000
    5    -1.000000   180.000000     0.000000     0.707107     0.707107     0.000000     0.000000     0.000000
    6    -1.000000    90.000000     0.000000     1.000000     0.000000     0.000000     0.000000     0.000000
    7     1.000000   180.000000     0.000000     0.000000     1.000000     0.000000     0.000000     0.000000
    8     1.000000   120.000000    -0.577350     0.577350     0.577350     0.000000     0.000000     0.000000
    9     1.000000   120.000000    -0.577350     0.577350    -0.577350     0.000000     0.000000     0.000000
   10    -1.000000    90.000000     0.000000     0.000000     1.000000     0.000000     0.000000     0.000000
   11    -1.000000    90.000000    -1.000000     0.000000     0.000000     0.000000     0.000000     0.000000
   12    -1.000000   180.000000     0.707107     0.000000     0.707107     0.000000     0.000000     0.000000
   13     1.000000   120.000000     0.577350    -0.577350     0.577350     0.000000     0.000000     0.000000
   14     1.000000   120.000000    -0.577350    -0.577350     0.577350     0.000000     0.000000     0.000000
   15     1.000000   180.000000     1.000000     0.000000     0.000000     0.000000     0.000000     0.000000
   16    -1.000000    90.000000     0.000000    -1.000000     0.000000     0.000000     0.000000     0.000000
   17    -1.000000   180.000000     0.707107     0.707107     0.000000     0.000000     0.000000     0.000000
   18    -1.000000    90.000000     1.000000     0.000000     0.000000     0.000000     0.000000     0.000000
   19     1.000000   120.000000     0.577350    -0.577350    -0.577350     0.000000     0.000000     0.000000
   20     1.000000   180.000000     0.000000     1.000000     0.000000     0.000000     0.000000     0.000000
   21     1.000000   120.000000     0.577350     0.577350    -0.577350     0.000000     0.000000     0.000000
   22    -1.000000   180.000000     0.000000    -0.707107     0.707107     0.000000     0.000000     0.000000
   23    -1.000000   180.000000     0.707107    -0.707107     0.000000     0.000000     0.000000     0.000000
   24    -1.000000   180.000000     0.707107     0.000000    -0.707107     0.000000     0.000000     0.000000
   25    -1.000000     0.000000     1.000000     0.000000     0.000000     0.250000     0.250000     0.250000
   26    -1.000000   120.000000    -0.577350    -0.577350    -0.577350     0.250000     0.250000     0.250000
   27    -1.000000   120.000000     0.577350     0.577350     0.577350     0.250000     0.250000     0.250000
   28     1.000000    90.000000     0.000000     0.000000    -1.000000     0.250000     0.250000     0.250000
   29     1.000000   180.000000     0.000000     0.707107     0.707107     0.250000     0.250000     0.250000
   30     1.000000    90.000000     0.000000     1.000000     0.000000     0.250000     0.250000     0.250000
   31    -1.000000   180.000000     0.000000     0.000000     1.000000     0.250000     0.250000     0.250000
   32    -1.000000   120.000000    -0.577350     0.577350     0.577350     0.250000     0.250000     0.250000
   33    -1.000000   120.000000    -0.577350     0.577350    -0.577350     0.250000     0.250000     0.250000
   34     1.000000    90.000000     0.000000     0.000000     1.000000     0.250000     0.250000     0.250000
   35     1.000000    90.000000    -1.000000     0.000000     0.000000     0.250000     0.250000     0.250000
   36     1.000000   180.000000     0.707107     0.000000     0.707107     0.250000     0.250000     0.250000
   37    -1.000000   120.000000     0.577350    -0.577350     0.577350     0.250000     0.250000     0.250000
   38    -1.000000   120.000000    -0.577350    -0.577350     0.577350     0.250000     0.250000     0.250000
   39    -1.000000   180.000000     1.000000     0.000000     0.000000     0.250000     0.250000     0.250000
   40     1.000000    90.000000     0.000000    -1.000000     0.000000     0.250000     0.250000     0.250000
   41     1.000000   180.000000     0.707107     0.707107     0.000000     0.250000     0.250000     0.250000
   42     1.000000    90.000000     1.000000     0.000000     0.000000     0.250000     0.250000     0.250000
   43    -1.000000   120.000000     0.577350    -0.577350    -0.577350     0.250000     0.250000     0.250000
   44    -1.000000   180.000000     0.000000     1.000000     0.000000     0.250000     0.250000     0.250000
   45    -1.000000   120.000000     0.577350     0.577350    -0.577350     0.250000     0.250000     0.250000
   46     1.000000   180.000000     0.000000    -0.707107     0.707107     0.250000     0.250000     0.250000
   47     1.000000   180.000000     0.707107    -0.707107     0.000000     0.250000     0.250000     0.250000
   48     1.000000   180.000000     0.707107     0.000000    -0.707107     0.250000     0.250000     0.250000
 
 Subroutine IBZKPT returns following result:
 ===========================================
 
 Found      4 irreducible k-points:
 
 Following reciprocal coordinates:
            Coordinates               Weight
  0.000000  0.000000  0.000000      1.000000
  0.333333  0.000000  0.000000      8.000000
  0.333333  0.333333  0.000000      6.000000
 -0.333333  0.333333  0.000000     12.000000
 
 Following cartesian coordinates:
            Coordinates               Weight
  0.000000  0.000000  0.000000      1.000000
 -0.060676  0.060676  0.060676      8.000000
  0.000000  0.000000  0.121352      6.000000
  0.121352 -0.121352  0.000000     12.000000
 


--------------------------------------------------------------------------------------------------------




 Dimension of arrays:
   k-points           NKPTS =        4   k-points in BZ     NKDIM =        4   number of bands    NBANDS=     16
   number of dos      NEDOS =    301   number of ions     NIONS =      2
   non local maximal  LDIM  =      4   non local SUM 2l+1 LMDIM =      8
   total plane-waves  NPLWV =  32768
   max r-space proj   IRMAX =      1   max aug-charges    IRDMAX=  26628
   dimension x,y,z NGX =    32 NGY =   32 NGZ =   32
   dimension x,y,z NGXF=    64 NGYF=   64 NGZF=   64
   support grid    NGXF=    64 NGYF=   64 NGZF=   64
   ions per type =               2
 NGX,Y,Z   is equivalent  to a cutoff of  13.69, 13.69, 13.69 a.u.
 NGXF,Y,Z  is equivalent  to a cutoff of  27.39, 27.39, 27.39 a.u.


 I would recommend the setting:
   dimension x,y,z NGX =    32 NGY =   32 NGZ =   32
 SYSTEM =  unknown system                          
 POSCAR =  bulk@JVASP-1002                         

 Startparameter for this run:
   NWRITE =      2    write-flag & timer
   PREC   = accura    normal or accurate (medium, high low for compatibility)
   ISTART =      0    job   : 0-new  1-cont  2-samecut
   ICHARG =      2    charge: 1-file 2-atom 10-const
   ISPIN  =      1    spin polarized calculation?
   LNONCOLLINEAR =      F non collinear calculations
   LSORBIT =      F    spin-orbit coupling
   INIWAV =      1    electr: 0-lowe 1-rand  2-diag
   LASPH  =      F    aspherical Exc in radial PAW
   METAGGA=      F    non-selfconsistent MetaGGA calc.

 Electronic Relaxation 1
   ENCUT  =  650.0 eV  47.77 Ry    6.91 a.u.   8.08  8.08  8.08*2*pi/ulx,y,z
   ENINI  =  650.0     initial cutoff
   ENAUG  =  322.1 eV  augmentation charge cutoff
   NELM   =    400;   NELMIN=  2; NELMDL= -5     # of ELM steps 
   EDIFF  = 0.1E-06   stopping-criterion for ELM
   LREAL  =      F    real-space projection
   NLSPLINE    = F    spline interpolate recip. space projectors
   LCOMPAT=      F    compatible to vasp.4.4
   GGA_COMPAT  = T    GGA compatible to vasp.4.4-vasp.4.6
   LMAXPAW     = -100 max onsite density
   LMAXMIX     =    2 max onsite mixed and CHGCAR
   VOSKOWN=      0    Vosko Wilk Nusair interpolation
   ROPT   =    0.00000
 Ionic relaxation
   EDIFFG = 0.1E-05   stopping-criterion for IOM
   NSW    =      1    number of steps for IOM
   NBLOCK =      1;   KBLOCK =      1    inner block; outer block 
   IBRION =      2    ionic relax: 0-MD 1-quasi-New 2-CG
   NFREE  =      1    steps in history (QN), initial steepest desc. (CG)
   ISIF   =      2    stress and relaxation
   IWAVPR =     11    prediction:  0-non 1-charg 2-wave 3-comb
   ISYM   =      2    0-nonsym 1-usesym 2-fastsym
   LCORR  =      T    Harris-Foulkes like correction to forces

   POTIM  = 0.5000    time-step for ionic-motion
   TEIN   =    0.0    initial temperature
   TEBEG  =    0.0;   TEEND  =   0.0 temperature during run
   SMASS  =  -3.00    Nose mass-parameter (am)
   estimated Nose-frequenzy (Omega)   =  0.10E-29 period in steps =****** mass=  -0.345E-27a.u.
   SCALEE = 1.0000    scale energy and forces
   NPACO  =    256;   APACO  = 16.0  distance and # of slots for P.C.
   PSTRESS=    0.0 pullay stress

  Mass of Ions in am
   POMASS =  28.09
  Ionic Valenz
   ZVAL   =   4.00
  Atomic Wigner-Seitz radii
   RWIGS  =  -1.00
  virtual crystal weights 
   VCA    =   1.00
   NELECT =       8.0000    total number of electrons
   NUPDOWN=      -1.0000    fix difference up-down

 DOS related values:
   EMIN   =  10.00;   EMAX   =-10.00  energy-range for DOS
   EFERMI =   0.00
   ISMEAR =     0;   SIGMA  =   0.20  broadening in eV -4-tet -1-fermi 0-gaus

 Electronic relaxation 2 (details)
   IALGO  =     38    algorithm
   LDIAG  =      T    sub-space diagonalisation (order eigenvalues)
   LSUBROT=      F    optimize rotation matrix (better conditioning)
   TURBO    =      0    0=normal 1=particle mesh
   IRESTART =      0    0=no restart 2=restart with 2 vectors
   NREBOOT  =      0    no. of reboots
   NMIN     =      0    reboot dimension
   EREF     =   0.00    reference energy to select bands
   IMIX   =      4    mixing-type and parameters
     AMIX     =   0.40;   BMIX     =  1.00
     AMIX_MAG =   1.60;   BMIX_MAG =  1.00
     AMIN     =   0.10
     WC   =   100.;   INIMIX=   1;  MIXPRE=   1;  MAXMIX= -45

 Intra band minimization:
   WEIMIN = 0.0010     energy-eigenvalue tresh-hold
   EBREAK =  0.16E-08  absolut break condition
   DEPER  =   0.30     relativ break condition  

   TIME   =   0.40     timestep for ELM

  volume/ion in A,a.u.               =      20.72       139.86
  Fermi-wavevector in a.u.,A,eV,Ry     =   0.946087  1.787845 12.178313  0.895081
  Thomas-Fermi vector in A             =   2.074051

 Write flags
   LWAVE  =      F    write WAVECAR
   LCHARG =      F    write CHGCAR
   LVTOT  =      F    write LOCPOT, total local potential
   LVHAR  =      F    write LOCPOT, Hartree potential only
   LELF   =      F    write electronic localiz. function (ELF)
   LORBIT =      0    0 simple, 1 ext, 2 COOP (PROOUT)


 Dipole corrections
   LMONO  =      F    monopole corrections only (constant potential shift)
   LDIPOL =      F    correct potential (dipole corrections)
   IDIPOL =      0    1-x, 2-y, 3-z, 4-all directions 
   EPSILON=  1.0000000 bulk dielectric constant

 Exchange correlation treatment:
   GGA     =    BO    GGA type
   LEXCH   =    42    internal setting for exchange type
   VOSKOWN=      0    Vosko Wilk Nusair interpolation
   LHFCALC =     F    Hartree Fock is set to
   LHFONE  =     F    Hartree Fock one center treatment
   AEXX    =    0.0000 exact exchange contribution

 vdW DFT:
   LUSE_VDW   =     T    switch on vdW DFT
   Zab_VDW    =-.8491    correlation parameter
   PARAM1     =0.1833
   PARAM2     =0.2200
   PARAM3     =0.0000

 Linear response parameters
   LEPSILON=     F    determine dielectric tensor
   LRPA    =     F    only Hartree local field effects (RPA)
   LNABLA  =     F    use nabla operator in PAW spheres
   LVEL    =     F    velocity operator in full k-point grid
   LINTERFAST=   F  fast interpolation
   KINTER  =     0    interpolate to denser k-point grid
   CSHIFT  =0.1000    complex shift for real part using Kramers Kronig
   OMEGAMAX=  -1.0    maximum frequency
   DEG_THRESHOLD= 0.2000000E-02 threshold for treating states as degnerate
   RTIME   =    0.100 relaxation time in fs

 Orbital magnetization related:
   ORBITALMAG=     F  switch on orbital magnetization
   LCHIMAG   =     F  perturbation theory with respect to B field
   DQ        =  0.001000  dq finite difference perturbation B field



--------------------------------------------------------------------------------------------------------


 conjugate gradient relaxation of ions
 charge density and potential will be updated during run
 non-spin polarized calculation
 Variant of blocked Davidson
 Davidson routine will perform the subspace rotation
 perform sub-space diagonalisation
    after iterative eigenvector-optimisation
 modified Broyden-mixing scheme, WC =      100.0
 initial mixing is a Kerker type mixing with AMIX =  0.4000 and BMIX =      1.0000
 Hartree-type preconditioning will be used
 using additional bands           12
 reciprocal scheme for non local part
 use partial core corrections
 calculate Harris-corrections to forces   (improved forces if not selfconsistent)
 use gradient corrections 
 use of overlap-Matrix (Vanderbilt PP)
 Gauss-broadening in eV      SIGMA  =   0.20


--------------------------------------------------------------------------------------------------------


  energy-cutoff  :      650.00
  volume of cell :       41.45
      direct lattice vectors                 reciprocal lattice vectors
     0.000000000  2.746821138  2.746821138    -0.182028598  0.182028598  0.182028598
     2.746821138  0.000000000  2.746821138     0.182028598 -0.182028598  0.182028598
     2.746821138  2.746821138  0.000000000     0.182028598  0.182028598 -0.182028598

  length of vectors
     3.884591706  3.884591706  3.884591706     0.315282780  0.315282780  0.315282780



 k-points in units of 2pi/SCALE and weight: Automatic kpoint scheme                 
   0.00000000  0.00000000  0.00000000       0.037
  -0.06067620  0.06067620  0.06067620       0.296
   0.00000000  0.00000000  0.12135240       0.222
   0.12135240 -0.12135240  0.00000000       0.444

 k-points in reciprocal lattice and weights: Automatic kpoint scheme                 
   0.00000000  0.00000000  0.00000000       0.037
   0.33333333  0.00000000  0.00000000       0.296
   0.33333333  0.33333333  0.00000000       0.222
  -0.33333333  0.33333333  0.00000000       0.444

 position of ions in fractional coordinates (direct lattice) 
   0.75000000  0.75000000  0.75000000
   0.50000000  0.50000000  0.50000000

 position of ions in cartesian coordinates  (Angst):
   4.12023171  4.12023171  4.12023171
   2.74682114  2.74682114  2.74682114



--------------------------------------------------------------------------------------------------------


 k-point  1 :   0.0000 0.0000 0.0000  plane waves:    1471
 k-point  2 :   0.3333 0.0000 0.0000  plane waves:    1540
 k-point  3 :   0.3333 0.3333 0.0000  plane waves:    1580
 k-point  4 :  -0.3333 0.3333 0.0000  plane waves:    1568

 maximum and minimum number of plane-waves per node :      1580     1471

 maximum number of plane-waves:      1580
 maximum index in each direction: 
   IXMAX=    8   IYMAX=    8   IZMAX=    8
   IXMIN=   -8   IYMIN=   -8   IZMIN=   -8

 WARNING: aliasing errors must be expected set NGX to  34 to avoid them
 WARNING: aliasing errors must be expected set NGY to  34 to avoid them
 WARNING: aliasing errors must be expected set NGZ to  34 to avoid them
 aliasing errors are usually negligible using standard VASP settings
 and one can safely disregard these warnings

 serial   3D FFT for wavefunctions
 parallel 3D FFT for charge:
    minimum data exchange during FFTs selected (reduces bandwidth)


 total amount of memory used by VASP on root node    33395. kBytes
========================================================================

   base      :      30000. kBytes
   nonl-proj :        456. kBytes
   fftplans  :        702. kBytes
   grid      :       2129. kBytes
   one-center:          6. kBytes
   wavefun   :        102. kBytes

     INWAV:  cpu time    0.0000: real time    0.0000
 Broyden mixing: mesh for mixing (old mesh)
   NGX = 17   NGY = 17   NGZ = 17
  (NGX  = 64   NGY  = 64   NGZ  = 64)
  gives a total of   4913 points

 initial charge density was supplied:
 charge density of overlapping atoms calculated
 number of electron       8.0000000 magnetization 
 keeping initial charge density in first step


--------------------------------------------------------------------------------------------------------


 Maximum index for augmentation-charges         1645 (set IRDMAX)


--------------------------------------------------------------------------------------------------------


 First call to EWALD:  gamma=   0.512
 Maximum number of real-space cells 3x 3x 3
 Maximum number of reciprocal cells 3x 3x 3

 FEWALD executed in parallel
    FEWALD:  cpu time    0.0000: real time    0.0009


----------------------------------------- Iteration    1(   1)  ---------------------------------------


vdW kernel read from vdw_kernel.bindat
  0.0000  0.2424  0.5071  0.7962  1.1119  1.4567  1.8333  2.2446  2.6937  3.1842
  3.7199  4.3049  4.9438  5.6415  6.4036  7.2358  8.1446  9.1372 10.2212 11.4050
 12.6979 14.1099 15.6519 17.3360 19.1751 21.1837 23.3773 25.7729 28.3892 31.2465
 34.3669 37.7748 41.4965 45.5611 50.0000

    POTLOK:  cpu time    2.9240: real time    2.9231
    SETDIJ:  cpu time    0.0040: real time    0.0030
     EDDAV:  cpu time    0.0560: real time    0.0557
       DOS:  cpu time    0.0000: real time    0.0003
    --------------------------------------------
      LOOP:  cpu time    2.9840: real time    2.9837

 eigenvalue-minimisations  :   128
 total energy-change (2. order) : 0.6115858E+01  (-0.4131756E+03)
 number of electron       8.0000000 magnetization 
 augmentation part        8.0000000 magnetization 

 Free energy of the ion-electron system (eV)
  ---------------------------------------------------
  alpha Z        PSCENC =         3.24857844
  Ewald energy   TEWEN  =      -225.91568183
  -Hartree energ DENC   =       -11.53197166
  -exchange      EXHF   =         0.00000000
  -V(xc)+E(xc)   XCENC  =       -20.29573824
  PAW double counting   =       189.40224250     -152.61488262
  entropy T*S    EENTRO =        -0.05036495
  eigenvalues    EBANDS =        15.27926032
  atomic energy  EATOM  =       208.59441593
  Solvation  Ediel_sol  =         0.00000000
  ---------------------------------------------------
  free energy    TOTEN  =         6.11585789 eV

  energy without entropy =        6.16622284  energy(sigma->0) =        6.14104036


--------------------------------------------------------------------------------------------------------




----------------------------------------- Iteration    1(   2)  ---------------------------------------


     EDDAV:  cpu time    0.0960: real time    0.0960
       DOS:  cpu time    0.0000: real time    0.0003
    --------------------------------------------
      LOOP:  cpu time    0.0960: real time    0.3950

 eigenvalue-minimisations  :   192
 total energy-change (2. order) :-0.1389157E+02  (-0.1340245E+02)
 number of electron       8.0000000 magnetization 
 augmentation part        8.0000000 magnetization 

 Free energy of the ion-electron system (eV)
  ---------------------------------------------------
  alpha Z        PSCENC =         3.24857844
  Ewald energy   TEWEN  =      -225.91568183
  -Hartree energ DENC   =       -11.53197166
  -exchange      EXHF   =         0.00000000
  -V(xc)+E(xc)   XCENC  =       -20.29573824
  PAW double counting   =       189.40224250     -152.61488262
  entropy T*S    EENTRO =        -0.00003164
  eigenvalues    EBANDS =         1.33735821
  atomic energy  EATOM  =       208.59441593
  Solvation  Ediel_sol  =         0.00000000
  ---------------------------------------------------
  free energy    TOTEN  =        -7.77571091 eV

  energy without entropy =       -7.77567927  energy(sigma->0) =       -7.77569509


--------------------------------------------------------------------------------------------------------




----------------------------------------- Iteration    1(   3)  ---------------------------------------


     EDDAV:  cpu time    0.0560: real time    0.0563
       DOS:  cpu time    0.0000: real time    0.0003
    --------------------------------------------
      LOOP:  cpu time    0.0560: real time    0.0704

 eigenvalue-minimisations  :   128
 total energy-change (2. order) :-0.9747848E-01  (-0.9747784E-01)
 number of electron       8.0000000 magnetization 
 augmentation part        8.0000000 magnetization 

 Free energy of the ion-electron system (eV)
  ---------------------------------------------------
  alpha Z        PSCENC =         3.24857844
  Ewald energy   TEWEN  =      -225.91568183
  -Hartree energ DENC   =       -11.53197166
  -exchange      EXHF   =         0.00000000
  -V(xc)+E(xc)   XCENC  =       -20.29573824
  PAW double counting   =       189.40224250     -152.61488262
  entropy T*S    EENTRO =        -0.00001831
  eigenvalues    EBANDS =         1.23986640
  atomic energy  EATOM  =       208.59441593
  Solvation  Ediel_sol  =         0.00000000
  ---------------------------------------------------
  free energy    TOTEN  =        -7.87318939 eV

  energy without entropy =       -7.87317108  energy(sigma->0) =       -7.87318024


--------------------------------------------------------------------------------------------------------




----------------------------------------- Iteration    1(   4)  ---------------------------------------


     EDDAV:  cpu time    0.1560: real time    0.1546
       DOS:  cpu time    0.0000: real time    0.0003
    --------------------------------------------
      LOOP:  cpu time    0.1560: real time    0.1725

 eigenvalue-minimisations  :   256
 total energy-change (2. order) :-0.3313374E-03  (-0.3313372E-03)
 number of electron       8.0000000 magnetization 
 augmentation part        8.0000000 magnetization 

 Free energy of the ion-electron system (eV)
  ---------------------------------------------------
  alpha Z        PSCENC =         3.24857844
  Ewald energy   TEWEN  =      -225.91568183
  -Hartree energ DENC   =       -11.53197166
  -exchange      EXHF   =         0.00000000
  -V(xc)+E(xc)   XCENC  =       -20.29573824
  PAW double counting   =       189.40224250     -152.61488262
  entropy T*S    EENTRO =        -0.00001829
  eigenvalues    EBANDS =         1.23953505
  atomic energy  EATOM  =       208.59441593
  Solvation  Ediel_sol  =         0.00000000
  ---------------------------------------------------
  free energy    TOTEN  =        -7.87352073 eV

  energy without entropy =       -7.87350243  energy(sigma->0) =       -7.87351158


--------------------------------------------------------------------------------------------------------




----------------------------------------- Iteration    1(   5)  ---------------------------------------


     EDDAV:  cpu time    0.0640: real time    0.0639
       DOS:  cpu time    0.0000: real time    0.0003
    CHARGE:  cpu time    0.0200: real time    0.0209
    MIXING:  cpu time    0.0000: real time    0.0006
    --------------------------------------------
      LOOP:  cpu time    0.0840: real time    0.1151

 eigenvalue-minimisations  :   144
 total energy-change (2. order) :-0.4717378E-08  (-0.5012697E-08)
 number of electron       8.0000000 magnetization 
 augmentation part       -0.4719858 magnetization 

 Broyden mixing:
  rms(total) = 0.39324E+00    rms(broyden)= 0.39324E+00
  rms(prec ) = 0.99137E+00
  weight for this iteration     100.00

 Free energy of the ion-electron system (eV)
  ---------------------------------------------------
  alpha Z        PSCENC =         3.24857844
  Ewald energy   TEWEN  =      -225.91568183
  -Hartree energ DENC   =       -11.53197166
  -exchange      EXHF   =         0.00000000
  -V(xc)+E(xc)   XCENC  =       -20.29573824
  PAW double counting   =       189.40224250     -152.61488262
  entropy T*S    EENTRO =        -0.00001829
  eigenvalues    EBANDS =         1.23953504
  atomic energy  EATOM  =       208.59441593
  Solvation  Ediel_sol  =         0.00000000
  ---------------------------------------------------
  free energy    TOTEN  =        -7.87352073 eV

  energy without entropy =       -7.87350244  energy(sigma->0) =       -7.87351159


--------------------------------------------------------------------------------------------------------




----------------------------------------- Iteration    1(   6)  ---------------------------------------


    POTLOK:  cpu time    2.3840: real time    2.3847
    SETDIJ:  cpu time    0.0040: real time    0.0029
     EDDAV:  cpu time    0.0840: real time    0.0837
       DOS:  cpu time    0.0000: real time    0.0003
    CHARGE:  cpu time    0.0200: real time    0.0206
    MIXING:  cpu time    0.0000: real time    0.0006
    --------------------------------------------
      LOOP:  cpu time    2.4960: real time    2.5147

 eigenvalue-minimisations  :   208
 total energy-change (2. order) : 0.8094350E-01  (-0.1079304E-01)
 number of electron       8.0000000 magnetization 
 augmentation part       -0.4639340 magnetization 

 Broyden mixing:
  rms(total) = 0.24179E+00    rms(broyden)= 0.24179E+00
  rms(prec ) = 0.60087E+00
  weight for this iteration     100.00

 eigenvalues of (default mixing * dielectric matrix)
  average eigenvalue GAMMA=   2.5772
  2.5772

 Free energy of the ion-electron system (eV)
  ---------------------------------------------------
  alpha Z        PSCENC =         3.24857844
  Ewald energy   TEWEN  =      -225.91568183
  -Hartree energ DENC   =       -13.30854577
  -exchange      EXHF   =         0.00000000
  -V(xc)+E(xc)   XCENC  =       -20.03027529
  PAW double counting   =       306.45260360     -269.80408145
  entropy T*S    EENTRO =        -0.00009698
  eigenvalues    EBANDS =         2.97050612
  atomic energy  EATOM  =       208.59441593
  Solvation  Ediel_sol  =         0.00000000
  ---------------------------------------------------
  free energy    TOTEN  =        -7.79257724 eV

  energy without entropy =       -7.79248026  energy(sigma->0) =       -7.79252875


--------------------------------------------------------------------------------------------------------




----------------------------------------- Iteration    1(   7)  ---------------------------------------


    POTLOK:  cpu time    2.3600: real time    2.3594
    SETDIJ:  cpu time    0.0040: real time    0.0022
     EDDAV:  cpu time    0.0640: real time    0.0659
       DOS:  cpu time    0.0000: real time    0.0003
    CHARGE:  cpu time    0.0200: real time    0.0193
    MIXING:  cpu time    0.0000: real time    0.0007
    --------------------------------------------
      LOOP:  cpu time    2.4480: real time    2.9227

 eigenvalue-minimisations  :   176
 total energy-change (2. order) : 0.2199320E-01  (-0.2565594E-01)
 number of electron       8.0000000 magnetization 
 augmentation part       -0.4529805 magnetization 

 Broyden mixing:
  rms(total) = 0.21028E-01    rms(broyden)= 0.21028E-01
  rms(prec ) = 0.54015E-01
  weight for this iteration     100.00

 eigenvalues of (default mixing * dielectric matrix)
  average eigenvalue GAMMA=   2.1972
  2.1972  2.1972

 Free energy of the ion-electron system (eV)
  ---------------------------------------------------
  alpha Z        PSCENC =         3.24857844
  Ewald energy   TEWEN  =      -225.91568183
  -Hartree energ DENC   =       -16.39637625
  -exchange      EXHF   =         0.00000000
  -V(xc)+E(xc)   XCENC  =       -19.54108649
  PAW double counting   =       553.55877060     -517.09051698
  entropy T*S    EENTRO =        -0.00090750
  eigenvalues    EBANDS =         5.77222006
  atomic energy  EATOM  =       208.59441593
  Solvation  Ediel_sol  =         0.00000000
  ---------------------------------------------------
  free energy    TOTEN  =        -7.77058403 eV

  energy without entropy =       -7.76967653  energy(sigma->0) =       -7.77013028


--------------------------------------------------------------------------------------------------------




----------------------------------------- Iteration    1(   8)  ---------------------------------------


    POTLOK:  cpu time    2.4240: real time    2.4212
    SETDIJ:  cpu time    0.0040: real time    0.0029
     EDDAV:  cpu time    0.0520: real time    0.0523
       DOS:  cpu time    0.0000: real time    0.0003
    CHARGE:  cpu time    0.0200: real time    0.0197
    MIXING:  cpu time    0.0000: real time    0.0006
    --------------------------------------------
      LOOP:  cpu time    2.5000: real time    2.6299

 eigenvalue-minimisations  :   128
 total energy-change (2. order) : 0.1790164E-01  (-0.5964368E-03)
 number of electron       8.0000000 magnetization 
 augmentation part       -0.4544949 magnetization 

 Broyden mixing:
  rms(total) = 0.11259E-01    rms(broyden)= 0.11259E-01
  rms(prec ) = 0.27589E-01
  weight for this iteration     100.00

 eigenvalues of (default mixing * dielectric matrix)
  average eigenvalue GAMMA=   2.1629
  3.1095  1.6896  1.6896

 Free energy of the ion-electron system (eV)
  ---------------------------------------------------
  alpha Z        PSCENC =         3.24857844
  Ewald energy   TEWEN  =      -225.91568183
  -Hartree energ DENC   =       -16.13712271
  -exchange      EXHF   =         0.00000000
  -V(xc)+E(xc)   XCENC  =       -19.56018861
  PAW double counting   =       530.96664891     -494.42700884
  entropy T*S    EENTRO =        -0.00061853
  eigenvalues    EBANDS =         5.47829485
  atomic energy  EATOM  =       208.59441593
  Solvation  Ediel_sol  =         0.00000000
  ---------------------------------------------------
  free energy    TOTEN  =        -7.75268240 eV

  energy without entropy =       -7.75206387  energy(sigma->0) =       -7.75237313


--------------------------------------------------------------------------------------------------------




----------------------------------------- Iteration    1(   9)  ---------------------------------------


    POTLOK:  cpu time    2.3960: real time    2.3971
    SETDIJ:  cpu time    0.0040: real time    0.0021
     EDDAV:  cpu time    0.0760: real time    0.0743
       DOS:  cpu time    0.0000: real time    0.0004
    CHARGE:  cpu time    0.0200: real time    0.0199
    MIXING:  cpu time    0.0000: real time    0.0007
    --------------------------------------------
      LOOP:  cpu time    2.4960: real time    2.5181

 eigenvalue-minimisations  :   160
 total energy-change (2. order) :-0.5785985E-03  (-0.7454681E-04)
 number of electron       8.0000000 magnetization 
 augmentation part       -0.4541039 magnetization 

 Broyden mixing:
  rms(total) = 0.56047E-02    rms(broyden)= 0.56047E-02
  rms(prec ) = 0.77105E-02
  weight for this iteration     100.00

 eigenvalues of (default mixing * dielectric matrix)
  average eigenvalue GAMMA=   2.1724
  0.9365  2.9900  2.3816  2.3816

 Free energy of the ion-electron system (eV)
  ---------------------------------------------------
  alpha Z        PSCENC =         3.24857844
  Ewald energy   TEWEN  =      -225.91568183
  -Hartree energ DENC   =       -16.31338387
  -exchange      EXHF   =         0.00000000
  -V(xc)+E(xc)   XCENC  =       -19.52995075
  PAW double counting   =       542.10672719     -505.57257934
  entropy T*S    EENTRO =        -0.00067493
  eigenvalues    EBANDS =         5.62928817
  atomic energy  EATOM  =       208.59441593
  Solvation  Ediel_sol  =         0.00000000
  ---------------------------------------------------
  free energy    TOTEN  =        -7.75326100 eV

  energy without entropy =       -7.75258607  energy(sigma->0) =       -7.75292353


--------------------------------------------------------------------------------------------------------




----------------------------------------- Iteration    1(  10)  ---------------------------------------


    POTLOK:  cpu time    2.3760: real time    2.3765
    SETDIJ:  cpu time    0.0040: real time    0.0028
     EDDAV:  cpu time    0.1120: real time    0.1134
       DOS:  cpu time    0.0000: real time    0.0004
    CHARGE:  cpu time    0.0240: real time    0.0206
    MIXING:  cpu time    0.0000: real time    0.0007
    --------------------------------------------
      LOOP:  cpu time    2.5160: real time    2.5910

 eigenvalue-minimisations  :   208
 total energy-change (2. order) :-0.2494588E-03  (-0.2487035E-05)
 number of electron       8.0000000 magnetization 
 augmentation part       -0.4541412 magnetization 

 Broyden mixing:
  rms(total) = 0.41035E-03    rms(broyden)= 0.41035E-03
  rms(prec ) = 0.97036E-03
  weight for this iteration     100.00

 eigenvalues of (default mixing * dielectric matrix)
  average eigenvalue GAMMA=   1.9068
  2.9254  2.5379  2.2739  0.9733  0.8235

 Free energy of the ion-electron system (eV)
  ---------------------------------------------------
  alpha Z        PSCENC =         3.24857844
  Ewald energy   TEWEN  =      -225.91568183
  -Hartree energ DENC   =       -16.29124560
  -exchange      EXHF   =         0.00000000
  -V(xc)+E(xc)   XCENC  =       -19.53443177
  PAW double counting   =       534.39531622     -497.86130108
  entropy T*S    EENTRO =        -0.00066278
  eigenvalues    EBANDS =         5.61150201
  atomic energy  EATOM  =       208.59441593
  Solvation  Ediel_sol  =         0.00000000
  ---------------------------------------------------
  free energy    TOTEN  =        -7.75351045 eV

  energy without entropy =       -7.75284767  energy(sigma->0) =       -7.75317906


--------------------------------------------------------------------------------------------------------




----------------------------------------- Iteration    1(  11)  ---------------------------------------


    POTLOK:  cpu time    2.4200: real time    2.4212
    SETDIJ:  cpu time    0.0040: real time    0.0029
     EDDAV:  cpu time    0.0760: real time    0.0775
       DOS:  cpu time    0.0000: real time    0.0003
    CHARGE:  cpu time    0.0200: real time    0.0200
    MIXING:  cpu time    0.0000: real time    0.0008
    --------------------------------------------
      LOOP:  cpu time    2.5240: real time    2.5789

 eigenvalue-minimisations  :   192
 total energy-change (2. order) : 0.2614863E-03  (-0.1274747E-06)
 number of electron       8.0000000 magnetization 
 augmentation part       -0.4541698 magnetization 

 Broyden mixing:
  rms(total) = 0.12898E-03    rms(broyden)= 0.12898E-03
  rms(prec ) = 0.16961E-03
  weight for this iteration     100.00

 eigenvalues of (default mixing * dielectric matrix)
  average eigenvalue GAMMA=   1.9728
  2.9494  2.5538  2.2480  2.1387  1.0006  0.9462

 Free energy of the ion-electron system (eV)
  ---------------------------------------------------
  alpha Z        PSCENC =         3.24857844
  Ewald energy   TEWEN  =      -225.91568183
  -Hartree energ DENC   =       -16.28748461
  -exchange      EXHF   =         0.00000000
  -V(xc)+E(xc)   XCENC  =       -19.53472931
  PAW double counting   =       534.30372362     -497.76872149
  entropy T*S    EENTRO =        -0.00065914
  eigenvalues    EBANDS =         5.60730942
  atomic energy  EATOM  =       208.59441593
  Solvation  Ediel_sol  =         0.00000000
  ---------------------------------------------------
  free energy    TOTEN  =        -7.75324897 eV

  energy without entropy =       -7.75258982  energy(sigma->0) =       -7.75291940


--------------------------------------------------------------------------------------------------------




----------------------------------------- Iteration    1(  12)  ---------------------------------------


    POTLOK:  cpu time    2.3960: real time    2.3947
    SETDIJ:  cpu time    0.0000: real time    0.0028
     EDDAV:  cpu time    0.1040: real time    0.1014
       DOS:  cpu time    0.0000: real time    0.0004
    CHARGE:  cpu time    0.0200: real time    0.0204
    MIXING:  cpu time    0.0000: real time    0.0008
    --------------------------------------------
      LOOP:  cpu time    2.5200: real time    2.5489

 eigenvalue-minimisations  :   192
 total energy-change (2. order) : 0.6431239E-05  (-0.4954657E-08)
 number of electron       8.0000000 magnetization 
 augmentation part       -0.4541689 magnetization 

 Broyden mixing:
  rms(total) = 0.31957E-04    rms(broyden)= 0.31957E-04
  rms(prec ) = 0.71175E-04
  weight for this iteration     100.00

 eigenvalues of (default mixing * dielectric matrix)
  average eigenvalue GAMMA=   1.9584
  2.9618  2.6845  2.6845  2.2498  0.9787  0.9890  1.1607

 Free energy of the ion-electron system (eV)
  ---------------------------------------------------
  alpha Z        PSCENC =         3.24857844
  Ewald energy   TEWEN  =      -225.91568183
  -Hartree energ DENC   =       -16.28795251
  -exchange      EXHF   =         0.00000000
  -V(xc)+E(xc)   XCENC  =       -19.53468658
  PAW double counting   =       534.49463940     -497.95962464
  entropy T*S    EENTRO =        -0.00065907
  eigenvalues    EBANDS =         5.60772832
  atomic energy  EATOM  =       208.59441593
  Solvation  Ediel_sol  =         0.00000000
  ---------------------------------------------------
  free energy    TOTEN  =        -7.75324254 eV

  energy without entropy =       -7.75258346  energy(sigma->0) =       -7.75291300


--------------------------------------------------------------------------------------------------------




----------------------------------------- Iteration    1(  13)  ---------------------------------------


    POTLOK:  cpu time    2.3640: real time    2.3625
    SETDIJ:  cpu time    0.0040: real time    0.0022
     EDDAV:  cpu time    0.0680: real time    0.0705
       DOS:  cpu time    0.0000: real time    0.0003
    CHARGE:  cpu time    0.0200: real time    0.0192
    MIXING:  cpu time    0.0000: real time    0.0008
    --------------------------------------------
      LOOP:  cpu time    2.4560: real time    2.4737

 eigenvalue-minimisations  :   176
 total energy-change (2. order) : 0.1470220E-04  (-0.6224801E-09)
 number of electron       8.0000000 magnetization 
 augmentation part       -0.4541703 magnetization 

 Broyden mixing:
  rms(total) = 0.17570E-04    rms(broyden)= 0.17570E-04
  rms(prec ) = 0.19616E-04
  weight for this iteration     100.00

 eigenvalues of (default mixing * dielectric matrix)
  average eigenvalue GAMMA=   1.9760
  3.0537  2.7992  2.4977  2.2944  2.2258  0.9943  0.9861  0.9572

 Free energy of the ion-electron system (eV)
  ---------------------------------------------------
  alpha Z        PSCENC =         3.24857844
  Ewald energy   TEWEN  =      -225.91568183
  -Hartree energ DENC   =       -16.28761319
  -exchange      EXHF   =         0.00000000
  -V(xc)+E(xc)   XCENC  =       -19.53473915
  PAW double counting   =       534.52338555     -497.98831449
  entropy T*S    EENTRO =        -0.00065881
  eigenvalues    EBANDS =         5.60739972
  atomic energy  EATOM  =       208.59441593
  Solvation  Ediel_sol  =         0.00000000
  ---------------------------------------------------
  free energy    TOTEN  =        -7.75322783 eV

  energy without entropy =       -7.75256902  energy(sigma->0) =       -7.75289843


--------------------------------------------------------------------------------------------------------




----------------------------------------- Iteration    1(  14)  ---------------------------------------


    POTLOK:  cpu time    2.4120: real time    2.4098
    SETDIJ:  cpu time    0.0040: real time    0.0028
     EDDAV:  cpu time    0.0680: real time    0.0673
       DOS:  cpu time    0.0000: real time    0.0004
    CHARGE:  cpu time    0.0200: real time    0.0205
    MIXING:  cpu time    0.0000: real time    0.0008
    --------------------------------------------
      LOOP:  cpu time    2.5040: real time    2.5604

 eigenvalue-minimisations  :   128
 total energy-change (2. order) :-0.3766450E-05  (-0.3010140E-10)
 number of electron       8.0000000 magnetization 
 augmentation part       -0.4541701 magnetization 

 Broyden mixing:
  rms(total) = 0.29385E-05    rms(broyden)= 0.29385E-05
  rms(prec ) = 0.31821E-05
  weight for this iteration     100.00

 eigenvalues of (default mixing * dielectric matrix)
  average eigenvalue GAMMA=   1.8688
  3.0174  2.8282  2.5024  2.5024  2.2241  1.0090  0.9839  0.9390  0.8127

 Free energy of the ion-electron system (eV)
  ---------------------------------------------------
  alpha Z        PSCENC =         3.24857844
  Ewald energy   TEWEN  =      -225.91568183
  -Hartree energ DENC   =       -16.28765495
  -exchange      EXHF   =         0.00000000
  -V(xc)+E(xc)   XCENC  =       -19.53473729
  PAW double counting   =       534.49691468     -497.96185713
  entropy T*S    EENTRO =        -0.00065884
  eigenvalues    EBANDS =         5.60744938
  atomic energy  EATOM  =       208.59441593
  Solvation  Ediel_sol  =         0.00000000
  ---------------------------------------------------
  free energy    TOTEN  =        -7.75323160 eV

  energy without entropy =       -7.75257276  energy(sigma->0) =       -7.75290218


--------------------------------------------------------------------------------------------------------




----------------------------------------- Iteration    1(  15)  ---------------------------------------


    POTLOK:  cpu time    2.3880: real time    2.3872
    SETDIJ:  cpu time    0.0040: real time    0.0029
     EDDAV:  cpu time    0.0520: real time    0.0522
       DOS:  cpu time    0.0000: real time    0.0003
    CHARGE:  cpu time    0.0200: real time    0.0197
    MIXING:  cpu time    0.0000: real time    0.0009
    --------------------------------------------
      LOOP:  cpu time    2.4640: real time    2.7362

 eigenvalue-minimisations  :   128
 total energy-change (2. order) :-0.1122863E-06  (-0.2742587E-12)
 number of electron       8.0000000 magnetization 
 augmentation part       -0.4541701 magnetization 

 Broyden mixing:
  rms(total) = 0.77711E-06    rms(broyden)= 0.77711E-06
  rms(prec ) = 0.87864E-06
  weight for this iteration     100.00

 eigenvalues of (default mixing * dielectric matrix)
  average eigenvalue GAMMA=   1.8905
  3.0664  2.7951  2.7250  2.3648  2.2586  1.6738  0.9588  0.9862  0.9862  1.0902

 Free energy of the ion-electron system (eV)
  ---------------------------------------------------
  alpha Z        PSCENC =         3.24857844
  Ewald energy   TEWEN  =      -225.91568183
  -Hartree energ DENC   =       -16.28765427
  -exchange      EXHF   =         0.00000000
  -V(xc)+E(xc)   XCENC  =       -19.53473749
  PAW double counting   =       534.49476805     -497.95971107
  entropy T*S    EENTRO =        -0.00065884
  eigenvalues    EBANDS =         5.60744938
  atomic energy  EATOM  =       208.59441593
  Solvation  Ediel_sol  =         0.00000000
  ---------------------------------------------------
  free energy    TOTEN  =        -7.75323171 eV

  energy without entropy =       -7.75257287  energy(sigma->0) =       -7.75290229


--------------------------------------------------------------------------------------------------------




----------------------------------------- Iteration    1(  16)  ---------------------------------------


    POTLOK:  cpu time    2.4000: real time    2.3997
    SETDIJ:  cpu time    0.0040: real time    0.0023
     EDDAV:  cpu time    0.0320: real time    0.0319
       DOS:  cpu time    0.0000: real time    0.0003
    --------------------------------------------
      LOOP:  cpu time    2.4360: real time    2.6957

 eigenvalue-minimisations  :    64
 total energy-change (2. order) :-0.2218678E-07  ( 0.3606973E-12)
 number of electron       8.0000000 magnetization 
 augmentation part       -0.4541701 magnetization 

 Free energy of the ion-electron system (eV)
  ---------------------------------------------------
  alpha Z        PSCENC =         3.24857844
  Ewald energy   TEWEN  =      -225.91568183
  -Hartree energ DENC   =       -16.28765550
  -exchange      EXHF   =         0.00000000
  -V(xc)+E(xc)   XCENC  =       -19.53473747
  PAW double counting   =       534.49404468     -497.95898790
  entropy T*S    EENTRO =        -0.00065884
  eigenvalues    EBANDS =         5.60745076
  atomic energy  EATOM  =       208.59441593
  Solvation  Ediel_sol  =         0.00000000
  ---------------------------------------------------
  free energy    TOTEN  =        -7.75323174 eV

  energy without entropy =       -7.75257290  energy(sigma->0) =       -7.75290232


--------------------------------------------------------------------------------------------------------




 average (electrostatic) potential at core
  the test charge radii are     0.9892
  (the norm of the test charge is              1.0000)
       1 -83.7668       2 -83.7668



 E-fermi :   5.9416     XC(G=0):  -9.2148     alpha+bet :-11.5728


 k-point     1 :       0.0000    0.0000    0.0000
  band No.  band energies     occupation 
      1      -6.1124      2.00000
      2       5.5583      1.99328
      3       5.5583      1.99328
      4       5.5583      1.99328
      5       8.1380      0.00000
      6       8.1380      0.00000
      7       8.1380      0.00000
      8       8.6460      0.00000
      9      13.2635      0.00000
     10      13.2635      0.00000
     11      13.3912      0.00000
     12      16.6814      0.00000
     13      16.6814      0.00000
     14      16.6814      0.00000
     15      20.7810      0.00000
     16      28.2501      0.00000

 k-point     2 :       0.3333    0.0000    0.0000
  band No.  band energies     occupation 
      1      -4.7784      2.00000
      2       0.3627      2.00000
      3       4.5958      2.00000
      4       4.5958      2.00000
      5       7.2561      0.00000
      6       9.0759      0.00000
      7       9.0759      0.00000
      8      13.2978      0.00000
      9      13.4879      0.00000
     10      13.4879      0.00000
     11      14.4676      0.00000
     12      18.8896      0.00000
     13      19.9338      0.00000
     14      19.9338      0.00000
     15      21.9661      0.00000
     16      22.9512      0.00000

 k-point     3 :       0.3333    0.3333    0.0000
  band No.  band energies     occupation 
      1      -4.2643      2.00000
      2       0.6290      2.00000
      3       3.2353      2.00000
      4       3.2353      2.00000
      5       6.3563      0.00336
      6       7.6108      0.00000
      7      12.6842      0.00000
      8      12.6842      0.00000
      9      15.0535      0.00000
     10      15.3598      0.00000
     11      18.3882      0.00000
     12      18.8263      0.00000
     13      18.8263      0.00000
     14      20.5150      0.00000
     15      21.5267      0.00000
     16      21.6794      0.00000

 k-point     4 :      -0.3333    0.3333    0.0000
  band No.  band energies     occupation 
      1      -2.9551      2.00000
      2      -1.0712      2.00000
      3       1.3240      2.00000
      4       3.5282      2.00000
      5       7.1771      0.00000
      6      11.3110      0.00000
      7      11.9494      0.00000
      8      12.4767      0.00000
      9      12.8065      0.00000
     10      13.1776      0.00000
     11      19.7326      0.00000
     12      20.2669      0.00000
     13      20.8577      0.00000
     14      21.0400      0.00000
     15      21.8648      0.00000
     16      22.7510      0.00000


--------------------------------------------------------------------------------------------------------


 soft charge-density along one line, spin component           1
         0         1         2         3         4         5         6         7         8         9
 total charge-density along one line

 pseudopotential strength for first ion, spin component:           1
 18.532  25.850  -0.000  -0.000  -0.000  -0.000  -0.000  -0.000
 25.850  36.064  -0.000  -0.000  -0.000  -0.000  -0.000  -0.000
 -0.000  -0.000   4.199  -0.000  -0.000   7.817  -0.000  -0.000
 -0.000  -0.000  -0.000   4.199  -0.000  -0.000   7.817  -0.000
 -0.000  -0.000  -0.000  -0.000   4.199  -0.000  -0.000   7.817
 -0.000  -0.000   7.817  -0.000  -0.000  14.563  -0.000  -0.000
 -0.000  -0.000  -0.000   7.817  -0.000  -0.000  14.563  -0.000
 -0.000  -0.000  -0.000  -0.000   7.817  -0.000  -0.000  14.563
 total augmentation occupancy for first ion, spin component:           1
  3.179  -0.884  -0.000  -0.000  -0.000  -0.000  -0.000   0.000
 -0.884   0.373   0.000   0.000   0.000   0.000   0.000   0.000
  0.000   0.000   2.262  -0.000  -0.000  -0.394   0.000   0.000
  0.000   0.000  -0.000   2.262   0.000   0.000  -0.394   0.000
  0.000   0.000   0.000  -0.000   2.262   0.000  -0.000  -0.394
  0.000   0.000  -0.394   0.000   0.000   0.082   0.000   0.000
  0.000   0.000   0.000  -0.394  -0.000   0.000   0.082   0.000
 -0.000  -0.000   0.000   0.000  -0.394   0.000   0.000   0.082


------------------------ aborting loop because EDIFF is reached ----------------------------------------


    CHARGE:  cpu time    0.0240: real time    0.0208
    FORLOC:  cpu time    0.0000: real time    0.0007
    FORNL :  cpu time    0.0120: real time    0.0127
    STRESS:  cpu time    0.1040: real time    0.1074
    FORCOR:  cpu time    2.4360: real time    2.4349
    FORHAR:  cpu time    0.0040: real time    0.0044
    MIXING:  cpu time    0.0040: real time    0.0008
    OFIELD:  cpu time    0.0000: real time    0.0000

  FORCE on cell =-STRESS in cart. coord.  units (eV):
  Direction    XX          YY          ZZ          XY          YZ          ZX
  --------------------------------------------------------------------------------------
  Alpha Z     3.24858     3.24858     3.24858
  Ewald     -75.30526   -75.30526   -75.30526     0.00000    -0.00000    -0.00000
  Hartree     5.42922     5.42922     5.42922     0.00000     0.00000     0.00000
  E(xc)     -25.42045   -25.42045   -25.42045    -0.00000    -0.00000    -0.00000
  Local     -30.12588   -30.12588   -30.12588     0.00000     0.00000     0.00000
  n-local    78.77266    78.77266    72.79087     2.89253    -1.22752     1.22752
  augment   -11.63022   -11.63022   -11.63022    -0.00000    -0.00000    -0.00000
  Kinetic    59.15516    59.15516    53.99880     4.52005    -1.73038     1.73038
  Fock        0.00000     0.00000     0.00000     0.00000     0.00000     0.00000
  -------------------------------------------------------------------------------------
  Total       0.41109     0.41109     0.41109     0.00000     0.00000     0.00000
  in kB      15.89024    15.89024    15.89024     0.00000     0.00000     0.00000
  external pressure =       15.89 kB  Pullay stress =        0.00 kB


 VOLUME and BASIS-vectors are now :
 -----------------------------------------------------------------------------
  energy-cutoff  :      650.00
  volume of cell :       41.45
      direct lattice vectors                 reciprocal lattice vectors
     0.000000000  2.746821138  2.746821138    -0.182028598  0.182028598  0.182028598
     2.746821138  0.000000000  2.746821138     0.182028598 -0.182028598  0.182028598
     2.746821138  2.746821138  0.000000000     0.182028598  0.182028598 -0.182028598

  length of vectors
     3.884591706  3.884591706  3.884591706     0.315282780  0.315282780  0.315282780


 FORCES acting on ions
    electron-ion (+dipol)            ewald-force                    non-local-force                 convergence-correction
 -----------------------------------------------------------------------------------------------
   -.350E-08 -.350E-08 -.105E-08   -.313E-14 -.268E-14 -.153E-14   -.555E-16 -.111E-15 -.581E-16   -.158E-12 -.161E-12 -.158E-12
   0.350E-08 0.350E-08 0.105E-08   0.307E-14 0.301E-14 0.222E-14   0.555E-16 0.139E-15 0.668E-16   0.159E-12 0.159E-12 0.156E-12
 -----------------------------------------------------------------------------------------------
   -.148E-12 -.500E-13 -.850E-13   -.615E-16 0.330E-15 0.690E-15   0.000E+00 0.278E-16 0.867E-17   0.769E-15 -.217E-14 -.212E-14


 POSITION                                       TOTAL-FORCE (eV/Angst)
 -----------------------------------------------------------------------------------
      4.12023      4.12023      4.12023         0.000000      0.000000      0.000000
      2.74682      2.74682      2.74682        -0.000000     -0.000000     -0.000000
 -----------------------------------------------------------------------------------
    total drift:                               -0.000000     -0.000000     -0.000000


--------------------------------------------------------------------------------------------------------



  FREE ENERGIE OF THE ION-ELECTRON SYSTEM (eV)
  ---------------------------------------------------
  free  energy   TOTEN  =        -7.75323174 eV

  energy  without entropy=       -7.75257290  energy(sigma->0) =       -7.75290232



--------------------------------------------------------------------------------------------------------


    POTLOK:  cpu time    2.3920: real time    2.3931


--------------------------------------------------------------------------------------------------------




--------------------------------------------------------------------------------------------------------


  
 reached required accuracy - stopping structural energy minimisation
     LOOP+:  cpu time   35.7160: real time   37.9161
    4ORBIT:  cpu time    0.0000: real time    0.0000

 total amount of memory used by VASP on root node    33395. kBytes
========================================================================

   base      :      30000. kBytes
   nonl-proj :        456. kBytes
   fftplans  :        702. kBytes
   grid      :       2129. kBytes
   one-center:          6. kBytes
   wavefun   :        102. kBytes

  
  
 General timing and accounting informations for this job:
 ========================================================
  
                  Total CPU time used (sec):       36.272
                            User time (sec):       36.052
                          System time (sec):        0.220
                         Elapsed time (sec):       39.791
  
                   Maximum memory used (kb):      121072.
                   Average memory used (kb):           0.
  
                          Minor page faults:       111121
                          Major page faults:            6
                 Voluntary context switches:          233
