 running on   16 total cores
 distrk:  each k-point on   16 cores,    1 groups
 distr:  one band on    1 cores,   16 groups
 using from now: INCAR     
 vasp.5.4.1 24Jun15 (build Feb  9 2019 14:16:27) complex                         
 POSCAR found type information on POSCAR  Si
 POSCAR found :  1 types and       2 ions
 scaLAPACK will be used

 ----------------------------------------------------------------------------- 
|                                                                             |
|           W    W    AA    RRRRR   N    N  II  N    N   GGGG   !!!           |
|           W    W   A  A   R    R  NN   N  II  NN   N  G    G  !!!           |
|           W    W  A    A  R    R  N N  N  II  N N  N  G       !!!           |
|           W WW W  AAAAAA  RRRRR   N  N N  II  N  N N  G  GGG   !            |
|           WW  WW  A    A  R   R   N   NN  II  N   NN  G    G                |
|           W    W  A    A  R    R  N    N  II  N    N   GGGG   !!!           |
|                                                                             |
|      For optimal performance we recommend to set                            |
|        NCORE= 4 - approx SQRT( number of cores)                             |
|      NCORE specifies how many cores store one orbital (NPAR=cpu/NCORE).     |
|      This setting can  greatly improve the performance of VASP for DFT.     |
|      The default, NPAR=number of cores might be grossly inefficient         |
|      on modern multi-core architectures or massively parallel machines.     |
|      Do your own testing !!!!                                               |
|      Unfortunately you need to use the default for GW and RPA calculations. |
|      (for HF NCORE is supported but not extensively tested yet)             |
|                                                                             |
 ----------------------------------------------------------------------------- 


 ----------------------------------------------------------------------------- 
|                                                                             |
|  ADVICE TO THIS USER RUNNING 'VASP/VAMP'   (HEAR YOUR MASTER'S VOICE ...):  |
|                                                                             |
|      You have switched on vdW-DFT.                                          |
|      This routine was written and supplied by Jiri Klimes.                  |
|      We recommed that you carefully read and cite the following             |
|      publication                                                            |
|      J. Klimes, D.R. Bowler, A. Michelides                                  |
|        J. Phys.: Cond Matt. 22 022201 (2010)                                |
|      J. Klimes, D.R. Bowler, A. Michelides                                  |
|        Phys. Rev. B. 83, 195131 (2011)                                      |
|      and references therein.                                                |
|                                                                             |
 ----------------------------------------------------------------------------- 


 ----------------------------------------------------------------------------- 
|                                                                             |
|  ADVICE TO THIS USER RUNNING 'VASP/VAMP'   (HEAR YOUR MASTER'S VOICE ...):  |
|                                                                             |
|      You enforced a specific xc-type in the INCAR file,                     |
|      a different type was found on the POTCAR file                          |
|          I HOPE YOU KNOW, WHAT YOU ARE  DOING                               |
|                                                                             |
 ----------------------------------------------------------------------------- 

 LDA part: xc-table for Pade appr. of Perdew
 POSCAR, INCAR and KPOINTS ok, starting setup
 WARNING: small aliasing (wrap around) errors must be expected
 FFT: planning ...
 WAVECAR not read
 entering main loop
       N       E                     dE             d eps       ncg     rms          rms(c)
Total vdW correction in eV:      1.0901334
DAV:   1     0.611585789018E+01    0.61159E+01   -0.41318E+03   128   0.497E+02
DAV:   2    -0.777571091145E+01   -0.13892E+02   -0.13402E+02   192   0.438E+01
DAV:   3    -0.787318939076E+01   -0.97478E-01   -0.97478E-01   128   0.481E+00
DAV:   4    -0.787352072811E+01   -0.33134E-03   -0.33134E-03   256   0.329E-01
DAV:   5    -0.787352073283E+01   -0.47174E-08   -0.50127E-08   144   0.140E-03    0.393E+00
Total vdW correction in eV:      1.1466583
DAV:   6    -0.779257723772E+01    0.80943E-01   -0.10793E-01   208   0.968E-01    0.242E+00
Total vdW correction in eV:      1.2588453
DAV:   7    -0.777058403332E+01    0.21993E-01   -0.25656E-01   176   0.147E+00    0.210E-01
Total vdW correction in eV:      1.2546630
DAV:   8    -0.775268239666E+01    0.17902E-01   -0.59644E-03   128   0.278E-01    0.113E-01
Total vdW correction in eV:      1.2624569
DAV:   9    -0.775326099514E+01   -0.57860E-03   -0.74547E-04   160   0.102E-01    0.560E-02
Total vdW correction in eV:      1.2619848
DAV:  10    -0.775351045390E+01   -0.24946E-03   -0.24870E-05   208   0.231E-02    0.410E-03
Total vdW correction in eV:      1.2619305
DAV:  11    -0.775324896759E+01    0.26149E-03   -0.12747E-06   192   0.397E-03    0.129E-03
Total vdW correction in eV:      1.2619738
DAV:  12    -0.775324253635E+01    0.64312E-05   -0.49547E-08   192   0.124E-03    0.320E-04
Total vdW correction in eV:      1.2619683
DAV:  13    -0.775322783415E+01    0.14702E-04   -0.62248E-09   176   0.310E-04    0.176E-04
Total vdW correction in eV:      1.2619703
DAV:  14    -0.775323160060E+01   -0.37665E-05   -0.30101E-10   128   0.868E-05    0.294E-05
Total vdW correction in eV:      1.2619701
DAV:  15    -0.775323171288E+01   -0.11229E-06   -0.27426E-12   128   0.165E-05    0.777E-06
Total vdW correction in eV:      1.2619701
DAV:  16    -0.775323173507E+01   -0.22187E-07    0.36070E-12    64   0.577E-06
Total vdW correction in eV:      1.2619700
Total vdW correction in eV:      1.2619701
   1 F= -.77532317E+01 E0= -.77529023E+01  d E =-.775323E+01
 curvature:   0.00 expect dE= 0.000E+00 dE for cont linesearch  0.000E+00
 trial: gam= 0.00000 g(F)=  0.206E-49 g(S)=  0.000E+00 ort = 0.000E+00 (trialstep = 0.100E+01)
 search vector abs. value=  0.100E-09
 reached required accuracy - stopping structural energy minimisation
