LAMMPS data file via write_data, version 13 Jan 2016, timestep = 8

1 atoms
1 atom types

-3.9139451445019853e-03 2.8598684956445020e+00 xlo xhi
-3.3895734186144568e-03 2.4767187713186147e+00 ylo yhi
-3.1957247370042177e-03 2.3350728467370039e+00 zlo zhi
-1.4318912171422995e+00 -1.4318912181758787e+00 8.2670278343746662e-01 xy xz yz

Masses

1 26.982

Atoms # charge

1 1 0.0000000000000000e+00 -3.9139451445019775e-03 -3.3895734186144542e-03 -3.1957247370042177e-03 0 0 0

Velocities

1 0.0000000000000000e+00 0.0000000000000000e+00 0.0000000000000000e+00
