datafile (written by JARVIS-FF) 

1 	 atoms 
1  atom types
0.0 2.8559545505  xlo xhi
0.0 2.4733291979  ylo yhi
0.0 2.3318771220  zlo zhi
-1.4279772749 -1.4279772707 0.8244430648  xy xz yz


Atoms 

     1   1 0.000000 0E-10 0E-10 0E-10
