LAMMPS (13 Jan 2016)
Reading data file ...
  triclinic box = (0 0 0) to (2.85595 2.47333 2.33188) with tilt (-1.42798 -1.42798 0.824443)
  1 by 1 by 1 MPI processor grid
  reading atoms ...
  1 atoms
Neighbor list info ...
  1 neighbor list requests
  update every 1 steps, delay 0 steps, check yes
  max neighbors/atom: 2000, page size: 100000
  master list distance cutoff = 7.72488
  ghost atom cutoff = 7.72488
Setting up cg style minimization ...
  Unit style: metal
Memory usage per processor = 3.36448 Mbytes
Step Temp Press CPU Pxx Pyy Pzz Pxy Pxz Pyz KinEng PotEng TotEng Volume Lx Ly Lz Atoms 
       0            0    6601.9253            0    6601.9253     6601.924    6601.9264 -7.7463221e-05 -0.00058577259 0.0001886835            0   -3.3597222   -3.3597222    16.471717    2.8559546    2.4733292    2.3318771        1 
       1            0    4164.5979 3.6001205e-05     4164.598    4164.5968     4164.599 -0.00011009092 -0.00053625677 0.00014287512            0   -3.3598883   -3.3598883    16.521182    2.8588105    2.4758025     2.334209        1 
       2            0    1760.3432 7.9154968e-05    1760.3433    1760.3423    1760.3441 -0.00015529006 -0.00047156339 8.163806e-05            0   -3.3599799   -3.3599799    16.570745    2.8616665    2.4782759    2.3365409        1 
       3            0   -2.1770946 0.00014901161   -2.1770491   -2.1777613   -2.1764735 -0.00022154085 -0.00038476153 -3.8453542e-06            0        -3.36        -3.36    16.607577    2.8637851    2.4801106    2.3382707        1 
       4            0 -0.00021159846 0.00021100044 -0.00017794874 -0.00070051306 0.00024366644 -0.00027125934 -0.0003256174 -6.509835e-05            0        -3.36        -3.36    16.607531    2.8637824    2.4801083    2.3382686        1 
       5            0 0.00027358748 0.00027298927 0.0002871663 8.358419e-05 0.00045001194 -0.00035492476 -0.00022622794 -0.00016808838            0        -3.36        -3.36    16.607531    2.8637824    2.4801083    2.3382686        1 
       6            0 -5.575175e-05 0.00033521652 -4.6424961e-05 -0.00018477444 6.3944153e-05 -0.0003720434 -0.00020602912 -0.00018907821            0        -3.36        -3.36    16.607531    2.8637824    2.4801083    2.3382686        1 
       7            0 3.222955e-10 0.00040912628 2.5210016e-07 -1.1169225e-07 -1.3944102e-07 -0.00040825907 -0.00016337177 -0.00023343836            0        -3.36        -3.36    16.607531    2.8637824    2.4801083    2.3382686        1 
Loop time of 0.000422001 on 1 procs for 7 steps with 1 atoms

0.0% CPU use with 1 MPI tasks x no OpenMP threads

Minimization stats:
  Stopping criterion = force tolerance
  Energy initial, next-to-last, final = 
         -3.3597222026     -3.36000002291     -3.36000002291
  Force two-norm initial, final = 0.11756 3.19409e-12
  Force max component initial, final = 0.0678733 2.60603e-12
  Final line search alpha, max atom move = 1 2.60603e-12
  Iterations, force evaluations = 7 12

MPI task timing breakdown:
Section |  min time  |  avg time  |  max time  |%varavg| %total
---------------------------------------------------------------
Pair    | 0.00012302 | 0.00012302 | 0.00012302 |   0.0 | 29.15
Neigh   | 0          | 0          | 0          |   0.0 |  0.00
Comm    | 4.3154e-05 | 4.3154e-05 | 4.3154e-05 |   0.0 | 10.23
Output  | 0.00010395 | 0.00010395 | 0.00010395 |   0.0 | 24.63
Modify  | 0          | 0          | 0          |   0.0 |  0.00
Other   |            | 0.0001519  |            |       | 35.99

Nlocal:    1 ave 1 max 1 min
Histogram: 1 0 0 0 0 0 0 0 0 0
Nghost:    511 ave 511 max 511 min
Histogram: 1 0 0 0 0 0 0 0 0 0
Neighs:    67 ave 67 max 67 min
Histogram: 1 0 0 0 0 0 0 0 0 0

Total # of neighbors = 67
Ave neighs/atom = 67
Neighbor list builds = 0
Dangerous builds = 0
Setting up cg style minimization ...
  Unit style: metal
Memory usage per processor = 3.36448 Mbytes
Step Temp Press CPU Pxx Pyy Pzz Pxy Pxz Pyz KinEng PotEng TotEng Volume Lx Ly Lz Atoms 
       7            0 4.1439587e-10            0 2.5214174e-07 -1.113993e-07 -1.3949926e-07 -0.00040825903 -0.00016337178 -0.0002334384            0        -3.36        -3.36    16.607531    2.8637824    2.4801083    2.3382686        1 
       8            0 3.222955e-10 4.5061111e-05 2.5210016e-07 -1.1169225e-07 -1.3944102e-07 -0.00040825907 -0.00016337177 -0.00023343836            0        -3.36        -3.36    16.607531    2.8637824    2.4801083    2.3382686        1 
Loop time of 5.91278e-05 on 1 procs for 1 steps with 1 atoms

0.0% CPU use with 1 MPI tasks x no OpenMP threads

Minimization stats:
  Stopping criterion = quadratic factors are zero
  Energy initial, next-to-last, final = 
        -3.36000002291     -3.36000002291     -3.36000002291
  Force two-norm initial, final = 4.70619e-17 3.18453e-17
  Force max component initial, final = 4.16334e-17 2.77556e-17
  Final line search alpha, max atom move = 1 2.77556e-17
  Iterations, force evaluations = 1 2

MPI task timing breakdown:
Section |  min time  |  avg time  |  max time  |%varavg| %total
---------------------------------------------------------------
Pair    | 2.718e-05  | 2.718e-05  | 2.718e-05  |   0.0 | 45.97
Neigh   | 0          | 0          | 0          |   0.0 |  0.00
Comm    | 7.6294e-06 | 7.6294e-06 | 7.6294e-06 |   0.0 | 12.90
Output  | 0          | 0          | 0          |   0.0 |  0.00
Modify  | 0          | 0          | 0          |   0.0 |  0.00
Other   |            | 2.432e-05  |            |       | 41.13

Nlocal:    1 ave 1 max 1 min
Histogram: 1 0 0 0 0 0 0 0 0 0
Nghost:    511 ave 511 max 511 min
Histogram: 1 0 0 0 0 0 0 0 0 0
Neighs:    67 ave 67 max 67 min
Histogram: 1 0 0 0 0 0 0 0 0 0

Total # of neighbors = 67
Ave neighs/atom = 67
Neighbor list builds = 0
Dangerous builds = 0
System init for write_restart ...
System init for write_data ...
Reading restart file ...
  restart file = 13 Jan 2016, LAMMPS = 13 Jan 2016
  triclinic box = (-0.00391395 -0.00338957 -0.00319572) to (2.85987 2.47672 2.33507) with tilt (-1.43189 -1.43189 0.826703)
  1 by 1 by 1 MPI processor grid
  1 atoms
Changing box ...
WARNING: Triclinic box skew is large (../domain.cpp:185)
  triclinic box = (-0.00391395 -0.00338957 -0.00319572) to (2.85987 2.47672 2.33507) with tilt (-1.43189 -1.43189 0.826703)
Neighbor list info ...
  1 neighbor list requests
  update every 1 steps, delay 0 steps, check yes
  max neighbors/atom: 2000, page size: 100000
  master list distance cutoff = 7.72488
  ghost atom cutoff = 7.72488
Setting up cg style minimization ...
  Unit style: metal
Memory usage per processor = 3.36448 Mbytes
Step Temp Press CPU Pxx Pyy Pzz Pxy Pxz Pyz KinEng PotEng TotEng Volume Lx Ly Lz Atoms 
       8            0   0.79016964            0    1.2012663   0.59013885   0.57910372   0.18237958   0.12908715  0.015372557            0        -3.36        -3.36    16.607514    2.8637796    2.4801083    2.3382686        1 
       9            0   0.79016964 4.5776367e-05    1.2012663   0.59013885   0.57910372   0.18237958   0.12908715  0.015372557            0        -3.36        -3.36    16.607514    2.8637796    2.4801083    2.3382686        1 
Loop time of 5.98431e-05 on 1 procs for 1 steps with 1 atoms

0.0% CPU use with 1 MPI tasks x no OpenMP threads

Minimization stats:
  Stopping criterion = quadratic factors are zero
  Energy initial, next-to-last, final = 
         -3.3600000229      -3.3600000229      -3.3600000229
  Force two-norm initial, final = 7.35214e-17 3.19867e-17
  Force max component initial, final = 6.93889e-17 3.1225e-17
  Final line search alpha, max atom move = 1 3.1225e-17
  Iterations, force evaluations = 1 2

MPI task timing breakdown:
Section |  min time  |  avg time  |  max time  |%varavg| %total
---------------------------------------------------------------
Pair    | 2.8133e-05 | 2.8133e-05 | 2.8133e-05 |   0.0 | 47.01
Neigh   | 0          | 0          | 0          |   0.0 |  0.00
Comm    | 1.1921e-05 | 1.1921e-05 | 1.1921e-05 |   0.0 | 19.92
Output  | 0          | 0          | 0          |   0.0 |  0.00
Modify  | 0          | 0          | 0          |   0.0 |  0.00
Other   |            | 1.979e-05  |            |       | 33.07

Nlocal:    1 ave 1 max 1 min
Histogram: 1 0 0 0 0 0 0 0 0 0
Nghost:    511 ave 511 max 511 min
Histogram: 1 0 0 0 0 0 0 0 0 0
Neighs:    67 ave 67 max 67 min
Histogram: 1 0 0 0 0 0 0 0 0 0

Total # of neighbors = 67
Ave neighs/atom = 67
Neighbor list builds = 0
Dangerous builds = 0
Reading restart file ...
  restart file = 13 Jan 2016, LAMMPS = 13 Jan 2016
  triclinic box = (-0.00391395 -0.00338957 -0.00319572) to (2.85987 2.47672 2.33507) with tilt (-1.43189 -1.43189 0.826703)
  1 by 1 by 1 MPI processor grid
  1 atoms
Changing box ...
  triclinic box = (-0.00391395 -0.00338957 -0.00319572) to (2.85987 2.47672 2.33507) with tilt (-1.43189 -1.43189 0.826703)
Neighbor list info ...
  1 neighbor list requests
  update every 1 steps, delay 0 steps, check yes
  max neighbors/atom: 2000, page size: 100000
  master list distance cutoff = 7.72488
  ghost atom cutoff = 7.72488
Setting up cg style minimization ...
  Unit style: metal
Memory usage per processor = 3.36448 Mbytes
Step Temp Press CPU Pxx Pyy Pzz Pxy Pxz Pyz KinEng PotEng TotEng Volume Lx Ly Lz Atoms 
       8            0   -0.7901632            0   -1.2012531  -0.59013567  -0.57910084  -0.18319423  -0.12941257 -0.015839086            0        -3.36        -3.36    16.607547    2.8637853    2.4801083    2.3382686        1 
       9            0   -0.7901632 4.4822693e-05   -1.2012531  -0.59013567  -0.57910084  -0.18319423  -0.12941257 -0.015839086            0        -3.36        -3.36    16.607547    2.8637853    2.4801083    2.3382686        1 
Loop time of 5.88894e-05 on 1 procs for 1 steps with 1 atoms

0.0% CPU use with 1 MPI tasks x no OpenMP threads

Minimization stats:
  Stopping criterion = quadratic factors are zero
  Energy initial, next-to-last, final = 
         -3.3600000229      -3.3600000229      -3.3600000229
  Force two-norm initial, final = 2.3079e-17 4.04604e-17
  Force max component initial, final = 1.38778e-17 2.77556e-17
  Final line search alpha, max atom move = 1 2.77556e-17
  Iterations, force evaluations = 1 2

MPI task timing breakdown:
Section |  min time  |  avg time  |  max time  |%varavg| %total
---------------------------------------------------------------
Pair    | 2.7895e-05 | 2.7895e-05 | 2.7895e-05 |   0.0 | 47.37
Neigh   | 0          | 0          | 0          |   0.0 |  0.00
Comm    | 1.1206e-05 | 1.1206e-05 | 1.1206e-05 |   0.0 | 19.03
Output  | 0          | 0          | 0          |   0.0 |  0.00
Modify  | 0          | 0          | 0          |   0.0 |  0.00
Other   |            | 1.979e-05  |            |       | 33.60

Nlocal:    1 ave 1 max 1 min
Histogram: 1 0 0 0 0 0 0 0 0 0
Nghost:    511 ave 511 max 511 min
Histogram: 1 0 0 0 0 0 0 0 0 0
Neighs:    67 ave 67 max 67 min
Histogram: 1 0 0 0 0 0 0 0 0 0

Total # of neighbors = 67
Ave neighs/atom = 67
Neighbor list builds = 0
Dangerous builds = 0
Reading restart file ...
  restart file = 13 Jan 2016, LAMMPS = 13 Jan 2016
  triclinic box = (-0.00391395 -0.00338957 -0.00319572) to (2.85987 2.47672 2.33507) with tilt (-1.43189 -1.43189 0.826703)
  1 by 1 by 1 MPI processor grid
  1 atoms
Changing box ...
  triclinic box = (-0.00391395 -0.00338957 -0.00319572) to (2.85987 2.47672 2.33507) with tilt (-1.43189 -1.43189 0.826703)
Neighbor list info ...
  1 neighbor list requests
  update every 1 steps, delay 0 steps, check yes
  max neighbors/atom: 2000, page size: 100000
  master list distance cutoff = 7.72488
  ghost atom cutoff = 7.72488
Setting up cg style minimization ...
  Unit style: metal
Memory usage per processor = 3.36448 Mbytes
Step Temp Press CPU Pxx Pyy Pzz Pxy Pxz Pyz KinEng PotEng TotEng Volume Lx Ly Lz Atoms 
       8            0   0.79016942            0   0.58462194    1.2067827   0.57910365 -0.00040826261 -0.0001633719  -0.11997063            0        -3.36        -3.36    16.607514    2.8637824    2.4801059    2.3382686        1 
       9            0   0.79016942 4.4822693e-05   0.58462194    1.2067827   0.57910365 -0.00040826256 -0.00016337188  -0.11997063            0        -3.36        -3.36    16.607514    2.8637824    2.4801059    2.3382686        1 
Loop time of 5.88894e-05 on 1 procs for 1 steps with 1 atoms

0.0% CPU use with 1 MPI tasks x no OpenMP threads

Minimization stats:
  Stopping criterion = quadratic factors are zero
  Energy initial, next-to-last, final = 
         -3.3600000229      -3.3600000229      -3.3600000229
  Force two-norm initial, final = 5.06349e-17 2.99585e-17
  Force max component initial, final = 3.46945e-17 2.77556e-17
  Final line search alpha, max atom move = 1 2.77556e-17
  Iterations, force evaluations = 1 2

MPI task timing breakdown:
Section |  min time  |  avg time  |  max time  |%varavg| %total
---------------------------------------------------------------
Pair    | 2.7895e-05 | 2.7895e-05 | 2.7895e-05 |   0.0 | 47.37
Neigh   | 0          | 0          | 0          |   0.0 |  0.00
Comm    | 1.2159e-05 | 1.2159e-05 | 1.2159e-05 |   0.0 | 20.65
Output  | 0          | 0          | 0          |   0.0 |  0.00
Modify  | 0          | 0          | 0          |   0.0 |  0.00
Other   |            | 1.884e-05  |            |       | 31.98

Nlocal:    1 ave 1 max 1 min
Histogram: 1 0 0 0 0 0 0 0 0 0
Nghost:    511 ave 511 max 511 min
Histogram: 1 0 0 0 0 0 0 0 0 0
Neighs:    67 ave 67 max 67 min
Histogram: 1 0 0 0 0 0 0 0 0 0

Total # of neighbors = 67
Ave neighs/atom = 67
Neighbor list builds = 0
Dangerous builds = 0
Reading restart file ...
  restart file = 13 Jan 2016, LAMMPS = 13 Jan 2016
  triclinic box = (-0.00391395 -0.00338957 -0.00319572) to (2.85987 2.47672 2.33507) with tilt (-1.43189 -1.43189 0.826703)
  1 by 1 by 1 MPI processor grid
  1 atoms
Changing box ...
  triclinic box = (-0.00391395 -0.00338957 -0.00319572) to (2.85987 2.47672 2.33507) with tilt (-1.43189 -1.43189 0.826703)
Neighbor list info ...
  1 neighbor list requests
  update every 1 steps, delay 0 steps, check yes
  max neighbors/atom: 2000, page size: 100000
  master list distance cutoff = 7.72488
  ghost atom cutoff = 7.72488
Setting up cg style minimization ...
  Unit style: metal
Memory usage per processor = 3.36448 Mbytes
Step Temp Press CPU Pxx Pyy Pzz Pxy Pxz Pyz KinEng PotEng TotEng Volume Lx Ly Lz Atoms 
       8            0  -0.79016343            0   -0.5846176   -1.2067718  -0.57910091 -0.00040825553 -0.00016337159   0.11950253            0        -3.36        -3.36    16.607547    2.8637824    2.4801108    2.3382686        1 
       9            0  -0.79016343 4.5061111e-05   -0.5846176   -1.2067718  -0.57910091 -0.0004082554 -0.00016337158   0.11950253            0        -3.36        -3.36    16.607547    2.8637824    2.4801108    2.3382686        1 
Loop time of 5.88894e-05 on 1 procs for 1 steps with 1 atoms

0.0% CPU use with 1 MPI tasks x no OpenMP threads

Minimization stats:
  Stopping criterion = quadratic factors are zero
  Energy initial, next-to-last, final = 
         -3.3600000229      -3.3600000229      -3.3600000229
  Force two-norm initial, final = 4.47091e-17 5.38603e-17
  Force max component initial, final = 4.16334e-17 4.16334e-17
  Final line search alpha, max atom move = 1 4.16334e-17
  Iterations, force evaluations = 1 2

MPI task timing breakdown:
Section |  min time  |  avg time  |  max time  |%varavg| %total
---------------------------------------------------------------
Pair    | 2.6941e-05 | 2.6941e-05 | 2.6941e-05 |   0.0 | 45.75
Neigh   | 0          | 0          | 0          |   0.0 |  0.00
Comm    | 1.0967e-05 | 1.0967e-05 | 1.0967e-05 |   0.0 | 18.62
Output  | 0          | 0          | 0          |   0.0 |  0.00
Modify  | 0          | 0          | 0          |   0.0 |  0.00
Other   |            | 2.098e-05  |            |       | 35.63

Nlocal:    1 ave 1 max 1 min
Histogram: 1 0 0 0 0 0 0 0 0 0
Nghost:    511 ave 511 max 511 min
Histogram: 1 0 0 0 0 0 0 0 0 0
Neighs:    67 ave 67 max 67 min
Histogram: 1 0 0 0 0 0 0 0 0 0

Total # of neighbors = 67
Ave neighs/atom = 67
Neighbor list builds = 0
Dangerous builds = 0
Reading restart file ...
  restart file = 13 Jan 2016, LAMMPS = 13 Jan 2016
  triclinic box = (-0.00391395 -0.00338957 -0.00319572) to (2.85987 2.47672 2.33507) with tilt (-1.43189 -1.43189 0.826703)
  1 by 1 by 1 MPI processor grid
  1 atoms
Changing box ...
  triclinic box = (-0.00391395 -0.00338957 -0.00319572) to (2.85987 2.47672 2.33507) with tilt (-1.43189 -1.43189 0.826703)
Neighbor list info ...
  1 neighbor list requests
  update every 1 steps, delay 0 steps, check yes
  max neighbors/atom: 2000, page size: 100000
  master list distance cutoff = 7.72488
  ghost atom cutoff = 7.72488
Setting up cg style minimization ...
  Unit style: metal
Memory usage per processor = 3.36448 Mbytes
Step Temp Press CPU Pxx Pyy Pzz Pxy Pxz Pyz KinEng PotEng TotEng Volume Lx Ly Lz Atoms 
       8            0   0.79016934            0   0.57910423   0.57910387    1.2122999 -0.00040826037 -0.00016337357 -0.00023344017            0        -3.36        -3.36    16.607514    2.8637824    2.4801083    2.3382662        1 
       9            0   0.79016934 4.4822693e-05   0.57910423   0.57910387    1.2122999 -0.0004082604 -0.00016337358 -0.00023344026            0        -3.36        -3.36    16.607514    2.8637824    2.4801083    2.3382662        1 
Loop time of 5.88894e-05 on 1 procs for 1 steps with 1 atoms

0.0% CPU use with 1 MPI tasks x no OpenMP threads

Minimization stats:
  Stopping criterion = quadratic factors are zero
  Energy initial, next-to-last, final = 
         -3.3600000229      -3.3600000229      -3.3600000229
  Force two-norm initial, final = 1.55158e-17 4.46418e-17
  Force max component initial, final = 1.38778e-17 3.20924e-17
  Final line search alpha, max atom move = 1 3.20924e-17
  Iterations, force evaluations = 1 2

MPI task timing breakdown:
Section |  min time  |  avg time  |  max time  |%varavg| %total
---------------------------------------------------------------
Pair    | 2.6941e-05 | 2.6941e-05 | 2.6941e-05 |   0.0 | 45.75
Neigh   | 0          | 0          | 0          |   0.0 |  0.00
Comm    | 1.1921e-05 | 1.1921e-05 | 1.1921e-05 |   0.0 | 20.24
Output  | 0          | 0          | 0          |   0.0 |  0.00
Modify  | 0          | 0          | 0          |   0.0 |  0.00
Other   |            | 2.003e-05  |            |       | 34.01

Nlocal:    1 ave 1 max 1 min
Histogram: 1 0 0 0 0 0 0 0 0 0
Nghost:    511 ave 511 max 511 min
Histogram: 1 0 0 0 0 0 0 0 0 0
Neighs:    67 ave 67 max 67 min
Histogram: 1 0 0 0 0 0 0 0 0 0

Total # of neighbors = 67
Ave neighs/atom = 67
Neighbor list builds = 0
Dangerous builds = 0
Reading restart file ...
  restart file = 13 Jan 2016, LAMMPS = 13 Jan 2016
  triclinic box = (-0.00391395 -0.00338957 -0.00319572) to (2.85987 2.47672 2.33507) with tilt (-1.43189 -1.43189 0.826703)
  1 by 1 by 1 MPI processor grid
  1 atoms
Changing box ...
  triclinic box = (-0.00391395 -0.00338957 -0.00319572) to (2.85987 2.47672 2.33508) with tilt (-1.43189 -1.43189 0.826703)
Neighbor list info ...
  1 neighbor list requests
  update every 1 steps, delay 0 steps, check yes
  max neighbors/atom: 2000, page size: 100000
  master list distance cutoff = 7.72488
  ghost atom cutoff = 7.72488
Setting up cg style minimization ...
  Unit style: metal
Memory usage per processor = 3.36448 Mbytes
Step Temp Press CPU Pxx Pyy Pzz Pxy Pxz Pyz KinEng PotEng TotEng Volume Lx Ly Lz Atoms 
       8            0   -0.7901635            0  -0.57910032  -0.57910069   -1.2122895 -0.00040825777  -0.00016337 -0.00023343664            0        -3.36        -3.36    16.607547    2.8637824    2.4801083    2.3382709        1 
       9            0   -0.7901635 4.6014786e-05  -0.57910032  -0.57910069   -1.2122895 -0.0004082578 -0.00016337001 -0.00023343664            0        -3.36        -3.36    16.607547    2.8637824    2.4801083    2.3382709        1 
Loop time of 5.91278e-05 on 1 procs for 1 steps with 1 atoms

0.0% CPU use with 1 MPI tasks x no OpenMP threads

Minimization stats:
  Stopping criterion = quadratic factors are zero
  Energy initial, next-to-last, final = 
         -3.3600000229      -3.3600000229      -3.3600000229
  Force two-norm initial, final = 2.12636e-17 7.25272e-17
  Force max component initial, final = 2.08167e-17 6.93889e-17
  Final line search alpha, max atom move = 1 6.93889e-17
  Iterations, force evaluations = 1 2

MPI task timing breakdown:
Section |  min time  |  avg time  |  max time  |%varavg| %total
---------------------------------------------------------------
Pair    | 2.8133e-05 | 2.8133e-05 | 2.8133e-05 |   0.0 | 47.58
Neigh   | 0          | 0          | 0          |   0.0 |  0.00
Comm    | 7.6294e-06 | 7.6294e-06 | 7.6294e-06 |   0.0 | 12.90
Output  | 0          | 0          | 0          |   0.0 |  0.00
Modify  | 0          | 0          | 0          |   0.0 |  0.00
Other   |            | 2.337e-05  |            |       | 39.52

Nlocal:    1 ave 1 max 1 min
Histogram: 1 0 0 0 0 0 0 0 0 0
Nghost:    511 ave 511 max 511 min
Histogram: 1 0 0 0 0 0 0 0 0 0
Neighs:    67 ave 67 max 67 min
Histogram: 1 0 0 0 0 0 0 0 0 0

Total # of neighbors = 67
Ave neighs/atom = 67
Neighbor list builds = 0
Dangerous builds = 0
Reading restart file ...
  restart file = 13 Jan 2016, LAMMPS = 13 Jan 2016
  triclinic box = (-0.00391395 -0.00338957 -0.00319572) to (2.85987 2.47672 2.33507) with tilt (-1.43189 -1.43189 0.826703)
  1 by 1 by 1 MPI processor grid
  1 atoms
Changing box ...
  triclinic box = (-0.00391395 -0.00338957 -0.00319572) to (2.85987 2.47672 2.33507) with tilt (-1.43189 -1.43189 0.8267)
Neighbor list info ...
  1 neighbor list requests
  update every 1 steps, delay 0 steps, check yes
  max neighbors/atom: 2000, page size: 100000
  master list distance cutoff = 7.72488
  ghost atom cutoff = 7.72488
Setting up cg style minimization ...
  Unit style: metal
Memory usage per processor = 3.36448 Mbytes
Step Temp Press CPU Pxx Pyy Pzz Pxy Pxz Pyz KinEng PotEng TotEng Volume Lx Ly Lz Atoms 
       8            0 5.9545228e-07            0  0.015606305 -0.015605543 1.0248736e-06 -0.00040825908 -0.00016337249   0.29429258            0        -3.36        -3.36    16.607531    2.8637824    2.4801083    2.3382686        1 
       9            0 5.953069e-07 6.9141388e-05  0.015606305 -0.015605544 1.0248522e-06 -0.0004082591 -0.00016337246   0.29429258            0        -3.36        -3.36    16.607531    2.8637824    2.4801083    2.3382686        1 
Loop time of 8.91685e-05 on 1 procs for 1 steps with 1 atoms

0.0% CPU use with 1 MPI tasks x no OpenMP threads

Minimization stats:
  Stopping criterion = quadratic factors are zero
  Energy initial, next-to-last, final = 
         -3.3600000229      -3.3600000229      -3.3600000229
  Force two-norm initial, final = 3.73671e-17 5.72787e-17
  Force max component initial, final = 2.77556e-17 5.55112e-17
  Final line search alpha, max atom move = 1 5.55112e-17
  Iterations, force evaluations = 1 2

MPI task timing breakdown:
Section |  min time  |  avg time  |  max time  |%varavg| %total
---------------------------------------------------------------
Pair    | 4.3631e-05 | 4.3631e-05 | 4.3631e-05 |   0.0 | 48.93
Neigh   | 0          | 0          | 0          |   0.0 |  0.00
Comm    | 1.4305e-05 | 1.4305e-05 | 1.4305e-05 |   0.0 | 16.04
Output  | 0          | 0          | 0          |   0.0 |  0.00
Modify  | 0          | 0          | 0          |   0.0 |  0.00
Other   |            | 3.123e-05  |            |       | 35.03

Nlocal:    1 ave 1 max 1 min
Histogram: 1 0 0 0 0 0 0 0 0 0
Nghost:    511 ave 511 max 511 min
Histogram: 1 0 0 0 0 0 0 0 0 0
Neighs:    67 ave 67 max 67 min
Histogram: 1 0 0 0 0 0 0 0 0 0

Total # of neighbors = 67
Ave neighs/atom = 67
Neighbor list builds = 0
Dangerous builds = 0
Reading restart file ...
  restart file = 13 Jan 2016, LAMMPS = 13 Jan 2016
  triclinic box = (-0.00391395 -0.00338957 -0.00319572) to (2.85987 2.47672 2.33507) with tilt (-1.43189 -1.43189 0.826703)
  1 by 1 by 1 MPI processor grid
  1 atoms
Changing box ...
  triclinic box = (-0.00391395 -0.00338957 -0.00319572) to (2.85987 2.47672 2.33507) with tilt (-1.43189 -1.43189 0.826705)
Neighbor list info ...
  1 neighbor list requests
  update every 1 steps, delay 0 steps, check yes
  max neighbors/atom: 2000, page size: 100000
  master list distance cutoff = 7.72488
  ghost atom cutoff = 7.72488
Setting up cg style minimization ...
  Unit style: metal
Memory usage per processor = 3.36448 Mbytes
Step Temp Press CPU Pxx Pyy Pzz Pxy Pxz Pyz KinEng PotEng TotEng Volume Lx Ly Lz Atoms 
       8            0 5.9728042e-07            0  -0.01560534  0.015606103 1.0283634e-06 -0.00040825898 -0.00016337083  -0.29475991            0        -3.36        -3.36    16.607531    2.8637824    2.4801083    2.3382686        1 
       9            0 5.9715901e-07 4.5061111e-05  -0.01560534  0.015606103 1.0283741e-06 -0.00040825898 -0.00016337081  -0.29475991            0        -3.36        -3.36    16.607531    2.8637824    2.4801083    2.3382686        1 
Loop time of 5.91278e-05 on 1 procs for 1 steps with 1 atoms

0.0% CPU use with 1 MPI tasks x no OpenMP threads

Minimization stats:
  Stopping criterion = quadratic factors are zero
  Energy initial, next-to-last, final = 
         -3.3600000229      -3.3600000229      -3.3600000229
  Force two-norm initial, final = 1.61105e-17 4.18586e-17
  Force max component initial, final = 1.38778e-17 4.16334e-17
  Final line search alpha, max atom move = 1 4.16334e-17
  Iterations, force evaluations = 1 2

MPI task timing breakdown:
Section |  min time  |  avg time  |  max time  |%varavg| %total
---------------------------------------------------------------
Pair    | 2.8133e-05 | 2.8133e-05 | 2.8133e-05 |   0.0 | 47.58
Neigh   | 0          | 0          | 0          |   0.0 |  0.00
Comm    | 1.0014e-05 | 1.0014e-05 | 1.0014e-05 |   0.0 | 16.94
Output  | 0          | 0          | 0          |   0.0 |  0.00
Modify  | 0          | 0          | 0          |   0.0 |  0.00
Other   |            | 2.098e-05  |            |       | 35.48

Nlocal:    1 ave 1 max 1 min
Histogram: 1 0 0 0 0 0 0 0 0 0
Nghost:    511 ave 511 max 511 min
Histogram: 1 0 0 0 0 0 0 0 0 0
Neighs:    67 ave 67 max 67 min
Histogram: 1 0 0 0 0 0 0 0 0 0

Total # of neighbors = 67
Ave neighs/atom = 67
Neighbor list builds = 0
Dangerous builds = 0
Reading restart file ...
  restart file = 13 Jan 2016, LAMMPS = 13 Jan 2016
  triclinic box = (-0.00391395 -0.00338957 -0.00319572) to (2.85987 2.47672 2.33507) with tilt (-1.43189 -1.43189 0.826703)
  1 by 1 by 1 MPI processor grid
  1 atoms
Changing box ...
WARNING: Triclinic box skew is large (../domain.cpp:185)
  triclinic box = (-0.00391395 -0.00338957 -0.00319572) to (2.85987 2.47672 2.33507) with tilt (-1.43189 -1.43189 0.826703)
Neighbor list info ...
  1 neighbor list requests
  update every 1 steps, delay 0 steps, check yes
  max neighbors/atom: 2000, page size: 100000
  master list distance cutoff = 7.72488
  ghost atom cutoff = 7.72488
Setting up cg style minimization ...
  Unit style: metal
Memory usage per processor = 3.36448 Mbytes
Step Temp Press CPU Pxx Pyy Pzz Pxy Pxz Pyz KinEng PotEng TotEng Volume Lx Ly Lz Atoms 
       8            0 5.955005e-07            0 6.4313148e-07 1.1872705e-07 1.024643e-06  0.015197564   0.29436288 -0.00023321339            0        -3.36        -3.36    16.607531    2.8637824    2.4801083    2.3382686        1 
       9            0 5.9538562e-07 4.5061111e-05 6.4307718e-07 1.1840222e-07 1.0246775e-06  0.015197564   0.29436288 -0.00023321338            0        -3.36        -3.36    16.607531    2.8637824    2.4801083    2.3382686        1 
Loop time of 5.91278e-05 on 1 procs for 1 steps with 1 atoms

0.0% CPU use with 1 MPI tasks x no OpenMP threads

Minimization stats:
  Stopping criterion = quadratic factors are zero
  Energy initial, next-to-last, final = 
         -3.3600000229      -3.3600000229      -3.3600000229
  Force two-norm initial, final = 3.10317e-17 3.46945e-17
  Force max component initial, final = 2.77556e-17 2.77556e-17
  Final line search alpha, max atom move = 1 2.77556e-17
  Iterations, force evaluations = 1 2

MPI task timing breakdown:
Section |  min time  |  avg time  |  max time  |%varavg| %total
---------------------------------------------------------------
Pair    | 2.7895e-05 | 2.7895e-05 | 2.7895e-05 |   0.0 | 47.18
Neigh   | 0          | 0          | 0          |   0.0 |  0.00
Comm    | 9.0599e-06 | 9.0599e-06 | 9.0599e-06 |   0.0 | 15.32
Output  | 0          | 0          | 0          |   0.0 |  0.00
Modify  | 0          | 0          | 0          |   0.0 |  0.00
Other   |            | 2.217e-05  |            |       | 37.50

Nlocal:    1 ave 1 max 1 min
Histogram: 1 0 0 0 0 0 0 0 0 0
Nghost:    511 ave 511 max 511 min
Histogram: 1 0 0 0 0 0 0 0 0 0
Neighs:    67 ave 67 max 67 min
Histogram: 1 0 0 0 0 0 0 0 0 0

Total # of neighbors = 67
Ave neighs/atom = 67
Neighbor list builds = 0
Dangerous builds = 0
Reading restart file ...
  restart file = 13 Jan 2016, LAMMPS = 13 Jan 2016
  triclinic box = (-0.00391395 -0.00338957 -0.00319572) to (2.85987 2.47672 2.33507) with tilt (-1.43189 -1.43189 0.826703)
  1 by 1 by 1 MPI processor grid
  1 atoms
Changing box ...
  triclinic box = (-0.00391395 -0.00338957 -0.00319572) to (2.85987 2.47672 2.33507) with tilt (-1.43189 -1.43189 0.826703)
Neighbor list info ...
  1 neighbor list requests
  update every 1 steps, delay 0 steps, check yes
  max neighbors/atom: 2000, page size: 100000
  master list distance cutoff = 7.72488
  ghost atom cutoff = 7.72488
Setting up cg style minimization ...
  Unit style: metal
Memory usage per processor = 3.36448 Mbytes
Step Temp Press CPU Pxx Pyy Pzz Pxy Pxz Pyz KinEng PotEng TotEng Volume Lx Ly Lz Atoms 
       8            0 5.9714713e-07            0 6.4375697e-07 1.1936885e-07 1.0283156e-06 -0.016014082  -0.29468962 -0.00023321178            0        -3.36        -3.36    16.607531    2.8637824    2.4801083    2.3382686        1 
       9            0 5.9692733e-07 4.5061111e-05 6.4359899e-07 1.1894511e-07 1.0282379e-06 -0.016014082  -0.29468962 -0.00023321176            0        -3.36        -3.36    16.607531    2.8637824    2.4801083    2.3382686        1 
Loop time of 5.79357e-05 on 1 procs for 1 steps with 1 atoms

0.0% CPU use with 1 MPI tasks x no OpenMP threads

Minimization stats:
  Stopping criterion = quadratic factors are zero
  Energy initial, next-to-last, final = 
         -3.3600000229      -3.3600000229      -3.3600000229
  Force two-norm initial, final = 2.94392e-17 4.56334e-17
  Force max component initial, final = 2.77556e-17 4.51028e-17
  Final line search alpha, max atom move = 1 4.51028e-17
  Iterations, force evaluations = 1 2

MPI task timing breakdown:
Section |  min time  |  avg time  |  max time  |%varavg| %total
---------------------------------------------------------------
Pair    | 2.9087e-05 | 2.9087e-05 | 2.9087e-05 |   0.0 | 50.21
Neigh   | 0          | 0          | 0          |   0.0 |  0.00
Comm    | 1.0014e-05 | 1.0014e-05 | 1.0014e-05 |   0.0 | 17.28
Output  | 0          | 0          | 0          |   0.0 |  0.00
Modify  | 0          | 0          | 0          |   0.0 |  0.00
Other   |            | 1.884e-05  |            |       | 32.51

Nlocal:    1 ave 1 max 1 min
Histogram: 1 0 0 0 0 0 0 0 0 0
Nghost:    511 ave 511 max 511 min
Histogram: 1 0 0 0 0 0 0 0 0 0
Neighs:    67 ave 67 max 67 min
Histogram: 1 0 0 0 0 0 0 0 0 0

Total # of neighbors = 67
Ave neighs/atom = 67
Neighbor list builds = 0
Dangerous builds = 0
Reading restart file ...
  restart file = 13 Jan 2016, LAMMPS = 13 Jan 2016
  triclinic box = (-0.00391395 -0.00338957 -0.00319572) to (2.85987 2.47672 2.33507) with tilt (-1.43189 -1.43189 0.826703)
  1 by 1 by 1 MPI processor grid
  1 atoms
Changing box ...
WARNING: Triclinic box skew is large (../domain.cpp:185)
  triclinic box = (-0.00391395 -0.00338957 -0.00319572) to (2.85987 2.47672 2.33507) with tilt (-1.43189 -1.43189 0.826703)
Neighbor list info ...
  1 neighbor list requests
  update every 1 steps, delay 0 steps, check yes
  max neighbors/atom: 2000, page size: 100000
  master list distance cutoff = 7.72488
  ghost atom cutoff = 7.72488
Setting up cg style minimization ...
  Unit style: metal
Memory usage per processor = 3.36448 Mbytes
Step Temp Press CPU Pxx Pyy Pzz Pxy Pxz Pyz KinEng PotEng TotEng Volume Lx Ly Lz Atoms 
       8            0 6.6944494e-07            0 6.916245e-07 1.2398969e-06 7.681338e-08   0.29963548 -0.088688303 -0.00023357156            0        -3.36        -3.36    16.607531    2.8637824    2.4801083    2.3382686        1 
       9            0 6.6944458e-07 4.5061111e-05 6.9155974e-07 1.2397981e-06 7.6975881e-08   0.29963548 -0.088688303 -0.0002335717            0        -3.36        -3.36    16.607531    2.8637824    2.4801083    2.3382686        1 
Loop time of 5.79357e-05 on 1 procs for 1 steps with 1 atoms

0.0% CPU use with 1 MPI tasks x no OpenMP threads

Minimization stats:
  Stopping criterion = quadratic factors are zero
  Energy initial, next-to-last, final = 
         -3.3600000229      -3.3600000229      -3.3600000229
  Force two-norm initial, final = 2.94903e-17 1.86835e-17
  Force max component initial, final = 2.08167e-17 1.73472e-17
  Final line search alpha, max atom move = 1 1.73472e-17
  Iterations, force evaluations = 1 2

MPI task timing breakdown:
Section |  min time  |  avg time  |  max time  |%varavg| %total
---------------------------------------------------------------
Pair    | 2.8133e-05 | 2.8133e-05 | 2.8133e-05 |   0.0 | 48.56
Neigh   | 0          | 0          | 0          |   0.0 |  0.00
Comm    | 8.8215e-06 | 8.8215e-06 | 8.8215e-06 |   0.0 | 15.23
Output  | 0          | 0          | 0          |   0.0 |  0.00
Modify  | 0          | 0          | 0          |   0.0 |  0.00
Other   |            | 2.098e-05  |            |       | 36.21

Nlocal:    1 ave 1 max 1 min
Histogram: 1 0 0 0 0 0 0 0 0 0
Nghost:    511 ave 511 max 511 min
Histogram: 1 0 0 0 0 0 0 0 0 0
Neighs:    67 ave 67 max 67 min
Histogram: 1 0 0 0 0 0 0 0 0 0

Total # of neighbors = 67
Ave neighs/atom = 67
Neighbor list builds = 0
Dangerous builds = 0
Reading restart file ...
  restart file = 13 Jan 2016, LAMMPS = 13 Jan 2016
  triclinic box = (-0.00391395 -0.00338957 -0.00319572) to (2.85987 2.47672 2.33507) with tilt (-1.43189 -1.43189 0.826703)
  1 by 1 by 1 MPI processor grid
  1 atoms
Changing box ...
  triclinic box = (-0.00391395 -0.00338957 -0.00319572) to (2.85987 2.47672 2.33507) with tilt (-1.43189 -1.43189 0.826703)
Neighbor list info ...
  1 neighbor list requests
  update every 1 steps, delay 0 steps, check yes
  max neighbors/atom: 2000, page size: 100000
  master list distance cutoff = 7.72488
  ghost atom cutoff = 7.72488
Setting up cg style minimization ...
  Unit style: metal
Memory usage per processor = 3.36448 Mbytes
Step Temp Press CPU Pxx Pyy Pzz Pxy Pxz Pyz KinEng PotEng TotEng Volume Lx Ly Lz Atoms 
       8            0 6.7245137e-07            0 6.9321771e-07 1.2467756e-06 7.7360794e-08    -0.300452  0.088361559 -0.0002335717            0        -3.36        -3.36    16.607531    2.8637824    2.4801083    2.3382686        1 
       9            0 6.725725e-07 4.5061111e-05 6.9328365e-07 1.2468903e-06 7.7543545e-08    -0.300452  0.088361559 -0.00023357181            0        -3.36        -3.36    16.607531    2.8637824    2.4801083    2.3382686        1 
Loop time of 5.88894e-05 on 1 procs for 1 steps with 1 atoms

0.0% CPU use with 1 MPI tasks x no OpenMP threads

Minimization stats:
  Stopping criterion = quadratic factors are zero
  Energy initial, next-to-last, final = 
         -3.3600000229      -3.3600000229      -3.3600000229
  Force two-norm initial, final = 8.18267e-18 4.98035e-17
  Force max component initial, final = 6.93889e-18 4.0766e-17
  Final line search alpha, max atom move = 1 4.0766e-17
  Iterations, force evaluations = 1 2

MPI task timing breakdown:
Section |  min time  |  avg time  |  max time  |%varavg| %total
---------------------------------------------------------------
Pair    | 2.8133e-05 | 2.8133e-05 | 2.8133e-05 |   0.0 | 47.77
Neigh   | 0          | 0          | 0          |   0.0 |  0.00
Comm    | 1.0014e-05 | 1.0014e-05 | 1.0014e-05 |   0.0 | 17.00
Output  | 0          | 0          | 0          |   0.0 |  0.00
Modify  | 0          | 0          | 0          |   0.0 |  0.00
Other   |            | 2.074e-05  |            |       | 35.22

Nlocal:    1 ave 1 max 1 min
Histogram: 1 0 0 0 0 0 0 0 0 0
Nghost:    511 ave 511 max 511 min
Histogram: 1 0 0 0 0 0 0 0 0 0
Neighs:    67 ave 67 max 67 min
Histogram: 1 0 0 0 0 0 0 0 0 0

Total # of neighbors = 67
Ave neighs/atom = 67
Neighbor list builds = 0
Dangerous builds = 0
Elastic Constant C11all = 120.125972387542 GPa
Elastic Constant C22all = 120.677721596963 GPa
Elastic Constant C33all = 121.229470768067 GPa
Elastic Constant C12all = 58.7378514899265 GPa
Elastic Constant C13all = 57.9102277674149 GPa
Elastic Constant C23all = 57.9102279299186 GPa
Elastic Constant C44all = 29.4526248578795 GPa
Elastic Constant C55all = 29.4526247959586 GPa
Elastic Constant C66all = 30.004373980637 GPa
Elastic Constant C14all = 1.56058220363953 GPa
Elastic Constant C15all = 6.46249309786852 GPa
Elastic Constant C16all = 9.13934533185546 GPa
Elastic Constant C24all = -6.76712006105525 GPa
Elastic Constant C25all = -2.09502320085688e-08 GPa
Elastic Constant C26all = -3.56465629782861e-07 GPa
Elastic Constant C34all = -1.78590589995678e-07 GPa
Elastic Constant C35all = -1.78367391623764e-07 GPa
Elastic Constant C36all = -7.92022486959678e-08 GPa
Elastic Constant C45all = -8.16686482750029e-08 GPa
Elastic Constant C46all = -5.22980747127298e-11 GPa
Elastic Constant C56all = -3.64595542955154 GPa
Total wall time: 0:00:00
