 running on   16 total cores
 distrk:  each k-point on   16 cores,    1 groups
 distr:  one band on    4 cores,    4 groups
 using from now: INCAR     
 vasp.5.3.3 18Dez12 (build Jan 30 2013 10:57:47) complex                        
  
 POSCAR found type information on POSCAR  Si
 POSCAR found :  1 types and       2 ions

 ----------------------------------------------------------------------------- 
|                                                                             |
|  ADVICE TO THIS USER RUNNING 'VASP/VAMP'   (HEAR YOUR MASTER'S VOICE ...):  |
|                                                                             |
|      You have switched on vdW-DFT.                                          |
|      This routine was written and supplied by Jiri Klimes.                  |
|      We recommed that you carefully read and cite the following             |
|      publication                                                            |
|      J. Klimes, D.R. Bowler, A. Michelides                                  |
|        J. Phys.: Cond Matt. 22 022201 (2010)                                |
|      J. Klimes, D.R. Bowler, A. Michelides                                  |
|        Phys. Rev. B. 83, 195131 (2011)                                      |
|      and references therein.                                                |
|                                                                             |
 ----------------------------------------------------------------------------- 


 ----------------------------------------------------------------------------- 
|                                                                             |
|  ADVICE TO THIS USER RUNNING 'VASP/VAMP'   (HEAR YOUR MASTER'S VOICE ...):  |
|                                                                             |
|      You enforced a specific xc-type in the INCAR file,                     |
|      a different type was found on the POTCAR file                          |
|          I HOPE YOU KNOW, WHAT YOU ARE  DOING                               |
|                                                                             |
 ----------------------------------------------------------------------------- 

 LDA part: xc-table for Pade appr. of Perdew
 POSCAR, INCAR and KPOINTS ok, starting setup
 FFT: planning ...
 WAVECAR not read
 entering main loop
       N       E                     dE             d eps       ncg     rms          rms(c)
Total vdW correction in eV:      1.0792472
DAV:   1     0.917916459104E+01    0.91792E+01   -0.33512E+03   752   0.841E+02
DAV:   2    -0.818154401166E+01   -0.17361E+02   -0.16699E+02  1160   0.804E+01
DAV:   3    -0.841305343268E+01   -0.23151E+00   -0.23151E+00   976   0.121E+01
DAV:   4    -0.841426605244E+01   -0.12126E-02   -0.12126E-02  1224   0.941E-01
DAV:   5    -0.841426742235E+01   -0.13699E-05   -0.13698E-05   992   0.266E-02    0.374E+00
Total vdW correction in eV:      1.1274392
DAV:   6    -0.836090572665E+01    0.53362E-01   -0.88897E-02   912   0.176E+00    0.229E+00
Total vdW correction in eV:      1.2190953
DAV:   7    -0.835554575112E+01    0.53600E-02   -0.20269E-01   976   0.263E+00    0.186E-01
Total vdW correction in eV:      1.2142251
DAV:   8    -0.833875642352E+01    0.16789E-01   -0.61705E-03   904   0.544E-01    0.988E-02
Total vdW correction in eV:      1.2196538
DAV:   9    -0.834040475309E+01   -0.16483E-02   -0.58111E-04  1032   0.161E-01    0.730E-02
Total vdW correction in eV:      1.2198178
DAV:  10    -0.833973581226E+01    0.66894E-03   -0.37888E-05   920   0.536E-02    0.306E-02
Total vdW correction in eV:      1.2198255
DAV:  11    -0.833971002375E+01    0.25789E-04   -0.88729E-07  1136   0.870E-03    0.313E-03
Total vdW correction in eV:      1.2198540
DAV:  12    -0.833970848109E+01    0.15427E-05   -0.73014E-08   896   0.262E-03    0.105E-03
Total vdW correction in eV:      1.2198567
DAV:  13    -0.833970639669E+01    0.20844E-05   -0.18153E-09   632   0.410E-04    0.487E-05
Total vdW correction in eV:      1.2198577
DAV:  14    -0.833970605741E+01    0.33929E-06   -0.19756E-10   496   0.148E-04    0.108E-05
Total vdW correction in eV:      1.2198574
DAV:  15    -0.833970575754E+01    0.29987E-06   -0.19903E-11   496   0.399E-05    0.776E-06
Total vdW correction in eV:      1.2198575
DAV:  16    -0.833970581152E+01   -0.53982E-07   -0.44585E-12   432   0.174E-05
Total vdW correction in eV:      1.2198574
Total vdW correction in eV:      1.2198574
   1 F= -.83397058E+01 E0= -.83396783E+01  d E =-.833971E+01
 curvature:   0.00 expect dE= 0.000E+00 dE for cont linesearch  0.000E+00
 trial: gam= 0.00000 g(F)=  0.962E-44 g(S)=  0.000E+00 ort = 0.000E+00 (trialstep = 0.100E+01)
 search vector abs. value=  0.100E-09
 reached required accuracy - stopping structural energy minimisation
