       N       E                     dE             d eps       ncg     rms          rms(c)
DAV:   1     0.124204587758E+02    0.12420E+02   -0.34651E+03    64   0.953E+02
DAV:   2    -0.763523644199E+01   -0.20056E+02   -0.19681E+02   112   0.862E+01
DAV:   3    -0.787364329901E+01   -0.23841E+00   -0.23841E+00    64   0.123E+01
DAV:   4    -0.787528896050E+01   -0.16457E-02   -0.16457E-02   120   0.127E+00
DAV:   5    -0.787528917621E+01   -0.21571E-06   -0.21506E-06    72   0.122E-02    0.400E+00
DAV:   6    -0.778929328833E+01    0.85996E-01   -0.11274E-01    80   0.198E+00    0.247E+00
DAV:   7    -0.776746551223E+01    0.21828E-01   -0.26777E-01    80   0.303E+00    0.214E-01
DAV:   8    -0.774882123893E+01    0.18644E-01   -0.75828E-03    80   0.618E-01    0.108E-01
DAV:   9    -0.775057908041E+01   -0.17578E-02   -0.92744E-04    96   0.205E-01    0.792E-02
DAV:  10    -0.774980009007E+01    0.77899E-03   -0.55758E-05    72   0.598E-02    0.295E-02
DAV:  11    -0.774971275623E+01    0.87334E-04   -0.12454E-06   104   0.988E-03    0.138E-03
DAV:  12    -0.774971992958E+01   -0.71734E-05   -0.80945E-08    64   0.282E-03    0.328E-04
DAV:  13    -0.774972078618E+01   -0.85660E-06   -0.43305E-09    80   0.601E-04    0.105E-04
DAV:  14    -0.774972021641E+01    0.56977E-06   -0.17253E-10    48   0.120E-04    0.131E-05
DAV:  15    -0.774971983058E+01    0.38583E-06   -0.21158E-11    56   0.349E-05    0.704E-06
DAV:  16    -0.774971995778E+01   -0.12721E-06   -0.50383E-12    40   0.120E-05    0.189E-06
DAV:  17    -0.774971995374E+01    0.40482E-08   -0.16237E-12    32   0.579E-06
   1 F= -.77497200E+01 E0= -.77493308E+01  d E =-.774972E+01
