 running on   16 total cores
 distrk:  each k-point on   16 cores,    1 groups
 distr:  one band on    4 cores,    4 groups
 using from now: INCAR     
 vasp.5.3.3 18Dez12 (build Jan 30 2013 10:57:47) complex                        
  
 POSCAR found type information on POSCAR  Si
 POSCAR found :  1 types and       2 ions

 ----------------------------------------------------------------------------- 
|                                                                             |
|  ADVICE TO THIS USER RUNNING 'VASP/VAMP'   (HEAR YOUR MASTER'S VOICE ...):  |
|                                                                             |
|      You have switched on vdW-DFT.                                          |
|      This routine was written and supplied by Jiri Klimes.                  |
|      We recommed that you carefully read and cite the following             |
|      publication                                                            |
|      J. Klimes, D.R. Bowler, A. Michelides                                  |
|        J. Phys.: Cond Matt. 22 022201 (2010)                                |
|      J. Klimes, D.R. Bowler, A. Michelides                                  |
|        Phys. Rev. B. 83, 195131 (2011)                                      |
|      and references therein.                                                |
|                                                                             |
 ----------------------------------------------------------------------------- 


 ----------------------------------------------------------------------------- 
|                                                                             |
|  ADVICE TO THIS USER RUNNING 'VASP/VAMP'   (HEAR YOUR MASTER'S VOICE ...):  |
|                                                                             |
|      You enforced a specific xc-type in the INCAR file,                     |
|      a different type was found on the POTCAR file                          |
|          I HOPE YOU KNOW, WHAT YOU ARE  DOING                               |
|                                                                             |
 ----------------------------------------------------------------------------- 

 LDA part: xc-table for Pade appr. of Perdew
 POSCAR, INCAR and KPOINTS ok, starting setup
 WARNING: small aliasing (wrap around) errors must be expected
 FFT: planning ...
 WAVECAR not read
 entering main loop
       N       E                     dE             d eps       ncg     rms          rms(c)
Total vdW correction in eV:      1.0792472
DAV:   1     0.124204587758E+02    0.12420E+02   -0.34651E+03    64   0.953E+02
DAV:   2    -0.763523644199E+01   -0.20056E+02   -0.19681E+02   112   0.862E+01
DAV:   3    -0.787364329901E+01   -0.23841E+00   -0.23841E+00    64   0.123E+01
DAV:   4    -0.787528896050E+01   -0.16457E-02   -0.16457E-02   120   0.127E+00
DAV:   5    -0.787528917621E+01   -0.21571E-06   -0.21506E-06    72   0.122E-02    0.400E+00
Total vdW correction in eV:      1.1365148
DAV:   6    -0.778929328833E+01    0.85996E-01   -0.11274E-01    80   0.198E+00    0.247E+00
Total vdW correction in eV:      1.2497986
DAV:   7    -0.776746551223E+01    0.21828E-01   -0.26777E-01    80   0.303E+00    0.214E-01
Total vdW correction in eV:      1.2452124
DAV:   8    -0.774882123893E+01    0.18644E-01   -0.75828E-03    80   0.618E-01    0.108E-01
Total vdW correction in eV:      1.2528697
DAV:   9    -0.775057908041E+01   -0.17578E-02   -0.92744E-04    96   0.205E-01    0.792E-02
Total vdW correction in eV:      1.2526131
DAV:  10    -0.774980009007E+01    0.77899E-03   -0.55758E-05    72   0.598E-02    0.295E-02
Total vdW correction in eV:      1.2525660
DAV:  11    -0.774971275623E+01    0.87334E-04   -0.12454E-06   104   0.988E-03    0.138E-03
Total vdW correction in eV:      1.2525998
DAV:  12    -0.774971992958E+01   -0.71734E-05   -0.80945E-08    64   0.282E-03    0.328E-04
Total vdW correction in eV:      1.2525933
DAV:  13    -0.774972078618E+01   -0.85660E-06   -0.43305E-09    80   0.601E-04    0.105E-04
Total vdW correction in eV:      1.2525941
DAV:  14    -0.774972021641E+01    0.56977E-06   -0.17253E-10    48   0.120E-04    0.131E-05
Total vdW correction in eV:      1.2525938
DAV:  15    -0.774971983058E+01    0.38583E-06   -0.21158E-11    56   0.349E-05    0.704E-06
Total vdW correction in eV:      1.2525940
DAV:  16    -0.774971995778E+01   -0.12721E-06   -0.50383E-12    40   0.120E-05    0.189E-06
Total vdW correction in eV:      1.2525939
DAV:  17    -0.774971995374E+01    0.40482E-08   -0.16237E-12    32   0.579E-06
Total vdW correction in eV:      1.2525939
Total vdW correction in eV:      1.2525939
   1 F= -.77497200E+01 E0= -.77493308E+01  d E =-.774972E+01
 curvature:   0.00 expect dE= 0.000E+00 dE for cont linesearch  0.000E+00
 trial: gam= 0.00000 g(F)=  0.139E-43 g(S)=  0.000E+00 ort = 0.000E+00 (trialstep = 0.100E+01)
 search vector abs. value=  0.100E-09
 reached required accuracy - stopping structural energy minimisation
