   2   2   0   0
  0.2072484E+02  0.3884592E-09  0.3884592E-09  0.3884592E-09  0.5000000E-15
   1.0000000000000000E-004
  CAR 
 unknown system                          
     30.17249492     -8.18594840  301      5.85796198      1.00000000
     -8.186  0.0000E+00  0.0000E+00
     -8.058  0.0000E+00  0.0000E+00
     -7.930  0.0000E+00  0.0000E+00
     -7.802  0.0000E+00  0.0000E+00
     -7.675  0.0000E+00  0.0000E+00
     -7.547  0.0000E+00  0.0000E+00
     -7.419  0.0000E+00  0.0000E+00
     -7.291  0.2010E-15  0.2570E-16
     -7.163  0.1763E-12  0.2256E-13
     -7.035  0.6907E-10  0.8854E-11
     -6.907  0.1217E-07  0.1564E-08
     -6.779  0.9678E-06  0.1253E-06
     -6.652  0.3495E-04  0.4594E-05
     -6.524  0.5768E-03  0.7834E-04
     -6.396  0.4395E-02  0.6402E-03
     -6.268  0.1601E-01  0.2687E-02
     -6.140  0.3414E-01  0.7052E-02
     -6.012  0.7901E-01  0.1715E-01
     -5.884  0.2007E+00  0.4282E-01
     -5.757  0.3202E+00  0.8377E-01
     -5.629  0.2788E+00  0.1194E+00
     -5.501  0.1625E+00  0.1402E+00
     -5.373  0.1851E+00  0.1639E+00
     -5.245  0.3164E+00  0.2043E+00
     -5.117  0.4087E+00  0.2566E+00
     -4.989  0.6069E+00  0.3342E+00
     -4.862  0.8062E+00  0.4372E+00
     -4.734  0.5957E+00  0.5134E+00
     -4.606  0.2301E+00  0.5428E+00
     -4.478  0.1162E+00  0.5577E+00
     -4.350  0.2689E+00  0.5921E+00
     -4.222  0.6129E+00  0.6704E+00
     -4.094  0.1006E+01  0.7990E+00
     -3.967  0.1238E+01  0.9573E+00
     -3.839  0.1219E+01  0.1113E+01
     -3.711  0.9185E+00  0.1231E+01
     -3.583  0.4577E+00  0.1289E+01
     -3.455  0.1990E+00  0.1315E+01
     -3.327  0.3681E+00  0.1362E+01
     -3.199  0.8473E+00  0.1470E+01
     -3.071  0.1227E+01  0.1627E+01
     -2.944  0.1105E+01  0.1768E+01
     -2.816  0.5622E+00  0.1840E+01
     -2.688  0.1454E+00  0.1859E+01
     -2.560  0.1975E-01  0.1861E+01
     -2.432  0.2298E-01  0.1864E+01
     -2.304  0.1368E+00  0.1882E+01
     -2.176  0.4387E+00  0.1938E+01
     -2.049  0.7158E+00  0.2029E+01
     -1.921  0.5812E+00  0.2104E+01
     -1.793  0.2293E+00  0.2133E+01
     -1.665  0.4540E-01  0.2139E+01
     -1.537  0.3555E-01  0.2143E+01
     -1.409  0.2061E+00  0.2170E+01
     -1.281  0.6735E+00  0.2256E+01
     -1.154  0.1228E+01  0.2413E+01
     -1.026  0.1541E+01  0.2610E+01
     -0.898  0.1477E+01  0.2799E+01
     -0.770  0.8951E+00  0.2913E+01
     -0.642  0.3268E+00  0.2955E+01
     -0.514  0.2806E+00  0.2991E+01
     -0.386  0.5590E+00  0.3062E+01
     -0.259  0.6964E+00  0.3151E+01
     -0.131  0.6922E+00  0.3240E+01
     -0.003  0.6796E+00  0.3327E+01
      0.125  0.4805E+00  0.3388E+01
      0.253  0.3004E+00  0.3427E+01
      0.381  0.2655E+00  0.3460E+01
      0.509  0.2386E+00  0.3491E+01
      0.636  0.1783E+00  0.3514E+01
      0.764  0.9387E-01  0.3526E+01
      0.892  0.9638E-01  0.3538E+01
      1.020  0.3321E+00  0.3581E+01
      1.148  0.7148E+00  0.3672E+01
      1.276  0.8091E+00  0.3775E+01
      1.404  0.5601E+00  0.3847E+01
      1.532  0.4787E+00  0.3908E+01
      1.659  0.7213E+00  0.4000E+01
      1.787  0.9812E+00  0.4126E+01
      1.915  0.1402E+01  0.4305E+01
      2.043  0.1907E+01  0.4549E+01
      2.171  0.1602E+01  0.4754E+01
      2.299  0.7459E+00  0.4849E+01
      2.427  0.4250E+00  0.4904E+01
      2.554  0.7018E+00  0.4993E+01
      2.682  0.1119E+01  0.5136E+01
      2.810  0.1551E+01  0.5335E+01
      2.938  0.1755E+01  0.5559E+01
      3.066  0.1742E+01  0.5782E+01
      3.194  0.1796E+01  0.6011E+01
      3.322  0.1722E+01  0.6232E+01
      3.449  0.1524E+01  0.6426E+01
      3.577  0.1428E+01  0.6609E+01
      3.705  0.1466E+01  0.6797E+01
      3.833  0.1455E+01  0.6983E+01
      3.961  0.1022E+01  0.7113E+01
      4.089  0.6297E+00  0.7194E+01
      4.217  0.8488E+00  0.7302E+01
      4.344  0.1164E+01  0.7451E+01
      4.472  0.1039E+01  0.7584E+01
      4.600  0.6633E+00  0.7669E+01
      4.728  0.3554E+00  0.7714E+01
      4.856  0.3635E+00  0.7761E+01
      4.984  0.5978E+00  0.7837E+01
      5.112  0.6180E+00  0.7916E+01
      5.240  0.3449E+00  0.7960E+01
      5.367  0.1322E+00  0.7977E+01
      5.495  0.8581E-01  0.7988E+01
      5.623  0.6271E-01  0.7996E+01
      5.751  0.2432E-01  0.7999E+01
      5.879  0.5380E-02  0.8000E+01
      6.007  0.1334E-01  0.8002E+01
      6.135  0.7995E-01  0.8012E+01
      6.262  0.2324E+00  0.8042E+01
      6.390  0.3554E+00  0.8087E+01
      6.518  0.4395E+00  0.8143E+01
      6.646  0.6060E+00  0.8221E+01
      6.774  0.5909E+00  0.8296E+01
      6.902  0.3891E+00  0.8346E+01
      7.030  0.4089E+00  0.8398E+01
      7.157  0.6364E+00  0.8480E+01
      7.285  0.7688E+00  0.8578E+01
      7.413  0.9563E+00  0.8700E+01
      7.541  0.1352E+01  0.8873E+01
      7.669  0.1347E+01  0.9045E+01
      7.797  0.9851E+00  0.9171E+01
      7.925  0.8836E+00  0.9284E+01
      8.052  0.9702E+00  0.9408E+01
      8.180  0.1314E+01  0.9576E+01
      8.308  0.1866E+01  0.9815E+01
      8.436  0.1799E+01  0.1004E+02
      8.564  0.1190E+01  0.1020E+02
      8.692  0.9206E+00  0.1031E+02
      8.820  0.1258E+01  0.1048E+02
      8.947  0.1869E+01  0.1071E+02
      9.075  0.2129E+01  0.1099E+02
      9.203  0.1863E+01  0.1123E+02
      9.331  0.1648E+01  0.1144E+02
      9.459  0.1995E+01  0.1169E+02
      9.587  0.2735E+01  0.1204E+02
      9.715  0.2856E+01  0.1241E+02
      9.843  0.2131E+01  0.1268E+02
      9.970  0.1496E+01  0.1287E+02
     10.098  0.1284E+01  0.1303E+02
     10.226  0.9296E+00  0.1315E+02
     10.354  0.5559E+00  0.1322E+02
     10.482  0.6082E+00  0.1330E+02
     10.610  0.7306E+00  0.1339E+02
     10.738  0.5410E+00  0.1346E+02
     10.865  0.3022E+00  0.1350E+02
     10.993  0.3006E+00  0.1354E+02
     11.121  0.4390E+00  0.1360E+02
     11.249  0.5110E+00  0.1366E+02
     11.377  0.5655E+00  0.1373E+02
     11.505  0.7838E+00  0.1384E+02
     11.633  0.1068E+01  0.1397E+02
     11.760  0.1365E+01  0.1415E+02
     11.888  0.1770E+01  0.1437E+02
     12.016  0.1745E+01  0.1460E+02
     12.144  0.1308E+01  0.1476E+02
     12.272  0.1084E+01  0.1490E+02
     12.400  0.1297E+01  0.1507E+02
     12.528  0.1851E+01  0.1530E+02
     12.655  0.2603E+01  0.1564E+02
     12.783  0.3228E+01  0.1605E+02
     12.911  0.2972E+01  0.1643E+02
     13.039  0.1879E+01  0.1667E+02
     13.167  0.1080E+01  0.1681E+02
     13.295  0.8368E+00  0.1691E+02
     13.423  0.7090E+00  0.1701E+02
     13.551  0.5225E+00  0.1707E+02
     13.678  0.3178E+00  0.1711E+02
     13.806  0.2006E+00  0.1714E+02
     13.934  0.1159E+00  0.1715E+02
     14.062  0.1157E+00  0.1717E+02
     14.190  0.4749E+00  0.1723E+02
     14.318  0.1331E+01  0.1740E+02
     14.446  0.2017E+01  0.1766E+02
     14.573  0.1953E+01  0.1791E+02
     14.701  0.1752E+01  0.1813E+02
     14.829  0.1697E+01  0.1835E+02
     14.957  0.1301E+01  0.1851E+02
     15.085  0.9043E+00  0.1863E+02
     15.213  0.9503E+00  0.1875E+02
     15.341  0.9523E+00  0.1887E+02
     15.468  0.6007E+00  0.1895E+02
     15.596  0.4879E+00  0.1901E+02
     15.724  0.1353E+01  0.1919E+02
     15.852  0.2804E+01  0.1954E+02
     15.980  0.3116E+01  0.1994E+02
     16.108  0.2095E+01  0.2021E+02
     16.236  0.1153E+01  0.2036E+02
     16.363  0.9032E+00  0.2047E+02
     16.491  0.8945E+00  0.2059E+02
     16.619  0.8158E+00  0.2069E+02
     16.747  0.9324E+00  0.2081E+02
     16.875  0.1225E+01  0.2097E+02
     17.003  0.1520E+01  0.2116E+02
     17.131  0.1816E+01  0.2139E+02
     17.258  0.1715E+01  0.2161E+02
     17.386  0.1139E+01  0.2176E+02
     17.514  0.8273E+00  0.2186E+02
     17.642  0.9989E+00  0.2199E+02
     17.770  0.1366E+01  0.2217E+02
     17.898  0.1901E+01  0.2241E+02
     18.026  0.2598E+01  0.2274E+02
     18.154  0.3037E+01  0.2313E+02
     18.281  0.2672E+01  0.2347E+02
     18.409  0.1791E+01  0.2370E+02
     18.537  0.1435E+01  0.2388E+02
     18.665  0.1622E+01  0.2409E+02
     18.793  0.1795E+01  0.2432E+02
     18.921  0.1646E+01  0.2453E+02
     19.049  0.1339E+01  0.2470E+02
     19.176  0.1134E+01  0.2485E+02
     19.304  0.8351E+00  0.2495E+02
     19.432  0.4202E+00  0.2501E+02
     19.560  0.2453E+00  0.2504E+02
     19.688  0.4120E+00  0.2509E+02
     19.816  0.7377E+00  0.2519E+02
     19.944  0.1214E+01  0.2534E+02
     20.071  0.1814E+01  0.2557E+02
     20.199  0.1982E+01  0.2583E+02
     20.327  0.1469E+01  0.2602E+02
     20.455  0.1153E+01  0.2616E+02
     20.583  0.1399E+01  0.2634E+02
     20.711  0.1553E+01  0.2654E+02
     20.839  0.1498E+01  0.2673E+02
     20.966  0.1537E+01  0.2693E+02
     21.094  0.1757E+01  0.2715E+02
     21.222  0.2408E+01  0.2746E+02
     21.350  0.3050E+01  0.2785E+02
     21.478  0.2710E+01  0.2820E+02
     21.606  0.1981E+01  0.2845E+02
     21.734  0.1847E+01  0.2869E+02
     21.861  0.1983E+01  0.2894E+02
     21.989  0.1803E+01  0.2917E+02
     22.117  0.1570E+01  0.2937E+02
     22.245  0.1590E+01  0.2957E+02
     22.373  0.1476E+01  0.2976E+02
     22.501  0.1173E+01  0.2991E+02
     22.629  0.9283E+00  0.3003E+02
     22.757  0.7571E+00  0.3013E+02
     22.884  0.8772E+00  0.3024E+02
     23.012  0.1666E+01  0.3045E+02
     23.140  0.2414E+01  0.3076E+02
     23.268  0.1897E+01  0.3101E+02
     23.396  0.7588E+00  0.3110E+02
     23.524  0.2257E+00  0.3113E+02
     23.652  0.3193E+00  0.3117E+02
     23.779  0.7200E+00  0.3126E+02
     23.907  0.1017E+01  0.3139E+02
     24.035  0.9064E+00  0.3151E+02
     24.163  0.7923E+00  0.3161E+02
     24.291  0.7763E+00  0.3171E+02
     24.419  0.5687E+00  0.3178E+02
     24.547  0.3671E+00  0.3183E+02
     24.674  0.2491E+00  0.3186E+02
     24.802  0.1383E+00  0.3188E+02
     24.930  0.1500E+00  0.3190E+02
     25.058  0.2700E+00  0.3193E+02
     25.186  0.2751E+00  0.3197E+02
     25.314  0.1355E+00  0.3199E+02
     25.442  0.3173E-01  0.3199E+02
     25.569  0.3499E-02  0.3199E+02
     25.697  0.1798E-03  0.3199E+02
     25.825  0.4263E-05  0.3199E+02
     25.953  0.4620E-07  0.3199E+02
     26.081  0.2272E-09  0.3199E+02
     26.209  0.5043E-12  0.3199E+02
     26.337  0.5145E-15  0.3199E+02
     26.465  0.0000E+00  0.3199E+02
     26.592  0.0000E+00  0.3199E+02
     26.720  0.0000E+00  0.3199E+02
     26.848  0.0000E+00  0.3199E+02
     26.976  0.0000E+00  0.3199E+02
     27.104  0.1495E-14  0.3199E+02
     27.232  0.1041E-11  0.3199E+02
     27.360  0.3251E-09  0.3199E+02
     27.487  0.4567E-07  0.3199E+02
     27.615  0.2902E-05  0.3199E+02
     27.743  0.8383E-04  0.3199E+02
     27.871  0.1108E-02  0.3199E+02
     27.999  0.6753E-02  0.3199E+02
     28.127  0.1907E-01  0.3199E+02
     28.255  0.2506E-01  0.3200E+02
     28.382  0.1535E-01  0.3200E+02
     28.510  0.4373E-02  0.3200E+02
     28.638  0.5764E-03  0.3200E+02
     28.766  0.3495E-04  0.3200E+02
     28.894  0.9678E-06  0.3200E+02
     29.022  0.1217E-07  0.3200E+02
     29.150  0.6907E-10  0.3200E+02
     29.277  0.1763E-12  0.3200E+02
     29.405  0.2010E-15  0.3200E+02
     29.533  0.0000E+00  0.3200E+02
     29.661  0.0000E+00  0.3200E+02
     29.789  0.0000E+00  0.3200E+02
     29.917  0.0000E+00  0.3200E+02
     30.045  0.0000E+00  0.3200E+02
     30.172  0.0000E+00  0.3200E+02
