    2    2    1    1
  0.2072484E+02  0.3884592E-09  0.3884592E-09  0.3884592E-09  0.5000000E-15
   1.0000000000000000E-004
  CAR 
 unknown system                          
      8     16     16

  0.3742002E-15  0.3742002E-15  0.3742002E-15  0.4629630E-02
    1       -6.185948   1.000000
    2        5.466269   0.997194
    3        5.466269   0.997194
    4        5.466269   0.997194
    5        8.078962   0.000000
    6        8.078962   0.000000
    7        8.078962   0.000000
    8        8.538446   0.000000
    9       13.217672   0.000000
   10       13.217672   0.000000
   11       13.351526   0.000000
   12       16.657471   0.000000
   13       16.657471   0.000000
   14       16.657471   0.000000
   15       20.752659   0.000000
   16       28.172495   0.000000

  0.1666667E+00  0.3747003E-15  0.3747003E-15  0.3703704E-01
    1       -5.836195   1.000000
    2        3.148738   1.000000
    3        5.041140   1.000000
    4        5.041140   1.000000
    5        7.775525   0.000000
    6        8.699012   0.000000
    7        8.699012   0.000000
    8       10.679602   0.000000
    9       12.599959   0.000000
   10       12.599959   0.000000
   11       14.468179   0.000000
   12       16.062410   0.000000
   13       18.481668   0.000000
   14       18.481668   0.000000
   15       22.639066   0.000000
   16       25.082991   0.000000

  0.3333333E+00  0.3608225E-15  0.3608225E-15  0.3703704E-01
    1       -4.855794   1.000000
    2        0.287880   1.000000
    3        4.510915   1.000000
    4        4.510915   1.000000
    5        7.182229   0.000000
    6        9.022159   0.000000
    7        9.022159   0.000000
    8       13.235614   0.000000
    9       13.439442   0.000000
   10       13.439442   0.000000
   11       14.412105   0.000000
   12       18.823800   0.000000
   13       19.865572   0.000000
   14       19.865572   0.000000
   15       21.891195   0.000000
   16       22.917445   0.000000

  0.5000000E+00  0.3885781E-15  0.3885781E-15  0.1851852E-01
    1       -3.945536   1.000000
    2       -1.282787   1.000000
    3        4.317857   1.000000
    4        4.317857   1.000000
    5        6.956715   0.000000
    6        8.879036   0.000000
    7        8.879036   0.000000
    8       13.216276   0.000000
    9       15.935739   0.000000
   10       15.935739   0.000000
   11       16.548977   0.000000
   12       16.660936   0.000000
   13       16.660936   0.000000
   14       18.061280   0.000000
   15       24.506872   0.000000
   16       25.021875   0.000000

  0.1666667E+00  0.1666667E+00  0.3742002E-15  0.2777778E-01
    1       -5.716992   1.000000
    2        3.433890   1.000000
    3        4.340189   1.000000
    4        4.340189   1.000000
    5        7.249436   0.000000
    6        9.676474   0.000000
    7        9.776845   0.000000
    8        9.776845   0.000000
    9       11.962245   0.000000
   10       13.742733   0.000000
   11       15.103248   0.000000
   12       17.469784   0.000000
   13       17.469784   0.000000
   14       18.050357   0.000000
   15       23.658466   0.000000
   16       24.573021   0.000000

  0.3333333E+00  0.1666667E+00  0.3885781E-15  0.1111111E+00
    1       -4.928616   1.000000
    2        1.130399   1.000000
    3        3.558802   1.000000
    4        3.806620   1.000000
    5        7.493620   0.000000
    6        9.494149   0.000000
    7        9.992502   0.000000
    8       10.511286   0.000000
    9       14.337892   0.000000
   10       14.509179   0.000000
   11       15.811461   0.000000
   12       18.187921   0.000000
   13       19.032837   0.000000
   14       20.523965   0.000000
   15       21.299895   0.000000
   16       22.236788   0.000000

  0.5000000E+00  0.1666667E+00  0.3885781E-15  0.1111111E+00
    1       -3.786358   1.000000
    2       -0.951398   1.000000
    3        2.802070   1.000000
    4        3.772687   1.000000
    5        7.564789   0.000000
    6        9.536738   0.000000
    7       10.108015   0.000000
    8       11.838016   0.000000
    9       14.812004   0.000000
   10       15.845783   0.000000
   11       17.062594   0.000000
   12       17.153243   0.000000
   13       17.818017   0.000000
   14       21.271637   0.000000
   15       23.107912   0.000000
   16       24.230110   0.000000

 -0.3333333E+00  0.1666667E+00  0.3608225E-15  0.1111111E+00
    1       -4.153662   1.000000
    2       -0.378069   1.000000
    3        2.550149   1.000000
    4        4.227961   1.000000
    5        7.936863   0.000000
    6        9.561596   0.000000
    7        9.725526   0.000000
    8       12.637609   0.000000
    9       12.793229   0.000000
   10       14.766248   0.000000
   11       16.820918   0.000000
   12       17.998239   0.000000
   13       20.145266   0.000000
   14       20.633576   0.000000
   15       21.461193   0.000000
   16       23.129247   0.000000

 -0.1666667E+00  0.1666667E+00  0.3885781E-15  0.5555556E-01
    1       -5.267139   1.000000
    2        1.824246   1.000000
    3        3.180443   1.000000
    4        4.924496   1.000000
    5        8.469386   0.000000
    6        9.048176   0.000000
    7        9.280297   0.000000
    8       11.049234   0.000000
    9       11.642645   0.000000
   10       14.675614   0.000000
   11       15.819966   0.000000
   12       16.914968   0.000000
   13       18.708750   0.000000
   14       20.833591   0.000000
   15       21.294594   0.000000
   16       23.833440   0.000000

  0.3333333E+00  0.3333333E+00  0.3742002E-15  0.2777778E-01
    1       -4.342240   1.000000
    2        0.538259   1.000000
    3        3.161753   1.000000
    4        3.161753   1.000000
    5        6.309451   0.000705
    6        7.570879   0.000000
    7       12.605045   0.000000
    8       12.605045   0.000000
    9       14.960143   0.000000
   10       15.312400   0.000000
   11       18.324230   0.000000
   12       18.758730   0.000000
   13       18.758730   0.000000
   14       20.473676   0.000000
   15       21.472887   0.000000
   16       21.648731   0.000000

  0.5000000E+00  0.3333333E+00  0.3747003E-15  0.1111111E+00
    1       -3.220177   1.000000
    2       -0.965661   1.000000
    3        2.011589   1.000000
    4        3.028581   1.000000
    5        6.647507   0.000000
    6        8.243968   0.000000
    7       12.789916   0.000000
    8       12.835433   0.000000
    9       15.879492   0.000000
   10       16.046638   0.000000
   11       17.650245   0.000000
   12       17.984342   0.000000
   13       20.013712   0.000000
   14       20.986676   0.000000
   15       21.199039   0.000000
   16       23.867060   0.000000

 -0.3333333E+00  0.3333333E+00  0.3885781E-15  0.5555556E-01
    1       -3.039651   1.000000
    2       -1.155459   1.000000
    3        1.267746   1.000000
    4        3.451903   1.000000
    5        7.131286   0.000000
    6       11.251650   0.000000
    7       11.883828   0.000000
    8       12.397957   0.000000
    9       12.729337   0.000000
   10       13.129560   0.000000
   11       19.686311   0.000000
   12       20.236533   0.000000
   13       20.766247   0.000000
   14       20.967384   0.000000
   15       21.792611   0.000000
   16       22.665413   0.000000

  0.5000000E+00  0.5000000E+00  0.3742002E-15  0.1388889E-01
    1       -2.176043   1.000000
    2       -2.176043   1.000000
    3        2.741692   1.000000
    4        2.741692   1.000000
    5        6.309899   0.000698
    6        6.309899   0.000698
    7       15.337849   0.000000
    8       15.337849   0.000000
    9       16.302407   0.000000
   10       16.302407   0.000000
   11       17.906543   0.000000
   12       17.906543   0.000000
   13       18.129489   0.000000
   14       18.129489   0.000000
   15       24.105809   0.000000
   16       24.105809   0.000000

  0.5000000E+00  0.3333333E+00  0.1666667E+00  0.1111111E+00
    1       -3.973142   1.000000
    2       -0.067313   1.000000
    3        2.069235   1.000000
    4        3.287722   1.000000
    5        8.354832   0.000000
    6        9.237876   0.000000
    7        9.660121   0.000000
    8       12.420724   0.000000
    9       14.345970   0.000000
   10       15.225090   0.000000
   11       18.192637   0.000000
   12       18.578669   0.000000
   13       19.213310   0.000000
   14       20.121068   0.000000
   15       21.822262   0.000000
   16       23.030414   0.000000

 -0.3333333E+00  0.3333333E+00  0.1666667E+00  0.1111111E+00
    1       -3.030941   1.000000
    2       -1.217614   1.000000
    3        1.641040   1.000000
    4        2.845956   1.000000
    5        8.880998   0.000000
    6        9.012241   0.000000
    7       11.529245   0.000000
    8       11.906735   0.000000
    9       12.905835   0.000000
   10       16.394295   0.000000
   11       17.214530   0.000000
   12       18.818840   0.000000
   13       21.356209   0.000000
   14       21.975155   0.000000
   15       22.196326   0.000000
   16       23.136734   0.000000

 -0.3333333E+00  0.5000000E+00  0.1666667E+00  0.5555556E-01
    1       -2.067303   1.000000
    2       -2.067303   1.000000
    3        2.002071   1.000000
    4        2.002071   1.000000
    5        8.270004   0.000000
    6        8.270004   0.000000
    7       12.146920   0.000000
    8       12.146920   0.000000
    9       15.843698   0.000000
   10       15.843698   0.000000
   11       18.188445   0.000000
   12       18.188445   0.000000
   13       21.684891   0.000000
   14       21.684891   0.000000
   15       22.439842   0.000000
   16       22.439842   0.000000
