 vasp.5.4.1 24Jun15 (build Feb  9 2019 14:16:27) complex                         
 executed on           IFC91_ompi date 2020.09.26  22:28:17
 running on   16 total cores
 distrk:  each k-point on   16 cores,    1 groups
 distr:  one band on NCORES_PER_BAND=   1 cores,   16 groups


--------------------------------------------------------------------------------------------------------


 INCAR:
 POTCAR:    PAW_PBE Si 05Jan2001                  

 ----------------------------------------------------------------------------- 
|                                                                             |
|           W    W    AA    RRRRR   N    N  II  N    N   GGGG   !!!           |
|           W    W   A  A   R    R  NN   N  II  NN   N  G    G  !!!           |
|           W    W  A    A  R    R  N N  N  II  N N  N  G       !!!           |
|           W WW W  AAAAAA  RRRRR   N  N N  II  N  N N  G  GGG   !            |
|           WW  WW  A    A  R   R   N   NN  II  N   NN  G    G                |
|           W    W  A    A  R    R  N    N  II  N    N   GGGG   !!!           |
|                                                                             |
|      For optimal performance we recommend to set                            |
|        NCORE= 4 - approx SQRT( number of cores)                             |
|      NCORE specifies how many cores store one orbital (NPAR=cpu/NCORE).     |
|      This setting can  greatly improve the performance of VASP for DFT.     |
|      The default, NPAR=number of cores might be grossly inefficient         |
|      on modern multi-core architectures or massively parallel machines.     |
|      Do your own testing !!!!                                               |
|      Unfortunately you need to use the default for GW and RPA calculations. |
|      (for HF NCORE is supported but not extensively tested yet)             |
|                                                                             |
 ----------------------------------------------------------------------------- 


 ----------------------------------------------------------------------------- 
|                                                                             |
|  ADVICE TO THIS USER RUNNING 'VASP/VAMP'   (HEAR YOUR MASTER'S VOICE ...):  |
|                                                                             |
|      You have switched on vdW-DFT.                                          |
|      This routine was written and supplied by Jiri Klimes.                  |
|      We recommed that you carefully read and cite the following             |
|      publication                                                            |
|      J. Klimes, D.R. Bowler, A. Michelides                                  |
|        J. Phys.: Cond Matt. 22 022201 (2010)                                |
|      J. Klimes, D.R. Bowler, A. Michelides                                  |
|        Phys. Rev. B. 83, 195131 (2011)                                      |
|      and references therein.                                                |
|                                                                             |
 ----------------------------------------------------------------------------- 

 POTCAR:    PAW_PBE Si 05Jan2001                  
   VRHFIN =Si: s2p2                                                             
   LEXCH  = PE                                                                  
   EATOM  =   103.0669 eV,    7.5752 Ry                                         
                                                                                
   TITEL  = PAW_PBE Si 05Jan2001                                                
   LULTRA =        F    use ultrasoft PP ?                                      
   IUNSCR =        1    unscreen: 0-lin 1-nonlin 2-no                           
   RPACOR =    1.500    partial core radius                                     
   POMASS =   28.085; ZVAL   =    4.000    mass and valenz                      
   RCORE  =    1.900    outmost cutoff radius                                   
   RWIGS  =    2.480; RWIGS  =    1.312    wigner-seitz radius (au A)           
   ENMAX  =  245.345; ENMIN  =  184.009 eV                                      
   ICORE  =        2    local potential                                         
   LCOR   =        T    correct aug charges                                     
   LPAW   =        T    paw PP                                                  
   EAUG   =  322.069                                                            
   DEXC   =    0.000                                                            
   RMAX   =    1.950    core radius for proj-oper                               
   RAUG   =    1.300    factor for augmentation sphere                          
   RDEP   =    1.993    radius for radial grids                                 
   RDEPT  =    1.837    core radius for aug-charge                              
                                                                                
   Atomic configuration                                                         
    6 entries                                                                   
     n  l   j            E        occ.                                          
     1  0  0.50     -1785.8828   2.0000                                         
     2  0  0.50      -139.4969   2.0000                                         
     2  1  1.50       -95.5546   6.0000                                         
     3  0  0.50       -10.8127   2.0000                                         
     3  1  0.50        -4.0811   2.0000                                         
     3  2  1.50        -4.0817   0.0000                                         
   Description                                                                  
     l       E           TYP  RCUT    TYP  RCUT                                 
     0    -10.8127223     23  1.900                                             
     0     -7.6451159     23  1.900                                             
     1     -4.0811372     23  1.900                                             
     1      2.4879257     23  1.900                                             
     2     -4.0817478      7  1.900                                             
  local pseudopotential read in
  partial core-charges read in
  partial kinetic energy density read in
  atomic valenz-charges read in
  non local Contribution for L=           0  read in
    real space projection operators read in
  non local Contribution for L=           0  read in
    real space projection operators read in
  non local Contribution for L=           1  read in
    real space projection operators read in
  non local Contribution for L=           1  read in
    real space projection operators read in
    PAW grid and wavefunctions read in

   number of l-projection  operators is LMAX  =           4
   number of lm-projection operators is LMMAX =           8


 ----------------------------------------------------------------------------- 
|                                                                             |
|  ADVICE TO THIS USER RUNNING 'VASP/VAMP'   (HEAR YOUR MASTER'S VOICE ...):  |
|                                                                             |
|      You enforced a specific xc-type in the INCAR file,                     |
|      a different type was found on the POTCAR file                          |
|          I HOPE YOU KNOW, WHAT YOU ARE  DOING                               |
|                                                                             |
 ----------------------------------------------------------------------------- 

  PAW_PBE Si 05Jan2001                  :
 energy of atom  1       EATOM= -103.0669
 kinetic energy error for atom=    0.0006 (will be added to EATOM!!)


 POSCAR: bulk@JVASP-1002                         
  positions in direct lattice
  No initial velocities read in
 exchange correlation table for  LEXCH =       42
   RHO(1)=    0.500       N(1)  =     2000
   RHO(2)=  100.500       N(2)  =     4000



--------------------------------------------------------------------------------------------------------


 ion  position               nearest neighbor table
   1  0.750  0.750  0.750-   2 2.38   2 2.38   2 2.38   2 2.38
   2  0.500  0.500  0.500-   1 2.38   1 2.38   1 2.38   1 2.38

  LATTYP: Found a face centered cubic cell.
 ALAT       =     5.4936422752
  
  Lattice vectors:
  
 A1 = (   0.0000000000,   2.7468211376,   2.7468211376)
 A2 = (   2.7468211376,   0.0000000000,   2.7468211376)
 A3 = (   2.7468211376,   2.7468211376,   0.0000000000)


Analysis of symmetry for initial positions (statically):
=====================================================================
 Subroutine PRICEL returns:
 Original cell was already a primitive cell.
 

 Routine SETGRP: Setting up the symmetry group for a 
 face centered cubic supercell.


 Subroutine GETGRP returns: Found 48 space group operations
 (whereof 24 operations were pure point group operations)
 out of a pool of 48 trial point group operations.


The static configuration has the point symmetry T_d .
 The point group associated with its full space group is O_h .


Analysis of symmetry for dynamics (positions and initial velocities):
=====================================================================
 Subroutine PRICEL returns:
 Original cell was already a primitive cell.
 

 Routine SETGRP: Setting up the symmetry group for a 
 face centered cubic supercell.


 Subroutine GETGRP returns: Found 48 space group operations
 (whereof 24 operations were pure point group operations)
 out of a pool of 48 trial point group operations.


The dynamic configuration has the point symmetry T_d .
 The point group associated with its full space group is O_h .


 KPOINTS: Automatic kpoint scheme                 

Automatic generation of k-mesh.
Space group operators:
 irot       det(A)        alpha          n_x          n_y          n_z        tau_x        tau_y        tau_z
    1     1.000000     0.000000     1.000000     0.000000     0.000000     0.000000     0.000000     0.000000
    2     1.000000   120.000000    -0.577350    -0.577350    -0.577350     0.000000     0.000000     0.000000
    3     1.000000   120.000000     0.577350     0.577350     0.577350     0.000000     0.000000     0.000000
    4    -1.000000    90.000000     0.000000     0.000000    -1.000000     0.000000     0.000000     0.000000
    5    -1.000000   180.000000     0.000000     0.707107     0.707107     0.000000     0.000000     0.000000
    6    -1.000000    90.000000     0.000000     1.000000     0.000000     0.000000     0.000000     0.000000
    7     1.000000   180.000000     0.000000     0.000000     1.000000     0.000000     0.000000     0.000000
    8     1.000000   120.000000    -0.577350     0.577350     0.577350     0.000000     0.000000     0.000000
    9     1.000000   120.000000    -0.577350     0.577350    -0.577350     0.000000     0.000000     0.000000
   10    -1.000000    90.000000     0.000000     0.000000     1.000000     0.000000     0.000000     0.000000
   11    -1.000000    90.000000    -1.000000     0.000000     0.000000     0.000000     0.000000     0.000000
   12    -1.000000   180.000000     0.707107     0.000000     0.707107     0.000000     0.000000     0.000000
   13     1.000000   120.000000     0.577350    -0.577350     0.577350     0.000000     0.000000     0.000000
   14     1.000000   120.000000    -0.577350    -0.577350     0.577350     0.000000     0.000000     0.000000
   15     1.000000   180.000000     1.000000     0.000000     0.000000     0.000000     0.000000     0.000000
   16    -1.000000    90.000000     0.000000    -1.000000     0.000000     0.000000     0.000000     0.000000
   17    -1.000000   180.000000     0.707107     0.707107     0.000000     0.000000     0.000000     0.000000
   18    -1.000000    90.000000     1.000000     0.000000     0.000000     0.000000     0.000000     0.000000
   19     1.000000   120.000000     0.577350    -0.577350    -0.577350     0.000000     0.000000     0.000000
   20     1.000000   180.000000     0.000000     1.000000     0.000000     0.000000     0.000000     0.000000
   21     1.000000   120.000000     0.577350     0.577350    -0.577350     0.000000     0.000000     0.000000
   22    -1.000000   180.000000     0.000000    -0.707107     0.707107     0.000000     0.000000     0.000000
   23    -1.000000   180.000000     0.707107    -0.707107     0.000000     0.000000     0.000000     0.000000
   24    -1.000000   180.000000     0.707107     0.000000    -0.707107     0.000000     0.000000     0.000000
   25    -1.000000     0.000000     1.000000     0.000000     0.000000     0.250000     0.250000     0.250000
   26    -1.000000   120.000000    -0.577350    -0.577350    -0.577350     0.250000     0.250000     0.250000
   27    -1.000000   120.000000     0.577350     0.577350     0.577350     0.250000     0.250000     0.250000
   28     1.000000    90.000000     0.000000     0.000000    -1.000000     0.250000     0.250000     0.250000
   29     1.000000   180.000000     0.000000     0.707107     0.707107     0.250000     0.250000     0.250000
   30     1.000000    90.000000     0.000000     1.000000     0.000000     0.250000     0.250000     0.250000
   31    -1.000000   180.000000     0.000000     0.000000     1.000000     0.250000     0.250000     0.250000
   32    -1.000000   120.000000    -0.577350     0.577350     0.577350     0.250000     0.250000     0.250000
   33    -1.000000   120.000000    -0.577350     0.577350    -0.577350     0.250000     0.250000     0.250000
   34     1.000000    90.000000     0.000000     0.000000     1.000000     0.250000     0.250000     0.250000
   35     1.000000    90.000000    -1.000000     0.000000     0.000000     0.250000     0.250000     0.250000
   36     1.000000   180.000000     0.707107     0.000000     0.707107     0.250000     0.250000     0.250000
   37    -1.000000   120.000000     0.577350    -0.577350     0.577350     0.250000     0.250000     0.250000
   38    -1.000000   120.000000    -0.577350    -0.577350     0.577350     0.250000     0.250000     0.250000
   39    -1.000000   180.000000     1.000000     0.000000     0.000000     0.250000     0.250000     0.250000
   40     1.000000    90.000000     0.000000    -1.000000     0.000000     0.250000     0.250000     0.250000
   41     1.000000   180.000000     0.707107     0.707107     0.000000     0.250000     0.250000     0.250000
   42     1.000000    90.000000     1.000000     0.000000     0.000000     0.250000     0.250000     0.250000
   43    -1.000000   120.000000     0.577350    -0.577350    -0.577350     0.250000     0.250000     0.250000
   44    -1.000000   180.000000     0.000000     1.000000     0.000000     0.250000     0.250000     0.250000
   45    -1.000000   120.000000     0.577350     0.577350    -0.577350     0.250000     0.250000     0.250000
   46     1.000000   180.000000     0.000000    -0.707107     0.707107     0.250000     0.250000     0.250000
   47     1.000000   180.000000     0.707107    -0.707107     0.000000     0.250000     0.250000     0.250000
   48     1.000000   180.000000     0.707107     0.000000    -0.707107     0.250000     0.250000     0.250000
 
 Subroutine IBZKPT returns following result:
 ===========================================
 
 Found     16 irreducible k-points:
 
 Following reciprocal coordinates:
            Coordinates               Weight
  0.000000  0.000000  0.000000      1.000000
  0.166667  0.000000  0.000000      8.000000
  0.333333  0.000000  0.000000      8.000000
  0.500000  0.000000  0.000000      4.000000
  0.166667  0.166667  0.000000      6.000000
  0.333333  0.166667  0.000000     24.000000
  0.500000  0.166667  0.000000     24.000000
 -0.333333  0.166667  0.000000     24.000000
 -0.166667  0.166667  0.000000     12.000000
  0.333333  0.333333  0.000000      6.000000
  0.500000  0.333333  0.000000     24.000000
 -0.333333  0.333333  0.000000     12.000000
  0.500000  0.500000  0.000000      3.000000
  0.500000  0.333333  0.166667     24.000000
 -0.333333  0.333333  0.166667     24.000000
 -0.333333  0.500000  0.166667     12.000000
 
 Following cartesian coordinates:
            Coordinates               Weight
  0.000000  0.000000  0.000000      1.000000
 -0.030338  0.030338  0.030338      8.000000
 -0.060676  0.060676  0.060676      8.000000
 -0.091014  0.091014  0.091014      4.000000
  0.000000  0.000000  0.060676      6.000000
 -0.030338  0.030338  0.091014     24.000000
 -0.060676  0.060676  0.121352     24.000000
  0.091014 -0.091014 -0.030338     24.000000
  0.060676 -0.060676  0.000000     12.000000
  0.000000  0.000000  0.121352      6.000000
 -0.030338  0.030338  0.151690     24.000000
  0.121352 -0.121352  0.000000     12.000000
  0.000000  0.000000  0.182029      3.000000
  0.000000  0.060676  0.121352     24.000000
  0.151690 -0.091014 -0.030338     24.000000
  0.182029 -0.121352  0.000000     12.000000
 


--------------------------------------------------------------------------------------------------------




 Dimension of arrays:
   k-points           NKPTS =       16   k-points in BZ     NKDIM =       16   number of bands    NBANDS=     16
   number of dos      NEDOS =    301   number of ions     NIONS =      2
   non local maximal  LDIM  =      4   non local SUM 2l+1 LMDIM =      8
   total plane-waves  NPLWV =  21952
   max r-space proj   IRMAX =      1   max aug-charges    IRDMAX=  17905
   dimension x,y,z NGX =    28 NGY =   28 NGZ =   28
   dimension x,y,z NGXF=    56 NGYF=   56 NGZF=   56
   support grid    NGXF=    56 NGYF=   56 NGZF=   56
   ions per type =               2
 NGX,Y,Z   is equivalent  to a cutoff of  11.98, 11.98, 11.98 a.u.
 NGXF,Y,Z  is equivalent  to a cutoff of  23.97, 23.97, 23.97 a.u.


 I would recommend the setting:
   dimension x,y,z NGX =    28 NGY =   28 NGZ =   28
 SYSTEM =  unknown system                          
 POSCAR =  bulk@JVASP-1002                         

 Startparameter for this run:
   NWRITE =      2    write-flag & timer
   PREC   = accura    normal or accurate (medium, high low for compatibility)
   ISTART =      0    job   : 0-new  1-cont  2-samecut
   ICHARG =      2    charge: 1-file 2-atom 10-const
   ISPIN  =      1    spin polarized calculation?
   LNONCOLLINEAR =      F non collinear calculations
   LSORBIT =      F    spin-orbit coupling
   INIWAV =      1    electr: 0-lowe 1-rand  2-diag
   LASPH  =      F    aspherical Exc in radial PAW
   METAGGA=      F    non-selfconsistent MetaGGA calc.

 Electronic Relaxation 1
   ENCUT  =  500.0 eV  36.75 Ry    6.06 a.u.   7.08  7.08  7.08*2*pi/ulx,y,z
   ENINI  =  500.0     initial cutoff
   ENAUG  =  322.1 eV  augmentation charge cutoff
   NELM   =    400;   NELMIN=  2; NELMDL= -5     # of ELM steps 
   EDIFF  = 0.1E-06   stopping-criterion for ELM
   LREAL  =      F    real-space projection
   NLSPLINE    = F    spline interpolate recip. space projectors
   LCOMPAT=      F    compatible to vasp.4.4
   GGA_COMPAT  = T    GGA compatible to vasp.4.4-vasp.4.6
   LMAXPAW     = -100 max onsite density
   LMAXMIX     =    2 max onsite mixed and CHGCAR
   VOSKOWN=      0    Vosko Wilk Nusair interpolation
   ROPT   =    0.00000
 Ionic relaxation
   EDIFFG = 0.1E-05   stopping-criterion for IOM
   NSW    =      1    number of steps for IOM
   NBLOCK =      1;   KBLOCK =      1    inner block; outer block 
   IBRION =      2    ionic relax: 0-MD 1-quasi-New 2-CG
   NFREE  =      1    steps in history (QN), initial steepest desc. (CG)
   ISIF   =      2    stress and relaxation
   IWAVPR =     11    prediction:  0-non 1-charg 2-wave 3-comb
   ISYM   =      2    0-nonsym 1-usesym 2-fastsym
   LCORR  =      T    Harris-Foulkes like correction to forces

   POTIM  = 0.5000    time-step for ionic-motion
   TEIN   =    0.0    initial temperature
   TEBEG  =    0.0;   TEEND  =   0.0 temperature during run
   SMASS  =  -3.00    Nose mass-parameter (am)
   estimated Nose-frequenzy (Omega)   =  0.10E-29 period in steps =****** mass=  -0.345E-27a.u.
   SCALEE = 1.0000    scale energy and forces
   NPACO  =    256;   APACO  = 16.0  distance and # of slots for P.C.
   PSTRESS=    0.0 pullay stress

  Mass of Ions in am
   POMASS =  28.09
  Ionic Valenz
   ZVAL   =   4.00
  Atomic Wigner-Seitz radii
   RWIGS  =  -1.00
  virtual crystal weights 
   VCA    =   1.00
   NELECT =       8.0000    total number of electrons
   NUPDOWN=      -1.0000    fix difference up-down

 DOS related values:
   EMIN   =  10.00;   EMAX   =-10.00  energy-range for DOS
   EFERMI =   0.00
   ISMEAR =     0;   SIGMA  =   0.20  broadening in eV -4-tet -1-fermi 0-gaus

 Electronic relaxation 2 (details)
   IALGO  =     38    algorithm
   LDIAG  =      T    sub-space diagonalisation (order eigenvalues)
   LSUBROT=      F    optimize rotation matrix (better conditioning)
   TURBO    =      0    0=normal 1=particle mesh
   IRESTART =      0    0=no restart 2=restart with 2 vectors
   NREBOOT  =      0    no. of reboots
   NMIN     =      0    reboot dimension
   EREF     =   0.00    reference energy to select bands
   IMIX   =      4    mixing-type and parameters
     AMIX     =   0.40;   BMIX     =  1.00
     AMIX_MAG =   1.60;   BMIX_MAG =  1.00
     AMIN     =   0.10
     WC   =   100.;   INIMIX=   1;  MIXPRE=   1;  MAXMIX= -45

 Intra band minimization:
   WEIMIN = 0.0010     energy-eigenvalue tresh-hold
   EBREAK =  0.16E-08  absolut break condition
   DEPER  =   0.30     relativ break condition  

   TIME   =   0.40     timestep for ELM

  volume/ion in A,a.u.               =      20.72       139.86
  Fermi-wavevector in a.u.,A,eV,Ry     =   0.946087  1.787845 12.178313  0.895081
  Thomas-Fermi vector in A             =   2.074051

 Write flags
   LWAVE  =      F    write WAVECAR
   LCHARG =      F    write CHGCAR
   LVTOT  =      F    write LOCPOT, total local potential
   LVHAR  =      F    write LOCPOT, Hartree potential only
   LELF   =      F    write electronic localiz. function (ELF)
   LORBIT =      0    0 simple, 1 ext, 2 COOP (PROOUT)


 Dipole corrections
   LMONO  =      F    monopole corrections only (constant potential shift)
   LDIPOL =      F    correct potential (dipole corrections)
   IDIPOL =      0    1-x, 2-y, 3-z, 4-all directions 
   EPSILON=  1.0000000 bulk dielectric constant

 Exchange correlation treatment:
   GGA     =    BO    GGA type
   LEXCH   =    42    internal setting for exchange type
   VOSKOWN=      0    Vosko Wilk Nusair interpolation
   LHFCALC =     F    Hartree Fock is set to
   LHFONE  =     F    Hartree Fock one center treatment
   AEXX    =    0.0000 exact exchange contribution

 vdW DFT:
   LUSE_VDW   =     T    switch on vdW DFT
   Zab_VDW    =-.8491    correlation parameter
   PARAM1     =0.1833
   PARAM2     =0.2200
   PARAM3     =0.0000

 Linear response parameters
   LEPSILON=     F    determine dielectric tensor
   LRPA    =     F    only Hartree local field effects (RPA)
   LNABLA  =     F    use nabla operator in PAW spheres
   LVEL    =     F    velocity operator in full k-point grid
   LINTERFAST=   F  fast interpolation
   KINTER  =     0    interpolate to denser k-point grid
   CSHIFT  =0.1000    complex shift for real part using Kramers Kronig
   OMEGAMAX=  -1.0    maximum frequency
   DEG_THRESHOLD= 0.2000000E-02 threshold for treating states as degnerate
   RTIME   =    0.100 relaxation time in fs

 Orbital magnetization related:
   ORBITALMAG=     F  switch on orbital magnetization
   LCHIMAG   =     F  perturbation theory with respect to B field
   DQ        =  0.001000  dq finite difference perturbation B field



--------------------------------------------------------------------------------------------------------


 conjugate gradient relaxation of ions
 charge density and potential will be updated during run
 non-spin polarized calculation
 Variant of blocked Davidson
 Davidson routine will perform the subspace rotation
 perform sub-space diagonalisation
    after iterative eigenvector-optimisation
 modified Broyden-mixing scheme, WC =      100.0
 initial mixing is a Kerker type mixing with AMIX =  0.4000 and BMIX =      1.0000
 Hartree-type preconditioning will be used
 using additional bands           12
 reciprocal scheme for non local part
 use partial core corrections
 calculate Harris-corrections to forces   (improved forces if not selfconsistent)
 use gradient corrections 
 use of overlap-Matrix (Vanderbilt PP)
 Gauss-broadening in eV      SIGMA  =   0.20


--------------------------------------------------------------------------------------------------------


  energy-cutoff  :      500.00
  volume of cell :       41.45
      direct lattice vectors                 reciprocal lattice vectors
     0.000000000  2.746821138  2.746821138    -0.182028598  0.182028598  0.182028598
     2.746821138  0.000000000  2.746821138     0.182028598 -0.182028598  0.182028598
     2.746821138  2.746821138  0.000000000     0.182028598  0.182028598 -0.182028598

  length of vectors
     3.884591706  3.884591706  3.884591706     0.315282780  0.315282780  0.315282780



 k-points in units of 2pi/SCALE and weight: Automatic kpoint scheme                 
   0.00000000  0.00000000  0.00000000       0.005
  -0.03033810  0.03033810  0.03033810       0.037
  -0.06067620  0.06067620  0.06067620       0.037
  -0.09101430  0.09101430  0.09101430       0.019
   0.00000000  0.00000000  0.06067620       0.028
  -0.03033810  0.03033810  0.09101430       0.111
  -0.06067620  0.06067620  0.12135240       0.111
   0.09101430 -0.09101430 -0.03033810       0.111
   0.06067620 -0.06067620  0.00000000       0.056
   0.00000000  0.00000000  0.12135240       0.028
  -0.03033810  0.03033810  0.15169050       0.111
   0.12135240 -0.12135240  0.00000000       0.056
   0.00000000  0.00000000  0.18202860       0.014
   0.00000000  0.06067620  0.12135240       0.111
   0.15169050 -0.09101430 -0.03033810       0.111
   0.18202860 -0.12135240  0.00000000       0.056

 k-points in reciprocal lattice and weights: Automatic kpoint scheme                 
   0.00000000  0.00000000  0.00000000       0.005
   0.16666667  0.00000000  0.00000000       0.037
   0.33333333  0.00000000  0.00000000       0.037
   0.50000000  0.00000000  0.00000000       0.019
   0.16666667  0.16666667  0.00000000       0.028
   0.33333333  0.16666667  0.00000000       0.111
   0.50000000  0.16666667  0.00000000       0.111
  -0.33333333  0.16666667  0.00000000       0.111
  -0.16666667  0.16666667  0.00000000       0.056
   0.33333333  0.33333333  0.00000000       0.028
   0.50000000  0.33333333  0.00000000       0.111
  -0.33333333  0.33333333  0.00000000       0.056
   0.50000000  0.50000000  0.00000000       0.014
   0.50000000  0.33333333  0.16666667       0.111
  -0.33333333  0.33333333  0.16666667       0.111
  -0.33333333  0.50000000  0.16666667       0.056

 position of ions in fractional coordinates (direct lattice) 
   0.75000000  0.75000000  0.75000000
   0.50000000  0.50000000  0.50000000

 position of ions in cartesian coordinates  (Angst):
   4.12023171  4.12023171  4.12023171
   2.74682114  2.74682114  2.74682114



--------------------------------------------------------------------------------------------------------


 k-point  1 :   0.0000 0.0000 0.0000  plane waves:    1067
 k-point  2 :   0.1667 0.0000 0.0000  plane waves:    1043
 k-point  3 :   0.3333 0.0000 0.0000  plane waves:    1059
 k-point  4 :   0.5000 0.0000 0.0000  plane waves:    1056
 k-point  5 :   0.1667 0.1667 0.0000  plane waves:    1042
 k-point  6 :   0.3333 0.1667 0.0000  plane waves:    1058
 k-point  7 :   0.5000 0.1667 0.0000  plane waves:    1051
 k-point  8 :  -0.3333 0.1667 0.0000  plane waves:    1051
 k-point  9 :  -0.1667 0.1667 0.0000  plane waves:    1053
 k-point 10 :   0.3333 0.3333 0.0000  plane waves:    1030
 k-point 11 :   0.5000 0.3333 0.0000  plane waves:    1056
 k-point 12 :  -0.3333 0.3333 0.0000  plane waves:    1063
 k-point 13 :   0.5000 0.5000 0.0000  plane waves:    1034
 k-point 14 :   0.5000 0.3333 0.1667  plane waves:    1052
 k-point 15 :  -0.3333 0.3333 0.1667  plane waves:    1066
 k-point 16 :  -0.3333 0.5000 0.1667  plane waves:    1064

 maximum and minimum number of plane-waves per node :      1067     1030

 maximum number of plane-waves:      1067
 maximum index in each direction: 
   IXMAX=    7   IYMAX=    7   IZMAX=    7
   IXMIN=   -7   IYMIN=   -7   IZMIN=   -7

 WARNING: aliasing errors must be expected set NGX to  30 to avoid them
 WARNING: aliasing errors must be expected set NGY to  30 to avoid them
 WARNING: aliasing errors must be expected set NGZ to  30 to avoid them
 aliasing errors are usually negligible using standard VASP settings
 and one can safely disregard these warnings

 serial   3D FFT for wavefunctions
 parallel 3D FFT for charge:
    minimum data exchange during FFTs selected (reduces bandwidth)


 total amount of memory used by VASP on root node    33440. kBytes
========================================================================

   base      :      30000. kBytes
   nonl-proj :       1132. kBytes
   fftplans  :        517. kBytes
   grid      :       1507. kBytes
   one-center:          6. kBytes
   wavefun   :        278. kBytes

     INWAV:  cpu time    0.0000: real time    0.0000
 Broyden mixing: mesh for mixing (old mesh)
   NGX = 15   NGY = 15   NGZ = 15
  (NGX  = 56   NGY  = 56   NGZ  = 56)
  gives a total of   3375 points

 initial charge density was supplied:
 charge density of overlapping atoms calculated
 number of electron       8.0000000 magnetization 
 keeping initial charge density in first step


--------------------------------------------------------------------------------------------------------


 Maximum index for augmentation-charges         1417 (set IRDMAX)


--------------------------------------------------------------------------------------------------------


 First call to EWALD:  gamma=   0.512
 Maximum number of real-space cells 3x 3x 3
 Maximum number of reciprocal cells 3x 3x 3

 FEWALD executed in parallel
    FEWALD:  cpu time    0.0000: real time    0.0010


----------------------------------------- Iteration    1(   1)  ---------------------------------------


vdW kernel read from vdw_kernel.bindat
  0.0000  0.2424  0.5071  0.7962  1.1119  1.4567  1.8333  2.2446  2.6937  3.1842
  3.7199  4.3049  4.9438  5.6415  6.4036  7.2358  8.1446  9.1372 10.2212 11.4050
 12.6979 14.1099 15.6519 17.3360 19.1751 21.1837 23.3773 25.7729 28.3892 31.2465
 34.3669 37.7748 41.4965 45.5611 50.0000

    POTLOK:  cpu time    2.0920: real time    2.0910
    SETDIJ:  cpu time    0.0000: real time    0.0026
     EDDAV:  cpu time    0.1960: real time    0.1951
       DOS:  cpu time    0.0000: real time    0.0003
    --------------------------------------------
      LOOP:  cpu time    2.2920: real time    2.2908

 eigenvalue-minimisations  :   512
 total energy-change (2. order) : 0.2498983E+01  (-0.3373166E+03)
 number of electron       8.0000000 magnetization 
 augmentation part        8.0000000 magnetization 

 Free energy of the ion-electron system (eV)
  ---------------------------------------------------
  alpha Z        PSCENC =         3.24857844
  Ewald energy   TEWEN  =      -225.91568183
  -Hartree energ DENC   =       -11.53197166
  -exchange      EXHF   =         0.00000000
  -V(xc)+E(xc)   XCENC  =       -20.29573795
  PAW double counting   =       189.40224250     -152.61488262
  entropy T*S    EENTRO =        -0.00714686
  eigenvalues    EBANDS =        11.61984474
  atomic energy  EATOM  =       208.59373829
  Solvation  Ediel_sol  =         0.00000000
  ---------------------------------------------------
  free energy    TOTEN  =         2.49898304 eV

  energy without entropy =        2.50612990  energy(sigma->0) =        2.50255647


--------------------------------------------------------------------------------------------------------




----------------------------------------- Iteration    1(   2)  ---------------------------------------


     EDDAV:  cpu time    0.3040: real time    0.3045
       DOS:  cpu time    0.0000: real time    0.0003
    --------------------------------------------
      LOOP:  cpu time    0.3040: real time    0.4141

 eigenvalue-minimisations  :   736
 total energy-change (2. order) :-0.1081322E+02  (-0.1076181E+02)
 number of electron       8.0000000 magnetization 
 augmentation part        8.0000000 magnetization 

 Free energy of the ion-electron system (eV)
  ---------------------------------------------------
  alpha Z        PSCENC =         3.24857844
  Ewald energy   TEWEN  =      -225.91568183
  -Hartree energ DENC   =       -11.53197166
  -exchange      EXHF   =         0.00000000
  -V(xc)+E(xc)   XCENC  =       -20.29573795
  PAW double counting   =       189.40224250     -152.61488262
  entropy T*S    EENTRO =        -0.00000313
  eigenvalues    EBANDS =         0.79948275
  atomic energy  EATOM  =       208.59373829
  Solvation  Ediel_sol  =         0.00000000
  ---------------------------------------------------
  free energy    TOTEN  =        -8.31423522 eV

  energy without entropy =       -8.31423209  energy(sigma->0) =       -8.31423366


--------------------------------------------------------------------------------------------------------




----------------------------------------- Iteration    1(   3)  ---------------------------------------


     EDDAV:  cpu time    0.2320: real time    0.2301
       DOS:  cpu time    0.0000: real time    0.0003
    --------------------------------------------
      LOOP:  cpu time    0.2320: real time    0.3683

 eigenvalue-minimisations  :   544
 total energy-change (2. order) :-0.7584923E-01  (-0.7584922E-01)
 number of electron       8.0000000 magnetization 
 augmentation part        8.0000000 magnetization 

 Free energy of the ion-electron system (eV)
  ---------------------------------------------------
  alpha Z        PSCENC =         3.24857844
  Ewald energy   TEWEN  =      -225.91568183
  -Hartree energ DENC   =       -11.53197166
  -exchange      EXHF   =         0.00000000
  -V(xc)+E(xc)   XCENC  =       -20.29573795
  PAW double counting   =       189.40224250     -152.61488262
  entropy T*S    EENTRO =        -0.00000263
  eigenvalues    EBANDS =         0.72363302
  atomic energy  EATOM  =       208.59373829
  Solvation  Ediel_sol  =         0.00000000
  ---------------------------------------------------
  free energy    TOTEN  =        -8.39008445 eV

  energy without entropy =       -8.39008181  energy(sigma->0) =       -8.39008313


--------------------------------------------------------------------------------------------------------




----------------------------------------- Iteration    1(   4)  ---------------------------------------


     EDDAV:  cpu time    0.5840: real time    0.5829
       DOS:  cpu time    0.0000: real time    0.0003
    --------------------------------------------
      LOOP:  cpu time    0.5840: real time    0.6299

 eigenvalue-minimisations  :   992
 total energy-change (2. order) :-0.2466794E-03  (-0.2466799E-03)
 number of electron       8.0000000 magnetization 
 augmentation part        8.0000000 magnetization 

 Free energy of the ion-electron system (eV)
  ---------------------------------------------------
  alpha Z        PSCENC =         3.24857844
  Ewald energy   TEWEN  =      -225.91568183
  -Hartree energ DENC   =       -11.53197166
  -exchange      EXHF   =         0.00000000
  -V(xc)+E(xc)   XCENC  =       -20.29573795
  PAW double counting   =       189.40224250     -152.61488262
  entropy T*S    EENTRO =        -0.00000264
  eigenvalues    EBANDS =         0.72338635
  atomic energy  EATOM  =       208.59373829
  Solvation  Ediel_sol  =         0.00000000
  ---------------------------------------------------
  free energy    TOTEN  =        -8.39033113 eV

  energy without entropy =       -8.39032849  energy(sigma->0) =       -8.39032981


--------------------------------------------------------------------------------------------------------




----------------------------------------- Iteration    1(   5)  ---------------------------------------


     EDDAV:  cpu time    0.2320: real time    0.2331
       DOS:  cpu time    0.0040: real time    0.0003
    CHARGE:  cpu time    0.0280: real time    0.0293
    MIXING:  cpu time    0.0000: real time    0.0004
    --------------------------------------------
      LOOP:  cpu time    0.2640: real time    0.2952

 eigenvalue-minimisations  :   544
 total energy-change (2. order) :-0.1530009E-07  (-0.1511454E-07)
 number of electron       7.9999999 magnetization 
 augmentation part       -0.4816344 magnetization 

 Broyden mixing:
  rms(total) = 0.36893E+00    rms(broyden)= 0.36893E+00
  rms(prec ) = 0.89078E+00
  weight for this iteration     100.00

 Free energy of the ion-electron system (eV)
  ---------------------------------------------------
  alpha Z        PSCENC =         3.24857844
  Ewald energy   TEWEN  =      -225.91568183
  -Hartree energ DENC   =       -11.53197166
  -exchange      EXHF   =         0.00000000
  -V(xc)+E(xc)   XCENC  =       -20.29573795
  PAW double counting   =       189.40224250     -152.61488262
  entropy T*S    EENTRO =        -0.00000264
  eigenvalues    EBANDS =         0.72338633
  atomic energy  EATOM  =       208.59373829
  Solvation  Ediel_sol  =         0.00000000
  ---------------------------------------------------
  free energy    TOTEN  =        -8.39033114 eV

  energy without entropy =       -8.39032851  energy(sigma->0) =       -8.39032983


--------------------------------------------------------------------------------------------------------




----------------------------------------- Iteration    1(   6)  ---------------------------------------


    POTLOK:  cpu time    1.6200: real time    1.6173
    SETDIJ:  cpu time    0.0000: real time    0.0020
     EDDAV:  cpu time    0.3840: real time    0.3820
       DOS:  cpu time    0.0000: real time    0.0004
    CHARGE:  cpu time    0.0240: real time    0.0245
    MIXING:  cpu time    0.0000: real time    0.0005
    --------------------------------------------
      LOOP:  cpu time    2.0280: real time    2.1100

 eigenvalue-minimisations  :   784
 total energy-change (2. order) : 0.5140443E-01  (-0.8602156E-02)
 number of electron       7.9999999 magnetization 
 augmentation part       -0.4748521 magnetization 

 Broyden mixing:
  rms(total) = 0.22569E+00    rms(broyden)= 0.22569E+00
  rms(prec ) = 0.53825E+00
  weight for this iteration     100.00

 eigenvalues of (default mixing * dielectric matrix)
  average eigenvalue GAMMA=   2.5583
  2.5583

 Free energy of the ion-electron system (eV)
  ---------------------------------------------------
  alpha Z        PSCENC =         3.24857844
  Ewald energy   TEWEN  =      -225.91568183
  -Hartree energ DENC   =       -13.07306256
  -exchange      EXHF   =         0.00000000
  -V(xc)+E(xc)   XCENC  =       -20.05890497
  PAW double counting   =       304.79892934     -268.14015844
  entropy T*S    EENTRO =        -0.00001201
  eigenvalues    EBANDS =         2.20764702
  atomic energy  EATOM  =       208.59373829
  Solvation  Ediel_sol  =         0.00000000
  ---------------------------------------------------
  free energy    TOTEN  =        -8.33892672 eV

  energy without entropy =       -8.33891470  energy(sigma->0) =       -8.33892071


--------------------------------------------------------------------------------------------------------




----------------------------------------- Iteration    1(   7)  ---------------------------------------


    POTLOK:  cpu time    1.6040: real time    1.6036
    SETDIJ:  cpu time    0.0040: real time    0.0026
     EDDAV:  cpu time    0.3680: real time    0.3689
       DOS:  cpu time    0.0000: real time    0.0005
    CHARGE:  cpu time    0.0240: real time    0.0245
    MIXING:  cpu time    0.0000: real time    0.0005
    --------------------------------------------
      LOOP:  cpu time    2.0000: real time    2.0645

 eigenvalue-minimisations  :   768
 total energy-change (2. order) : 0.6921134E-02  (-0.1975957E-01)
 number of electron       7.9999999 magnetization 
 augmentation part       -0.4657457 magnetization 

 Broyden mixing:
  rms(total) = 0.18784E-01    rms(broyden)= 0.18784E-01
  rms(prec ) = 0.47854E-01
  weight for this iteration     100.00

 eigenvalues of (default mixing * dielectric matrix)
  average eigenvalue GAMMA=   2.3127
  2.3127  2.3127

 Free energy of the ion-electron system (eV)
  ---------------------------------------------------
  alpha Z        PSCENC =         3.24857844
  Ewald energy   TEWEN  =      -225.91568183
  -Hartree energ DENC   =       -15.68720027
  -exchange      EXHF   =         0.00000000
  -V(xc)+E(xc)   XCENC  =       -19.63424341
  PAW double counting   =       542.87598832     -506.38330637
  entropy T*S    EENTRO =        -0.00009791
  eigenvalues    EBANDS =         4.57021916
  atomic energy  EATOM  =       208.59373829
  Solvation  Ediel_sol  =         0.00000000
  ---------------------------------------------------
  free energy    TOTEN  =        -8.33200558 eV

  energy without entropy =       -8.33190767  energy(sigma->0) =       -8.33195663


--------------------------------------------------------------------------------------------------------




----------------------------------------- Iteration    1(   8)  ---------------------------------------


    POTLOK:  cpu time    1.6040: real time    1.6011
    SETDIJ:  cpu time    0.0000: real time    0.0027
     EDDAV:  cpu time    0.2400: real time    0.2381
       DOS:  cpu time    0.0000: real time    0.0004
    CHARGE:  cpu time    0.0240: real time    0.0244
    MIXING:  cpu time    0.0000: real time    0.0005
    --------------------------------------------
      LOOP:  cpu time    1.8680: real time    1.9760

 eigenvalue-minimisations  :   576
 total energy-change (2. order) : 0.1655590E-01  (-0.4934566E-03)
 number of electron       7.9999999 magnetization 
 augmentation part       -0.4670588 magnetization 

 Broyden mixing:
  rms(total) = 0.95800E-02    rms(broyden)= 0.95800E-02
  rms(prec ) = 0.23600E-01
  weight for this iteration     100.00

 eigenvalues of (default mixing * dielectric matrix)
  average eigenvalue GAMMA=   2.1995
  3.1123  1.7432  1.7432

 Free energy of the ion-electron system (eV)
  ---------------------------------------------------
  alpha Z        PSCENC =         3.24857844
  Ewald energy   TEWEN  =      -225.91568183
  -Hartree energ DENC   =       -15.46264427
  -exchange      EXHF   =         0.00000000
  -V(xc)+E(xc)   XCENC  =       -19.64955228
  PAW double counting   =       520.95816996     -484.40153221
  entropy T*S    EENTRO =        -0.00006733
  eigenvalues    EBANDS =         4.31354156
  atomic energy  EATOM  =       208.59373829
  Solvation  Ediel_sol  =         0.00000000
  ---------------------------------------------------
  free energy    TOTEN  =        -8.31544968 eV

  energy without entropy =       -8.31538235  energy(sigma->0) =       -8.31541602


--------------------------------------------------------------------------------------------------------




----------------------------------------- Iteration    1(   9)  ---------------------------------------


    POTLOK:  cpu time    1.6200: real time    1.6183
    SETDIJ:  cpu time    0.0040: real time    0.0020
     EDDAV:  cpu time    0.2560: real time    0.2585
       DOS:  cpu time    0.0000: real time    0.0004
    CHARGE:  cpu time    0.0240: real time    0.0238
    MIXING:  cpu time    0.0000: real time    0.0006
    --------------------------------------------
      LOOP:  cpu time    1.9040: real time    2.3675

 eigenvalue-minimisations  :   656
 total energy-change (2. order) :-0.1084474E-02  (-0.5498311E-04)
 number of electron       7.9999999 magnetization 
 augmentation part       -0.4667283 magnetization 

 Broyden mixing:
  rms(total) = 0.50858E-02    rms(broyden)= 0.50858E-02
  rms(prec ) = 0.67277E-02
  weight for this iteration     100.00

 eigenvalues of (default mixing * dielectric matrix)
  average eigenvalue GAMMA=   2.2116
  0.9614  2.9128  2.4861  2.4861

 Free energy of the ion-electron system (eV)
  ---------------------------------------------------
  alpha Z        PSCENC =         3.24857844
  Ewald energy   TEWEN  =      -225.91568183
  -Hartree energ DENC   =       -15.60710572
  -exchange      EXHF   =         0.00000000
  -V(xc)+E(xc)   XCENC  =       -19.62509397
  PAW double counting   =       530.99123484     -494.44141917
  entropy T*S    EENTRO =        -0.00007368
  eigenvalues    EBANDS =         4.43928865
  atomic energy  EATOM  =       208.59373829
  Solvation  Ediel_sol  =         0.00000000
  ---------------------------------------------------
  free energy    TOTEN  =        -8.31653415 eV

  energy without entropy =       -8.31646047  energy(sigma->0) =       -8.31649731


--------------------------------------------------------------------------------------------------------




----------------------------------------- Iteration    1(  10)  ---------------------------------------


    POTLOK:  cpu time    1.6160: real time    1.6168
    SETDIJ:  cpu time    0.0000: real time    0.0021
     EDDAV:  cpu time    0.2160: real time    0.2160
       DOS:  cpu time    0.0040: real time    0.0004
    CHARGE:  cpu time    0.0240: real time    0.0242
    MIXING:  cpu time    0.0000: real time    0.0006
    --------------------------------------------
      LOOP:  cpu time    1.8640: real time    1.9784

 eigenvalue-minimisations  :   576
 total energy-change (2. order) :-0.5310055E-04  (-0.2256668E-05)
 number of electron       7.9999999 magnetization 
 augmentation part       -0.4667514 magnetization 

 Broyden mixing:
  rms(total) = 0.78027E-03    rms(broyden)= 0.78027E-03
  rms(prec ) = 0.93017E-03
  weight for this iteration     100.00

 eigenvalues of (default mixing * dielectric matrix)
  average eigenvalue GAMMA=   1.8868
  2.9208  2.4884  2.2746  0.9679  0.7821

 Free energy of the ion-electron system (eV)
  ---------------------------------------------------
  alpha Z        PSCENC =         3.24857844
  Ewald energy   TEWEN  =      -225.91568183
  -Hartree energ DENC   =       -15.58783025
  -exchange      EXHF   =         0.00000000
  -V(xc)+E(xc)   XCENC  =       -19.62912962
  PAW double counting   =       522.97912205     -486.42883753
  entropy T*S    EENTRO =        -0.00007223
  eigenvalues    EBANDS =         4.42352543
  atomic energy  EATOM  =       208.59373829
  Solvation  Ediel_sol  =         0.00000000
  ---------------------------------------------------
  free energy    TOTEN  =        -8.31658725 eV

  energy without entropy =       -8.31651503  energy(sigma->0) =       -8.31655114


--------------------------------------------------------------------------------------------------------




----------------------------------------- Iteration    1(  11)  ---------------------------------------


    POTLOK:  cpu time    1.6120: real time    1.6137
    SETDIJ:  cpu time    0.0040: real time    0.0027
     EDDAV:  cpu time    0.4440: real time    0.4434
       DOS:  cpu time    0.0000: real time    0.0004
    CHARGE:  cpu time    0.0240: real time    0.0245
    MIXING:  cpu time    0.0000: real time    0.0006
    --------------------------------------------
      LOOP:  cpu time    2.0840: real time    2.1965

 eigenvalue-minimisations  :   832
 total energy-change (2. order) : 0.1835272E-03  (-0.3459023E-07)
 number of electron       7.9999999 magnetization 
 augmentation part       -0.4667654 magnetization 

 Broyden mixing:
  rms(total) = 0.16202E-03    rms(broyden)= 0.16202E-03
  rms(prec ) = 0.22042E-03
  weight for this iteration     100.00

 eigenvalues of (default mixing * dielectric matrix)
  average eigenvalue GAMMA=   1.9895
  2.9319  2.4037  2.4037  2.2434  1.0060  0.9483

 Free energy of the ion-electron system (eV)
  ---------------------------------------------------
  alpha Z        PSCENC =         3.24857844
  Ewald energy   TEWEN  =      -225.91568183
  -Hartree energ DENC   =       -15.58761712
  -exchange      EXHF   =         0.00000000
  -V(xc)+E(xc)   XCENC  =       -19.62885636
  PAW double counting   =       523.71905432     -487.16814947
  entropy T*S    EENTRO =        -0.00007207
  eigenvalues    EBANDS =         4.42260209
  atomic energy  EATOM  =       208.59373829
  Solvation  Ediel_sol  =         0.00000000
  ---------------------------------------------------
  free energy    TOTEN  =        -8.31640373 eV

  energy without entropy =       -8.31633166  energy(sigma->0) =       -8.31636769


--------------------------------------------------------------------------------------------------------




----------------------------------------- Iteration    1(  12)  ---------------------------------------


    POTLOK:  cpu time    1.6160: real time    1.6155
    SETDIJ:  cpu time    0.0040: real time    0.0025
     EDDAV:  cpu time    0.2840: real time    0.2842
       DOS:  cpu time    0.0000: real time    0.0004
    CHARGE:  cpu time    0.0200: real time    0.0188
    MIXING:  cpu time    0.0000: real time    0.0006
    --------------------------------------------
      LOOP:  cpu time    1.9240: real time    1.9554

 eigenvalue-minimisations  :   624
 total energy-change (2. order) : 0.1143014E-04  (-0.6756828E-08)
 number of electron       7.9999999 magnetization 
 augmentation part       -0.4667656 magnetization 

 Broyden mixing:
  rms(total) = 0.29721E-04    rms(broyden)= 0.29721E-04
  rms(prec ) = 0.61861E-04
  weight for this iteration     100.00

 eigenvalues of (default mixing * dielectric matrix)
  average eigenvalue GAMMA=   1.9496
  2.9912  2.8152  2.4833  2.2122  0.9706  1.0061  1.1689

 Free energy of the ion-electron system (eV)
  ---------------------------------------------------
  alpha Z        PSCENC =         3.24857844
  Ewald energy   TEWEN  =      -225.91568183
  -Hartree energ DENC   =       -15.58788054
  -exchange      EXHF   =         0.00000000
  -V(xc)+E(xc)   XCENC  =       -19.62882744
  PAW double counting   =       523.99619136     -487.44524216
  entropy T*S    EENTRO =        -0.00007203
  eigenvalues    EBANDS =         4.42280363
  atomic energy  EATOM  =       208.59373829
  Solvation  Ediel_sol  =         0.00000000
  ---------------------------------------------------
  free energy    TOTEN  =        -8.31639230 eV

  energy without entropy =       -8.31632026  energy(sigma->0) =       -8.31635628


--------------------------------------------------------------------------------------------------------




----------------------------------------- Iteration    1(  13)  ---------------------------------------


    POTLOK:  cpu time    1.6320: real time    1.6321
    SETDIJ:  cpu time    0.0040: real time    0.0020
     EDDAV:  cpu time    0.1760: real time    0.1761
       DOS:  cpu time    0.0000: real time    0.0004
    CHARGE:  cpu time    0.0240: real time    0.0239
    MIXING:  cpu time    0.0000: real time    0.0007
    --------------------------------------------
      LOOP:  cpu time    1.8360: real time    1.9249

 eigenvalue-minimisations  :   432
 total energy-change (2. order) : 0.3106509E-05  (-0.4536227E-09)
 number of electron       7.9999999 magnetization 
 augmentation part       -0.4667664 magnetization 

 Broyden mixing:
  rms(total) = 0.90785E-05    rms(broyden)= 0.90784E-05
  rms(prec ) = 0.11087E-04
  weight for this iteration     100.00

 eigenvalues of (default mixing * dielectric matrix)
  average eigenvalue GAMMA=   2.0151
  3.0702  2.8357  2.5293  2.5293  2.2012  1.0072  0.9889  0.9588

 Free energy of the ion-electron system (eV)
  ---------------------------------------------------
  alpha Z        PSCENC =         3.24857844
  Ewald energy   TEWEN  =      -225.91568183
  -Hartree energ DENC   =       -15.58764159
  -exchange      EXHF   =         0.00000000
  -V(xc)+E(xc)   XCENC  =       -19.62887418
  PAW double counting   =       523.97452180     -487.42355450
  entropy T*S    EENTRO =        -0.00007201
  eigenvalues    EBANDS =         4.42259641
  atomic energy  EATOM  =       208.59373829
  Solvation  Ediel_sol  =         0.00000000
  ---------------------------------------------------
  free energy    TOTEN  =        -8.31638919 eV

  energy without entropy =       -8.31631718  energy(sigma->0) =       -8.31635319


--------------------------------------------------------------------------------------------------------




----------------------------------------- Iteration    1(  14)  ---------------------------------------


    POTLOK:  cpu time    1.6160: real time    1.6159
    SETDIJ:  cpu time    0.0040: real time    0.0021
     EDDAV:  cpu time    0.1200: real time    0.1214
       DOS:  cpu time    0.0000: real time    0.0004
    CHARGE:  cpu time    0.0240: real time    0.0239
    MIXING:  cpu time    0.0000: real time    0.0007
    --------------------------------------------
      LOOP:  cpu time    1.7640: real time    1.8156

 eigenvalue-minimisations  :   304
 total energy-change (2. order) :-0.8055696E-06  (-0.2285149E-10)
 number of electron       7.9999999 magnetization 
 augmentation part       -0.4667662 magnetization 

 Broyden mixing:
  rms(total) = 0.69820E-06    rms(broyden)= 0.69820E-06
  rms(prec ) = 0.12695E-05
  weight for this iteration     100.00

 eigenvalues of (default mixing * dielectric matrix)
  average eigenvalue GAMMA=   1.9054
  3.0199  2.8896  2.5989  2.5015  2.1922  1.0481  0.9596  0.9596  0.9790

 Free energy of the ion-electron system (eV)
  ---------------------------------------------------
  alpha Z        PSCENC =         3.24857844
  Ewald energy   TEWEN  =      -225.91568183
  -Hartree energ DENC   =       -15.58768504
  -exchange      EXHF   =         0.00000000
  -V(xc)+E(xc)   XCENC  =       -19.62886873
  PAW double counting   =       523.96085428     -487.40989135
  entropy T*S    EENTRO =        -0.00007201
  eigenvalues    EBANDS =         4.42263795
  atomic energy  EATOM  =       208.59373829
  Solvation  Ediel_sol  =         0.00000000
  ---------------------------------------------------
  free energy    TOTEN  =        -8.31639000 eV

  energy without entropy =       -8.31631798  energy(sigma->0) =       -8.31635399


--------------------------------------------------------------------------------------------------------




----------------------------------------- Iteration    1(  15)  ---------------------------------------


    POTLOK:  cpu time    1.6160: real time    1.6181
    SETDIJ:  cpu time    0.0040: real time    0.0027
     EDDAV:  cpu time    0.1480: real time    0.1485
       DOS:  cpu time    0.0000: real time    0.0004
    CHARGE:  cpu time    0.0240: real time    0.0244
    MIXING:  cpu time    0.0000: real time    0.0007
    --------------------------------------------
      LOOP:  cpu time    1.7960: real time    2.1370

 eigenvalue-minimisations  :   304
 total energy-change (2. order) : 0.1990525E-06  (-0.1112834E-11)
 number of electron       7.9999999 magnetization 
 augmentation part       -0.4667662 magnetization 

 Broyden mixing:
  rms(total) = 0.29828E-06    rms(broyden)= 0.29828E-06
  rms(prec ) = 0.36904E-06
  weight for this iteration     100.00

 eigenvalues of (default mixing * dielectric matrix)
  average eigenvalue GAMMA=   1.9414
  3.1237  3.0048  2.7097  2.4403  2.2062  1.9219  0.9545  0.9877  0.9877  1.0771

 Free energy of the ion-electron system (eV)
  ---------------------------------------------------
  alpha Z        PSCENC =         3.24857844
  Ewald energy   TEWEN  =      -225.91568183
  -Hartree energ DENC   =       -15.58767863
  -exchange      EXHF   =         0.00000000
  -V(xc)+E(xc)   XCENC  =       -19.62886961
  PAW double counting   =       523.96097760     -487.41001394
  entropy T*S    EENTRO =        -0.00007201
  eigenvalues    EBANDS =         4.42263191
  atomic energy  EATOM  =       208.59373829
  Solvation  Ediel_sol  =         0.00000000
  ---------------------------------------------------
  free energy    TOTEN  =        -8.31638980 eV

  energy without entropy =       -8.31631778  energy(sigma->0) =       -8.31635379


--------------------------------------------------------------------------------------------------------




----------------------------------------- Iteration    1(  16)  ---------------------------------------


    POTLOK:  cpu time    1.6200: real time    1.6230
    SETDIJ:  cpu time    0.0040: real time    0.0026
     EDDAV:  cpu time    0.1160: real time    0.1168
       DOS:  cpu time    0.0000: real time    0.0004
    --------------------------------------------
      LOOP:  cpu time    1.7440: real time    1.7918

 eigenvalue-minimisations  :   272
 total energy-change (2. order) : 0.1396245E-07  (-0.4378008E-12)
 number of electron       7.9999999 magnetization 
 augmentation part       -0.4667662 magnetization 

 Free energy of the ion-electron system (eV)
  ---------------------------------------------------
  alpha Z        PSCENC =         3.24857844
  Ewald energy   TEWEN  =      -225.91568183
  -Hartree energ DENC   =       -15.58767885
  -exchange      EXHF   =         0.00000000
  -V(xc)+E(xc)   XCENC  =       -19.62886968
  PAW double counting   =       523.96078462     -487.40982098
  entropy T*S    EENTRO =        -0.00007201
  eigenvalues    EBANDS =         4.42263222
  atomic energy  EATOM  =       208.59373829
  Solvation  Ediel_sol  =         0.00000000
  ---------------------------------------------------
  free energy    TOTEN  =        -8.31638978 eV

  energy without entropy =       -8.31631777  energy(sigma->0) =       -8.31635378


--------------------------------------------------------------------------------------------------------




 average (electrostatic) potential at core
  the test charge radii are     0.9892
  (the norm of the test charge is              1.0000)
       1 -83.9098       2 -83.9098



 E-fermi :   5.8580     XC(G=0):  -9.2543     alpha+bet :-11.5728


 k-point     1 :       0.0000    0.0000    0.0000
  band No.  band energies     occupation 
      1      -6.1859      2.00000
      2       5.4663      1.99439
      3       5.4663      1.99439
      4       5.4663      1.99439
      5       8.0790      0.00000
      6       8.0790      0.00000
      7       8.0790      0.00000
      8       8.5384      0.00000
      9      13.2177      0.00000
     10      13.2177      0.00000
     11      13.3515      0.00000
     12      16.6575      0.00000
     13      16.6575      0.00000
     14      16.6575      0.00000
     15      20.7527      0.00000
     16      28.1725      0.00000

 k-point     2 :       0.1667    0.0000    0.0000
  band No.  band energies     occupation 
      1      -5.8362      2.00000
      2       3.1487      2.00000
      3       5.0411      2.00000
      4       5.0411      2.00000
      5       7.7755      0.00000
      6       8.6990      0.00000
      7       8.6990      0.00000
      8      10.6796      0.00000
      9      12.6000      0.00000
     10      12.6000      0.00000
     11      14.4682      0.00000
     12      16.0624      0.00000
     13      18.4817      0.00000
     14      18.4817      0.00000
     15      22.6391      0.00000
     16      25.0830      0.00000

 k-point     3 :       0.3333    0.0000    0.0000
  band No.  band energies     occupation 
      1      -4.8558      2.00000
      2       0.2879      2.00000
      3       4.5109      2.00000
      4       4.5109      2.00000
      5       7.1822      0.00000
      6       9.0222      0.00000
      7       9.0222      0.00000
      8      13.2356      0.00000
      9      13.4394      0.00000
     10      13.4394      0.00000
     11      14.4121      0.00000
     12      18.8238      0.00000
     13      19.8656      0.00000
     14      19.8656      0.00000
     15      21.8912      0.00000
     16      22.9174      0.00000

 k-point     4 :       0.5000    0.0000    0.0000
  band No.  band energies     occupation 
      1      -3.9455      2.00000
      2      -1.2828      2.00000
      3       4.3179      2.00000
      4       4.3179      2.00000
      5       6.9567      0.00000
      6       8.8790      0.00000
      7       8.8790      0.00000
      8      13.2163      0.00000
      9      15.9357      0.00000
     10      15.9357      0.00000
     11      16.5490      0.00000
     12      16.6609      0.00000
     13      16.6609      0.00000
     14      18.0613      0.00000
     15      24.5069      0.00000
     16      25.0219      0.00000

 k-point     5 :       0.1667    0.1667    0.0000
  band No.  band energies     occupation 
      1      -5.7170      2.00000
      2       3.4339      2.00000
      3       4.3402      2.00000
      4       4.3402      2.00000
      5       7.2494      0.00000
      6       9.6765      0.00000
      7       9.7768      0.00000
      8       9.7768      0.00000
      9      11.9622      0.00000
     10      13.7427      0.00000
     11      15.1032      0.00000
     12      17.4698      0.00000
     13      17.4698      0.00000
     14      18.0504      0.00000
     15      23.6585      0.00000
     16      24.5730      0.00000

 k-point     6 :       0.3333    0.1667    0.0000
  band No.  band energies     occupation 
      1      -4.9286      2.00000
      2       1.1304      2.00000
      3       3.5588      2.00000
      4       3.8066      2.00000
      5       7.4936      0.00000
      6       9.4941      0.00000
      7       9.9925      0.00000
      8      10.5113      0.00000
      9      14.3379      0.00000
     10      14.5092      0.00000
     11      15.8115      0.00000
     12      18.1879      0.00000
     13      19.0328      0.00000
     14      20.5240      0.00000
     15      21.2999      0.00000
     16      22.2368      0.00000

 k-point     7 :       0.5000    0.1667    0.0000
  band No.  band energies     occupation 
      1      -3.7864      2.00000
      2      -0.9514      2.00000
      3       2.8021      2.00000
      4       3.7727      2.00000
      5       7.5648      0.00000
      6       9.5367      0.00000
      7      10.1080      0.00000
      8      11.8380      0.00000
      9      14.8120      0.00000
     10      15.8458      0.00000
     11      17.0626      0.00000
     12      17.1532      0.00000
     13      17.8180      0.00000
     14      21.2716      0.00000
     15      23.1079      0.00000
     16      24.2301      0.00000

 k-point     8 :      -0.3333    0.1667    0.0000
  band No.  band energies     occupation 
      1      -4.1537      2.00000
      2      -0.3781      2.00000
      3       2.5501      2.00000
      4       4.2280      2.00000
      5       7.9369      0.00000
      6       9.5616      0.00000
      7       9.7255      0.00000
      8      12.6376      0.00000
      9      12.7932      0.00000
     10      14.7662      0.00000
     11      16.8209      0.00000
     12      17.9982      0.00000
     13      20.1453      0.00000
     14      20.6336      0.00000
     15      21.4612      0.00000
     16      23.1292      0.00000

 k-point     9 :      -0.1667    0.1667    0.0000
  band No.  band energies     occupation 
      1      -5.2671      2.00000
      2       1.8242      2.00000
      3       3.1804      2.00000
      4       4.9245      2.00000
      5       8.4694      0.00000
      6       9.0482      0.00000
      7       9.2803      0.00000
      8      11.0492      0.00000
      9      11.6426      0.00000
     10      14.6756      0.00000
     11      15.8200      0.00000
     12      16.9150      0.00000
     13      18.7087      0.00000
     14      20.8336      0.00000
     15      21.2946      0.00000
     16      23.8334      0.00000

 k-point    10 :       0.3333    0.3333    0.0000
  band No.  band energies     occupation 
      1      -4.3422      2.00000
      2       0.5383      2.00000
      3       3.1618      2.00000
      4       3.1618      2.00000
      5       6.3095      0.00141
      6       7.5709      0.00000
      7      12.6050      0.00000
      8      12.6050      0.00000
      9      14.9601      0.00000
     10      15.3124      0.00000
     11      18.3242      0.00000
     12      18.7587      0.00000
     13      18.7587      0.00000
     14      20.4737      0.00000
     15      21.4729      0.00000
     16      21.6487      0.00000

 k-point    11 :       0.5000    0.3333    0.0000
  band No.  band energies     occupation 
      1      -3.2202      2.00000
      2      -0.9657      2.00000
      3       2.0116      2.00000
      4       3.0286      2.00000
      5       6.6475      0.00000
      6       8.2440      0.00000
      7      12.7899      0.00000
      8      12.8354      0.00000
      9      15.8795      0.00000
     10      16.0466      0.00000
     11      17.6502      0.00000
     12      17.9843      0.00000
     13      20.0137      0.00000
     14      20.9867      0.00000
     15      21.1990      0.00000
     16      23.8671      0.00000

 k-point    12 :      -0.3333    0.3333    0.0000
  band No.  band energies     occupation 
      1      -3.0397      2.00000
      2      -1.1555      2.00000
      3       1.2677      2.00000
      4       3.4519      2.00000
      5       7.1313      0.00000
      6      11.2517      0.00000
      7      11.8838      0.00000
      8      12.3980      0.00000
      9      12.7293      0.00000
     10      13.1296      0.00000
     11      19.6863      0.00000
     12      20.2365      0.00000
     13      20.7662      0.00000
     14      20.9674      0.00000
     15      21.7926      0.00000
     16      22.6654      0.00000

 k-point    13 :       0.5000    0.5000    0.0000
  band No.  band energies     occupation 
      1      -2.1760      2.00000
      2      -2.1760      2.00000
      3       2.7417      2.00000
      4       2.7417      2.00000
      5       6.3099      0.00140
      6       6.3099      0.00140
      7      15.3378      0.00000
      8      15.3378      0.00000
      9      16.3024      0.00000
     10      16.3024      0.00000
     11      17.9065      0.00000
     12      17.9065      0.00000
     13      18.1295      0.00000
     14      18.1295      0.00000
     15      24.1058      0.00000
     16      24.1058      0.00000

 k-point    14 :       0.5000    0.3333    0.1667
  band No.  band energies     occupation 
      1      -3.9731      2.00000
      2      -0.0673      2.00000
      3       2.0692      2.00000
      4       3.2877      2.00000
      5       8.3548      0.00000
      6       9.2379      0.00000
      7       9.6601      0.00000
      8      12.4207      0.00000
      9      14.3460      0.00000
     10      15.2251      0.00000
     11      18.1926      0.00000
     12      18.5787      0.00000
     13      19.2133      0.00000
     14      20.1211      0.00000
     15      21.8223      0.00000
     16      23.0304      0.00000

 k-point    15 :      -0.3333    0.3333    0.1667
  band No.  band energies     occupation 
      1      -3.0309      2.00000
      2      -1.2176      2.00000
      3       1.6410      2.00000
      4       2.8460      2.00000
      5       8.8810      0.00000
      6       9.0122      0.00000
      7      11.5292      0.00000
      8      11.9067      0.00000
      9      12.9058      0.00000
     10      16.3943      0.00000
     11      17.2145      0.00000
     12      18.8188      0.00000
     13      21.3562      0.00000
     14      21.9752      0.00000
     15      22.1963      0.00000
     16      23.1367      0.00000

 k-point    16 :      -0.3333    0.5000    0.1667
  band No.  band energies     occupation 
      1      -2.0673      2.00000
      2      -2.0673      2.00000
      3       2.0021      2.00000
      4       2.0021      2.00000
      5       8.2700      0.00000
      6       8.2700      0.00000
      7      12.1469      0.00000
      8      12.1469      0.00000
      9      15.8437      0.00000
     10      15.8437      0.00000
     11      18.1884      0.00000
     12      18.1884      0.00000
     13      21.6849      0.00000
     14      21.6849      0.00000
     15      22.4398      0.00000
     16      22.4398      0.00000


--------------------------------------------------------------------------------------------------------


 soft charge-density along one line, spin component           1
         0         1         2         3         4         5         6         7         8         9
 total charge-density along one line

 pseudopotential strength for first ion, spin component:           1
 18.545  25.869  -0.000  -0.000  -0.000  -0.000  -0.000  -0.000
 25.869  36.090  -0.000  -0.000  -0.000  -0.000  -0.000  -0.000
 -0.000  -0.000   4.200  -0.000  -0.000   7.819  -0.000  -0.000
 -0.000  -0.000  -0.000   4.200  -0.000  -0.000   7.819  -0.000
 -0.000  -0.000  -0.000  -0.000   4.200  -0.000  -0.000   7.819
 -0.000  -0.000   7.819  -0.000  -0.000  14.566  -0.000  -0.000
 -0.000  -0.000  -0.000   7.819  -0.000  -0.000  14.566  -0.000
 -0.000  -0.000  -0.000  -0.000   7.819  -0.000  -0.000  14.566
 total augmentation occupancy for first ion, spin component:           1
  3.169  -0.917  -0.000   0.000   0.000   0.000   0.000   0.000
 -0.917   0.464   0.000   0.000   0.000   0.000   0.000   0.000
 -0.000  -0.000   2.223  -0.000  -0.000  -0.396  -0.000   0.000
  0.000  -0.000  -0.000   2.223  -0.000   0.000  -0.396  -0.000
 -0.000   0.000  -0.000  -0.000   2.223   0.000  -0.000  -0.396
  0.000  -0.000  -0.396   0.000   0.000   0.081   0.000   0.000
  0.000   0.000  -0.000  -0.396   0.000   0.000   0.081   0.000
  0.000   0.000   0.000   0.000  -0.396   0.000   0.000   0.081


------------------------ aborting loop because EDIFF is reached ----------------------------------------


    CHARGE:  cpu time    0.0240: real time    0.0245
    FORLOC:  cpu time    0.0000: real time    0.0005
    FORNL :  cpu time    0.0280: real time    0.0251
    STRESS:  cpu time    0.2520: real time    0.2517
    FORCOR:  cpu time    1.6280: real time    1.6263
    FORHAR:  cpu time    0.0040: real time    0.0040
    MIXING:  cpu time    0.0000: real time    0.0007
    OFIELD:  cpu time    0.0000: real time    0.0000

  FORCE on cell =-STRESS in cart. coord.  units (eV):
  Direction    XX          YY          ZZ          XY          YZ          ZX
  --------------------------------------------------------------------------------------
  Alpha Z     3.24858     3.24858     3.24858
  Ewald     -75.30526   -75.30526   -75.30526     0.00000    -0.00000    -0.00000
  Hartree     5.19589     5.19589     5.19589     0.00000     0.00000     0.00000
  E(xc)     -25.31516   -25.31516   -25.31516    -0.00000    -0.00000    -0.00000
  Local     -29.77512   -29.77512   -29.77512     0.00001     0.00001     0.00001
  n-local    78.89374    79.72931    74.04070     2.32678    -1.06437     0.69173
  augment   -11.94885   -11.94885   -11.94885    -0.00001    -0.00001    -0.00001
  Kinetic    58.27060    56.49102    54.30723     3.51470    -0.99388     0.95297
  Fock        0.00000     0.00000     0.00000     0.00000     0.00000     0.00000
  -------------------------------------------------------------------------------------
  Total       0.01096     0.01096     0.01096     0.00000     0.00000    -0.00000
  in kB       0.42346     0.42346     0.42346     0.00000     0.00000    -0.00000
  external pressure =        0.42 kB  Pullay stress =        0.00 kB


 VOLUME and BASIS-vectors are now :
 -----------------------------------------------------------------------------
  energy-cutoff  :      500.00
  volume of cell :       41.45
      direct lattice vectors                 reciprocal lattice vectors
     0.000000000  2.746821138  2.746821138    -0.182028598  0.182028598  0.182028598
     2.746821138  0.000000000  2.746821138     0.182028598 -0.182028598  0.182028598
     2.746821138  2.746821138  0.000000000     0.182028598  0.182028598 -0.182028598

  length of vectors
     3.884591706  3.884591706  3.884591706     0.315282780  0.315282780  0.315282780


 FORCES acting on ions
    electron-ion (+dipol)            ewald-force                    non-local-force                 convergence-correction
 -----------------------------------------------------------------------------------------------
   0.987E-08 0.987E-08 0.107E-07   -.313E-14 -.268E-14 -.153E-14   0.902E-16 0.555E-16 0.798E-16   -.146E-11 -.146E-11 -.146E-11
   -.987E-08 -.987E-08 -.107E-07   0.307E-14 0.301E-14 0.222E-14   -.971E-16 -.763E-16 -.798E-16   0.146E-11 0.146E-11 0.146E-11
 -----------------------------------------------------------------------------------------------
   0.154E-13 0.762E-13 -.132E-12   -.615E-16 0.330E-15 0.690E-15   -.694E-17 -.208E-16 0.000E+00   -.328E-14 -.382E-15 -.468E-16


 POSITION                                       TOTAL-FORCE (eV/Angst)
 -----------------------------------------------------------------------------------
      4.12023      4.12023      4.12023         0.000000      0.000000     -0.000000
      2.74682      2.74682      2.74682        -0.000000     -0.000000      0.000000
 -----------------------------------------------------------------------------------
    total drift:                                0.000000      0.000000     -0.000000


--------------------------------------------------------------------------------------------------------



  FREE ENERGIE OF THE ION-ELECTRON SYSTEM (eV)
  ---------------------------------------------------
  free  energy   TOTEN  =        -8.31638978 eV

  energy  without entropy=       -8.31631777  energy(sigma->0) =       -8.31635378



--------------------------------------------------------------------------------------------------------


    POTLOK:  cpu time    1.6600: real time    1.6601


--------------------------------------------------------------------------------------------------------




--------------------------------------------------------------------------------------------------------


  
 reached required accuracy - stopping structural energy minimisation
     LOOP+:  cpu time   28.0880: real time   30.3113
    4ORBIT:  cpu time    0.0000: real time    0.0000

 total amount of memory used by VASP on root node    33440. kBytes
========================================================================

   base      :      30000. kBytes
   nonl-proj :       1132. kBytes
   fftplans  :        517. kBytes
   grid      :       1507. kBytes
   one-center:          6. kBytes
   wavefun   :        278. kBytes

  
  
 General timing and accounting informations for this job:
 ========================================================
  
                  Total CPU time used (sec):       28.632
                            User time (sec):       28.360
                          System time (sec):        0.272
                         Elapsed time (sec):       32.129
  
                   Maximum memory used (kb):      111884.
                   Average memory used (kb):           0.
  
                          Minor page faults:       136707
                          Major page faults:            5
                 Voluntary context switches:          228
