 running on   16 total cores
 distrk:  each k-point on   16 cores,    1 groups
 distr:  one band on    1 cores,   16 groups
 using from now: INCAR     
 vasp.5.4.1 24Jun15 (build Feb  9 2019 14:16:27) complex                         
 POSCAR found type information on POSCAR  Si
 POSCAR found :  1 types and       2 ions
 scaLAPACK will be used

 ----------------------------------------------------------------------------- 
|                                                                             |
|           W    W    AA    RRRRR   N    N  II  N    N   GGGG   !!!           |
|           W    W   A  A   R    R  NN   N  II  NN   N  G    G  !!!           |
|           W    W  A    A  R    R  N N  N  II  N N  N  G       !!!           |
|           W WW W  AAAAAA  RRRRR   N  N N  II  N  N N  G  GGG   !            |
|           WW  WW  A    A  R   R   N   NN  II  N   NN  G    G                |
|           W    W  A    A  R    R  N    N  II  N    N   GGGG   !!!           |
|                                                                             |
|      For optimal performance we recommend to set                            |
|        NCORE= 4 - approx SQRT( number of cores)                             |
|      NCORE specifies how many cores store one orbital (NPAR=cpu/NCORE).     |
|      This setting can  greatly improve the performance of VASP for DFT.     |
|      The default, NPAR=number of cores might be grossly inefficient         |
|      on modern multi-core architectures or massively parallel machines.     |
|      Do your own testing !!!!                                               |
|      Unfortunately you need to use the default for GW and RPA calculations. |
|      (for HF NCORE is supported but not extensively tested yet)             |
|                                                                             |
 ----------------------------------------------------------------------------- 


 ----------------------------------------------------------------------------- 
|                                                                             |
|  ADVICE TO THIS USER RUNNING 'VASP/VAMP'   (HEAR YOUR MASTER'S VOICE ...):  |
|                                                                             |
|      You have switched on vdW-DFT.                                          |
|      This routine was written and supplied by Jiri Klimes.                  |
|      We recommed that you carefully read and cite the following             |
|      publication                                                            |
|      J. Klimes, D.R. Bowler, A. Michelides                                  |
|        J. Phys.: Cond Matt. 22 022201 (2010)                                |
|      J. Klimes, D.R. Bowler, A. Michelides                                  |
|        Phys. Rev. B. 83, 195131 (2011)                                      |
|      and references therein.                                                |
|                                                                             |
 ----------------------------------------------------------------------------- 


 ----------------------------------------------------------------------------- 
|                                                                             |
|  ADVICE TO THIS USER RUNNING 'VASP/VAMP'   (HEAR YOUR MASTER'S VOICE ...):  |
|                                                                             |
|      You enforced a specific xc-type in the INCAR file,                     |
|      a different type was found on the POTCAR file                          |
|          I HOPE YOU KNOW, WHAT YOU ARE  DOING                               |
|                                                                             |
 ----------------------------------------------------------------------------- 

 LDA part: xc-table for Pade appr. of Perdew
 POSCAR, INCAR and KPOINTS ok, starting setup
 WARNING: small aliasing (wrap around) errors must be expected
 FFT: planning ...
 WAVECAR not read
 entering main loop
       N       E                     dE             d eps       ncg     rms          rms(c)
Total vdW correction in eV:      1.0901334
DAV:   1     0.249898304223E+01    0.24990E+01   -0.33732E+03   512   0.387E+02
DAV:   2    -0.831423521924E+01   -0.10813E+02   -0.10762E+02   736   0.393E+01
DAV:   3    -0.839008444885E+01   -0.75849E-01   -0.75849E-01   544   0.419E+00
DAV:   4    -0.839033112824E+01   -0.24668E-03   -0.24668E-03   992   0.271E-01
DAV:   5    -0.839033114354E+01   -0.15300E-07   -0.15115E-07   544   0.153E-03    0.369E+00
Total vdW correction in eV:      1.1381923
DAV:   6    -0.833892671603E+01    0.51404E-01   -0.86022E-02   784   0.866E-01    0.226E+00
Total vdW correction in eV:      1.2303583
DAV:   7    -0.833200558250E+01    0.69211E-02   -0.19760E-01   768   0.129E+00    0.188E-01
Total vdW correction in eV:      1.2258919
DAV:   8    -0.831544967960E+01    0.16556E-01   -0.49346E-03   576   0.244E-01    0.958E-02
Total vdW correction in eV:      1.2318133
DAV:   9    -0.831653415399E+01   -0.10845E-02   -0.54983E-04   656   0.820E-02    0.509E-02
Total vdW correction in eV:      1.2314831
DAV:  10    -0.831658725454E+01   -0.53101E-04   -0.22567E-05   576   0.212E-02    0.780E-03
Total vdW correction in eV:      1.2314956
DAV:  11    -0.831640372733E+01    0.18353E-03   -0.34590E-07   832   0.272E-03    0.162E-03
Total vdW correction in eV:      1.2315381
DAV:  12    -0.831639229718E+01    0.11430E-04   -0.67568E-08   624   0.133E-03    0.297E-04
Total vdW correction in eV:      1.2315356
DAV:  13    -0.831638919067E+01    0.31065E-05   -0.45362E-09   432   0.303E-04    0.908E-05
Total vdW correction in eV:      1.2315373
DAV:  14    -0.831638999624E+01   -0.80557E-06   -0.22851E-10   304   0.731E-05    0.698E-06
Total vdW correction in eV:      1.2315370
DAV:  15    -0.831638979719E+01    0.19905E-06   -0.11128E-11   304   0.156E-05    0.298E-06
Total vdW correction in eV:      1.2315370
DAV:  16    -0.831638978323E+01    0.13962E-07   -0.43780E-12   272   0.655E-06
Total vdW correction in eV:      1.2315370
Total vdW correction in eV:      1.2315370
   1 F= -.83163898E+01 E0= -.83163538E+01  d E =-.831639E+01
 curvature:   0.00 expect dE= 0.000E+00 dE for cont linesearch  0.000E+00
 trial: gam= 0.00000 g(F)=  0.454E-49 g(S)=  0.000E+00 ort = 0.000E+00 (trialstep = 0.100E+01)
 search vector abs. value=  0.100E-09
 reached required accuracy - stopping structural energy minimisation
