<?xml version="1.0" encoding="ISO-8859-1"?>
<modeling>
 <generator>
  <i name="program" type="string">vasp </i>
  <i name="version" type="string">5.4.1  </i>
  <i name="subversion" type="string">24Jun15 (build Feb  9 2019 14:16:27) complex                          parallel </i>
  <i name="platform" type="string">IFC91_ompi </i>
  <i name="date" type="string">2020 09 26 </i>
  <i name="time" type="string">22:28:17 </i>
 </generator>
 <incar>
  <i type="string" name="PREC">accurate</i>
  <i type="int" name="NELM">   400</i>
  <i type="int" name="IBRION">     2</i>
  <i name="EDIFF">      0.00000010</i>
  <i type="int" name="NSW">     1</i>
  <i type="int" name="ISIF">     2</i>
  <i name="ENCUT">    500.00000000</i>
  <i type="int" name="ISMEAR">     0</i>
  <i type="logical" name="LWAVE"> F  </i>
  <i type="logical" name="LCHARG"> F  </i>
  <v type="int" name="KPOINT_BSE">    -1     0     0     0</v>
  <i type="int" name="NELM">   400</i>
  <i type="string" name="GGA">BO</i>
  <i name="PARAM1">      0.18333333</i>
  <i name="PARAM2">      0.22000000</i>
  <i type="logical" name="LUSE_VDW"> T  </i>
  <i name="AGGAC">      0.00000000</i>
 </incar>
 <kpoints>
  <generation param="Gamma">
   <v type="int" name="divisions">       6        6        6 </v>
   <v name="usershift">      0.00000000       0.00000000       0.00000000 </v>
   <v name="genvec1">      0.16666667       0.00000000       0.00000000 </v>
   <v name="genvec2">      0.00000000       0.16666667       0.00000000 </v>
   <v name="genvec3">      0.00000000       0.00000000       0.16666667 </v>
   <v name="shift">      0.00000000       0.00000000       0.00000000 </v>
  </generation>
  <varray name="kpointlist" >
   <v>       0.00000000       0.00000000       0.00000000 </v>
   <v>       0.16666667       0.00000000       0.00000000 </v>
   <v>       0.33333333       0.00000000       0.00000000 </v>
   <v>       0.50000000       0.00000000       0.00000000 </v>
   <v>       0.16666667       0.16666667       0.00000000 </v>
   <v>       0.33333333       0.16666667       0.00000000 </v>
   <v>       0.50000000       0.16666667       0.00000000 </v>
   <v>      -0.33333333       0.16666667       0.00000000 </v>
   <v>      -0.16666667       0.16666667       0.00000000 </v>
   <v>       0.33333333       0.33333333       0.00000000 </v>
   <v>       0.50000000       0.33333333       0.00000000 </v>
   <v>      -0.33333333       0.33333333       0.00000000 </v>
   <v>       0.50000000       0.50000000       0.00000000 </v>
   <v>       0.50000000       0.33333333       0.16666667 </v>
   <v>      -0.33333333       0.33333333       0.16666667 </v>
   <v>      -0.33333333       0.50000000       0.16666667 </v>
  </varray>
  <varray name="weights" >
   <v>       0.00462963 </v>
   <v>       0.03703704 </v>
   <v>       0.03703704 </v>
   <v>       0.01851852 </v>
   <v>       0.02777778 </v>
   <v>       0.11111111 </v>
   <v>       0.11111111 </v>
   <v>       0.11111111 </v>
   <v>       0.05555556 </v>
   <v>       0.02777778 </v>
   <v>       0.11111111 </v>
   <v>       0.05555556 </v>
   <v>       0.01388889 </v>
   <v>       0.11111111 </v>
   <v>       0.11111111 </v>
   <v>       0.05555556 </v>
  </varray>
 </kpoints>
 <parameters>
  <separator name="general" >
   <i type="string" name="SYSTEM">unknown system</i>
   <i type="logical" name="LCOMPAT"> F  </i>
  </separator>
  <separator name="electronic" >
   <i type="string" name="PREC">accura</i>
   <i name="ENMAX">    500.00000000</i>
   <i name="ENAUG">    322.06900000</i>
   <i name="EDIFF">      0.00000010</i>
   <i type="int" name="IALGO">    38</i>
   <i type="int" name="IWAVPR">    11</i>
   <i type="int" name="NBANDS">    16</i>
   <i name="NELECT">      8.00000000</i>
   <i type="int" name="TURBO">     0</i>
   <i type="int" name="IRESTART">     0</i>
   <i type="int" name="NREBOOT">     0</i>
   <i type="int" name="NMIN">     0</i>
   <i name="EREF">      0.00000000</i>
   <separator name="electronic smearing" >
    <i type="int" name="ISMEAR">     0</i>
    <i name="SIGMA">      0.20000000</i>
    <i name="KSPACING">      0.50000000</i>
    <i type="logical" name="KGAMMA"> T  </i>
   </separator>
   <separator name="electronic projectors" >
    <i type="logical" name="LREAL"> F  </i>
    <v name="ROPT">      0.00000000</v>
    <i type="int" name="LMAXPAW">  -100</i>
    <i type="int" name="LMAXMIX">     2</i>
    <i type="logical" name="NLSPLINE"> F  </i>
   </separator>
   <separator name="electronic startup" >
    <i type="int" name="ISTART">     0</i>
    <i type="int" name="ICHARG">     2</i>
    <i type="int" name="INIWAV">     1</i>
   </separator>
   <separator name="electronic spin" >
    <i type="int" name="ISPIN">     1</i>
    <i type="logical" name="LNONCOLLINEAR"> F  </i>
    <v name="MAGMOM">      1.00000000      1.00000000</v>
    <i name="NUPDOWN">     -1.00000000</i>
    <i type="logical" name="LSORBIT"> F  </i>
    <v name="SAXIS">      0.00000000      0.00000000      1.00000000</v>
    <i type="logical" name="LSPIRAL"> F  </i>
    <v name="QSPIRAL">      0.00000000      0.00000000      0.00000000</v>
    <i type="logical" name="LZEROZ"> F  </i>
   </separator>
   <separator name="electronic exchange-correlation" >
    <i type="logical" name="LASPH"> F  </i>
    <i type="logical" name="LMETAGGA"> F  </i>
   </separator>
   <separator name="electronic convergence" >
    <i type="int" name="NELM">   400</i>
    <i type="int" name="NELMDL">    -5</i>
    <i type="int" name="NELMIN">     2</i>
    <i name="ENINI">    500.00000000</i>
    <separator name="electronic convergence detail" >
     <i type="logical" name="LDIAG"> T  </i>
     <i type="logical" name="LSUBROT"> F  </i>
     <i name="WEIMIN">      0.00100000</i>
     <i name="EBREAK">      0.00000000</i>
     <i name="DEPER">      0.30000000</i>
     <i type="int" name="NRMM">     4</i>
     <i name="TIME">      0.40000000</i>
    </separator>
   </separator>
   <separator name="electronic mixer" >
    <i name="AMIX">      0.40000000</i>
    <i name="BMIX">      1.00000000</i>
    <i name="AMIN">      0.10000000</i>
    <i name="AMIX_MAG">      1.60000000</i>
    <i name="BMIX_MAG">      1.00000000</i>
    <separator name="electronic mixer details" >
     <i type="int" name="IMIX">     4</i>
     <i type="logical" name="MIXFIRST"> F  </i>
     <i type="int" name="MAXMIX">   -45</i>
     <i name="WC">    100.00000000</i>
     <i type="int" name="INIMIX">     1</i>
     <i type="int" name="MIXPRE">     1</i>
     <i type="int" name="MREMOVE">     5</i>
    </separator>
   </separator>
   <separator name="electronic dipolcorrection" >
    <i type="logical" name="LDIPOL"> F  </i>
    <i type="logical" name="LMONO"> F  </i>
    <i type="int" name="IDIPOL">     0</i>
    <i name="EPSILON">      1.00000000</i>
    <v name="DIPOL">   -100.00000000   -100.00000000   -100.00000000</v>
    <i name="EFIELD">      0.00000000</i>
   </separator>
  </separator>
  <separator name="grids" >
   <i type="int" name="NGX">    28</i>
   <i type="int" name="NGY">    28</i>
   <i type="int" name="NGZ">    28</i>
   <i type="int" name="NGXF">    56</i>
   <i type="int" name="NGYF">    56</i>
   <i type="int" name="NGZF">    56</i>
   <i type="logical" name="ADDGRID"> F  </i>
  </separator>
  <separator name="ionic" >
   <i type="int" name="NSW">     1</i>
   <i type="int" name="IBRION">     2</i>
   <i type="int" name="ISIF">     2</i>
   <i name="PSTRESS">      0.00000000</i>
   <i name="EDIFFG">      0.00000100</i>
   <i type="int" name="NFREE">     1</i>
   <i name="POTIM">      0.50000000</i>
   <i name="SMASS">     -3.00000000</i>
   <i name="SCALEE">      1.00000000</i>
  </separator>
  <separator name="ionic md" >
   <i name="TEBEG">      0.00010000</i>
   <i name="TEEND">      0.00010000</i>
   <i type="int" name="NBLOCK">     1</i>
   <i type="int" name="KBLOCK">     1</i>
   <i type="int" name="NPACO">   256</i>
   <i name="APACO">     16.00000000</i>
  </separator>
  <separator name="symmetry" >
   <i type="int" name="ISYM">     2</i>
   <i name="SYMPREC">      0.00001000</i>
  </separator>
  <separator name="dos" >
   <i type="logical" name="LORBIT"> T  </i>
   <v name="RWIGS">     -1.00000000</v>
   <i type="int" name="NEDOS">   301</i>
   <i name="EMIN">     10.00000000</i>
   <i name="EMAX">    -10.00000000</i>
   <i name="EFERMI">      0.00000000</i>
  </separator>
  <separator name="writing" >
   <i type="int" name="NWRITE">     2</i>
   <i type="logical" name="LWAVE"> F  </i>
   <i type="logical" name="LCHARG"> F  </i>
   <i type="logical" name="LPARD"> F  </i>
   <i type="logical" name="LVTOT"> F  </i>
   <i type="logical" name="LVHAR"> F  </i>
   <i type="logical" name="LELF"> F  </i>
   <i type="logical" name="LOPTICS"> F  </i>
   <v name="STM">      0.00000000      0.00000000      0.00000000      0.00000000      0.00000000      0.00000000      0.00000000</v>
  </separator>
  <separator name="performance" >
   <i type="int" name="NPAR">    16</i>
   <i type="int" name="NSIM">     4</i>
   <i type="int" name="NBLK">    -1</i>
   <i type="logical" name="LPLANE"> T  </i>
   <i type="logical" name="LSCALAPACK"> T  </i>
   <i type="logical" name="LSCAAWARE"> F  </i>
   <i type="logical" name="LSCALU"> F  </i>
   <i type="logical" name="LASYNC"> F  </i>
   <i type="logical" name="LORBITALREAL"> F  </i>
  </separator>
  <separator name="miscellaneous" >
   <i type="int" name="IDIOT">     3</i>
   <i type="logical" name="LMUSIC"> F  </i>
   <v name="POMASS">     28.08500000</v>
   <v name="DARWINR">      0.00000000</v>
   <v name="DARWINV">      1.00000000</v>
   <i type="logical" name="LCORR"> T  </i>
  </separator>
  <i type="logical" name="GGA_COMPAT"> T  </i>
  <i type="logical" name="LBERRY"> F  </i>
  <i type="int" name="ICORELEVEL">     0</i>
  <i type="logical" name="LDAU"> F  </i>
  <i type="int" name="I_CONSTRAINED_M">     0</i>
  <separator name="electronic exchange-correlation" >
   <i type="string" name="GGA">BO</i>
   <i type="int" name="VOSKOWN">     0</i>
   <i type="logical" name="LHFCALC"> F  </i>
   <i type="string" name="PRECFOCK"></i>
   <i type="logical" name="LSYMGRAD"> F  </i>
   <i type="logical" name="LHFONE"> F  </i>
   <i type="logical" name="LRHFCALC"> F  </i>
   <i type="logical" name="LTHOMAS"> F  </i>
   <i type="logical" name="LMODELHF"> F  </i>
   <i name="ENCUT4O">     -1.00000000</i>
   <i type="int" name="EXXOEP">     0</i>
   <i type="int" name="FOURORBIT">     0</i>
   <i name="AEXX">      0.00000000</i>
   <i name="HFALPHA">      0.00000000</i>
   <i name="MCALPHA">      0.00000000</i>
   <i name="ALDAX">      1.00000000</i>
   <i name="AGGAX">      1.00000000</i>
   <i name="ALDAC">      1.00000000</i>
   <i name="AGGAC">      0.00000000</i>
   <i type="int" name="NKREDX">     1</i>
   <i type="int" name="NKREDY">     1</i>
   <i type="int" name="NKREDZ">     1</i>
   <i type="logical" name="SHIFTRED"> F  </i>
   <i type="logical" name="ODDONLY"> F  </i>
   <i type="logical" name="EVENONLY"> F  </i>
   <i type="int" name="LMAXFOCK">     0</i>
   <i type="int" name="NMAXFOCKAE">     0</i>
   <i type="logical" name="LFOCKAEDFT"> F  </i>
   <i name="HFSCREEN">      0.00000000</i>
   <i name="HFSCREENC">      0.00000000</i>
   <i type="int" name="NBANDSGWLOW">     0</i>
  </separator>
  <separator name="vdW DFT" >
   <i type="logical" name="LUSE_VDW"> T  </i>
   <i name="Zab_VDW">     -0.84910000</i>
   <i name="PARAM1">      0.18333333</i>
   <i name="PARAM2">      0.22000000</i>
   <i name="PARAM3">      0.00000000</i>
  </separator>
  <separator name="model GW" >
   <i type="int" name="MODEL_GW">     0</i>
   <i name="MODEL_EPS0">     12.43490274</i>
   <i name="MODEL_ALPHA">      1.00000000</i>
  </separator>
  <separator name="linear response parameters" >
   <i type="logical" name="LEPSILON"> F  </i>
   <i type="logical" name="LRPA"> F  </i>
   <i type="logical" name="LNABLA"> F  </i>
   <i type="logical" name="LVEL"> F  </i>
   <i type="int" name="KINTER">     0</i>
   <i name="CSHIFT">      0.10000000</i>
   <i name="OMEGAMAX">     -1.00000000</i>
   <i name="DEG_THRESHOLD">      0.00200000</i>
  </separator>
  <separator name="orbital magnetization" >
   <i type="logical" name="NUCIND"> F  </i>
   <v name="MAGPOS">      0.00000000      0.00000000      0.00000000</v>
   <i type="logical" name="LNICSALL"> T  </i>
   <i type="logical" name="ORBITALMAG"> F  </i>
   <i type="logical" name="LMAGBLOCH"> F  </i>
   <i type="logical" name="LCHIMAG"> F  </i>
   <i type="logical" name="LGAUGE"> T  </i>
   <i type="int" name="MAGATOM">     0</i>
   <v name="MAGDIPOL">      0.00000000      0.00000000      0.00000000</v>
   <v name="AVECCONST">      0.00000000      0.00000000      0.00000000</v>
  </separator>
  <separator name="response functions" >
   <i type="logical" name="LADDER"> F  </i>
   <i type="logical" name="LFXC"> F  </i>
   <i type="logical" name="LHARTREE"> T  </i>
   <i type="int" name="IBSE">     0</i>
   <v type="int" name="KPOINT">    -1     0     0     0</v>
   <i type="logical" name="LTCTE"> F  </i>
   <i type="logical" name="LTETE"> F  </i>
   <i type="logical" name="LTRIPLET"> F  </i>
   <i type="logical" name="LFXCEPS"> F  </i>
   <i type="logical" name="LFXHEG"> F  </i>
   <i type="int" name="NATURALO">     0</i>
   <i type="logical" name="L2ORDER"> F  </i>
   <i type="logical" name="LUSEW"> F  </i>
   <i name="ENCUTGW">     -2.00000000</i>
   <i name="ENCUTGWSOFT">     -2.00000000</i>
   <i name="ENCUTLF">     -1.00000000</i>
   <i type="int" name="LMAXMP2">    -1</i>
   <i name="SCISSOR">      0.00000000</i>
   <i type="int" name="NOMEGA">     0</i>
   <i type="int" name="NOMEGAR">     0</i>
   <i type="int" name="NBANDSGW">    -1</i>
   <i type="int" name="NBANDSO">    -1</i>
   <i type="int" name="NBANDSV">    -1</i>
   <i type="int" name="NELM">   400</i>
   <i type="int" name="NELMHF">     1</i>
   <i type="int" name="DIM">     3</i>
   <i type="int" name="ANTIRES">     0</i>
   <i name="OMEGAMAX">    -30.00000000</i>
   <i name="OMEGAMIN">    -30.00000000</i>
   <i name="OMEGATL">   -200.00000000</i>
   <i type="int" name="OMEGAGRID">     0</i>
   <i name="CSHIFT">     -0.10000000</i>
   <i type="logical" name="SELFENERGY"> F  </i>
   <i type="logical" name="LSPECTRAL"> F  </i>
   <i type="logical" name="LSPECTRALGW"> F  </i>
   <i type="logical" name="LSINGLES"> F  </i>
   <i type="logical" name="LFERMIGW"> F  </i>
   <i type="logical" name="ODDONLYGW"> F  </i>
   <i type="logical" name="EVENONLYGW"> F  </i>
   <i type="int" name="NKREDLFX">     1</i>
   <i type="int" name="NKREDLFY">     1</i>
   <i type="int" name="NKREDLFZ">     1</i>
   <i type="int" name="MAXMEM">  1800</i>
   <i type="int" name="TELESCOPE">     0</i>
   <i type="int" name="TAUPAR">     1</i>
   <i type="int" name="OMEGAPAR">    -1</i>
   <i name="LAMBDA">      1.00000000</i>
  </separator>
  <separator name="External order field" >
   <i name="OFIELD_KAPPA">      0.00000000</i>
   <v name="OFIELD_K">      0.00000000      0.00000000      0.00000000</v>
   <i name="OFIELD_Q6_NEAR">      0.00000000</i>
   <i name="OFIELD_Q6_FAR">      0.00000000</i>
   <i name="OFIELD_A">      0.00000000</i>
  </separator>
 </parameters>
 <atominfo>
  <atoms>       2 </atoms>
  <types>       1 </types>
  <array name="atoms" >
   <dimension dim="1">ion</dimension>
   <field type="string">element</field>
   <field type="int">atomtype</field>
   <set>
    <rc><c>Si</c><c>   1</c></rc>
    <rc><c>Si</c><c>   1</c></rc>
   </set>
  </array>
  <array name="atomtypes" >
   <dimension dim="1">type</dimension>
   <field type="int">atomspertype</field>
   <field type="string">element</field>
   <field>mass</field>
   <field>valence</field>
   <field type="string">pseudopotential</field>
   <set>
    <rc><c>   2</c><c>Si</c><c>     28.08500000</c><c>      4.00000000</c><c>  PAW_PBE Si 05Jan2001                  </c></rc>
   </set>
  </array>
 </atominfo>
 <structure name="initialpos" >
  <crystal>
   <varray name="basis" >
    <v>       0.00000000       2.74682114       2.74682114 </v>
    <v>       2.74682114       0.00000000       2.74682114 </v>
    <v>       2.74682114       2.74682114       0.00000000 </v>
   </varray>
   <i name="volume">     41.44967579 </i>
   <varray name="rec_basis" >
    <v>      -0.18202860       0.18202860       0.18202860 </v>
    <v>       0.18202860      -0.18202860       0.18202860 </v>
    <v>       0.18202860       0.18202860      -0.18202860 </v>
   </varray>
  </crystal>
  <varray name="positions" >
   <v>       0.75000000       0.75000000       0.75000000 </v>
   <v>       0.50000000       0.50000000       0.50000000 </v>
  </varray>
 </structure>
 <calculation>
  <scstep>
   <time name="dav">    0.20    0.20</time>
   <time name="total">    2.29    2.29</time>
   <energy>
    <i name="alphaZ">      3.24857844 </i>
    <i name="ewald">   -225.91568183 </i>
    <i name="hartreedc">    -11.53197166 </i>
    <i name="XCdc">    -20.29573795 </i>
    <i name="pawpsdc">    189.40224250 </i>
    <i name="pawaedc">   -152.61488262 </i>
    <i name="eentropy">     -0.00714686 </i>
    <i name="bandstr">     11.61984474 </i>
    <i name="atom">    208.59373829 </i>
    <i name="e_fr_energy">      2.49898304 </i>
    <i name="e_wo_entrp">      2.50612990 </i>
    <i name="e_0_energy">      2.50255647 </i>
   </energy>
  </scstep>
  <scstep>
   <time name="dav">    0.30    0.30</time>
   <time name="total">    0.30    0.41</time>
   <energy>
    <i name="e_fr_energy">     -8.31423522 </i>
    <i name="e_wo_entrp">     -8.31423209 </i>
    <i name="e_0_energy">     -8.31423366 </i>
   </energy>
  </scstep>
  <scstep>
   <time name="dav">    0.23    0.23</time>
   <time name="total">    0.23    0.37</time>
   <energy>
    <i name="e_fr_energy">     -8.39008445 </i>
    <i name="e_wo_entrp">     -8.39008181 </i>
    <i name="e_0_energy">     -8.39008313 </i>
   </energy>
  </scstep>
  <scstep>
   <time name="dav">    0.58    0.58</time>
   <time name="total">    0.58    0.63</time>
   <energy>
    <i name="e_fr_energy">     -8.39033113 </i>
    <i name="e_wo_entrp">     -8.39032849 </i>
    <i name="e_0_energy">     -8.39032981 </i>
   </energy>
  </scstep>
  <scstep>
   <time name="dav">    0.23    0.23</time>
   <time name="total">    0.26    0.30</time>
   <energy>
    <i name="e_fr_energy">     -8.39033114 </i>
    <i name="e_wo_entrp">     -8.39032851 </i>
    <i name="e_0_energy">     -8.39032983 </i>
   </energy>
  </scstep>
  <scstep>
   <time name="dav">    0.38    0.38</time>
   <time name="total">    2.03    2.11</time>
   <energy>
    <i name="e_fr_energy">     -8.33892672 </i>
    <i name="e_wo_entrp">     -8.33891470 </i>
    <i name="e_0_energy">     -8.33892071 </i>
   </energy>
  </scstep>
  <scstep>
   <time name="dav">    0.37    0.37</time>
   <time name="total">    2.00    2.06</time>
   <energy>
    <i name="e_fr_energy">     -8.33200558 </i>
    <i name="e_wo_entrp">     -8.33190767 </i>
    <i name="e_0_energy">     -8.33195663 </i>
   </energy>
  </scstep>
  <scstep>
   <time name="dav">    0.24    0.24</time>
   <time name="total">    1.87    1.98</time>
   <energy>
    <i name="e_fr_energy">     -8.31544968 </i>
    <i name="e_wo_entrp">     -8.31538235 </i>
    <i name="e_0_energy">     -8.31541602 </i>
   </energy>
  </scstep>
  <scstep>
   <time name="dav">    0.26    0.26</time>
   <time name="total">    1.90    2.37</time>
   <energy>
    <i name="e_fr_energy">     -8.31653415 </i>
    <i name="e_wo_entrp">     -8.31646047 </i>
    <i name="e_0_energy">     -8.31649731 </i>
   </energy>
  </scstep>
  <scstep>
   <time name="dav">    0.22    0.22</time>
   <time name="total">    1.86    1.98</time>
   <energy>
    <i name="e_fr_energy">     -8.31658725 </i>
    <i name="e_wo_entrp">     -8.31651503 </i>
    <i name="e_0_energy">     -8.31655114 </i>
   </energy>
  </scstep>
  <scstep>
   <time name="dav">    0.44    0.44</time>
   <time name="total">    2.08    2.20</time>
   <energy>
    <i name="e_fr_energy">     -8.31640373 </i>
    <i name="e_wo_entrp">     -8.31633166 </i>
    <i name="e_0_energy">     -8.31636769 </i>
   </energy>
  </scstep>
  <scstep>
   <time name="dav">    0.28    0.28</time>
   <time name="total">    1.92    1.96</time>
   <energy>
    <i name="e_fr_energy">     -8.31639230 </i>
    <i name="e_wo_entrp">     -8.31632026 </i>
    <i name="e_0_energy">     -8.31635628 </i>
   </energy>
  </scstep>
  <scstep>
   <time name="dav">    0.18    0.18</time>
   <time name="total">    1.84    1.92</time>
   <energy>
    <i name="e_fr_energy">     -8.31638919 </i>
    <i name="e_wo_entrp">     -8.31631718 </i>
    <i name="e_0_energy">     -8.31635319 </i>
   </energy>
  </scstep>
  <scstep>
   <time name="dav">    0.12    0.12</time>
   <time name="total">    1.76    1.82</time>
   <energy>
    <i name="e_fr_energy">     -8.31639000 </i>
    <i name="e_wo_entrp">     -8.31631798 </i>
    <i name="e_0_energy">     -8.31635399 </i>
   </energy>
  </scstep>
  <scstep>
   <time name="dav">    0.15    0.15</time>
   <time name="total">    1.80    2.14</time>
   <energy>
    <i name="e_fr_energy">     -8.31638980 </i>
    <i name="e_wo_entrp">     -8.31631778 </i>
    <i name="e_0_energy">     -8.31635379 </i>
   </energy>
  </scstep>
  <scstep>
   <time name="dav">    0.12    0.12</time>
   <time name="total">    1.74    1.79</time>
   <energy>
    <i name="alphaZ">      3.24857844 </i>
    <i name="ewald">   -225.91568183 </i>
    <i name="hartreedc">    -15.58767885 </i>
    <i name="XCdc">    -19.62886968 </i>
    <i name="pawpsdc">    523.96078462 </i>
    <i name="pawaedc">   -487.40982098 </i>
    <i name="eentropy">     -0.00007201 </i>
    <i name="bandstr">      4.42263222 </i>
    <i name="atom">    208.59373829 </i>
    <i name="e_fr_energy">     -8.31638978 </i>
    <i name="e_wo_entrp">     -8.31631777 </i>
    <i name="e_0_energy">     -8.31635378 </i>
   </energy>
  </scstep>
  <structure>
   <crystal>
    <varray name="basis" >
     <v>       0.00000000       2.74682114       2.74682114 </v>
     <v>       2.74682114       0.00000000       2.74682114 </v>
     <v>       2.74682114       2.74682114       0.00000000 </v>
    </varray>
    <i name="volume">     41.44967579 </i>
    <varray name="rec_basis" >
     <v>      -0.18202860       0.18202860       0.18202860 </v>
     <v>       0.18202860      -0.18202860       0.18202860 </v>
     <v>       0.18202860       0.18202860      -0.18202860 </v>
    </varray>
   </crystal>
   <varray name="positions" >
    <v>       0.75000000       0.75000000       0.75000000 </v>
    <v>       0.50000000       0.50000000       0.50000000 </v>
   </varray>
  </structure>
  <varray name="forces" >
   <v>       0.00000000       0.00000000      -0.00000000 </v>
   <v>      -0.00000000      -0.00000000       0.00000000 </v>
  </varray>
  <varray name="stress" >
   <v>       0.42345761      -0.00000000      -0.00000000 </v>
   <v>       0.00000000       0.42345761       0.00000000 </v>
   <v>       0.00000000       0.00000000       0.42345761 </v>
  </varray>
  <energy>
   <i name="e_fr_energy">     -8.31638978 </i>
   <i name="e_wo_entrp">     -8.31635378 </i>
   <i name="e_0_energy">     -0.00007201 </i>
  </energy>
  <time name="totalsc">   28.09   30.31</time>
  <eigenvalues>
   <array>
    <dimension dim="1">band</dimension>
    <dimension dim="2">kpoint</dimension>
    <dimension dim="3">spin</dimension>
    <field>eigene</field>
    <field>occ</field>
    <set>
     <set comment="spin 1">
      <set comment="kpoint 1">
       <r>   -6.1859    1.0000 </r>
       <r>    5.4663    0.9972 </r>
       <r>    5.4663    0.9972 </r>
       <r>    5.4663    0.9972 </r>
       <r>    8.0790    0.0000 </r>
       <r>    8.0790    0.0000 </r>
       <r>    8.0790    0.0000 </r>
       <r>    8.5384    0.0000 </r>
       <r>   13.2177    0.0000 </r>
       <r>   13.2177    0.0000 </r>
       <r>   13.3515    0.0000 </r>
       <r>   16.6575    0.0000 </r>
       <r>   16.6575    0.0000 </r>
       <r>   16.6575    0.0000 </r>
       <r>   20.7527    0.0000 </r>
       <r>   28.1725    0.0000 </r>
      </set>
      <set comment="kpoint 2">
       <r>   -5.8362    1.0000 </r>
       <r>    3.1487    1.0000 </r>
       <r>    5.0411    1.0000 </r>
       <r>    5.0411    1.0000 </r>
       <r>    7.7755    0.0000 </r>
       <r>    8.6990    0.0000 </r>
       <r>    8.6990    0.0000 </r>
       <r>   10.6796    0.0000 </r>
       <r>   12.6000    0.0000 </r>
       <r>   12.6000    0.0000 </r>
       <r>   14.4682    0.0000 </r>
       <r>   16.0624    0.0000 </r>
       <r>   18.4817    0.0000 </r>
       <r>   18.4817    0.0000 </r>
       <r>   22.6391    0.0000 </r>
       <r>   25.0830    0.0000 </r>
      </set>
      <set comment="kpoint 3">
       <r>   -4.8558    1.0000 </r>
       <r>    0.2879    1.0000 </r>
       <r>    4.5109    1.0000 </r>
       <r>    4.5109    1.0000 </r>
       <r>    7.1822    0.0000 </r>
       <r>    9.0222    0.0000 </r>
       <r>    9.0222    0.0000 </r>
       <r>   13.2356    0.0000 </r>
       <r>   13.4394    0.0000 </r>
       <r>   13.4394    0.0000 </r>
       <r>   14.4121    0.0000 </r>
       <r>   18.8238    0.0000 </r>
       <r>   19.8656    0.0000 </r>
       <r>   19.8656    0.0000 </r>
       <r>   21.8912    0.0000 </r>
       <r>   22.9174    0.0000 </r>
      </set>
      <set comment="kpoint 4">
       <r>   -3.9455    1.0000 </r>
       <r>   -1.2828    1.0000 </r>
       <r>    4.3179    1.0000 </r>
       <r>    4.3179    1.0000 </r>
       <r>    6.9567    0.0000 </r>
       <r>    8.8790    0.0000 </r>
       <r>    8.8790    0.0000 </r>
       <r>   13.2163    0.0000 </r>
       <r>   15.9357    0.0000 </r>
       <r>   15.9357    0.0000 </r>
       <r>   16.5490    0.0000 </r>
       <r>   16.6609    0.0000 </r>
       <r>   16.6609    0.0000 </r>
       <r>   18.0613    0.0000 </r>
       <r>   24.5069    0.0000 </r>
       <r>   25.0219    0.0000 </r>
      </set>
      <set comment="kpoint 5">
       <r>   -5.7170    1.0000 </r>
       <r>    3.4339    1.0000 </r>
       <r>    4.3402    1.0000 </r>
       <r>    4.3402    1.0000 </r>
       <r>    7.2494    0.0000 </r>
       <r>    9.6765    0.0000 </r>
       <r>    9.7768    0.0000 </r>
       <r>    9.7768    0.0000 </r>
       <r>   11.9622    0.0000 </r>
       <r>   13.7427    0.0000 </r>
       <r>   15.1032    0.0000 </r>
       <r>   17.4698    0.0000 </r>
       <r>   17.4698    0.0000 </r>
       <r>   18.0504    0.0000 </r>
       <r>   23.6585    0.0000 </r>
       <r>   24.5730    0.0000 </r>
      </set>
      <set comment="kpoint 6">
       <r>   -4.9286    1.0000 </r>
       <r>    1.1304    1.0000 </r>
       <r>    3.5588    1.0000 </r>
       <r>    3.8066    1.0000 </r>
       <r>    7.4936    0.0000 </r>
       <r>    9.4941    0.0000 </r>
       <r>    9.9925    0.0000 </r>
       <r>   10.5113    0.0000 </r>
       <r>   14.3379    0.0000 </r>
       <r>   14.5092    0.0000 </r>
       <r>   15.8115    0.0000 </r>
       <r>   18.1879    0.0000 </r>
       <r>   19.0328    0.0000 </r>
       <r>   20.5240    0.0000 </r>
       <r>   21.2999    0.0000 </r>
       <r>   22.2368    0.0000 </r>
      </set>
      <set comment="kpoint 7">
       <r>   -3.7864    1.0000 </r>
       <r>   -0.9514    1.0000 </r>
       <r>    2.8021    1.0000 </r>
       <r>    3.7727    1.0000 </r>
       <r>    7.5648    0.0000 </r>
       <r>    9.5367    0.0000 </r>
       <r>   10.1080    0.0000 </r>
       <r>   11.8380    0.0000 </r>
       <r>   14.8120    0.0000 </r>
       <r>   15.8458    0.0000 </r>
       <r>   17.0626    0.0000 </r>
       <r>   17.1532    0.0000 </r>
       <r>   17.8180    0.0000 </r>
       <r>   21.2716    0.0000 </r>
       <r>   23.1079    0.0000 </r>
       <r>   24.2301    0.0000 </r>
      </set>
      <set comment="kpoint 8">
       <r>   -4.1537    1.0000 </r>
       <r>   -0.3781    1.0000 </r>
       <r>    2.5501    1.0000 </r>
       <r>    4.2280    1.0000 </r>
       <r>    7.9369    0.0000 </r>
       <r>    9.5616    0.0000 </r>
       <r>    9.7255    0.0000 </r>
       <r>   12.6376    0.0000 </r>
       <r>   12.7932    0.0000 </r>
       <r>   14.7662    0.0000 </r>
       <r>   16.8209    0.0000 </r>
       <r>   17.9982    0.0000 </r>
       <r>   20.1453    0.0000 </r>
       <r>   20.6336    0.0000 </r>
       <r>   21.4612    0.0000 </r>
       <r>   23.1292    0.0000 </r>
      </set>
      <set comment="kpoint 9">
       <r>   -5.2671    1.0000 </r>
       <r>    1.8242    1.0000 </r>
       <r>    3.1804    1.0000 </r>
       <r>    4.9245    1.0000 </r>
       <r>    8.4694    0.0000 </r>
       <r>    9.0482    0.0000 </r>
       <r>    9.2803    0.0000 </r>
       <r>   11.0492    0.0000 </r>
       <r>   11.6426    0.0000 </r>
       <r>   14.6756    0.0000 </r>
       <r>   15.8200    0.0000 </r>
       <r>   16.9150    0.0000 </r>
       <r>   18.7087    0.0000 </r>
       <r>   20.8336    0.0000 </r>
       <r>   21.2946    0.0000 </r>
       <r>   23.8334    0.0000 </r>
      </set>
      <set comment="kpoint 10">
       <r>   -4.3422    1.0000 </r>
       <r>    0.5383    1.0000 </r>
       <r>    3.1618    1.0000 </r>
       <r>    3.1618    1.0000 </r>
       <r>    6.3095    0.0007 </r>
       <r>    7.5709    0.0000 </r>
       <r>   12.6050    0.0000 </r>
       <r>   12.6050    0.0000 </r>
       <r>   14.9601    0.0000 </r>
       <r>   15.3124    0.0000 </r>
       <r>   18.3242    0.0000 </r>
       <r>   18.7587    0.0000 </r>
       <r>   18.7587    0.0000 </r>
       <r>   20.4737    0.0000 </r>
       <r>   21.4729    0.0000 </r>
       <r>   21.6487    0.0000 </r>
      </set>
      <set comment="kpoint 11">
       <r>   -3.2202    1.0000 </r>
       <r>   -0.9657    1.0000 </r>
       <r>    2.0116    1.0000 </r>
       <r>    3.0286    1.0000 </r>
       <r>    6.6475    0.0000 </r>
       <r>    8.2440    0.0000 </r>
       <r>   12.7899    0.0000 </r>
       <r>   12.8354    0.0000 </r>
       <r>   15.8795    0.0000 </r>
       <r>   16.0466    0.0000 </r>
       <r>   17.6502    0.0000 </r>
       <r>   17.9843    0.0000 </r>
       <r>   20.0137    0.0000 </r>
       <r>   20.9867    0.0000 </r>
       <r>   21.1990    0.0000 </r>
       <r>   23.8671    0.0000 </r>
      </set>
      <set comment="kpoint 12">
       <r>   -3.0397    1.0000 </r>
       <r>   -1.1555    1.0000 </r>
       <r>    1.2677    1.0000 </r>
       <r>    3.4519    1.0000 </r>
       <r>    7.1313    0.0000 </r>
       <r>   11.2517    0.0000 </r>
       <r>   11.8838    0.0000 </r>
       <r>   12.3980    0.0000 </r>
       <r>   12.7293    0.0000 </r>
       <r>   13.1296    0.0000 </r>
       <r>   19.6863    0.0000 </r>
       <r>   20.2365    0.0000 </r>
       <r>   20.7662    0.0000 </r>
       <r>   20.9674    0.0000 </r>
       <r>   21.7926    0.0000 </r>
       <r>   22.6654    0.0000 </r>
      </set>
      <set comment="kpoint 13">
       <r>   -2.1760    1.0000 </r>
       <r>   -2.1760    1.0000 </r>
       <r>    2.7417    1.0000 </r>
       <r>    2.7417    1.0000 </r>
       <r>    6.3099    0.0007 </r>
       <r>    6.3099    0.0007 </r>
       <r>   15.3378    0.0000 </r>
       <r>   15.3378    0.0000 </r>
       <r>   16.3024    0.0000 </r>
       <r>   16.3024    0.0000 </r>
       <r>   17.9065    0.0000 </r>
       <r>   17.9065    0.0000 </r>
       <r>   18.1295    0.0000 </r>
       <r>   18.1295    0.0000 </r>
       <r>   24.1058    0.0000 </r>
       <r>   24.1058    0.0000 </r>
      </set>
      <set comment="kpoint 14">
       <r>   -3.9731    1.0000 </r>
       <r>   -0.0673    1.0000 </r>
       <r>    2.0692    1.0000 </r>
       <r>    3.2877    1.0000 </r>
       <r>    8.3548    0.0000 </r>
       <r>    9.2379    0.0000 </r>
       <r>    9.6601    0.0000 </r>
       <r>   12.4207    0.0000 </r>
       <r>   14.3460    0.0000 </r>
       <r>   15.2251    0.0000 </r>
       <r>   18.1926    0.0000 </r>
       <r>   18.5787    0.0000 </r>
       <r>   19.2133    0.0000 </r>
       <r>   20.1211    0.0000 </r>
       <r>   21.8223    0.0000 </r>
       <r>   23.0304    0.0000 </r>
      </set>
      <set comment="kpoint 15">
       <r>   -3.0309    1.0000 </r>
       <r>   -1.2176    1.0000 </r>
       <r>    1.6410    1.0000 </r>
       <r>    2.8460    1.0000 </r>
       <r>    8.8810    0.0000 </r>
       <r>    9.0122    0.0000 </r>
       <r>   11.5292    0.0000 </r>
       <r>   11.9067    0.0000 </r>
       <r>   12.9058    0.0000 </r>
       <r>   16.3943    0.0000 </r>
       <r>   17.2145    0.0000 </r>
       <r>   18.8188    0.0000 </r>
       <r>   21.3562    0.0000 </r>
       <r>   21.9752    0.0000 </r>
       <r>   22.1963    0.0000 </r>
       <r>   23.1367    0.0000 </r>
      </set>
      <set comment="kpoint 16">
       <r>   -2.0673    1.0000 </r>
       <r>   -2.0673    1.0000 </r>
       <r>    2.0021    1.0000 </r>
       <r>    2.0021    1.0000 </r>
       <r>    8.2700    0.0000 </r>
       <r>    8.2700    0.0000 </r>
       <r>   12.1469    0.0000 </r>
       <r>   12.1469    0.0000 </r>
       <r>   15.8437    0.0000 </r>
       <r>   15.8437    0.0000 </r>
       <r>   18.1884    0.0000 </r>
       <r>   18.1884    0.0000 </r>
       <r>   21.6849    0.0000 </r>
       <r>   21.6849    0.0000 </r>
       <r>   22.4398    0.0000 </r>
       <r>   22.4398    0.0000 </r>
      </set>
     </set>
    </set>
   </array>
  </eigenvalues>
  <separator name="orbital magnetization" >
   <v name="MAGDIPOLOUT">      0.00000000      0.00000000      0.00000000</v>
  </separator>
  <dos>
   <i name="efermi">      5.85796198 </i>
   <total>
    <array>
     <dimension dim="1">gridpoints</dimension>
     <dimension dim="2">spin</dimension>
     <field>energy</field>
     <field>total</field>
     <field>integrated</field>
     <set>
      <set comment="spin 1">
       <r>    -8.1859     0.0000     0.0000 </r>
       <r>    -8.0581     0.0000     0.0000 </r>
       <r>    -7.9302     0.0000     0.0000 </r>
       <r>    -7.8024     0.0000     0.0000 </r>
       <r>    -7.6745     0.0000     0.0000 </r>
       <r>    -7.5466     0.0000     0.0000 </r>
       <r>    -7.4188     0.0000     0.0000 </r>
       <r>    -7.2909     0.0000     0.0000 </r>
       <r>    -7.1631     0.0000     0.0000 </r>
       <r>    -7.0352     0.0000     0.0000 </r>
       <r>    -6.9073     0.0000     0.0000 </r>
       <r>    -6.7795     0.0000     0.0000 </r>
       <r>    -6.6516     0.0000     0.0000 </r>
       <r>    -6.5237     0.0006     0.0001 </r>
       <r>    -6.3959     0.0044     0.0006 </r>
       <r>    -6.2680     0.0160     0.0027 </r>
       <r>    -6.1402     0.0341     0.0071 </r>
       <r>    -6.0123     0.0790     0.0172 </r>
       <r>    -5.8844     0.2007     0.0428 </r>
       <r>    -5.7566     0.3202     0.0838 </r>
       <r>    -5.6287     0.2788     0.1194 </r>
       <r>    -5.5009     0.1625     0.1402 </r>
       <r>    -5.3730     0.1851     0.1639 </r>
       <r>    -5.2451     0.3164     0.2043 </r>
       <r>    -5.1173     0.4087     0.2566 </r>
       <r>    -4.9894     0.6069     0.3342 </r>
       <r>    -4.8615     0.8062     0.4372 </r>
       <r>    -4.7337     0.5957     0.5134 </r>
       <r>    -4.6058     0.2301     0.5428 </r>
       <r>    -4.4780     0.1162     0.5577 </r>
       <r>    -4.3501     0.2689     0.5921 </r>
       <r>    -4.2222     0.6129     0.6704 </r>
       <r>    -4.0944     1.0056     0.7990 </r>
       <r>    -3.9665     1.2382     0.9573 </r>
       <r>    -3.8387     1.2191     1.1132 </r>
       <r>    -3.7108     0.9185     1.2307 </r>
       <r>    -3.5829     0.4577     1.2892 </r>
       <r>    -3.4551     0.1990     1.3146 </r>
       <r>    -3.3272     0.3681     1.3617 </r>
       <r>    -3.1994     0.8473     1.4700 </r>
       <r>    -3.0715     1.2270     1.6269 </r>
       <r>    -2.9436     1.1051     1.7682 </r>
       <r>    -2.8158     0.5622     1.8401 </r>
       <r>    -2.6879     0.1454     1.8587 </r>
       <r>    -2.5600     0.0198     1.8612 </r>
       <r>    -2.4322     0.0230     1.8642 </r>
       <r>    -2.3043     0.1368     1.8816 </r>
       <r>    -2.1765     0.4387     1.9377 </r>
       <r>    -2.0486     0.7158     2.0293 </r>
       <r>    -1.9207     0.5812     2.1036 </r>
       <r>    -1.7929     0.2293     2.1329 </r>
       <r>    -1.6650     0.0454     2.1387 </r>
       <r>    -1.5372     0.0356     2.1433 </r>
       <r>    -1.4093     0.2061     2.1696 </r>
       <r>    -1.2814     0.6735     2.2557 </r>
       <r>    -1.1536     1.2281     2.4127 </r>
       <r>    -1.0257     1.5410     2.6098 </r>
       <r>    -0.8978     1.4773     2.7987 </r>
       <r>    -0.7700     0.8951     2.9131 </r>
       <r>    -0.6421     0.3268     2.9549 </r>
       <r>    -0.5143     0.2806     2.9908 </r>
       <r>    -0.3864     0.5590     3.0623 </r>
       <r>    -0.2585     0.6964     3.1513 </r>
       <r>    -0.1307     0.6922     3.2398 </r>
       <r>    -0.0028     0.6796     3.3267 </r>
       <r>     0.1250     0.4805     3.3881 </r>
       <r>     0.2529     0.3004     3.4265 </r>
       <r>     0.3808     0.2655     3.4605 </r>
       <r>     0.5086     0.2386     3.4910 </r>
       <r>     0.6365     0.1783     3.5138 </r>
       <r>     0.7644     0.0939     3.5258 </r>
       <r>     0.8922     0.0964     3.5381 </r>
       <r>     1.0201     0.3321     3.5806 </r>
       <r>     1.1479     0.7148     3.6720 </r>
       <r>     1.2758     0.8091     3.7754 </r>
       <r>     1.4037     0.5601     3.8470 </r>
       <r>     1.5315     0.4787     3.9082 </r>
       <r>     1.6594     0.7213     4.0004 </r>
       <r>     1.7872     0.9812     4.1259 </r>
       <r>     1.9151     1.4022     4.3052 </r>
       <r>     2.0430     1.9067     4.5490 </r>
       <r>     2.1708     1.6023     4.7538 </r>
       <r>     2.2987     0.7459     4.8492 </r>
       <r>     2.4266     0.4250     4.9036 </r>
       <r>     2.5544     0.7018     4.9933 </r>
       <r>     2.6823     1.1194     5.1364 </r>
       <r>     2.8101     1.5506     5.3347 </r>
       <r>     2.9380     1.7553     5.5591 </r>
       <r>     3.0659     1.7419     5.7818 </r>
       <r>     3.1937     1.7958     6.0114 </r>
       <r>     3.3216     1.7224     6.2317 </r>
       <r>     3.4494     1.5236     6.4265 </r>
       <r>     3.5773     1.4282     6.6091 </r>
       <r>     3.7052     1.4658     6.7965 </r>
       <r>     3.8330     1.4554     6.9826 </r>
       <r>     3.9609     1.0224     7.1133 </r>
       <r>     4.0888     0.6297     7.1938 </r>
       <r>     4.2166     0.8488     7.3024 </r>
       <r>     4.3445     1.1643     7.4512 </r>
       <r>     4.4723     1.0390     7.5841 </r>
       <r>     4.6002     0.6633     7.6689 </r>
       <r>     4.7281     0.3554     7.7144 </r>
       <r>     4.8559     0.3635     7.7608 </r>
       <r>     4.9838     0.5978     7.8373 </r>
       <r>     5.1116     0.6180     7.9163 </r>
       <r>     5.2395     0.3449     7.9604 </r>
       <r>     5.3674     0.1322     7.9773 </r>
       <r>     5.4952     0.0858     7.9883 </r>
       <r>     5.6231     0.0627     7.9963 </r>
       <r>     5.7510     0.0243     7.9994 </r>
       <r>     5.8788     0.0054     8.0001 </r>
       <r>     6.0067     0.0133     8.0018 </r>
       <r>     6.1345     0.0800     8.0120 </r>
       <r>     6.2624     0.2324     8.0417 </r>
       <r>     6.3903     0.3554     8.0872 </r>
       <r>     6.5181     0.4395     8.1434 </r>
       <r>     6.6460     0.6060     8.2209 </r>
       <r>     6.7738     0.5909     8.2964 </r>
       <r>     6.9017     0.3891     8.3462 </r>
       <r>     7.0296     0.4089     8.3984 </r>
       <r>     7.1574     0.6364     8.4798 </r>
       <r>     7.2853     0.7688     8.5781 </r>
       <r>     7.4132     0.9563     8.7004 </r>
       <r>     7.5410     1.3519     8.8733 </r>
       <r>     7.6689     1.3465     9.0454 </r>
       <r>     7.7967     0.9851     9.1714 </r>
       <r>     7.9246     0.8836     9.2844 </r>
       <r>     8.0525     0.9702     9.4084 </r>
       <r>     8.1803     1.3141     9.5764 </r>
       <r>     8.3082     1.8656     9.8150 </r>
       <r>     8.4360     1.7989    10.0450 </r>
       <r>     8.5639     1.1898    10.1971 </r>
       <r>     8.6918     0.9206    10.3148 </r>
       <r>     8.8196     1.2584    10.4757 </r>
       <r>     8.9475     1.8690    10.7147 </r>
       <r>     9.0754     2.1290    10.9869 </r>
       <r>     9.2032     1.8632    11.2251 </r>
       <r>     9.3311     1.6483    11.4359 </r>
       <r>     9.4589     1.9946    11.6909 </r>
       <r>     9.5868     2.7354    12.0407 </r>
       <r>     9.7147     2.8555    12.4058 </r>
       <r>     9.8425     2.1313    12.6783 </r>
       <r>     9.9704     1.4959    12.8696 </r>
       <r>    10.0982     1.2844    13.0338 </r>
       <r>    10.2261     0.9296    13.1527 </r>
       <r>    10.3540     0.5559    13.2238 </r>
       <r>    10.4818     0.6082    13.3015 </r>
       <r>    10.6097     0.7306    13.3949 </r>
       <r>    10.7376     0.5410    13.4641 </r>
       <r>    10.8654     0.3022    13.5027 </r>
       <r>    10.9933     0.3006    13.5412 </r>
       <r>    11.1211     0.4390    13.5973 </r>
       <r>    11.2490     0.5110    13.6626 </r>
       <r>    11.3769     0.5655    13.7350 </r>
       <r>    11.5047     0.7838    13.8352 </r>
       <r>    11.6326     1.0676    13.9717 </r>
       <r>    11.7604     1.3649    14.1462 </r>
       <r>    11.8883     1.7700    14.3725 </r>
       <r>    12.0162     1.7453    14.5957 </r>
       <r>    12.1440     1.3076    14.7629 </r>
       <r>    12.2719     1.0844    14.9015 </r>
       <r>    12.3997     1.2970    15.0673 </r>
       <r>    12.5276     1.8509    15.3040 </r>
       <r>    12.6555     2.6029    15.6368 </r>
       <r>    12.7833     3.2284    16.0496 </r>
       <r>    12.9112     2.9716    16.4295 </r>
       <r>    13.0391     1.8791    16.6698 </r>
       <r>    13.1669     1.0796    16.8078 </r>
       <r>    13.2948     0.8368    16.9148 </r>
       <r>    13.4226     0.7090    17.0055 </r>
       <r>    13.5505     0.5225    17.0723 </r>
       <r>    13.6784     0.3178    17.1129 </r>
       <r>    13.8062     0.2006    17.1386 </r>
       <r>    13.9341     0.1159    17.1534 </r>
       <r>    14.0619     0.1157    17.1682 </r>
       <r>    14.1898     0.4749    17.2289 </r>
       <r>    14.3177     1.3308    17.3991 </r>
       <r>    14.4455     2.0171    17.6570 </r>
       <r>    14.5734     1.9531    17.9067 </r>
       <r>    14.7013     1.7517    18.1307 </r>
       <r>    14.8291     1.6965    18.3476 </r>
       <r>    14.9570     1.3011    18.5140 </r>
       <r>    15.0848     0.9043    18.6296 </r>
       <r>    15.2127     0.9503    18.7511 </r>
       <r>    15.3406     0.9523    18.8729 </r>
       <r>    15.4684     0.6007    18.9497 </r>
       <r>    15.5963     0.4879    19.0121 </r>
       <r>    15.7241     1.3533    19.1851 </r>
       <r>    15.8520     2.8040    19.5436 </r>
       <r>    15.9799     3.1158    19.9420 </r>
       <r>    16.1077     2.0952    20.2099 </r>
       <r>    16.2356     1.1531    20.3573 </r>
       <r>    16.3635     0.9032    20.4728 </r>
       <r>    16.4913     0.8945    20.5872 </r>
       <r>    16.6192     0.8158    20.6915 </r>
       <r>    16.7470     0.9324    20.8107 </r>
       <r>    16.8749     1.2248    20.9673 </r>
       <r>    17.0028     1.5196    21.1616 </r>
       <r>    17.1306     1.8163    21.3939 </r>
       <r>    17.2585     1.7151    21.6131 </r>
       <r>    17.3863     1.1391    21.7588 </r>
       <r>    17.5142     0.8273    21.8646 </r>
       <r>    17.6421     0.9989    21.9923 </r>
       <r>    17.7699     1.3659    22.1669 </r>
       <r>    17.8978     1.9007    22.4100 </r>
       <r>    18.0257     2.5983    22.7422 </r>
       <r>    18.1535     3.0366    23.1305 </r>
       <r>    18.2814     2.6717    23.4721 </r>
       <r>    18.4092     1.7913    23.7011 </r>
       <r>    18.5371     1.4346    23.8845 </r>
       <r>    18.6650     1.6218    24.0919 </r>
       <r>    18.7928     1.7949    24.3214 </r>
       <r>    18.9207     1.6464    24.5319 </r>
       <r>    19.0485     1.3391    24.7031 </r>
       <r>    19.1764     1.1341    24.8481 </r>
       <r>    19.3043     0.8351    24.9549 </r>
       <r>    19.4321     0.4202    25.0086 </r>
       <r>    19.5600     0.2453    25.0400 </r>
       <r>    19.6879     0.4120    25.0927 </r>
       <r>    19.8157     0.7377    25.1870 </r>
       <r>    19.9436     1.2144    25.3423 </r>
       <r>    20.0714     1.8140    25.5742 </r>
       <r>    20.1993     1.9820    25.8276 </r>
       <r>    20.3272     1.4687    26.0154 </r>
       <r>    20.4550     1.1533    26.1629 </r>
       <r>    20.5829     1.3985    26.3417 </r>
       <r>    20.7107     1.5530    26.5403 </r>
       <r>    20.8386     1.4977    26.7318 </r>
       <r>    20.9665     1.5372    26.9283 </r>
       <r>    21.0943     1.7565    27.1529 </r>
       <r>    21.2222     2.4075    27.4608 </r>
       <r>    21.3501     3.0497    27.8507 </r>
       <r>    21.4779     2.7103    28.1972 </r>
       <r>    21.6058     1.9807    28.4505 </r>
       <r>    21.7336     1.8474    28.6867 </r>
       <r>    21.8615     1.9834    28.9403 </r>
       <r>    21.9894     1.8029    29.1708 </r>
       <r>    22.1172     1.5702    29.3716 </r>
       <r>    22.2451     1.5902    29.5749 </r>
       <r>    22.3729     1.4761    29.7637 </r>
       <r>    22.5008     1.1733    29.9137 </r>
       <r>    22.6287     0.9283    30.0324 </r>
       <r>    22.7565     0.7571    30.1292 </r>
       <r>    22.8844     0.8772    30.2413 </r>
       <r>    23.0123     1.6662    30.4544 </r>
       <r>    23.1401     2.4137    30.7630 </r>
       <r>    23.2680     1.8968    31.0055 </r>
       <r>    23.3958     0.7588    31.1025 </r>
       <r>    23.5237     0.2257    31.1314 </r>
       <r>    23.6516     0.3193    31.1722 </r>
       <r>    23.7794     0.7200    31.2643 </r>
       <r>    23.9073     1.0174    31.3944 </r>
       <r>    24.0351     0.9064    31.5103 </r>
       <r>    24.1630     0.7923    31.6116 </r>
       <r>    24.2909     0.7763    31.7108 </r>
       <r>    24.4187     0.5687    31.7835 </r>
       <r>    24.5466     0.3671    31.8305 </r>
       <r>    24.6745     0.2491    31.8623 </r>
       <r>    24.8023     0.1383    31.8800 </r>
       <r>    24.9302     0.1500    31.8992 </r>
       <r>    25.0580     0.2700    31.9337 </r>
       <r>    25.1859     0.2751    31.9689 </r>
       <r>    25.3138     0.1355    31.9862 </r>
       <r>    25.4416     0.0317    31.9903 </r>
       <r>    25.5695     0.0035    31.9907 </r>
       <r>    25.6973     0.0002    31.9907 </r>
       <r>    25.8252     0.0000    31.9907 </r>
       <r>    25.9531     0.0000    31.9907 </r>
       <r>    26.0809     0.0000    31.9907 </r>
       <r>    26.2088     0.0000    31.9907 </r>
       <r>    26.3367     0.0000    31.9907 </r>
       <r>    26.4645     0.0000    31.9907 </r>
       <r>    26.5924     0.0000    31.9907 </r>
       <r>    26.7202     0.0000    31.9907 </r>
       <r>    26.8481     0.0000    31.9907 </r>
       <r>    26.9760     0.0000    31.9907 </r>
       <r>    27.1038     0.0000    31.9907 </r>
       <r>    27.2317     0.0000    31.9907 </r>
       <r>    27.3595     0.0000    31.9907 </r>
       <r>    27.4874     0.0000    31.9907 </r>
       <r>    27.6153     0.0000    31.9907 </r>
       <r>    27.7431     0.0001    31.9908 </r>
       <r>    27.8710     0.0011    31.9909 </r>
       <r>    27.9988     0.0068    31.9918 </r>
       <r>    28.1267     0.0191    31.9942 </r>
       <r>    28.2546     0.0251    31.9974 </r>
       <r>    28.3824     0.0154    31.9994 </r>
       <r>    28.5103     0.0044    31.9999 </r>
       <r>    28.6382     0.0006    32.0000 </r>
       <r>    28.7660     0.0000    32.0000 </r>
       <r>    28.8939     0.0000    32.0000 </r>
       <r>    29.0217     0.0000    32.0000 </r>
       <r>    29.1496     0.0000    32.0000 </r>
       <r>    29.2775     0.0000    32.0000 </r>
       <r>    29.4053     0.0000    32.0000 </r>
       <r>    29.5332     0.0000    32.0000 </r>
       <r>    29.6610     0.0000    32.0000 </r>
       <r>    29.7889     0.0000    32.0000 </r>
       <r>    29.9168     0.0000    32.0000 </r>
       <r>    30.0446     0.0000    32.0000 </r>
       <r>    30.1725     0.0000    32.0000 </r>
      </set>
     </set>
    </array>
   </total>
  </dos>
 </calculation>
 <structure name="finalpos" >
  <crystal>
   <varray name="basis" >
    <v>       0.00000000       2.74682114       2.74682114 </v>
    <v>       2.74682114       0.00000000       2.74682114 </v>
    <v>       2.74682114       2.74682114       0.00000000 </v>
   </varray>
   <i name="volume">     41.44967579 </i>
   <varray name="rec_basis" >
    <v>      -0.18202860       0.18202860       0.18202860 </v>
    <v>       0.18202860      -0.18202860       0.18202860 </v>
    <v>       0.18202860       0.18202860      -0.18202860 </v>
   </varray>
  </crystal>
  <varray name="positions" >
   <v>       0.75000000       0.75000000       0.75000000 </v>
   <v>       0.50000000       0.50000000       0.50000000 </v>
  </varray>
 </structure>
</modeling>
