   2   2   0   0
  0.2072484E+02  0.3884592E-09  0.3884592E-09  0.3884592E-09  0.5000000E-15
   1.0000000000000000E-004
  CAR 
 unknown system                          
     30.16623353     -8.19184642  301      5.80674781      1.00000000
     -8.192  0.0000E+00  0.0000E+00
     -8.064  0.0000E+00  0.0000E+00
     -7.936  0.0000E+00  0.0000E+00
     -7.808  0.0000E+00  0.0000E+00
     -7.680  0.0000E+00  0.0000E+00
     -7.553  0.0000E+00  0.0000E+00
     -7.425  0.0000E+00  0.0000E+00
     -7.297  0.2292E-16  0.2931E-17
     -7.169  0.2073E-13  0.2653E-14
     -7.041  0.8987E-11  0.1152E-11
     -6.913  0.1836E-08  0.2359E-09
     -6.785  0.1798E-06  0.2322E-07
     -6.658  0.8552E-05  0.1117E-05
     -6.530  0.2004E-03  0.2674E-04
     -6.402  0.2355E-02  0.3278E-03
     -6.274  0.1443E-01  0.2172E-02
     -6.146  0.4976E-01  0.8534E-02
     -6.018  0.1079E+00  0.2233E-01
     -5.890  0.1671E+00  0.4369E-01
     -5.763  0.2169E+00  0.7142E-01
     -5.635  0.2608E+00  0.1048E+00
     -5.507  0.2880E+00  0.1416E+00
     -5.379  0.3246E+00  0.1831E+00
     -5.251  0.3702E+00  0.2304E+00
     -5.123  0.3794E+00  0.2790E+00
     -4.995  0.4002E+00  0.3301E+00
     -4.867  0.4688E+00  0.3901E+00
     -4.740  0.4959E+00  0.4535E+00
     -4.612  0.4804E+00  0.5149E+00
     -4.484  0.5305E+00  0.5827E+00
     -4.356  0.6188E+00  0.6618E+00
     -4.228  0.6602E+00  0.7462E+00
     -4.100  0.6671E+00  0.8315E+00
     -3.972  0.7473E+00  0.9271E+00
     -3.845  0.8794E+00  0.1040E+01
     -3.717  0.8918E+00  0.1154E+01
     -3.589  0.8008E+00  0.1256E+01
     -3.461  0.7580E+00  0.1353E+01
     -3.333  0.7457E+00  0.1448E+01
     -3.205  0.7108E+00  0.1539E+01
     -3.077  0.6609E+00  0.1624E+01
     -2.950  0.5664E+00  0.1696E+01
     -2.822  0.5117E+00  0.1761E+01
     -2.694  0.5226E+00  0.1828E+01
     -2.566  0.4589E+00  0.1887E+01
     -2.438  0.3234E+00  0.1928E+01
     -2.310  0.2498E+00  0.1960E+01
     -2.182  0.2220E+00  0.1989E+01
     -2.055  0.1786E+00  0.2011E+01
     -1.927  0.1507E+00  0.2031E+01
     -1.799  0.1865E+00  0.2055E+01
     -1.671  0.3102E+00  0.2094E+01
     -1.543  0.4577E+00  0.2153E+01
     -1.415  0.5512E+00  0.2223E+01
     -1.287  0.7227E+00  0.2316E+01
     -1.160  0.1040E+01  0.2449E+01
     -1.032  0.1235E+01  0.2607E+01
     -0.904  0.1120E+01  0.2750E+01
     -0.776  0.8611E+00  0.2860E+01
     -0.648  0.6766E+00  0.2946E+01
     -0.520  0.6364E+00  0.3028E+01
     -0.392  0.6473E+00  0.3110E+01
     -0.265  0.5567E+00  0.3182E+01
     -0.137  0.4406E+00  0.3238E+01
     -0.009  0.4292E+00  0.3293E+01
      0.119  0.4015E+00  0.3344E+01
      0.247  0.3968E+00  0.3395E+01
      0.375  0.4178E+00  0.3448E+01
      0.503  0.3326E+00  0.3491E+01
      0.631  0.2566E+00  0.3524E+01
      0.758  0.2616E+00  0.3557E+01
      0.886  0.2749E+00  0.3592E+01
      1.014  0.2921E+00  0.3630E+01
      1.142  0.3113E+00  0.3669E+01
      1.270  0.3682E+00  0.3717E+01
      1.398  0.5887E+00  0.3792E+01
      1.526  0.9278E+00  0.3910E+01
      1.653  0.1105E+01  0.4052E+01
      1.781  0.1090E+01  0.4191E+01
      1.909  0.1124E+01  0.4335E+01
      2.037  0.1157E+01  0.4483E+01
      2.165  0.1087E+01  0.4622E+01
      2.293  0.1080E+01  0.4760E+01
      2.421  0.1151E+01  0.4907E+01
      2.548  0.1222E+01  0.5063E+01
      2.676  0.1308E+01  0.5231E+01
      2.804  0.1433E+01  0.5414E+01
      2.932  0.1545E+01  0.5611E+01
      3.060  0.1603E+01  0.5816E+01
      3.188  0.1564E+01  0.6016E+01
      3.316  0.1408E+01  0.6196E+01
      3.443  0.1332E+01  0.6367E+01
      3.571  0.1338E+01  0.6538E+01
      3.699  0.1345E+01  0.6710E+01
      3.827  0.1354E+01  0.6883E+01
      3.955  0.1304E+01  0.7050E+01
      4.083  0.1269E+01  0.7212E+01
      4.211  0.1207E+01  0.7366E+01
      4.338  0.1041E+01  0.7499E+01
      4.466  0.8542E+00  0.7608E+01
      4.594  0.6872E+00  0.7696E+01
      4.722  0.6076E+00  0.7774E+01
      4.850  0.5426E+00  0.7843E+01
      4.978  0.4267E+00  0.7898E+01
      5.106  0.3059E+00  0.7937E+01
      5.233  0.2143E+00  0.7964E+01
      5.361  0.1466E+00  0.7983E+01
      5.489  0.8750E-01  0.7994E+01
      5.617  0.3537E-01  0.7999E+01
      5.745  0.8078E-02  0.8000E+01
      5.873  0.1962E-02  0.8000E+01
      6.001  0.7930E-02  0.8001E+01
      6.129  0.3418E-01  0.8006E+01
      6.256  0.9469E-01  0.8018E+01
      6.384  0.1827E+00  0.8041E+01
      6.512  0.2620E+00  0.8074E+01
      6.640  0.3379E+00  0.8118E+01
      6.768  0.4587E+00  0.8176E+01
      6.896  0.6049E+00  0.8254E+01
      7.024  0.7346E+00  0.8348E+01
      7.151  0.7969E+00  0.8450E+01
      7.279  0.8583E+00  0.8559E+01
      7.407  0.1012E+01  0.8689E+01
      7.535  0.1176E+01  0.8839E+01
      7.663  0.1273E+01  0.9002E+01
      7.791  0.1409E+01  0.9182E+01
      7.919  0.1605E+01  0.9387E+01
      8.046  0.1652E+01  0.9598E+01
      8.174  0.1499E+01  0.9790E+01
      8.302  0.1240E+01  0.9948E+01
      8.430  0.1077E+01  0.1009E+02
      8.558  0.1239E+01  0.1024E+02
      8.686  0.1495E+01  0.1044E+02
      8.814  0.1674E+01  0.1065E+02
      8.941  0.1765E+01  0.1088E+02
      9.069  0.1650E+01  0.1109E+02
      9.197  0.1586E+01  0.1129E+02
      9.325  0.1756E+01  0.1151E+02
      9.453  0.1849E+01  0.1175E+02
      9.581  0.1625E+01  0.1196E+02
      9.709  0.1292E+01  0.1212E+02
      9.836  0.1221E+01  0.1228E+02
      9.964  0.1350E+01  0.1245E+02
     10.092  0.1344E+01  0.1262E+02
     10.220  0.1197E+01  0.1278E+02
     10.348  0.1103E+01  0.1292E+02
     10.476  0.1082E+01  0.1306E+02
     10.604  0.1052E+01  0.1319E+02
     10.731  0.1127E+01  0.1333E+02
     10.859  0.1384E+01  0.1351E+02
     10.987  0.1585E+01  0.1371E+02
     11.115  0.1473E+01  0.1390E+02
     11.243  0.1219E+01  0.1406E+02
     11.371  0.1036E+01  0.1419E+02
     11.499  0.8882E+00  0.1430E+02
     11.626  0.8266E+00  0.1441E+02
     11.754  0.8935E+00  0.1452E+02
     11.882  0.9529E+00  0.1465E+02
     12.010  0.1003E+01  0.1477E+02
     12.138  0.1169E+01  0.1492E+02
     12.266  0.1345E+01  0.1510E+02
     12.394  0.1493E+01  0.1529E+02
     12.522  0.1565E+01  0.1549E+02
     12.649  0.1391E+01  0.1567E+02
     12.777  0.1065E+01  0.1580E+02
     12.905  0.8609E+00  0.1591E+02
     13.033  0.9914E+00  0.1604E+02
     13.161  0.1276E+01  0.1620E+02
     13.289  0.1334E+01  0.1637E+02
     13.417  0.1211E+01  0.1653E+02
     13.544  0.1156E+01  0.1667E+02
     13.672  0.1194E+01  0.1683E+02
     13.800  0.1342E+01  0.1700E+02
     13.928  0.1438E+01  0.1718E+02
     14.056  0.1392E+01  0.1736E+02
     14.184  0.1457E+01  0.1755E+02
     14.312  0.1417E+01  0.1773E+02
     14.439  0.1175E+01  0.1788E+02
     14.567  0.1019E+01  0.1801E+02
     14.695  0.1034E+01  0.1814E+02
     14.823  0.1174E+01  0.1829E+02
     14.951  0.1365E+01  0.1847E+02
     15.079  0.1519E+01  0.1866E+02
     15.207  0.1544E+01  0.1886E+02
     15.334  0.1492E+01  0.1905E+02
     15.462  0.1565E+01  0.1925E+02
     15.590  0.1680E+01  0.1946E+02
     15.718  0.1557E+01  0.1966E+02
     15.846  0.1273E+01  0.1982E+02
     15.974  0.9708E+00  0.1995E+02
     16.102  0.7368E+00  0.2004E+02
     16.229  0.8220E+00  0.2015E+02
     16.357  0.1148E+01  0.2029E+02
     16.485  0.1335E+01  0.2047E+02
     16.613  0.1264E+01  0.2063E+02
     16.741  0.1178E+01  0.2078E+02
     16.869  0.1260E+01  0.2094E+02
     16.997  0.1514E+01  0.2113E+02
     17.124  0.1819E+01  0.2137E+02
     17.252  0.1863E+01  0.2160E+02
     17.380  0.1627E+01  0.2181E+02
     17.508  0.1419E+01  0.2199E+02
     17.636  0.1322E+01  0.2216E+02
     17.764  0.1246E+01  0.2232E+02
     17.892  0.1285E+01  0.2249E+02
     18.020  0.1468E+01  0.2267E+02
     18.147  0.1544E+01  0.2287E+02
     18.275  0.1531E+01  0.2307E+02
     18.403  0.1636E+01  0.2328E+02
     18.531  0.1737E+01  0.2350E+02
     18.659  0.1795E+01  0.2373E+02
     18.787  0.1792E+01  0.2396E+02
     18.915  0.1695E+01  0.2417E+02
     19.042  0.1736E+01  0.2439E+02
     19.170  0.1812E+01  0.2463E+02
     19.298  0.1637E+01  0.2484E+02
     19.426  0.1450E+01  0.2502E+02
     19.554  0.1545E+01  0.2522E+02
     19.682  0.1600E+01  0.2542E+02
     19.810  0.1433E+01  0.2561E+02
     19.937  0.1328E+01  0.2578E+02
     20.065  0.1363E+01  0.2595E+02
     20.193  0.1433E+01  0.2613E+02
     20.321  0.1479E+01  0.2632E+02
     20.449  0.1568E+01  0.2652E+02
     20.577  0.1749E+01  0.2675E+02
     20.705  0.1860E+01  0.2698E+02
     20.832  0.1728E+01  0.2721E+02
     20.960  0.1417E+01  0.2739E+02
     21.088  0.1137E+01  0.2753E+02
     21.216  0.1075E+01  0.2767E+02
     21.344  0.1197E+01  0.2782E+02
     21.472  0.1324E+01  0.2799E+02
     21.600  0.1445E+01  0.2818E+02
     21.727  0.1526E+01  0.2837E+02
     21.855  0.1543E+01  0.2857E+02
     21.983  0.1626E+01  0.2878E+02
     22.111  0.1743E+01  0.2900E+02
     22.239  0.1662E+01  0.2921E+02
     22.367  0.1458E+01  0.2940E+02
     22.495  0.1361E+01  0.2957E+02
     22.622  0.1439E+01  0.2976E+02
     22.750  0.1524E+01  0.2995E+02
     22.878  0.1528E+01  0.3015E+02
     23.006  0.1570E+01  0.3035E+02
     23.134  0.1656E+01  0.3056E+02
     23.262  0.1837E+01  0.3079E+02
     23.390  0.1910E+01  0.3104E+02
     23.517  0.1631E+01  0.3125E+02
     23.645  0.1212E+01  0.3140E+02
     23.773  0.8442E+00  0.3151E+02
     23.901  0.6340E+00  0.3159E+02
     24.029  0.6190E+00  0.3167E+02
     24.157  0.6057E+00  0.3175E+02
     24.285  0.4339E+00  0.3180E+02
     24.413  0.2356E+00  0.3183E+02
     24.540  0.1238E+00  0.3185E+02
     24.668  0.9079E-01  0.3186E+02
     24.796  0.1023E+00  0.3187E+02
     24.924  0.1480E+00  0.3189E+02
     25.052  0.1760E+00  0.3192E+02
     25.180  0.1560E+00  0.3194E+02
     25.308  0.1345E+00  0.3195E+02
     25.435  0.1133E+00  0.3197E+02
     25.563  0.6855E-01  0.3198E+02
     25.691  0.2662E-01  0.3198E+02
     25.819  0.1534E-01  0.3198E+02
     25.947  0.1982E-01  0.3198E+02
     26.075  0.1594E-01  0.3199E+02
     26.203  0.6074E-02  0.3199E+02
     26.330  0.1075E-02  0.3199E+02
     26.458  0.1154E-03  0.3199E+02
     26.586  0.4290E-03  0.3199E+02
     26.714  0.3002E-02  0.3199E+02
     26.842  0.9832E-02  0.3199E+02
     26.970  0.1539E-01  0.3199E+02
     27.098  0.1422E-01  0.3199E+02
     27.225  0.1599E-01  0.3199E+02
     27.353  0.2032E-01  0.3200E+02
     27.481  0.1461E-01  0.3200E+02
     27.609  0.4997E-02  0.3200E+02
     27.737  0.8018E-03  0.3200E+02
     27.865  0.1671E-03  0.3200E+02
     27.993  0.6660E-03  0.3200E+02
     28.120  0.1875E-02  0.3200E+02
     28.248  0.2464E-02  0.3200E+02
     28.376  0.1509E-02  0.3200E+02
     28.504  0.4298E-03  0.3200E+02
     28.632  0.5666E-04  0.3200E+02
     28.760  0.3434E-05  0.3200E+02
     28.888  0.9511E-07  0.3200E+02
     29.015  0.1196E-08  0.3200E+02
     29.143  0.6787E-11  0.3200E+02
     29.271  0.1732E-13  0.3200E+02
     29.399  0.1976E-16  0.3200E+02
     29.527  0.0000E+00  0.3200E+02
     29.655  0.0000E+00  0.3200E+02
     29.783  0.0000E+00  0.3200E+02
     29.911  0.0000E+00  0.3200E+02
     30.038  0.0000E+00  0.3200E+02
     30.166  0.0000E+00  0.3200E+02
