    2    2    1    1
  0.2072484E+02  0.3884592E-09  0.3884592E-09  0.3884592E-09  0.5000000E-15
   1.0000000000000000E-004
  CAR 
 unknown system                          
      8     84     16

  0.3742002E-15  0.3742002E-15  0.3742002E-15  0.4551661E-03
    1       -6.191846   1.000000
    2        5.458920   0.993044
    3        5.458920   0.993044
    4        5.458920   0.993044
    5        8.074171   0.000000
    6        8.074171   0.000000
    7        8.074171   0.000000
    8        8.529767   0.000000
    9       13.214031   0.000000
   10       13.214031   0.000000
   11       13.348511   0.000000
   12       16.655524   0.000000
   13       16.655524   0.000000
   14       16.655524   0.000000
   15       20.750613   0.000000
   16       28.166234   0.000000

  0.7692308E-01  0.3747003E-15  0.3747003E-15  0.3641329E-02
    1       -6.116713   1.000000
    2        4.723359   1.000000
    3        5.342964   0.999480
    4        5.342964   0.999480
    5        8.071169   0.000000
    6        8.246896   0.000000
    7        8.246896   0.000000
    8        9.143468   0.000000
    9       12.985933   0.000000
   10       12.985933   0.000000
   11       13.670182   0.000000
   12       16.384066   0.000000
   13       17.130275   0.000000
   14       17.130275   0.000000
   15       21.254345   0.000000
   16       27.302076   0.000000

  0.1538462E+00  0.3747003E-15  0.3747003E-15  0.3641329E-02
    1       -5.893370   1.000000
    2        3.377010   1.000000
    3        5.082036   1.000000
    4        5.082037   1.000000
    5        7.820424   0.000000
    6        8.628869   0.000000
    7        8.628869   0.000000
    8       10.442580   0.000000
    9       12.633225   0.000000
   10       12.633225   0.000000
   11       14.377500   0.000000
   12       16.040528   0.000000
   13       18.256855   0.000000
   14       18.256855   0.000000
   15       22.422071   0.000000
   16       25.416075   0.000000

  0.2307692E+00  0.3747003E-15  0.3747003E-15  0.3641329E-02
    1       -5.529401   1.000000
    2        1.980976   1.000000
    3        4.801558   1.000000
    4        4.801558   1.000000
    5        7.515010   0.000000
    6        8.949659   0.000000
    7        8.949659   0.000000
    8       11.808848   0.000000
    9       12.610041   0.000000
   10       12.610041   0.000000
   11       14.484895   0.000000
   12       16.785464   0.000000
   13       19.626924   0.000000
   14       19.626924   0.000000
   15       23.239960   0.000000
   16       23.463541   0.000000

  0.3076923E+00  0.3330669E-15  0.3330669E-15  0.3641329E-02
    1       -5.043803   1.000000
    2        0.679539   1.000000
    3        4.567022   1.000000
    4        4.567022   1.000000
    5        7.248882   0.000000
    6        9.033384   0.000000
    7        9.033384   0.000000
    8       13.000315   0.000000
    9       13.142186   0.000000
   10       13.142186   0.000000
   11       14.297079   0.000000
   12       18.336924   0.000000
   13       20.213468   0.000000
   14       20.213468   0.000000
   15       22.218815   0.000000
   16       22.590431   0.000000

  0.3846154E+00  0.3885781E-15  0.3885781E-15  0.3641329E-02
    1       -4.488596   1.000000
    2       -0.433761   1.000000
    3        4.404084   1.000000
    4        4.404084   1.000000
    5        7.059930   0.000000
    6        8.960654   0.000000
    7        8.960654   0.000000
    8       13.322094   0.000000
    9       14.155168   0.000000
   10       14.155168   0.000000
   11       15.039790   0.000000
   12       18.816415   0.000000
   13       18.816415   0.000000
   14       19.203795   0.000000
   15       21.873559   0.000000
   16       23.995582   0.000000

  0.4615385E+00  0.3608225E-15  0.3608225E-15  0.3641329E-02
    1       -4.029093   1.000000
    2       -1.175871   1.000000
    3        4.321445   1.000000
    4        4.321445   1.000000
    5        6.962957   0.000000
    6        8.886104   0.000000
    7        8.886104   0.000000
    8       13.230352   0.000000
    9       15.452495   0.000000
   10       15.452495   0.000000
   11       16.243555   0.000000
   12       17.178916   0.000000
   13       17.178916   0.000000
   14       18.339468   0.000000
   15       23.593627   0.000000
   16       25.913457   0.000000

  0.7692308E-01  0.7692308E-01  0.3742002E-15  0.2730997E-02
    1       -6.091553   1.000000
    2        4.844612   1.000000
    3        5.109274   1.000000
    4        5.109274   1.000000
    5        7.845269   0.000000
    6        8.547084   0.000000
    7        8.547084   0.000000
    8        9.109334   0.000000
    9       12.553502   0.000000
   10       13.325944   0.000000
   11       13.777088   0.000000
   12       16.831445   0.000000
   13       16.831445   0.000000
   14       17.115457   0.000000
   15       21.457665   0.000000
   16       26.911864   0.000000

  0.1538462E+00  0.7692308E-01  0.3747003E-15  0.1092399E-01
    1       -5.917247   1.000000
    2        3.765827   1.000000
    3        4.794070   1.000000
    4        4.961305   1.000000
    5        7.846896   0.000000
    6        8.575074   0.000000
    7        9.013906   0.000000
    8       10.052300   0.000000
    9       12.141557   0.000000
   10       13.263899   0.000000
   11       14.408287   0.000000
   12       16.473412   0.000000
   13       17.448321   0.000000
   14       18.177514   0.000000
   15       22.452770   0.000000
   16       25.296128   0.000000

  0.2307692E+00  0.7692308E-01  0.3747003E-15  0.1092399E-01
    1       -5.599120   1.000000
    2        2.420231   1.000000
    3        4.503816   1.000000
    4        4.690522   1.000000
    5        7.912674   0.000000
    6        8.594834   0.000000
    7        9.406947   0.000000
    8       10.830270   0.000000
    9       12.446586   0.000000
   10       13.232021   0.000000
   11       14.903836   0.000000
   12       16.591410   0.000000
   13       18.626538   0.000000
   14       19.614844   0.000000
   15       23.294615   0.000000
   16       23.393962   0.000000

  0.3076923E+00  0.7692308E-01  0.3885781E-15  0.1092399E-01
    1       -5.151083   1.000000
    2        1.105741   1.000000
    3        4.288323   1.000000
    4        4.377803   1.000000
    5        7.743639   0.000000
    6        8.762601   0.000000
    7        9.527815   0.000000
    8       11.325217   0.000000
    9       13.541615   0.000000
   10       13.656296   0.000000
   11       14.677995   0.000000
   12       17.876235   0.000000
   13       19.606788   0.000000
   14       20.720398   0.000000
   15       21.859947   0.000000
   16       22.400726   0.000000

  0.3846154E+00  0.7692308E-01  0.3608225E-15  0.1092399E-01
    1       -4.609303   1.000000
    2       -0.068205   1.000000
    3        4.100609   1.000000
    4        4.166717   1.000000
    5        7.557291   0.000000
    6        8.788834   0.000000
    7        9.414314   0.000000
    8       12.158778   0.000000
    9       14.148292   0.000000
   10       14.576589   0.000000
   11       15.110202   0.000000
   12       18.595414   0.000000
   13       18.803564   0.000000
   14       20.293744   0.000000
   15       22.029950   0.000000
   16       22.762900   0.000000

  0.4615385E+00  0.7692308E-01  0.3885781E-15  0.1092399E-01
    1       -4.085054   1.000000
    2       -0.960907   1.000000
    3        3.891701   1.000000
    4        4.143485   1.000000
    5        7.438685   0.000000
    6        8.775990   0.000000
    7        9.238532   0.000000
    8       13.110564   0.000000
    9       14.208363   0.000000
   10       15.782105   0.000000
   11       16.402933   0.000000
   12       16.986002   0.000000
   13       17.717730   0.000000
   14       19.629228   0.000000
   15       22.889337   0.000000
   16       24.628968   0.000000

 -0.4615385E+00  0.7692308E-01  0.3885781E-15  0.1092399E-01
    1       -3.894294   1.000000
    2       -1.244114   1.000000
    3        3.767419   1.000000
    4        4.215256   1.000000
    5        7.408977   0.000000
    6        8.831487   0.000000
    7        9.109154   0.000000
    8       13.454096   0.000000
    9       14.910688   0.000000
   10       15.210358   0.000000
   11       16.349230   0.000000
   12       17.468249   0.000000
   13       17.694133   0.000000
   14       18.551610   0.000000
   15       24.151650   0.000000
   16       25.116030   0.000000

 -0.3846154E+00  0.7692308E-01  0.3608225E-15  0.1092399E-01
    1       -4.244945   1.000000
    2       -0.707332   1.000000
    3        3.738382   1.000000
    4        4.373454   1.000000
    5        7.472383   0.000000
    6        8.975416   0.000000
    7        9.054531   0.000000
    8       13.319951   0.000000
    9       13.831324   0.000000
   10       14.636603   0.000000
   11       16.514986   0.000000
   12       17.108094   0.000000
   13       19.105567   0.000000
   14       19.490344   0.000000
   15       22.208822   0.000000
   16       23.916016   0.000000

 -0.3076923E+00  0.7692308E-01  0.3885781E-15  0.1092399E-01
    1       -4.797157   1.000000
    2        0.303523   1.000000
    3        3.812290   1.000000
    4        4.604303   1.000000
    5        7.624984   0.000000
    6        9.028790   0.000000
    7        9.152935   0.000000
    8       12.579196   0.000000
    9       12.731326   0.000000
   10       14.526186   0.000000
   11       15.140941   0.000000
   12       18.335865   0.000000
   13       19.425318   0.000000
   14       20.695581   0.000000
   15       21.699850   0.000000
   16       22.443391   0.000000

 -0.2307692E+00  0.7692308E-01  0.3608225E-15  0.1092399E-01
    1       -5.314204   1.000000
    2        1.532870   1.000000
    3        3.994421   1.000000
    4        4.884624   1.000000
    5        7.853820   0.000000
    6        8.902138   0.000000
    7        9.199458   0.000000
    8       11.695609   0.000000
    9       12.093751   0.000000
   10       13.931314   0.000000
   11       14.823545   0.000000
   12       17.323416   0.000000
   13       19.284908   0.000000
   14       20.813483   0.000000
   15       21.642409   0.000000
   16       23.369104   0.000000

 -0.1538462E+00  0.7692308E-01  0.3747003E-15  0.1092399E-01
    1       -5.721092   1.000000
    2        2.855119   1.000000
    3        4.291496   1.000000
    4        5.168512   0.999997
    5        8.125420   0.000000
    6        8.590996   0.000000
    7        8.901219   0.000000
    8       10.885092   0.000000
    9       12.039744   0.000000
   10       13.181580   0.000000
   11       14.849700   0.000000
   12       16.391898   0.000000
   13       18.003732   0.000000
   14       19.464987   0.000000
   15       23.141811   0.000000
   16       23.429544   0.000000

 -0.7692308E-01  0.7692308E-01  0.3885781E-15  0.5461994E-02
    1       -5.992023   1.000000
    2        4.062836   1.000000
    3        4.755060   1.000000
    4        5.362337   0.999162
    5        8.281307   0.000000
    6        8.327531   0.000000
    7        8.390161   0.000000
    8        9.901231   0.000000
    9       12.431750   0.000000
   10       13.058774   0.000000
   11       14.149558   0.000000
   12       16.498426   0.000000
   13       17.029260   0.000000
   14       18.125127   0.000000
   15       21.989663   0.000000
   16       25.429571   0.000000

  0.1538462E+00  0.1538462E+00  0.3742002E-15  0.2730997E-02
    1       -5.792020   1.000000
    2        3.643333   1.000000
    3        4.446297   1.000000
    4        4.446297   1.000000
    5        7.337097   0.000000
    6        9.574986   0.000000
    7        9.574986   0.000000
    8        9.718367   0.000000
    9       11.896901   0.000000
   10       13.661449   0.000000
   11       14.873985   0.000000
   12       17.350305   0.000000
   13       17.350305   0.000000
   14       17.905736   0.000000
   15       23.286967   0.000000
   16       24.903240   0.000000

  0.2307692E+00  0.1538462E+00  0.3677614E-15  0.1092399E-01
    1       -5.521221   1.000000
    2        2.668275   1.000000
    3        4.137530   1.000000
    4        4.156008   1.000000
    5        7.327854   0.000000
    6        9.382615   0.000000
    7       10.057735   0.000000
    8       10.094971   0.000000
    9       12.520768   0.000000
   10       13.817198   0.000000
   11       15.590197   0.000000
   12       17.157413   0.000000
   13       18.055329   0.000000
   14       19.143454   0.000000
   15       23.242637   0.000000
   16       23.525464   0.000000

  0.3076923E+00  0.1538462E+00  0.3885781E-15  0.1092399E-01
    1       -5.114826   1.000000
    2        1.474719   1.000000
    3        3.780139   1.000000
    4        3.914766   1.000000
    5        7.546581   0.000000
    6        9.399495   0.000000
    7        9.998602   0.000000
    8       10.340598   0.000000
    9       13.821338   0.000000
   10       14.193686   0.000000
   11       15.705486   0.000000
   12       17.775311   0.000000
   13       19.012845   0.000000
   14       20.483660   0.000000
   15       21.566857   0.000000
   16       22.269140   0.000000

  0.3846154E+00  0.1538462E+00  0.3885781E-15  0.1092399E-01
    1       -4.598114   1.000000
    2        0.318347   1.000000
    3        3.392554   1.000000
    4        3.797623   1.000000
    5        7.607892   0.000000
    6        9.485177   0.000000
    7       10.267589   0.000000
    8       10.402446   0.000000
    9       15.039058   0.000000
   10       15.115752   0.000000
   11       15.496445   0.000000
   12       18.438888   0.000000
   13       18.675114   0.000000
   14       20.389851   0.000000
   15       21.831610   0.000000
   16       23.025968   0.000000

  0.4615385E+00  0.1538462E+00  0.3885781E-15  0.1092399E-01
    1       -4.044901   1.000000
    2       -0.653876   1.000000
    3        3.066725   1.000000
    4        3.791934   1.000000
    5        7.598288   0.000000
    6        9.376860   0.000000
    7       10.051497   0.000000
    8       11.481543   0.000000
    9       14.898859   0.000000
   10       16.153787   0.000000
   11       16.748141   0.000000
   12       16.902996   0.000000
   13       17.822426   0.000000
   14       21.304564   0.000000
   15       22.603648   0.000000
   16       23.497944   0.000000

 -0.4615385E+00  0.1538462E+00  0.2775558E-15  0.1092399E-01
    1       -3.694197   1.000000
    2       -1.173077   1.000000
    3        2.835732   1.000000
    4        3.895077   1.000000
    5        7.651967   0.000000
    6        9.316686   0.000000
    7        9.837186   0.000000
    8       12.805885   0.000000
    9       14.379673   0.000000
   10       15.078625   0.000000
   11       16.617272   0.000000
   12       17.818061   0.000000
   13       18.417863   0.000000
   14       20.228301   0.000000
   15       24.101537   0.000000
   16       24.345045   0.000000

 -0.3846154E+00  0.1538462E+00  0.3885781E-15  0.1092399E-01
    1       -3.893170   1.000000
    2       -0.883342   1.000000
    3        2.719569   1.000000
    4        4.097093   1.000000
    5        7.801920   0.000000
    6        9.348504   0.000000
    7        9.676743   0.000000
    8       13.414520   0.000000
    9       13.632612   0.000000
   10       14.156687   0.000000
   11       16.432507   0.000000
   12       18.653083   0.000000
   13       19.446325   0.000000
   14       19.821286   0.000000
   15       22.190246   0.000000
   16       24.308887   0.000000

 -0.3076923E+00  0.1538462E+00  0.3885781E-15  0.1092399E-01
    1       -4.420708   1.000000
    2       -0.015277   1.000000
    3        2.737819   1.000000
    4        4.378665   1.000000
    5        8.032045   0.000000
    6        9.452353   0.000000
    7        9.539480   0.000000
    8       12.281711   0.000000
    9       12.467757   0.000000
   10       15.116995   0.000000
   11       17.070092   0.000000
   12       17.204471   0.000000
   13       19.756359   0.000000
   14       21.101860   0.000000
   15       21.457637   0.000000
   16       22.643417   0.000000

 -0.2307692E+00  0.1538462E+00  0.3885781E-15  0.1092399E-01
    1       -4.960681   1.000000
    2        1.071035   1.000000
    3        2.927445   1.000000
    4        4.704347   1.000000
    5        8.296855   0.000000
    6        9.299742   0.000000
    7        9.475292   0.000000
    8       11.355490   0.000000
    9       11.776027   0.000000
   10       15.531585   0.000000
   11       15.767812   0.000000
   12       17.473924   0.000000
   13       19.170275   0.000000
   14       20.383290   0.000000
   15       21.899569   0.000000
   16       23.316409   0.000000

 -0.1538462E+00  0.1538462E+00  0.3330669E-15  0.5461994E-02
    1       -5.405728   1.000000
    2        2.118836   1.000000
    3        3.403002   1.000000
    4        5.006656   1.000000
    5        8.474342   0.000000
    6        8.900470   0.000000
    7        9.119449   0.000000
    8       11.022453   0.000000
    9       11.684175   0.000000
   10       14.217908   0.000000
   11       15.628516   0.000000
   12       16.793487   0.000000
   13       18.382637   0.000000
   14       20.845411   0.000000
   15       21.409629   0.000000
   16       23.848775   0.000000

  0.2307692E+00  0.2307692E+00  0.3742002E-15  0.2730997E-02
    1       -5.297493   1.000000
    2        2.317519   1.000000
    3        3.806844   1.000000
    4        3.806844   1.000000
    5        6.808061   0.000000
    6        8.935742   0.000000
    7       10.809802   0.000000
    8       10.809802   0.000000
    9       12.872911   0.000000
   10       14.219808   0.000000
   11       16.336693   0.000000
   12       18.149197   0.000000
   13       18.149197   0.000000
   14       18.831390   0.000000
   15       22.980166   0.000000
   16       22.980166   0.000000

  0.3076923E+00  0.2307692E+00  0.3677614E-15  0.1092399E-01
    1       -4.934884   1.000000
    2        1.483384   1.000000
    3        3.418428   1.000000
    4        3.562985   1.000000
    5        6.848737   0.000000
    6        8.577589   0.000000
    7       11.071614   0.000000
    8       11.290252   0.000000
    9       13.984926   0.000000
   10       14.633781   0.000000
   11       16.896537   0.000000
   12       18.266825   0.000000
   13       18.729408   0.000000
   14       19.986477   0.000000
   15       21.569154   0.000000
   16       22.028670   0.000000

  0.3846154E+00  0.2307692E+00  0.3747003E-15  0.1092399E-01
    1       -4.451005   1.000000
    2        0.514116   1.000000
    3        2.893688   1.000000
    4        3.428572   1.000000
    5        7.075398   0.000000
    6        8.822976   0.000000
    7       10.946763   0.000000
    8       11.360932   0.000000
    9       15.439423   0.000000
   10       15.477539   0.000000
   11       16.607645   0.000000
   12       18.350469   0.000000
   13       18.963176   0.000000
   14       20.127504   0.000000
   15       21.323027   0.000000
   16       22.659271   0.000000

  0.4615385E+00  0.2307692E+00  0.3885781E-15  0.1092399E-01
    1       -3.894530   1.000000
    2       -0.410076   1.000000
    3        2.406663   1.000000
    4        3.411896   1.000000
    5        7.157717   0.000000
    6        9.740755   0.000000
    7       10.772973   0.000000
    8       11.168769   0.000000
    9       15.863460   0.000000
   10       16.500164   0.000000
   11       16.913616   0.000000
   12       17.068355   0.000000
   13       18.330132   0.000000
   14       21.304337   0.000000
   15       22.601539   0.000000
   16       23.951474   0.000000

 -0.4615385E+00  0.2307692E+00  0.3330669E-15  0.1092399E-01
    1       -3.431113   1.000000
    2       -1.061511   1.000000
    3        2.040383   1.000000
    4        3.512487   1.000000
    5        7.256971   0.000000
    6       10.569414   0.000000
    7       10.913117   0.000000
    8       11.105219   0.000000
    9       14.784850   0.000000
   10       15.065364   0.000000
   11       17.661553   0.000000
   12       18.160806   0.000000
   13       18.667082   0.000000
   14       22.322549   0.000000
   15       23.326885   0.000000
   16       23.737699   0.000000

 -0.3846154E+00  0.2307692E+00  0.3885781E-15  0.1092399E-01
    1       -3.455207   1.000000
    2       -1.023106   1.000000
    3        1.831806   1.000000
    4        3.722077   1.000000
    5        7.463713   0.000000
    6       10.519801   0.000000
    7       10.673523   0.000000
    8       12.564694   0.000000
    9       13.471572   0.000000
   10       13.574855   0.000000
   11       17.537994   0.000000
   12       19.789797   0.000000
   13       20.055003   0.000000
   14       20.855379   0.000000
   15       21.905055   0.000000
   16       23.995690   0.000000

 -0.3076923E+00  0.2307692E+00  0.3885781E-15  0.1092399E-01
    1       -3.934670   1.000000
    2       -0.351134   1.000000
    3        1.827863   1.000000
    4        4.021881   1.000000
    5        7.775927   0.000000
    6       10.403993   0.000000
    7       10.486231   0.000000
    8       12.132116   0.000000
    9       12.399754   0.000000
   10       14.186655   0.000000
   11       17.701832   0.000000
   12       19.153044   0.000000
   13       19.714742   0.000000
   14       21.440271   0.000000
   15       21.704816   0.000000
   16       23.040917   0.000000

 -0.2307692E+00  0.2307692E+00  0.3608225E-15  0.5461994E-02
    1       -4.485881   1.000000
    2        0.454411   1.000000
    3        2.144632   1.000000
    4        4.374149   1.000000
    5        8.129504   0.000000
    6        9.923673   0.000000
    7       10.200384   0.000000
    8       11.309539   0.000000
    9       11.794517   0.000000
   10       15.579747   0.000000
   11       17.303981   0.000000
   12       17.824138   0.000000
   13       18.702472   0.000000
   14       21.191212   0.000000
   15       22.395590   0.000000
   16       22.841304   0.000000

  0.3076923E+00  0.3076923E+00  0.3742002E-15  0.2730997E-02
    1       -4.615547   1.000000
    2        0.974605   1.000000
    3        3.292662   1.000000
    4        3.292662   1.000000
    5        6.401098   0.000013
    6        7.878156   0.000000
    7       12.140890   0.000000
    8       12.140890   0.000000
    9       14.418557   0.000000
   10       14.999748   0.000000
   11       17.873492   0.000000
   12       18.810066   0.000000
   13       18.810066   0.000000
   14       20.008474   0.000000
   15       21.686527   0.000000
   16       21.686527   0.000000

  0.3846154E+00  0.3076923E+00  0.3677614E-15  0.1092399E-01
    1       -4.168682   1.000000
    2        0.244844   1.000000
    3        2.878106   1.000000
    4        3.131035   1.000000
    5        6.514004   0.000000
    6        7.658086   0.000000
    7       12.430692   0.000000
    8       12.545677   0.000000
    9       15.594147   0.000000
   10       15.687044   0.000000
   11       17.696102   0.000000
   12       18.340382   0.000000
   13       19.405686   0.000000
   14       20.166429   0.000000
   15       21.151806   0.000000
   16       22.264326   0.000000

  0.4615385E+00  0.3076923E+00  0.3885781E-15  0.1092399E-01
    1       -3.626013   1.000000
    2       -0.511313   1.000000
    3        2.253414   1.000000
    4        3.089302   1.000000
    5        6.711005   0.000000
    6        8.200908   0.000000
    7       12.332469   0.000000
    8       12.477124   0.000000
    9       16.456557   0.000000
   10       16.775976   0.000000
   11       16.940167   0.000000
   12       17.213203   0.000000
   13       19.631661   0.000000
   14       20.666267   0.000000
   15       21.557627   0.000000
   16       23.251516   0.000000

 -0.4615385E+00  0.3076923E+00  0.3330669E-15  0.1092399E-01
    1       -3.096446   1.000000
    2       -1.146392   1.000000
    3        1.698566   1.000000
    4        3.169296   1.000000
    5        6.828809   0.000000
    6        9.358531   0.000000
    7       12.175546   0.000000
    8       12.219306   0.000000
    9       15.036944   0.000000
   10       15.167915   0.000000
   11       18.395151   0.000000
   12       18.741436   0.000000
   13       19.313606   0.000000
   14       21.952124   0.000000
   15       22.029030   0.000000
   16       23.601614   0.000000

 -0.3846154E+00  0.3076923E+00  0.2775558E-15  0.1092399E-01
    1       -2.963911   1.000000
    2       -1.282377   1.000000
    3        1.359091   1.000000
    4        3.365098   1.000000
    5        7.041184   0.000000
    6       10.775588   0.000000
    7       11.893470   0.000000
    8       12.070513   0.000000
    9       13.530166   0.000000
   10       13.685247   0.000000
   11       19.239250   0.000000
   12       20.045192   0.000000
   13       20.098888   0.000000
   14       21.555974   0.000000
   15       22.122324   0.000000
   16       22.998837   0.000000

 -0.3076923E+00  0.3076923E+00  0.3885781E-15  0.5461994E-02
    1       -3.389385   1.000000
    2       -0.826589   1.000000
    3        1.353981   1.000000
    4        3.660670   1.000000
    5        7.373727   0.000000
    6       11.331188   0.000000
    7       11.559316   0.000000
    8       12.286726   0.000000
    9       12.617953   0.000000
   10       12.692191   0.000000
   11       19.135477   0.000000
   12       19.684604   0.000000
   13       20.802065   0.000000
   14       21.416709   0.000000
   15       21.767458   0.000000
   16       22.430911   0.000000

  0.3846154E+00  0.3846154E+00  0.3742002E-15  0.2730997E-02
    1       -3.758095   1.000000
    2       -0.341751   1.000000
    3        2.938425   1.000000
    4        2.938425   1.000000
    5        6.185808   0.003677
    6        7.036734   0.000000
    7       13.529820   0.000000
    8       13.529820   0.000000
    9       15.999161   0.000000
   10       16.007104   0.000000
   11       18.108367   0.000000
   12       18.108367   0.000000
   13       18.902673   0.000000
   14       20.273678   0.000000
   15       21.503533   0.000000
   16       22.266791   0.000000

  0.4615385E+00  0.3846154E+00  0.3677614E-15  0.1092399E-01
    1       -3.238819   1.000000
    2       -0.990779   1.000000
    3        2.554526   1.000000
    4        2.865311   1.000000
    5        6.363331   0.000041
    6        7.021379   0.000000
    7       13.847421   0.000000
    8       13.850229   0.000000
    9       16.733848   0.000000
   10       16.919883   0.000000
   11       16.965347   0.000000
   12       17.294554   0.000000
   13       19.528233   0.000000
   14       19.934516   0.000000
   15       21.551455   0.000000
   16       23.283595   0.000000

 -0.4615385E+00  0.3846154E+00  0.3330669E-15  0.1092399E-01
    1       -2.679369   1.000000
    2       -1.572081   1.000000
    3        1.932748   1.000000
    4        2.915942   1.000000
    5        6.514717   0.000000
    6        7.890035   0.000000
    7       13.653988   0.000000
    8       13.772799   0.000000
    9       15.237731   0.000000
   10       15.379982   0.000000
   11       18.441470   0.000000
   12       18.651929   0.000000
   13       20.087878   0.000000
   14       20.318100   0.000000
   15       21.427117   0.000000
   16       23.526012   0.000000

 -0.3846154E+00  0.3846154E+00  0.3330669E-15  0.5461994E-02
    1       -2.518463   1.000000
    2       -1.692233   1.000000
    3        1.444975   1.000000
    4        3.086804   1.000000
    5        6.712616   0.000000
    6        9.233548   0.000000
    7       13.068795   0.000000
    8       13.569357   0.000000
    9       13.683762   0.000000
   10       14.141154   0.000000
   11       19.676731   0.000000
   12       19.973977   0.000000
   13       20.414061   0.000000
   14       21.170795   0.000000
   15       21.184312   0.000000
   16       21.998896   0.000000

  0.4615385E+00  0.4615385E+00  0.3742002E-15  0.2730997E-02
    1       -2.742538   1.000000
    2       -1.593182   1.000000
    3        2.758520   1.000000
    4        2.758520   1.000000
    5        6.202259   0.002581
    6        6.478967   0.000001
    7       14.914426   0.000000
    8       14.914426   0.000000
    9       16.721918   0.000000
   10       16.721918   0.000000
   11       17.214947   0.000000
   12       17.481348   0.000000
   13       18.638163   0.000000
   14       18.642321   0.000000
   15       23.269361   0.000000
   16       24.058973   0.000000

 -0.4615385E+00  0.4615385E+00  0.2775558E-15  0.5461994E-02
    1       -2.207458   1.000000
    2       -2.128140   1.000000
    3        2.447004   1.000000
    4        2.775785   1.000000
    5        6.352648   0.000057
    6        6.766316   0.000000
    7       14.885414   0.000000
    8       15.049871   0.000000
    9       15.650092   0.000000
   10       15.823274   0.000000
   11       18.365645   0.000000
   12       18.381282   0.000000
   13       18.394583   0.000000
   14       18.849940   0.000000
   15       23.335973   0.000000
   16       23.629329   0.000000

  0.2307692E+00  0.1538462E+00  0.7692308E-01  0.1092399E-01
    1       -5.694926   1.000000
    2        3.028109   1.000000
    3        4.084090   1.000000
    4        4.872037   1.000000
    5        7.855261   0.000000
    6        8.856870   0.000000
    7        9.410641   0.000000
    8       10.391193   0.000000
    9       12.114548   0.000000
   10       13.471247   0.000000
   11       15.091866   0.000000
   12       16.761804   0.000000
   13       17.619278   0.000000
   14       19.241648   0.000000
   15       23.378519   0.000000
   16       23.486665   0.000000

  0.3076923E+00  0.1538462E+00  0.7692308E-01  0.2184797E-01
    1       -5.332518   1.000000
    2        1.903915   1.000000
    3        3.596990   1.000000
    4        4.645857   1.000000
    5        8.080140   0.000000
    6        8.856196   0.000000
    7        9.820899   0.000000