       N       E                     dE             d eps       ncg     rms          rms(c)
DAV:   1     0.300798625932E+01    0.30080E+01   -0.34631E+03  2688   0.392E+02
DAV:   2    -0.832922742128E+01   -0.11337E+02   -0.11175E+02  3984   0.398E+01
DAV:   3    -0.840891326447E+01   -0.79686E-01   -0.79686E-01  2880   0.423E+00
DAV:   4    -0.840916646611E+01   -0.25320E-03   -0.25320E-03  5056   0.269E-01
DAV:   5    -0.840916648057E+01   -0.14458E-07   -0.13891E-07  2928   0.166E-03    0.367E+00
DAV:   6    -0.835970325346E+01    0.49463E-01   -0.84743E-02  4176   0.858E-01    0.224E+00
DAV:   7    -0.835387227386E+01    0.58310E-02   -0.19359E-01  4128   0.128E+00    0.185E-01
DAV:   8    -0.833746566250E+01    0.16407E-01   -0.49514E-03  3168   0.243E-01    0.953E-02
DAV:   9    -0.833857960910E+01   -0.11139E-02   -0.55070E-04  4032   0.819E-02    0.524E-02
DAV:  10    -0.833860829857E+01   -0.28689E-04   -0.23054E-05  3536   0.216E-02    0.106E-02
DAV:  11    -0.833842310349E+01    0.18520E-03   -0.30214E-07  4480   0.260E-03    0.185E-03
DAV:  12    -0.833841105886E+01    0.12045E-04   -0.68191E-08  3344   0.136E-03    0.366E-04
DAV:  13    -0.833840884446E+01    0.22144E-05   -0.47888E-09  3360   0.322E-04    0.742E-05
DAV:  14    -0.833840924037E+01   -0.39591E-06   -0.16779E-10  1872   0.641E-05    0.504E-06
DAV:  15    -0.833840895903E+01    0.28134E-06   -0.79724E-12  1632   0.131E-05    0.261E-06
DAV:  16    -0.833840894414E+01    0.14889E-07   -0.10950E-12  1632   0.564E-06
   1 F= -.83384089E+01 E0= -.83383933E+01  d E =-.833841E+01
