 vasp.5.4.1 24Jun15 (build Feb  9 2019 14:16:27) complex                         
 executed on           IFC91_ompi date 2020.09.26  22:30:49
 running on   16 total cores
 distrk:  each k-point on   16 cores,    1 groups
 distr:  one band on NCORES_PER_BAND=   1 cores,   16 groups


--------------------------------------------------------------------------------------------------------


 INCAR:
 POTCAR:    PAW_PBE Si 05Jan2001                  

 ----------------------------------------------------------------------------- 
|                                                                             |
|           W    W    AA    RRRRR   N    N  II  N    N   GGGG   !!!           |
|           W    W   A  A   R    R  NN   N  II  NN   N  G    G  !!!           |
|           W    W  A    A  R    R  N N  N  II  N N  N  G       !!!           |
|           W WW W  AAAAAA  RRRRR   N  N N  II  N  N N  G  GGG   !            |
|           WW  WW  A    A  R   R   N   NN  II  N   NN  G    G                |
|           W    W  A    A  R    R  N    N  II  N    N   GGGG   !!!           |
|                                                                             |
|      For optimal performance we recommend to set                            |
|        NCORE= 4 - approx SQRT( number of cores)                             |
|      NCORE specifies how many cores store one orbital (NPAR=cpu/NCORE).     |
|      This setting can  greatly improve the performance of VASP for DFT.     |
|      The default, NPAR=number of cores might be grossly inefficient         |
|      on modern multi-core architectures or massively parallel machines.     |
|      Do your own testing !!!!                                               |
|      Unfortunately you need to use the default for GW and RPA calculations. |
|      (for HF NCORE is supported but not extensively tested yet)             |
|                                                                             |
 ----------------------------------------------------------------------------- 


 ----------------------------------------------------------------------------- 
|                                                                             |
|  ADVICE TO THIS USER RUNNING 'VASP/VAMP'   (HEAR YOUR MASTER'S VOICE ...):  |
|                                                                             |
|      You have switched on vdW-DFT.                                          |
|      This routine was written and supplied by Jiri Klimes.                  |
|      We recommed that you carefully read and cite the following             |
|      publication                                                            |
|      J. Klimes, D.R. Bowler, A. Michelides                                  |
|        J. Phys.: Cond Matt. 22 022201 (2010)                                |
|      J. Klimes, D.R. Bowler, A. Michelides                                  |
|        Phys. Rev. B. 83, 195131 (2011)                                      |
|      and references therein.                                                |
|                                                                             |
 ----------------------------------------------------------------------------- 

 POTCAR:    PAW_PBE Si 05Jan2001                  
   VRHFIN =Si: s2p2                                                             
   LEXCH  = PE                                                                  
   EATOM  =   103.0669 eV,    7.5752 Ry                                         
                                                                                
   TITEL  = PAW_PBE Si 05Jan2001                                                
   LULTRA =        F    use ultrasoft PP ?                                      
   IUNSCR =        1    unscreen: 0-lin 1-nonlin 2-no                           
   RPACOR =    1.500    partial core radius                                     
   POMASS =   28.085; ZVAL   =    4.000    mass and valenz                      
   RCORE  =    1.900    outmost cutoff radius                                   
   RWIGS  =    2.480; RWIGS  =    1.312    wigner-seitz radius (au A)           
   ENMAX  =  245.345; ENMIN  =  184.009 eV                                      
   ICORE  =        2    local potential                                         
   LCOR   =        T    correct aug charges                                     
   LPAW   =        T    paw PP                                                  
   EAUG   =  322.069                                                            
   DEXC   =    0.000                                                            
   RMAX   =    1.950    core radius for proj-oper                               
   RAUG   =    1.300    factor for augmentation sphere                          
   RDEP   =    1.993    radius for radial grids                                 
   RDEPT  =    1.837    core radius for aug-charge                              
                                                                                
   Atomic configuration                                                         
    6 entries                                                                   
     n  l   j            E        occ.                                          
     1  0  0.50     -1785.8828   2.0000                                         
     2  0  0.50      -139.4969   2.0000                                         
     2  1  1.50       -95.5546   6.0000                                         
     3  0  0.50       -10.8127   2.0000                                         
     3  1  0.50        -4.0811   2.0000                                         
     3  2  1.50        -4.0817   0.0000                                         
   Description                                                                  
     l       E           TYP  RCUT    TYP  RCUT                                 
     0    -10.8127223     23  1.900                                             
     0     -7.6451159     23  1.900                                             
     1     -4.0811372     23  1.900                                             
     1      2.4879257     23  1.900                                             
     2     -4.0817478      7  1.900                                             
  local pseudopotential read in
  partial core-charges read in
  partial kinetic energy density read in
  atomic valenz-charges read in
  non local Contribution for L=           0  read in
    real space projection operators read in
  non local Contribution for L=           0  read in
    real space projection operators read in
  non local Contribution for L=           1  read in
    real space projection operators read in
  non local Contribution for L=           1  read in
    real space projection operators read in
    PAW grid and wavefunctions read in

   number of l-projection  operators is LMAX  =           4
   number of lm-projection operators is LMMAX =           8


 ----------------------------------------------------------------------------- 
|                                                                             |
|  ADVICE TO THIS USER RUNNING 'VASP/VAMP'   (HEAR YOUR MASTER'S VOICE ...):  |
|                                                                             |
|      You enforced a specific xc-type in the INCAR file,                     |
|      a different type was found on the POTCAR file                          |
|          I HOPE YOU KNOW, WHAT YOU ARE  DOING                               |
|                                                                             |
 ----------------------------------------------------------------------------- 

  PAW_PBE Si 05Jan2001                  :
 energy of atom  1       EATOM= -103.0669
 kinetic energy error for atom=    0.0006 (will be added to EATOM!!)


 POSCAR: bulk@JVASP-1002                         
  positions in direct lattice
  No initial velocities read in
 exchange correlation table for  LEXCH =       42
   RHO(1)=    0.500       N(1)  =     2000
   RHO(2)=  100.500       N(2)  =     4000



--------------------------------------------------------------------------------------------------------


 ion  position               nearest neighbor table
   1  0.750  0.750  0.750-   2 2.38   2 2.38   2 2.38   2 2.38
   2  0.500  0.500  0.500-   1 2.38   1 2.38   1 2.38   1 2.38

  LATTYP: Found a face centered cubic cell.
 ALAT       =     5.4936422752
  
  Lattice vectors:
  
 A1 = (   0.0000000000,   2.7468211376,   2.7468211376)
 A2 = (   2.7468211376,   0.0000000000,   2.7468211376)
 A3 = (   2.7468211376,   2.7468211376,   0.0000000000)


Analysis of symmetry for initial positions (statically):
=====================================================================
 Subroutine PRICEL returns:
 Original cell was already a primitive cell.
 

 Routine SETGRP: Setting up the symmetry group for a 
 face centered cubic supercell.


 Subroutine GETGRP returns: Found 48 space group operations
 (whereof 24 operations were pure point group operations)
 out of a pool of 48 trial point group operations.


The static configuration has the point symmetry T_d .
 The point group associated with its full space group is O_h .


Analysis of symmetry for dynamics (positions and initial velocities):
=====================================================================
 Subroutine PRICEL returns:
 Original cell was already a primitive cell.
 

 Routine SETGRP: Setting up the symmetry group for a 
 face centered cubic supercell.


 Subroutine GETGRP returns: Found 48 space group operations
 (whereof 24 operations were pure point group operations)
 out of a pool of 48 trial point group operations.


The dynamic configuration has the point symmetry T_d .
 The point group associated with its full space group is O_h .


 KPOINTS: Automatic kpoint scheme                 

Automatic generation of k-mesh.
Space group operators:
 irot       det(A)        alpha          n_x          n_y          n_z        tau_x        tau_y        tau_z
    1     1.000000     0.000000     1.000000     0.000000     0.000000     0.000000     0.000000     0.000000
    2     1.000000   120.000000    -0.577350    -0.577350    -0.577350     0.000000     0.000000     0.000000
    3     1.000000   120.000000     0.577350     0.577350     0.577350     0.000000     0.000000     0.000000
    4    -1.000000    90.000000     0.000000     0.000000    -1.000000     0.000000     0.000000     0.000000
    5    -1.000000   180.000000     0.000000     0.707107     0.707107     0.000000     0.000000     0.000000
    6    -1.000000    90.000000     0.000000     1.000000     0.000000     0.000000     0.000000     0.000000
    7     1.000000   180.000000     0.000000     0.000000     1.000000     0.000000     0.000000     0.000000
    8     1.000000   120.000000    -0.577350     0.577350     0.577350     0.000000     0.000000     0.000000
    9     1.000000   120.000000    -0.577350     0.577350    -0.577350     0.000000     0.000000     0.000000
   10    -1.000000    90.000000     0.000000     0.000000     1.000000     0.000000     0.000000     0.000000
   11    -1.000000    90.000000    -1.000000     0.000000     0.000000     0.000000     0.000000     0.000000
   12    -1.000000   180.000000     0.707107     0.000000     0.707107     0.000000     0.000000     0.000000
   13     1.000000   120.000000     0.577350    -0.577350     0.577350     0.000000     0.000000     0.000000
   14     1.000000   120.000000    -0.577350    -0.577350     0.577350     0.000000     0.000000     0.000000
   15     1.000000   180.000000     1.000000     0.000000     0.000000     0.000000     0.000000     0.000000
   16    -1.000000    90.000000     0.000000    -1.000000     0.000000     0.000000     0.000000     0.000000
   17    -1.000000   180.000000     0.707107     0.707107     0.000000     0.000000     0.000000     0.000000
   18    -1.000000    90.000000     1.000000     0.000000     0.000000     0.000000     0.000000     0.000000
   19     1.000000   120.000000     0.577350    -0.577350    -0.577350     0.000000     0.000000     0.000000
   20     1.000000   180.000000     0.000000     1.000000     0.000000     0.000000     0.000000     0.000000
   21     1.000000   120.000000     0.577350     0.577350    -0.577350     0.000000     0.000000     0.000000
   22    -1.000000   180.000000     0.000000    -0.707107     0.707107     0.000000     0.000000     0.000000
   23    -1.000000   180.000000     0.707107    -0.707107     0.000000     0.000000     0.000000     0.000000
   24    -1.000000   180.000000     0.707107     0.000000    -0.707107     0.000000     0.000000     0.000000
   25    -1.000000     0.000000     1.000000     0.000000     0.000000     0.250000     0.250000     0.250000
   26    -1.000000   120.000000    -0.577350    -0.577350    -0.577350     0.250000     0.250000     0.250000
   27    -1.000000   120.000000     0.577350     0.577350     0.577350     0.250000     0.250000     0.250000
   28     1.000000    90.000000     0.000000     0.000000    -1.000000     0.250000     0.250000     0.250000
   29     1.000000   180.000000     0.000000     0.707107     0.707107     0.250000     0.250000     0.250000
   30     1.000000    90.000000     0.000000     1.000000     0.000000     0.250000     0.250000     0.250000
   31    -1.000000   180.000000     0.000000     0.000000     1.000000     0.250000     0.250000     0.250000
   32    -1.000000   120.000000    -0.577350     0.577350     0.577350     0.250000     0.250000     0.250000
   33    -1.000000   120.000000    -0.577350     0.577350    -0.577350     0.250000     0.250000     0.250000
   34     1.000000    90.000000     0.000000     0.000000     1.000000     0.250000     0.250000     0.250000
   35     1.000000    90.000000    -1.000000     0.000000     0.000000     0.250000     0.250000     0.250000
   36     1.000000   180.000000     0.707107     0.000000     0.707107     0.250000     0.250000     0.250000
   37    -1.000000   120.000000     0.577350    -0.577350     0.577350     0.250000     0.250000     0.250000
   38    -1.000000   120.000000    -0.577350    -0.577350     0.577350     0.250000     0.250000     0.250000
   39    -1.000000   180.000000     1.000000     0.000000     0.000000     0.250000     0.250000     0.250000
   40     1.000000    90.000000     0.000000    -1.000000     0.000000     0.250000     0.250000     0.250000
   41     1.000000   180.000000     0.707107     0.707107     0.000000     0.250000     0.250000     0.250000
   42     1.000000    90.000000     1.000000     0.000000     0.000000     0.250000     0.250000     0.250000
   43    -1.000000   120.000000     0.577350    -0.577350    -0.577350     0.250000     0.250000     0.250000
   44    -1.000000   180.000000     0.000000     1.000000     0.000000     0.250000     0.250000     0.250000
   45    -1.000000   120.000000     0.577350     0.577350    -0.577350     0.250000     0.250000     0.250000
   46     1.000000   180.000000     0.000000    -0.707107     0.707107     0.250000     0.250000     0.250000
   47     1.000000   180.000000     0.707107    -0.707107     0.000000     0.250000     0.250000     0.250000
   48     1.000000   180.000000     0.707107     0.000000    -0.707107     0.250000     0.250000     0.250000
 
 Subroutine IBZKPT returns following result:
 ===========================================
 
 Found     84 irreducible k-points:
 
 Following reciprocal coordinates:
            Coordinates               Weight
  0.000000  0.000000  0.000000      1.000000
  0.076923  0.000000  0.000000      8.000000
  0.153846  0.000000  0.000000      8.000000
  0.230769  0.000000  0.000000      8.000000
  0.307692  0.000000  0.000000      8.000000
  0.384615  0.000000  0.000000      8.000000
  0.461538  0.000000  0.000000      8.000000
  0.076923  0.076923  0.000000      6.000000
  0.153846  0.076923  0.000000     24.000000
  0.230769  0.076923  0.000000     24.000000
  0.307692  0.076923  0.000000     24.000000
  0.384615  0.076923  0.000000     24.000000
  0.461538  0.076923  0.000000     24.000000
 -0.461538  0.076923  0.000000     24.000000
 -0.384615  0.076923  0.000000     24.000000
 -0.307692  0.076923  0.000000     24.000000
 -0.230769  0.076923  0.000000     24.000000
 -0.153846  0.076923  0.000000     24.000000
 -0.076923  0.076923  0.000000     12.000000
  0.153846  0.153846  0.000000      6.000000
  0.230769  0.153846  0.000000     24.000000
  0.307692  0.153846  0.000000     24.000000
  0.384615  0.153846  0.000000     24.000000
  0.461538  0.153846  0.000000     24.000000
 -0.461538  0.153846  0.000000     24.000000
 -0.384615  0.153846  0.000000     24.000000
 -0.307692  0.153846  0.000000     24.000000
 -0.230769  0.153846  0.000000     24.000000
 -0.153846  0.153846  0.000000     12.000000
  0.230769  0.230769  0.000000      6.000000
  0.307692  0.230769  0.000000     24.000000
  0.384615  0.230769  0.000000     24.000000
  0.461538  0.230769  0.000000     24.000000
 -0.461538  0.230769  0.000000     24.000000
 -0.384615  0.230769  0.000000     24.000000
 -0.307692  0.230769  0.000000     24.000000
 -0.230769  0.230769  0.000000     12.000000
  0.307692  0.307692  0.000000      6.000000
  0.384615  0.307692  0.000000     24.000000
  0.461538  0.307692  0.000000     24.000000
 -0.461538  0.307692  0.000000     24.000000
 -0.384615  0.307692  0.000000     24.000000
 -0.307692  0.307692  0.000000     12.000000
  0.384615  0.384615  0.000000      6.000000
  0.461538  0.384615  0.000000     24.000000
 -0.461538  0.384615  0.000000     24.000000
 -0.384615  0.384615  0.000000     12.000000
  0.461538  0.461538  0.000000      6.000000
 -0.461538  0.461538  0.000000     12.000000
  0.230769  0.153846  0.076923     24.000000
  0.307692  0.153846  0.076923     48.000000
  0.384615  0.153846  0.076923     48.000000
  0.461538  0.153846  0.076923     48.000000
 -0.461538  0.153846  0.076923     48.000000
  0.307692  0.230769  0.076923     24.000000
  0.384615  0.230769  0.076923     48.000000
  0.461538  0.230769  0.076923     48.000000
 -0.461538  0.230769  0.076923     48.000000
 -0.384615  0.230769  0.076923     48.000000
 -0.307692  0.230769  0.076923     48.000000
 -0.230769  0.230769  0.076923     48.000000
 -0.153846  0.230769  0.076923     24.000000
  0.384615  0.307692  0.076923     24.000000
  0.461538  0.307692  0.076923     48.000000
 -0.461538  0.307692  0.076923     48.000000
 -0.384615  0.307692  0.076923     48.000000
 -0.307692  0.307692  0.076923     48.000000
 -0.230769  0.307692  0.076923     24.000000
  0.461538  0.384615  0.076923     24.000000
 -0.461538  0.384615  0.076923     48.000000
 -0.384615  0.384615  0.076923     48.000000
 -0.307692  0.384615  0.076923     24.000000
 -0.461538  0.461538  0.076923     24.000000
 -0.384615  0.461538  0.076923     24.000000
  0.461538  0.307692  0.153846     24.000000
 -0.461538  0.307692  0.153846     48.000000
 -0.384615  0.307692  0.153846     48.000000
 -0.461538  0.384615  0.153846     24.000000
 -0.384615  0.384615  0.153846     48.000000
 -0.307692  0.384615  0.153846     48.000000
 -0.230769  0.384615  0.153846     24.000000
 -0.384615  0.461538  0.153846     24.000000
 -0.307692  0.461538  0.153846     24.000000
 -0.307692  0.461538  0.230769     24.000000
 
 Following cartesian coordinates:
            Coordinates               Weight
  0.000000  0.000000  0.000000      1.000000
 -0.014002  0.014002  0.014002      8.000000
 -0.028004  0.028004  0.028004      8.000000
 -0.042007  0.042007  0.042007      8.000000
 -0.056009  0.056009  0.056009      8.000000
 -0.070011  0.070011  0.070011      8.000000
 -0.084013  0.084013  0.084013      8.000000
  0.000000  0.000000  0.028004      6.000000
 -0.014002  0.014002  0.042007     24.000000
 -0.028004  0.028004  0.056009     24.000000
 -0.042007  0.042007  0.070011     24.000000
 -0.056009  0.056009  0.084013     24.000000
 -0.070011  0.070011  0.098015     24.000000
  0.098015 -0.098015 -0.070011     24.000000
  0.084013 -0.084013 -0.056009     24.000000
  0.070011 -0.070011 -0.042007     24.000000
  0.056009 -0.056009 -0.028004     24.000000
  0.042007 -0.042007 -0.014002     24.000000
  0.028004 -0.028004  0.000000     12.000000
  0.000000  0.000000  0.056009      6.000000
 -0.014002  0.014002  0.070011     24.000000
 -0.028004  0.028004  0.084013     24.000000
 -0.042007  0.042007  0.098015     24.000000
 -0.056009  0.056009  0.112018     24.000000
  0.112018 -0.112018 -0.056009     24.000000
  0.098015 -0.098015 -0.042007     24.000000
  0.084013 -0.084013 -0.028004     24.000000
  0.070011 -0.070011 -0.014002     24.000000
  0.056009 -0.056009  0.000000     12.000000
  0.000000  0.000000  0.084013      6.000000
 -0.014002  0.014002  0.098015     24.000000
 -0.028004  0.028004  0.112018     24.000000
 -0.042007  0.042007  0.126020     24.000000
  0.126020 -0.126020 -0.042007     24.000000
  0.112018 -0.112018 -0.028004     24.000000
  0.098015 -0.098015 -0.014002     24.000000
  0.084013 -0.084013  0.000000     12.000000
  0.000000  0.000000  0.112018      6.000000
 -0.014002  0.014002  0.126020     24.000000
 -0.028004  0.028004  0.140022     24.000000
  0.140022 -0.140022 -0.028004     24.000000
  0.126020 -0.126020 -0.014002     24.000000
  0.112018 -0.112018  0.000000     12.000000
  0.000000  0.000000  0.140022      6.000000
 -0.014002  0.014002  0.154024     24.000000
  0.154024 -0.154024 -0.014002     24.000000
  0.140022 -0.140022  0.000000     12.000000
  0.000000  0.000000  0.168026      6.000000
  0.168026 -0.168026  0.000000     12.000000
  0.000000  0.028004  0.056009     24.000000
 -0.014002  0.042007  0.070011     48.000000
 -0.028004  0.056009  0.084013     48.000000
 -0.042007  0.070011  0.098015     48.000000
  0.126020 -0.098015 -0.070011     48.000000
  0.000000  0.028004  0.084013     24.000000
 -0.014002  0.042007  0.098015     48.000000
 -0.028004  0.056009  0.112018     48.000000
  0.140022 -0.112018 -0.056009     48.000000
  0.126020 -0.098015 -0.042007     48.000000
  0.112018 -0.084013 -0.028004     48.000000
  0.098015 -0.070011 -0.014002     48.000000
  0.084013 -0.056009  0.000000     24.000000
 -0.000000  0.028004  0.112018     24.000000
 -0.014002  0.042007  0.126020     48.000000
  0.154024 -0.126020 -0.042007     48.000000
  0.140022 -0.112018 -0.028004     48.000000
  0.126020 -0.098015 -0.014002     48.000000
  0.112018 -0.084013  0.000000     24.000000
  0.000000  0.028004  0.140022     24.000000
  0.168026 -0.140022 -0.028004     48.000000
  0.154024 -0.126020 -0.014002     48.000000
  0.140022 -0.112018  0.000000     24.000000
  0.182029 -0.154024 -0.014002     24.000000
  0.168026 -0.140022  0.000000     24.000000
  0.000000  0.056009  0.112018     24.000000
  0.168026 -0.112018 -0.056009     48.000000
  0.154024 -0.098015 -0.042007     48.000000
  0.182029 -0.126020 -0.042007     24.000000
  0.168026 -0.112018 -0.028004     48.000000
  0.154024 -0.098015 -0.014002     48.000000
  0.140022 -0.084013  0.000000     24.000000
  0.182029 -0.126020 -0.014002     24.000000
  0.168026 -0.112018  0.000000     24.000000
  0.182029 -0.098015 -0.014002     24.000000
 


--------------------------------------------------------------------------------------------------------




 Dimension of arrays:
   k-points           NKPTS =       84   k-points in BZ     NKDIM =       84   number of bands    NBANDS=     16
   number of dos      NEDOS =    301   number of ions     NIONS =      2
   non local maximal  LDIM  =      4   non local SUM 2l+1 LMDIM =      8
   total plane-waves  NPLWV =  21952
   max r-space proj   IRMAX =      1   max aug-charges    IRDMAX=  17905
   dimension x,y,z NGX =    28 NGY =   28 NGZ =   28
   dimension x,y,z NGXF=    56 NGYF=   56 NGZF=   56
   support grid    NGXF=    56 NGYF=   56 NGZF=   56
   ions per type =               2
 NGX,Y,Z   is equivalent  to a cutoff of  11.98, 11.98, 11.98 a.u.
 NGXF,Y,Z  is equivalent  to a cutoff of  23.97, 23.97, 23.97 a.u.


 I would recommend the setting:
   dimension x,y,z NGX =    28 NGY =   28 NGZ =   28
 SYSTEM =  unknown system                          
 POSCAR =  bulk@JVASP-1002                         

 Startparameter for this run:
   NWRITE =      2    write-flag & timer
   PREC   = accura    normal or accurate (medium, high low for compatibility)
   ISTART =      0    job   : 0-new  1-cont  2-samecut
   ICHARG =      2    charge: 1-file 2-atom 10-const
   ISPIN  =      1    spin polarized calculation?
   LNONCOLLINEAR =      F non collinear calculations
   LSORBIT =      F    spin-orbit coupling
   INIWAV =      1    electr: 0-lowe 1-rand  2-diag
   LASPH  =      F    aspherical Exc in radial PAW
   METAGGA=      F    non-selfconsistent MetaGGA calc.

 Electronic Relaxation 1
   ENCUT  =  500.0 eV  36.75 Ry    6.06 a.u.   7.08  7.08  7.08*2*pi/ulx,y,z
   ENINI  =  500.0     initial cutoff
   ENAUG  =  322.1 eV  augmentation charge cutoff
   NELM   =    400;   NELMIN=  2; NELMDL= -5     # of ELM steps 
   EDIFF  = 0.1E-06   stopping-criterion for ELM
   LREAL  =      F    real-space projection
   NLSPLINE    = F    spline interpolate recip. space projectors
   LCOMPAT=      F    compatible to vasp.4.4
   GGA_COMPAT  = T    GGA compatible to vasp.4.4-vasp.4.6
   LMAXPAW     = -100 max onsite density
   LMAXMIX     =    2 max onsite mixed and CHGCAR
   VOSKOWN=      0    Vosko Wilk Nusair interpolation
   ROPT   =    0.00000
 Ionic relaxation
   EDIFFG = 0.1E-05   stopping-criterion for IOM
   NSW    =      1    number of steps for IOM
   NBLOCK =      1;   KBLOCK =      1    inner block; outer block 
   IBRION =      2    ionic relax: 0-MD 1-quasi-New 2-CG
   NFREE  =      1    steps in history (QN), initial steepest desc. (CG)
   ISIF   =      2    stress and relaxation
   IWAVPR =     11    prediction:  0-non 1-charg 2-wave 3-comb
   ISYM   =      2    0-nonsym 1-usesym 2-fastsym
   LCORR  =      T    Harris-Foulkes like correction to forces

   POTIM  = 0.5000    time-step for ionic-motion
   TEIN   =    0.0    initial temperature
   TEBEG  =    0.0;   TEEND  =   0.0 temperature during run
   SMASS  =  -3.00    Nose mass-parameter (am)
   estimated Nose-frequenzy (Omega)   =  0.10E-29 period in steps =****** mass=  -0.345E-27a.u.
   SCALEE = 1.0000    scale energy and forces
   NPACO  =    256;   APACO  = 16.0  distance and # of slots for P.C.
   PSTRESS=    0.0 pullay stress

  Mass of Ions in am
   POMASS =  28.09
  Ionic Valenz
   ZVAL   =   4.00
  Atomic Wigner-Seitz radii
   RWIGS  =  -1.00
  virtual crystal weights 
   VCA    =   1.00
   NELECT =       8.0000    total number of electrons
   NUPDOWN=      -1.0000    fix difference up-down

 DOS related values:
   EMIN   =  10.00;   EMAX   =-10.00  energy-range for DOS
   EFERMI =   0.00
   ISMEAR =     0;   SIGMA  =   0.20  broadening in eV -4-tet -1-fermi 0-gaus

 Electronic relaxation 2 (details)
   IALGO  =     38    algorithm
   LDIAG  =      T    sub-space diagonalisation (order eigenvalues)
   LSUBROT=      F    optimize rotation matrix (better conditioning)
   TURBO    =      0    0=normal 1=particle mesh
   IRESTART =      0    0=no restart 2=restart with 2 vectors
   NREBOOT  =      0    no. of reboots
   NMIN     =      0    reboot dimension
   EREF     =   0.00    reference energy to select bands
   IMIX   =      4    mixing-type and parameters
     AMIX     =   0.40;   BMIX     =  1.00
     AMIX_MAG =   1.60;   BMIX_MAG =  1.00
     AMIN     =   0.10
     WC   =   100.;   INIMIX=   1;  MIXPRE=   1;  MAXMIX= -45

 Intra band minimization:
   WEIMIN = 0.0010     energy-eigenvalue tresh-hold
   EBREAK =  0.16E-08  absolut break condition
   DEPER  =   0.30     relativ break condition  

   TIME   =   0.40     timestep for ELM

  volume/ion in A,a.u.               =      20.72       139.86
  Fermi-wavevector in a.u.,A,eV,Ry     =   0.946087  1.787845 12.178313  0.895081
  Thomas-Fermi vector in A             =   2.074051

 Write flags
   LWAVE  =      F    write WAVECAR
   LCHARG =      F    write CHGCAR
   LVTOT  =      F    write LOCPOT, total local potential
   LVHAR  =      F    write LOCPOT, Hartree potential only
   LELF   =      F    write electronic localiz. function (ELF)
   LORBIT =      0    0 simple, 1 ext, 2 COOP (PROOUT)


 Dipole corrections
   LMONO  =      F    monopole corrections only (constant potential shift)
   LDIPOL =      F    correct potential (dipole corrections)
   IDIPOL =      0    1-x, 2-y, 3-z, 4-all directions 
   EPSILON=  1.0000000 bulk dielectric constant

 Exchange correlation treatment:
   GGA     =    BO    GGA type
   LEXCH   =    42    internal setting for exchange type
   VOSKOWN=      0    Vosko Wilk Nusair interpolation
   LHFCALC =     F    Hartree Fock is set to
   LHFONE  =     F    Hartree Fock one center treatment
   AEXX    =    0.0000 exact exchange contribution

 vdW DFT:
   LUSE_VDW   =     T    switch on vdW DFT
   Zab_VDW    =-.8491    correlation parameter
   PARAM1     =0.1833
   PARAM2     =0.2200
   PARAM3     =0.0000

 Linear response parameters
   LEPSILON=     F    determine dielectric tensor
   LRPA    =     F    only Hartree local field effects (RPA)
   LNABLA  =     F    use nabla operator in PAW spheres
   LVEL    =     F    velocity operator in full k-point grid
   LINTERFAST=   F  fast interpolation
   KINTER  =     0    interpolate to denser k-point grid
   CSHIFT  =0.1000    complex shift for real part using Kramers Kronig
   OMEGAMAX=  -1.0    maximum frequency
   DEG_THRESHOLD= 0.2000000E-02 threshold for treating states as degnerate
   RTIME   =    0.100 relaxation time in fs

 Orbital magnetization related:
   ORBITALMAG=     F  switch on orbital magnetization
   LCHIMAG   =     F  perturbation theory with respect to B field
   DQ        =  0.001000  dq finite difference perturbation B field



--------------------------------------------------------------------------------------------------------


 conjugate gradient relaxation of ions
 charge density and potential will be updated during run
 non-spin polarized calculation
 Variant of blocked Davidson
 Davidson routine will perform the subspace rotation
 perform sub-space diagonalisation
    after iterative eigenvector-optimisation
 modified Broyden-mixing scheme, WC =      100.0
 initial mixing is a Kerker type mixing with AMIX =  0.4000 and BMIX =      1.0000
 Hartree-type preconditioning will be used
 using additional bands           12
 reciprocal scheme for non local part
 use partial core corrections
 calculate Harris-corrections to forces   (improved forces if not selfconsistent)
 use gradient corrections 
 use of overlap-Matrix (Vanderbilt PP)
 Gauss-broadening in eV      SIGMA  =   0.20


--------------------------------------------------------------------------------------------------------


  energy-cutoff  :      500.00
  volume of cell :       41.45
      direct lattice vectors                 reciprocal lattice vectors
     0.000000000  2.746821138  2.746821138    -0.182028598  0.182028598  0.182028598
     2.746821138  0.000000000  2.746821138     0.182028598 -0.182028598  0.182028598
     2.746821138  2.746821138  0.000000000     0.182028598  0.182028598 -0.182028598

  length of vectors
     3.884591706  3.884591706  3.884591706     0.315282780  0.315282780  0.315282780



 k-points in units of 2pi/SCALE and weight: Automatic kpoint scheme                 
   0.00000000  0.00000000  0.00000000       0.000
  -0.01400220  0.01400220  0.01400220       0.004
  -0.02800440  0.02800440  0.02800440       0.004
  -0.04200660  0.04200660  0.04200660       0.004
  -0.05600880  0.05600880  0.05600880       0.004
  -0.07001100  0.07001100  0.07001100       0.004
  -0.08401320  0.08401320  0.08401320       0.004
   0.00000000  0.00000000  0.02800440       0.003
  -0.01400220  0.01400220  0.04200660       0.011
  -0.02800440  0.02800440  0.05600880       0.011
  -0.04200660  0.04200660  0.07001100       0.011
  -0.05600880  0.05600880  0.08401320       0.011
  -0.07001100  0.07001100  0.09801540       0.011
   0.09801540 -0.09801540 -0.07001100       0.011
   0.08401320 -0.08401320 -0.05600880       0.011
   0.07001100 -0.07001100 -0.04200660       0.011
   0.05600880 -0.05600880 -0.02800440       0.011
   0.04200660 -0.04200660 -0.01400220       0.011
   0.02800440 -0.02800440  0.00000000       0.005
   0.00000000  0.00000000  0.05600880       0.003
  -0.01400220  0.01400220  0.07001100       0.011
  -0.02800440  0.02800440  0.08401320       0.011
  -0.04200660  0.04200660  0.09801540       0.011
  -0.05600880  0.05600880  0.11201760       0.011
   0.11201760 -0.11201760 -0.05600880       0.011
   0.09801540 -0.09801540 -0.04200660       0.011
   0.08401320 -0.08401320 -0.02800440       0.011
   0.07001100 -0.07001100 -0.01400220       0.011
   0.05600880 -0.05600880  0.00000000       0.005
   0.00000000  0.00000000  0.08401320       0.003
  -0.01400220  0.01400220  0.09801540       0.011
  -0.02800440  0.02800440  0.11201760       0.011
  -0.04200660  0.04200660  0.12601980       0.011
   0.12601980 -0.12601980 -0.04200660       0.011
   0.11201760 -0.11201760 -0.02800440       0.011
   0.09801540 -0.09801540 -0.01400220       0.011
   0.08401320 -0.08401320  0.00000000       0.005
   0.00000000  0.00000000  0.11201760       0.003
  -0.01400220  0.01400220  0.12601980       0.011
  -0.02800440  0.02800440  0.14002200       0.011
   0.14002200 -0.14002200 -0.02800440       0.011
   0.12601980 -0.12601980 -0.01400220       0.011
   0.11201760 -0.11201760  0.00000000       0.005
   0.00000000  0.00000000  0.14002200       0.003
  -0.01400220  0.01400220  0.15402420       0.011
   0.15402420 -0.15402420 -0.01400220       0.011
   0.14002200 -0.14002200  0.00000000       0.005
   0.00000000  0.00000000  0.16802640       0.003
   0.16802640 -0.16802640  0.00000000       0.005
   0.00000000  0.02800440  0.05600880       0.011
  -0.01400220  0.04200660  0.07001100       0.022
  -0.02800440  0.05600880  0.08401320       0.022
  -0.04200660  0.07001100  0.09801540       0.022
   0.12601980 -0.09801540 -0.07001100       0.022
   0.00000000  0.02800440  0.08401320       0.011
  -0.01400220  0.04200660  0.09801540       0.022
  -0.02800440  0.05600880  0.11201760       0.022
   0.14002200 -0.11201760 -0.05600880       0.022
   0.12601980 -0.09801540 -0.04200660       0.022
   0.11201760 -0.08401320 -0.02800440       0.022
   0.09801540 -0.07001100 -0.01400220       0.022
   0.08401320 -0.05600880  0.00000000       0.011
  -0.00000000  0.02800440  0.11201760       0.011
  -0.01400220  0.04200660  0.12601980       0.022
   0.15402420 -0.12601980 -0.04200660       0.022
   0.14002200 -0.11201760 -0.02800440       0.022
   0.12601980 -0.09801540 -0.01400220       0.022
   0.11201760 -0.08401320  0.00000000       0.011
   0.00000000  0.02800440  0.14002200       0.011
   0.16802640 -0.14002200 -0.02800440       0.022
   0.15402420 -0.12601980 -0.01400220       0.022
   0.14002200 -0.11201760  0.00000000       0.011
   0.18202860 -0.15402420 -0.01400220       0.011
   0.16802640 -0.14002200  0.00000000       0.011
   0.00000000  0.05600880  0.11201760       0.011
   0.16802640 -0.11201760 -0.05600880       0.022
   0.15402420 -0.09801540 -0.04200660       0.022
   0.18202860 -0.12601980 -0.04200660       0.011
   0.16802640 -0.11201760 -0.02800440       0.022
   0.15402420 -0.09801540 -0.01400220       0.022
   0.14002200 -0.08401320  0.00000000       0.011
   0.18202860 -0.12601980 -0.01400220       0.011
   0.16802640 -0.11201760  0.00000000       0.011
   0.18202860 -0.09801540 -0.01400220       0.011

 k-points in reciprocal lattice and weights: Automatic kpoint scheme                 
   0.00000000  0.00000000  0.00000000       0.000
   0.07692308  0.00000000  0.00000000       0.004
   0.15384615  0.00000000  0.00000000       0.004
   0.23076923  0.00000000  0.00000000       0.004
   0.30769231  0.00000000  0.00000000       0.004
   0.38461538  0.00000000  0.00000000       0.004
   0.46153846  0.00000000  0.00000000       0.004
   0.07692308  0.07692308  0.00000000       0.003
   0.15384615  0.07692308  0.00000000       0.011
   0.23076923  0.07692308  0.00000000       0.011
   0.30769231  0.07692308  0.00000000       0.011
   0.38461538  0.07692308  0.00000000       0.011
   0.46153846  0.07692308  0.00000000       0.011
  -0.46153846  0.07692308  0.00000000       0.011
  -0.38461538  0.07692308  0.00000000       0.011
  -0.30769231  0.07692308  0.00000000       0.011
  -0.23076923  0.07692308  0.00000000       0.011
  -0.15384615  0.07692308  0.00000000       0.011
  -0.07692308  0.07692308  0.00000000       0.005
   0.15384615  0.15384615  0.00000000       0.003
   0.23076923  0.15384615  0.00000000       0.011
   0.30769231  0.15384615  0.00000000       0.011
   0.38461538  0.15384615  0.00000000       0.011
   0.46153846  0.15384615  0.00000000       0.011
  -0.46153846  0.15384615  0.00000000       0.011
  -0.38461538  0.15384615  0.00000000       0.011
  -0.30769231  0.15384615  0.00000000       0.011
  -0.23076923  0.15384615  0.00000000       0.011
  -0.15384615  0.15384615  0.00000000       0.005
   0.23076923  0.23076923  0.00000000       0.003
   0.30769231  0.23076923  0.00000000       0.011
   0.38461538  0.23076923  0.00000000       0.011
   0.46153846  0.23076923  0.00000000       0.011
  -0.46153846  0.23076923  0.00000000       0.011
  -0.38461538  0.23076923  0.00000000       0.011
  -0.30769231  0.23076923  0.00000000       0.011
  -0.23076923  0.23076923  0.00000000       0.005
   0.30769231  0.30769231  0.00000000       0.003
   0.38461538  0.30769231  0.00000000       0.011
   0.46153846  0.30769231  0.00000000       0.011
  -0.46153846  0.30769231  0.00000000       0.011
  -0.38461538  0.30769231  0.00000000       0.011
  -0.30769231  0.30769231  0.00000000       0.005
   0.38461538  0.38461538  0.00000000       0.003
   0.46153846  0.38461538  0.00000000       0.011
  -0.46153846  0.38461538  0.00000000       0.011
  -0.38461538  0.38461538  0.00000000       0.005
   0.46153846  0.46153846  0.00000000       0.003
  -0.46153846  0.46153846  0.00000000       0.005
   0.23076923  0.15384615  0.07692308       0.011
   0.30769231  0.15384615  0.07692308       0.022
   0.38461538  0.15384615  0.07692308       0.022
   0.46153846  0.15384615  0.07692308       0.022
  -0.46153846  0.15384615  0.07692308       0.022
   0.30769231  0.23076923  0.07692308       0.011
   0.38461538  0.23076923  0.07692308       0.022
   0.46153846  0.23076923  0.07692308       0.022
  -0.46153846  0.23076923  0.07692308       0.022
  -0.38461538  0.23076923  0.07692308       0.022
  -0.30769231  0.23076923  0.07692308       0.022
  -0.23076923  0.23076923  0.07692308       0.022
  -0.15384615  0.23076923  0.07692308       0.011
   0.38461538  0.30769231  0.07692308       0.011
   0.46153846  0.30769231  0.07692308       0.022
  -0.46153846  0.30769231  0.07692308       0.022
  -0.38461538  0.30769231  0.07692308       0.022
  -0.30769231  0.30769231  0.07692308       0.022
  -0.23076923  0.30769231  0.07692308       0.011
   0.46153846  0.38461538  0.07692308       0.011
  -0.46153846  0.38461538  0.07692308       0.022
  -0.38461538  0.38461538  0.07692308       0.022
  -0.30769231  0.38461538  0.07692308       0.011
  -0.46153846  0.46153846  0.07692308       0.011
  -0.38461538  0.46153846  0.07692308       0.011
   0.46153846  0.30769231  0.15384615       0.011
  -0.46153846  0.30769231  0.15384615       0.022
  -0.38461538  0.30769231  0.15384615       0.022
  -0.46153846  0.38461538  0.15384615       0.011
  -0.38461538  0.38461538  0.15384615       0.022
  -0.30769231  0.38461538  0.15384615       0.022
  -0.23076923  0.38461538  0.15384615       0.011
  -0.38461538  0.46153846  0.15384615       0.011
  -0.30769231  0.46153846  0.15384615       0.011
  -0.30769231  0.46153846  0.23076923       0.011

 position of ions in fractional coordinates (direct lattice) 
   0.75000000  0.75000000  0.75000000
   0.50000000  0.50000000  0.50000000

 position of ions in cartesian coordinates  (Angst):
   4.12023171  4.12023171  4.12023171
   2.74682114  2.74682114  2.74682114



--------------------------------------------------------------------------------------------------------


 k-point  1 :   0.0000 0.0000 0.0000  plane waves:    1067
 k-point  2 :   0.0769 0.0000 0.0000  plane waves:    1034
 k-point  3 :   0.1538 0.0000 0.0000  plane waves:    1031
 k-point  4 :   0.2308 0.0000 0.0000  plane waves:    1047
 k-point  5 :   0.3077 0.0000 0.0000  plane waves:    1056
 k-point  6 :   0.3846 0.0000 0.0000  plane waves:    1050
 k-point  7 :   0.4615 0.0000 0.0000  plane waves:    1056
 k-point  8 :   0.0769 0.0769 0.0000  plane waves:    1034
 k-point  9 :   0.1538 0.0769 0.0000  plane waves:    1033
 k-point 10 :   0.2308 0.0769 0.0000  plane waves:    1037
 k-point 11 :   0.3077 0.0769 0.0000  plane waves:    1053
 k-point 12 :   0.3846 0.0769 0.0000  plane waves:    1053
 k-point 13 :   0.4615 0.0769 0.0000  plane waves:    1051
 k-point 14 :  -0.4615 0.0769 0.0000  plane waves:    1055
 k-point 15 :  -0.3846 0.0769 0.0000  plane waves:    1049
 k-point 16 :  -0.3077 0.0769 0.0000  plane waves:    1055
 k-point 17 :  -0.2308 0.0769 0.0000  plane waves:    1053
 k-point 18 :  -0.1538 0.0769 0.0000  plane waves:    1032
 k-point 19 :  -0.0769 0.0769 0.0000  plane waves:    1031
 k-point 20 :   0.1538 0.1538 0.0000  plane waves:    1034
 k-point 21 :   0.2308 0.1538 0.0000  plane waves:    1037
 k-point 22 :   0.3077 0.1538 0.0000  plane waves:    1054
 k-point 23 :   0.3846 0.1538 0.0000  plane waves:    1054
 k-point 24 :   0.4615 0.1538 0.0000  plane waves:    1055
 k-point 25 :  -0.4615 0.1538 0.0000  plane waves:    1057
 k-point 26 :  -0.3846 0.1538 0.0000  plane waves:    1058
 k-point 27 :  -0.3077 0.1538 0.0000  plane waves:    1053
 k-point 28 :  -0.2308 0.1538 0.0000  plane waves:    1050
 k-point 29 :  -0.1538 0.1538 0.0000  plane waves:    1043
 k-point 30 :   0.2308 0.2308 0.0000  plane waves:    1054
 k-point 31 :   0.3077 0.2308 0.0000  plane waves:    1039
 k-point 32 :   0.3846 0.2308 0.0000  plane waves:    1050
 k-point 33 :   0.4615 0.2308 0.0000  plane waves:    1052
 k-point 34 :  -0.4615 0.2308 0.0000  plane waves:    1055
 k-point 35 :  -0.3846 0.2308 0.0000  plane waves:    1064
 k-point 36 :  -0.3077 0.2308 0.0000  plane waves:    1056
 k-point 37 :  -0.2308 0.2308 0.0000  plane waves:    1055
 k-point 38 :   0.3077 0.3077 0.0000  plane waves:    1030
 k-point 39 :   0.3846 0.3077 0.0000  plane waves:    1050
 k-point 40 :   0.4615 0.3077 0.0000  plane waves:    1052
 k-point 41 :  -0.4615 0.3077 0.0000  plane waves:    1055
 k-point 42 :  -0.3846 0.3077 0.0000  plane waves:    1054
 k-point 43 :  -0.3077 0.3077 0.0000  plane waves:    1059
 k-point 44 :   0.3846 0.3846 0.0000  plane waves:    1042
 k-point 45 :   0.4615 0.3846 0.0000  plane waves:    1050
 k-point 46 :  -0.4615 0.3846 0.0000  plane waves:    1049
 k-point 47 :  -0.3846 0.3846 0.0000  plane waves:    1059
 k-point 48 :   0.4615 0.4615 0.0000  plane waves:    1050
 k-point 49 :  -0.4615 0.4615 0.0000  plane waves:    1052
 k-point 50 :   0.2308 0.1538 0.0769  plane waves:    1036
 k-point 51 :   0.3077 0.1538 0.0769  plane waves:    1046
 k-point 52 :   0.3846 0.1538 0.0769  plane waves:    1053
 k-point 53 :   0.4615 0.1538 0.0769  plane waves:    1052
 k-point 54 :  -0.4615 0.1538 0.0769  plane waves:    1047
 k-point 55 :   0.3077 0.2308 0.0769  plane waves:    1046
 k-point 56 :   0.3846 0.2308 0.0769  plane waves:    1052
 k-point 57 :   0.4615 0.2308 0.0769  plane waves:    1049
 k-point 58 :  -0.4615 0.2308 0.0769  plane waves:    1056
 k-point 59 :  -0.3846 0.2308 0.0769  plane waves:    1056
 k-point 60 :  -0.3077 0.2308 0.0769  plane waves:    1057
 k-point 61 :  -0.2308 0.2308 0.0769  plane waves:    1055
 k-point 62 :  -0.1538 0.2308 0.0769  plane waves:    1057
 k-point 63 :   0.3846 0.3077 0.0769  plane waves:    1046
 k-point 64 :   0.4615 0.3077 0.0769  plane waves:    1056
 k-point 65 :  -0.4615 0.3077 0.0769  plane waves:    1055
 k-point 66 :  -0.3846 0.3077 0.0769  plane waves:    1054
 k-point 67 :  -0.3077 0.3077 0.0769  plane waves:    1056
 k-point 68 :  -0.2308 0.3077 0.0769  plane waves:    1050
 k-point 69 :   0.4615 0.3846 0.0769  plane waves:    1055
 k-point 70 :  -0.4615 0.3846 0.0769  plane waves:    1055
 k-point 71 :  -0.3846 0.3846 0.0769  plane waves:    1061
 k-point 72 :  -0.3077 0.3846 0.0769  plane waves:    1056
 k-point 73 :  -0.4615 0.4615 0.0769  plane waves:    1058
 k-point 74 :  -0.3846 0.4615 0.0769  plane waves:    1057
 k-point 75 :   0.4615 0.3077 0.1538  plane waves:    1046
 k-point 76 :  -0.4615 0.3077 0.1538  plane waves:    1053
 k-point 77 :  -0.3846 0.3077 0.1538  plane waves:    1062
 k-point 78 :  -0.4615 0.3846 0.1538  plane waves:    1049
 k-point 79 :  -0.3846 0.3846 0.1538  plane waves:    1056
 k-point 80 :  -0.3077 0.3846 0.1538  plane waves:    1058
 k-point 81 :  -0.2308 0.3846 0.1538  plane waves:    1054
 k-point 82 :  -0.3846 0.4615 0.1538  plane waves:    1059
 k-point 83 :  -0.3077 0.4615 0.1538  plane waves:    1060
 k-point 84 :  -0.3077 0.4615 0.2308  plane waves:    1054

 maximum and minimum number of plane-waves per node :      1067     1030

 maximum number of plane-waves:      1067
 maximum index in each direction: 
   IXMAX=    7   IYMAX=    7   IZMAX=    7
   IXMIN=   -7   IYMIN=   -7   IZMIN=   -7

 WARNING: aliasing errors must be expected set NGX to  30 to avoid them
 WARNING: aliasing errors must be expected set NGY to  30 to avoid them
 WARNING: aliasing errors must be expected set NGZ to  30 to avoid them
 aliasing errors are usually negligible using standard VASP settings
 and one can safely disregard these warnings

 serial   3D FFT for wavefunctions
 parallel 3D FFT for charge:
    minimum data exchange during FFTs selected (reduces bandwidth)


 total amount of memory used by VASP on root node    39289. kBytes
========================================================================

   base      :      30000. kBytes
   nonl-proj :       5797. kBytes
   fftplans  :        517. kBytes
   grid      :       1507. kBytes
   one-center:          6. kBytes
   wavefun   :       1462. kBytes

     INWAV:  cpu time    0.0000: real time    0.0000
 Broyden mixing: mesh for mixing (old mesh)
   NGX = 15   NGY = 15   NGZ = 15
  (NGX  = 56   NGY  = 56   NGZ  = 56)
  gives a total of   3375 points

 initial charge density was supplied:
 charge density of overlapping atoms calculated
 number of electron       8.0000000 magnetization 
 keeping initial charge density in first step


--------------------------------------------------------------------------------------------------------


 Maximum index for augmentation-charges         1417 (set IRDMAX)


--------------------------------------------------------------------------------------------------------


 First call to EWALD:  gamma=   0.512
 Maximum number of real-space cells 3x 3x 3
 Maximum number of reciprocal cells 3x 3x 3

 FEWALD executed in parallel
    FEWALD:  cpu time    0.0000: real time    0.0009


----------------------------------------- Iteration    1(   1)  ---------------------------------------


vdW kernel read from vdw_kernel.bindat
  0.0000  0.2424  0.5071  0.7962  1.1119  1.4567  1.8333  2.2446  2.6937  3.1842
  3.7199  4.3049  4.9438  5.6415  6.4036  7.2358  8.1446  9.1372 10.2212 11.4050
 12.6979 14.1099 15.6519 17.3360 19.1751 21.1837 23.3773 25.7729 28.3892 31.2465
 34.3669 37.7748 41.4965 45.5611 50.0000

    POTLOK:  cpu time    2.0800: real time    2.0829
    SETDIJ:  cpu time    0.0040: real time    0.0027
     EDDAV:  cpu time    1.0440: real time    1.0442
       DOS:  cpu time    0.0000: real time    0.0009
    --------------------------------------------
      LOOP:  cpu time    3.1320: real time    3.1325

 eigenvalue-minimisations  :  2688
 total energy-change (2. order) : 0.3007986E+01  (-0.3463119E+03)
 number of electron       8.0000000 magnetization 
 augmentation part        8.0000000 magnetization 

 Free energy of the ion-electron system (eV)
  ---------------------------------------------------
  alpha Z        PSCENC =         3.24857844
  Ewald energy   TEWEN  =      -225.91568183
  -Hartree energ DENC   =       -11.53197166
  -exchange      EXHF   =         0.00000000
  -V(xc)+E(xc)   XCENC  =       -20.29573795
  PAW double counting   =       189.40224250     -152.61488262
  entropy T*S    EENTRO =        -0.00610554
  eigenvalues    EBANDS =        12.12780663
  atomic energy  EATOM  =       208.59373829
  Solvation  Ediel_sol  =         0.00000000
  ---------------------------------------------------
  free energy    TOTEN  =         3.00798626 eV

  energy without entropy =        3.01409180  energy(sigma->0) =        3.01103903


--------------------------------------------------------------------------------------------------------




----------------------------------------- Iteration    1(   2)  ---------------------------------------


     EDDAV:  cpu time    1.5720: real time    1.5734
       DOS:  cpu time    0.0000: real time    0.0008
    --------------------------------------------
      LOOP:  cpu time    1.5760: real time    1.6450

 eigenvalue-minimisations  :  3984
 total energy-change (2. order) :-0.1133721E+02  (-0.1117484E+02)
 number of electron       8.0000000 magnetization 
 augmentation part        8.0000000 magnetization 

 Free energy of the ion-electron system (eV)
  ---------------------------------------------------
  alpha Z        PSCENC =         3.24857844
  Ewald energy   TEWEN  =      -225.91568183
  -Hartree energ DENC   =       -11.53197166
  -exchange      EXHF   =         0.00000000
  -V(xc)+E(xc)   XCENC  =       -20.29573795
  PAW double counting   =       189.40224250     -152.61488262
  entropy T*S    EENTRO =        -0.00000181
  eigenvalues    EBANDS =         0.78448922
  atomic energy  EATOM  =       208.59373829
  Solvation  Ediel_sol  =         0.00000000
  ---------------------------------------------------
  free energy    TOTEN  =        -8.32922742 eV

  energy without entropy =       -8.32922561  energy(sigma->0) =       -8.32922652


--------------------------------------------------------------------------------------------------------




----------------------------------------- Iteration    1(   3)  ---------------------------------------


     EDDAV:  cpu time    1.1760: real time    1.1740
       DOS:  cpu time    0.0000: real time    0.0007
    --------------------------------------------
      LOOP:  cpu time    1.1760: real time    1.2608

 eigenvalue-minimisations  :  2880
 total energy-change (2. order) :-0.7968584E-01  (-0.7968583E-01)
 number of electron       8.0000000 magnetization 
 augmentation part        8.0000000 magnetization 

 Free energy of the ion-electron system (eV)
  ---------------------------------------------------
  alpha Z        PSCENC =         3.24857844
  Ewald energy   TEWEN  =      -225.91568183
  -Hartree energ DENC   =       -11.53197166
  -exchange      EXHF   =         0.00000000
  -V(xc)+E(xc)   XCENC  =       -20.29573795
  PAW double counting   =       189.40224250     -152.61488262
  entropy T*S    EENTRO =        -0.00000137
  eigenvalues    EBANDS =         0.70480295
  atomic energy  EATOM  =       208.59373829
  Solvation  Ediel_sol  =         0.00000000
  ---------------------------------------------------
  free energy    TOTEN  =        -8.40891326 eV

  energy without entropy =       -8.40891189  energy(sigma->0) =       -8.40891258


--------------------------------------------------------------------------------------------------------




----------------------------------------- Iteration    1(   4)  ---------------------------------------


     EDDAV:  cpu time    2.8520: real time    2.8512
       DOS:  cpu time    0.0000: real time    0.0007
    --------------------------------------------
      LOOP:  cpu time    2.8520: real time    2.8716

 eigenvalue-minimisations  :  5056
 total energy-change (2. order) :-0.2532016E-03  (-0.2532019E-03)
 number of electron       8.0000000 magnetization 
 augmentation part        8.0000000 magnetization 

 Free energy of the ion-electron system (eV)
  ---------------------------------------------------
  alpha Z        PSCENC =         3.24857844
  Ewald energy   TEWEN  =      -225.91568183
  -Hartree energ DENC   =       -11.53197166
  -exchange      EXHF   =         0.00000000
  -V(xc)+E(xc)   XCENC  =       -20.29573795
  PAW double counting   =       189.40224250     -152.61488262
  entropy T*S    EENTRO =        -0.00000137
  eigenvalues    EBANDS =         0.70454974
  atomic energy  EATOM  =       208.59373829
  Solvation  Ediel_sol  =         0.00000000
  ---------------------------------------------------
  free energy    TOTEN  =        -8.40916647 eV

  energy without entropy =       -8.40916509  energy(sigma->0) =       -8.40916578


--------------------------------------------------------------------------------------------------------




----------------------------------------- Iteration    1(   5)  ---------------------------------------


     EDDAV:  cpu time    1.1360: real time    1.1364
       DOS:  cpu time    0.0000: real time    0.0007
    CHARGE:  cpu time    0.0800: real time    0.0790
    MIXING:  cpu time    0.0000: real time    0.0004
    --------------------------------------------
      LOOP:  cpu time    1.2200: real time    1.4731

 eigenvalue-minimisations  :  2928
 total energy-change (2. order) :-0.1445821E-07  (-0.1389091E-07)
 number of electron       7.9999999 magnetization 
 augmentation part       -0.4824928 magnetization 

 Broyden mixing:
  rms(total) = 0.36707E+00    rms(broyden)= 0.36707E+00
  rms(prec ) = 0.88305E+00
  weight for this iteration     100.00

 Free energy of the ion-electron system (eV)
  ---------------------------------------------------
  alpha Z        PSCENC =         3.24857844
  Ewald energy   TEWEN  =      -225.91568183
  -Hartree energ DENC   =       -11.53197166
  -exchange      EXHF   =         0.00000000
  -V(xc)+E(xc)   XCENC  =       -20.29573795
  PAW double counting   =       189.40224250     -152.61488262
  entropy T*S    EENTRO =        -0.00000137
  eigenvalues    EBANDS =         0.70454973
  atomic energy  EATOM  =       208.59373829
  Solvation  Ediel_sol  =         0.00000000
  ---------------------------------------------------
  free energy    TOTEN  =        -8.40916648 eV

  energy without entropy =       -8.40916511  energy(sigma->0) =       -8.40916579


--------------------------------------------------------------------------------------------------------




----------------------------------------- Iteration    1(   6)  ---------------------------------------


    POTLOK:  cpu time    1.6320: real time    1.6336
    SETDIJ:  cpu time    0.0040: real time    0.0028
     EDDAV:  cpu time    1.6400: real time    1.6374
       DOS:  cpu time    0.0000: real time    0.0008
    CHARGE:  cpu time    0.0520: real time    0.0538
    MIXING:  cpu time    0.0000: real time    0.0005
    --------------------------------------------
      LOOP:  cpu time    3.3280: real time    3.6084

 eigenvalue-minimisations  :  4176
 total energy-change (2. order) : 0.4946323E-01  (-0.8474269E-02)
 number of electron       7.9999999 magnetization 
 augmentation part       -0.4758128 magnetization 

 Broyden mixing:
  rms(total) = 0.22445E+00    rms(broyden)= 0.22445E+00
  rms(prec ) = 0.53320E+00
  weight for this iteration     100.00

 eigenvalues of (default mixing * dielectric matrix)
  average eigenvalue GAMMA=   2.5568
  2.5568

 Free energy of the ion-electron system (eV)
  ---------------------------------------------------
  alpha Z        PSCENC =         3.24857844
  Ewald energy   TEWEN  =      -225.91568183
  -Hartree energ DENC   =       -13.05565707
  -exchange      EXHF   =         0.00000000
  -V(xc)+E(xc)   XCENC  =       -20.06112206
  PAW double counting   =       304.67713763     -268.01766113
  entropy T*S    EENTRO =        -0.00000585
  eigenvalues    EBANDS =         2.17097033
  atomic energy  EATOM  =       208.59373829
  Solvation  Ediel_sol  =         0.00000000
  ---------------------------------------------------
  free energy    TOTEN  =        -8.35970325 eV

  energy without entropy =       -8.35969741  energy(sigma->0) =       -8.35970033


--------------------------------------------------------------------------------------------------------




----------------------------------------- Iteration    1(   7)  ---------------------------------------


    POTLOK:  cpu time    1.6240: real time    1.6243
    SETDIJ:  cpu time    0.0000: real time    0.0027
     EDDAV:  cpu time    1.5720: real time    1.5711
       DOS:  cpu time    0.0040: real time    0.0009
    CHARGE:  cpu time    0.0720: real time    0.0739
    MIXING:  cpu time    0.0000: real time    0.0006
    --------------------------------------------
      LOOP:  cpu time    3.2760: real time    3.3281

 eigenvalue-minimisations  :  4128
 total energy-change (2. order) : 0.5830980E-02  (-0.1935945E-01)
 number of electron       7.9999999 magnetization 
 augmentation part       -0.4668844 magnetization 

 Broyden mixing:
  rms(total) = 0.18549E-01    rms(broyden)= 0.18549E-01
  rms(prec ) = 0.47422E-01
  weight for this iteration     100.00

 eigenvalues of (default mixing * dielectric matrix)
  average eigenvalue GAMMA=   2.3214
  2.3214  2.3214

 Free energy of the ion-electron system (eV)
  ---------------------------------------------------
  alpha Z        PSCENC =         3.24857844
  Ewald energy   TEWEN  =      -225.91568183
  -Hartree energ DENC   =       -15.63097143
  -exchange      EXHF   =         0.00000000
  -V(xc)+E(xc)   XCENC  =       -19.64192416
  PAW double counting   =       542.06040893     -505.56582270
  entropy T*S    EENTRO =        -0.00004198
  eigenvalues    EBANDS =         4.49784418
  atomic energy  EATOM  =       208.59373829
  Solvation  Ediel_sol  =         0.00000000
  ---------------------------------------------------
  free energy    TOTEN  =        -8.35387227 eV

  energy without entropy =       -8.35383030  energy(sigma->0) =       -8.35385128


--------------------------------------------------------------------------------------------------------




----------------------------------------- Iteration    1(   8)  ---------------------------------------


    POTLOK:  cpu time    1.6080: real time    1.6070
    SETDIJ:  cpu time    0.0040: real time    0.0020
     EDDAV:  cpu time    1.2880: real time    1.2898
       DOS:  cpu time    0.0000: real time    0.0009
    CHARGE:  cpu time    0.0760: real time    0.0739
    MIXING:  cpu time    0.0000: real time    0.0005
    --------------------------------------------
      LOOP:  cpu time    2.9760: real time    3.0134

 eigenvalue-minimisations  :  3168
 total energy-change (2. order) : 0.1640661E-01  (-0.4951415E-03)
 number of electron       7.9999999 magnetization 
 augmentation part       -0.4681850 magnetization 

 Broyden mixing:
  rms(total) = 0.95255E-02    rms(broyden)= 0.95255E-02
  rms(prec ) = 0.23536E-01
  weight for this iteration     100.00

 eigenvalues of (default mixing * dielectric matrix)
  average eigenvalue GAMMA=   2.2046
  3.1158  1.7490  1.7490

 Free energy of the ion-electron system (eV)
  ---------------------------------------------------
  alpha Z        PSCENC =         3.24857844
  Ewald energy   TEWEN  =      -225.91568183
  -Hartree energ DENC   =       -15.40744313
  -exchange      EXHF   =         0.00000000
  -V(xc)+E(xc)   XCENC  =       -19.65713956
  PAW double counting   =       520.49032966     -483.93248382
  entropy T*S    EENTRO =        -0.00002943
  eigenvalues    EBANDS =         4.24266572
  atomic energy  EATOM  =       208.59373829
  Solvation  Ediel_sol  =         0.00000000
  ---------------------------------------------------
  free energy    TOTEN  =        -8.33746566 eV

  energy without entropy =       -8.33743624  energy(sigma->0) =       -8.33745095


--------------------------------------------------------------------------------------------------------




----------------------------------------- Iteration    1(   9)  ---------------------------------------


    POTLOK:  cpu time    1.6120: real time    1.6110
    SETDIJ:  cpu time    0.0040: real time    0.0027
     EDDAV:  cpu time    1.7960: real time    1.7976
       DOS:  cpu time    0.0000: real time    0.0009
    CHARGE:  cpu time    0.0760: real time    0.0746
    MIXING:  cpu time    0.0000: real time    0.0006
    --------------------------------------------
      LOOP:  cpu time    3.4880: real time    3.5391

 eigenvalue-minimisations  :  4032
 total energy-change (2. order) :-0.1113947E-02  (-0.5506956E-04)
 number of electron       7.9999999 magnetization 
 augmentation part       -0.4678632 magnetization 

 Broyden mixing:
  rms(total) = 0.52353E-02    rms(broyden)= 0.52353E-02
  rms(prec ) = 0.68122E-02
  weight for this iteration     100.00

 eigenvalues of (default mixing * dielectric matrix)
  average eigenvalue GAMMA=   2.2448
  0.9635  2.9735  2.6290  2.4132

 Free energy of the ion-electron system (eV)
  ---------------------------------------------------
  alpha Z        PSCENC =         3.24857844
  Ewald energy   TEWEN  =      -225.91568183
  -Hartree energ DENC   =       -15.55072601
  -exchange      EXHF   =         0.00000000
  -V(xc)+E(xc)   XCENC  =       -19.63290481
  PAW double counting   =       530.48421331     -493.93328469
  entropy T*S    EENTRO =        -0.00003205
  eigenvalues    EBANDS =         4.36751975
  atomic energy  EATOM  =       208.59373829
  Solvation  Ediel_sol  =         0.00000000
  ---------------------------------------------------
  free energy    TOTEN  =        -8.33857961 eV

  energy without entropy =       -8.33854756  energy(sigma->0) =       -8.33856358


--------------------------------------------------------------------------------------------------------




----------------------------------------- Iteration    1(  10)  ---------------------------------------


    POTLOK:  cpu time    1.6000: real time    1.5990
    SETDIJ:  cpu time    0.0040: real time    0.0026
     EDDAV:  cpu time    1.5120: real time    1.5113
       DOS:  cpu time    0.0000: real time    0.0009
    CHARGE:  cpu time    0.0720: real time    0.0716
    MIXING:  cpu time    0.0000: real time    0.0006
    --------------------------------------------
      LOOP:  cpu time    3.1880: real time    3.2593

 eigenvalue-minimisations  :  3536
 total energy-change (2. order) :-0.2868947E-04  (-0.2305382E-05)
 number of electron       7.9999999 magnetization 
 augmentation part       -0.4678825 magnetization 

 Broyden mixing:
  rms(total) = 0.10598E-02    rms(broyden)= 0.10598E-02
  rms(prec ) = 0.11805E-02
  weight for this iteration     100.00

 eigenvalues of (default mixing * dielectric matrix)
  average eigenvalue GAMMA=   1.8904
  2.9256  2.5053  2.2619  0.9674  0.7918

 Free energy of the ion-electron system (eV)
  ---------------------------------------------------
  alpha Z        PSCENC =         3.24857844
  Ewald energy   TEWEN  =      -225.91568183
  -Hartree energ DENC   =       -15.53152606
  -exchange      EXHF   =         0.00000000
  -V(xc)+E(xc)   XCENC  =       -19.63698996
  PAW double counting   =       521.85768128     -485.30620817
  entropy T*S    EENTRO =        -0.00003143
  eigenvalues    EBANDS =         4.35183115
  atomic energy  EATOM  =       208.59373829
  Solvation  Ediel_sol  =         0.00000000
  ---------------------------------------------------
  free energy    TOTEN  =        -8.33860830 eV

  energy without entropy =       -8.33857687  energy(sigma->0) =       -8.33859258


--------------------------------------------------------------------------------------------------------




----------------------------------------- Iteration    1(  11)  ---------------------------------------


    POTLOK:  cpu time    1.6240: real time    1.6215
    SETDIJ:  cpu time    0.0000: real time    0.0026
     EDDAV:  cpu time    2.1240: real time    2.1211
       DOS:  cpu time    0.0000: real time    0.0009
    CHARGE:  cpu time    0.0480: real time    0.0478
    MIXING:  cpu time    0.0000: real time    0.0007
    --------------------------------------------
      LOOP:  cpu time    3.7960: real time    3.8389

 eigenvalue-minimisations  :  4480
 total energy-change (2. order) : 0.1851951E-03  (-0.3021355E-07)
 number of electron       7.9999999 magnetization 
 augmentation part       -0.4678963 magnetization 

 Broyden mixing:
  rms(total) = 0.18543E-03    rms(broyden)= 0.18543E-03
  rms(prec ) = 0.23612E-03
  weight for this iteration     100.00

 eigenvalues of (default mixing * dielectric matrix)
  average eigenvalue GAMMA=   1.9897
  2.9213  2.4192  2.4192  2.2223  1.0090  0.9469

 Free energy of the ion-electron system (eV)
  ---------------------------------------------------
  alpha Z        PSCENC =         3.24857844
  Ewald energy   TEWEN  =      -225.91568183
  -Hartree energ DENC   =       -15.53161218
  -exchange      EXHF   =         0.00000000
  -V(xc)+E(xc)   XCENC  =       -19.63662803
  PAW double counting   =       522.95036985     -486.39828563
  entropy T*S    EENTRO =        -0.00003139
  eigenvalues    EBANDS =         4.35112938
  atomic energy  EATOM  =       208.59373829
  Solvation  Ediel_sol  =         0.00000000
  ---------------------------------------------------
  free energy    TOTEN  =        -8.33842310 eV

  energy without entropy =       -8.33839172  energy(sigma->0) =       -8.33840741


--------------------------------------------------------------------------------------------------------




----------------------------------------- Iteration    1(  12)  ---------------------------------------


    POTLOK:  cpu time    1.6160: real time    1.6168
    SETDIJ:  cpu time    0.0040: real time    0.0026
     EDDAV:  cpu time    1.3240: real time    1.3221
       DOS:  cpu time    0.0000: real time    0.0008
    CHARGE:  cpu time    0.0760: real time    0.0744
    MIXING:  cpu time    0.0000: real time    0.0006
    --------------------------------------------
      LOOP:  cpu time    3.0200: real time    3.1145

 eigenvalue-minimisations  :  3344
 total energy-change (2. order) : 0.1204463E-04  (-0.6819069E-08)
 number of electron       7.9999999 magnetization 
 augmentation part       -0.4678966 magnetization 

 Broyden mixing:
  rms(total) = 0.36562E-04    rms(broyden)= 0.36562E-04
  rms(prec ) = 0.66244E-04
  weight for this iteration     100.00

 eigenvalues of (default mixing * dielectric matrix)
  average eigenvalue GAMMA=   1.9405
  3.0210  2.8025  2.4591  2.2059  0.9682  1.0153  1.1114

 Free energy of the ion-electron system (eV)
  ---------------------------------------------------
  alpha Z        PSCENC =         3.24857844
  Ewald energy   TEWEN  =      -225.91568183
  -Hartree energ DENC   =       -15.53187499
  -exchange      EXHF   =         0.00000000
  -V(xc)+E(xc)   XCENC  =       -19.63659454
  PAW double counting   =       523.27425268     -486.72212258
  entropy T*S    EENTRO =        -0.00003137
  eigenvalues    EBANDS =         4.35132484
  atomic energy  EATOM  =       208.59373829
  Solvation  Ediel_sol  =         0.00000000
  ---------------------------------------------------
  free energy    TOTEN  =        -8.33841106 eV

  energy without entropy =       -8.33837969  energy(sigma->0) =       -8.33839537


--------------------------------------------------------------------------------------------------------




----------------------------------------- Iteration    1(  13)  ---------------------------------------


    POTLOK:  cpu time    1.5960: real time    1.5970
    SETDIJ:  cpu time    0.0040: real time    0.0026
     EDDAV:  cpu time    1.3560: real time    1.3543
       DOS:  cpu time    0.0000: real time    0.0010
    CHARGE:  cpu time    0.0720: real time    0.0720
    MIXING:  cpu time    0.0000: real time    0.0006
    --------------------------------------------
      LOOP:  cpu time    3.0280: real time    3.0517

 eigenvalue-minimisations  :  3360
 total energy-change (2. order) : 0.2214400E-05  (-0.4788832E-09)
 number of electron       7.9999999 magnetization 
 augmentation part       -0.4678972 magnetization 

 Broyden mixing:
  rms(total) = 0.74217E-05    rms(broyden)= 0.74217E-05
  rms(prec ) = 0.89024E-05
  weight for this iteration     100.00

 eigenvalues of (default mixing * dielectric matrix)
  average eigenvalue GAMMA=   2.0389
  3.0104  3.0104  2.5732  2.5732  2.1951  1.0058  0.9861  0.9573

 Free energy of the ion-electron system (eV)
  ---------------------------------------------------
  alpha Z        PSCENC =         3.24857844
  Ewald energy   TEWEN  =      -225.91568183
  -Hartree energ DENC   =       -15.53164911
  -exchange      EXHF   =         0.00000000
  -V(xc)+E(xc)   XCENC  =       -19.63664093
  PAW double counting   =       523.23465246     -486.68250717
  entropy T*S    EENTRO =        -0.00003136
  eigenvalues    EBANDS =         4.35113237
  atomic energy  EATOM  =       208.59373829
  Solvation  Ediel_sol  =         0.00000000
  ---------------------------------------------------
  free energy    TOTEN  =        -8.33840884 eV

  energy without entropy =       -8.33837748  energy(sigma->0) =       -8.33839316


--------------------------------------------------------------------------------------------------------




----------------------------------------- Iteration    1(  14)  ---------------------------------------


    POTLOK:  cpu time    1.6240: real time    1.6244
    SETDIJ:  cpu time    0.0040: real time    0.0026
     EDDAV:  cpu time    0.7880: real time    0.7860
       DOS:  cpu time    0.0000: real time    0.0009
    CHARGE:  cpu time    0.0720: real time    0.0741
    MIXING:  cpu time    0.0040: real time    0.0007
    --------------------------------------------
      LOOP:  cpu time    2.4920: real time    2.5711

 eigenvalue-minimisations  :  1872
 total energy-change (2. order) :-0.3959064E-06  (-0.1677885E-10)
 number of electron       7.9999999 magnetization 
 augmentation part       -0.4678971 magnetization 

 Broyden mixing:
  rms(total) = 0.50411E-06    rms(broyden)= 0.50410E-06
  rms(prec ) = 0.12766E-05
  weight for this iteration     100.00

 eigenvalues of (default mixing * dielectric matrix)
  average eigenvalue GAMMA=   1.9144
  3.0551  2.8328  2.6460  2.4473  2.1840  0.9675  0.9840  0.9840  1.1288

 Free energy of the ion-electron system (eV)
  ---------------------------------------------------
  alpha Z        PSCENC =         3.24857844
  Ewald energy   TEWEN  =      -225.91568183
  -Hartree energ DENC   =       -15.53168241
  -exchange      EXHF   =         0.00000000
  -V(xc)+E(xc)   XCENC  =       -19.63663670
  PAW double counting   =       523.22370274     -486.67156033
  entropy T*S    EENTRO =        -0.00003136
  eigenvalues    EBANDS =         4.35116392
  atomic energy  EATOM  =       208.59373829
  Solvation  Ediel_sol  =         0.00000000
  ---------------------------------------------------
  free energy    TOTEN  =        -8.33840924 eV

  energy without entropy =       -8.33837788  energy(sigma->0) =       -8.33839356


--------------------------------------------------------------------------------------------------------




----------------------------------------- Iteration    1(  15)  ---------------------------------------


    POTLOK:  cpu time    1.6160: real time    1.6180
    SETDIJ:  cpu time    0.0040: real time    0.0019
     EDDAV:  cpu time    0.7440: real time    0.7469
       DOS:  cpu time    0.0040: real time    0.0009
    CHARGE:  cpu time    0.0760: real time    0.0742
    MIXING:  cpu time    0.0000: real time    0.0007
    --------------------------------------------
      LOOP:  cpu time    2.4440: real time    2.6857

 eigenvalue-minimisations  :  1632
 total energy-change (2. order) : 0.2813377E-06  (-0.7972448E-12)
 number of electron       7.9999999 magnetization 
 augmentation part       -0.4678971 magnetization 

 Broyden mixing:
  rms(total) = 0.26092E-06    rms(broyden)= 0.26092E-06
  rms(prec ) = 0.32194E-06
  weight for this iteration     100.00

 eigenvalues of (default mixing * dielectric matrix)
  average eigenvalue GAMMA=   1.9452
  3.0881  3.0110  2.7292  2.4399  2.1938  2.0399  1.0395  0.9850  0.9850  0.9410

 Free energy of the ion-electron system (eV)
  ---------------------------------------------------
  alpha Z        PSCENC =         3.24857844
  Ewald energy   TEWEN  =      -225.91568183
  -Hartree energ DENC   =       -15.53167647
  -exchange      EXHF   =         0.00000000
  -V(xc)+E(xc)   XCENC  =       -19.63663737
  PAW double counting   =       523.22444419     -486.67230067
  entropy T*S    EENTRO =        -0.00003136
  eigenvalues    EBANDS =         4.35115783
  atomic energy  EATOM  =       208.59373829
  Solvation  Ediel_sol  =         0.00000000
  ---------------------------------------------------
  free energy    TOTEN  =        -8.33840896 eV

  energy without entropy =       -8.33837760  energy(sigma->0) =       -8.33839328


--------------------------------------------------------------------------------------------------------




----------------------------------------- Iteration    1(  16)  ---------------------------------------


    POTLOK:  cpu time    1.5960: real time    1.5991
    SETDIJ:  cpu time    0.0040: real time    0.0025
     EDDAV:  cpu time    0.7840: real time    0.7821
       DOS:  cpu time    0.0000: real time    0.0008
    --------------------------------------------
      LOOP:  cpu time    2.3840: real time    2.4038

 eigenvalue-minimisations  :  1632
 total energy-change (2. order) : 0.1488928E-07  (-0.1094955E-12)
 number of electron       7.9999999 magnetization 
 augmentation part       -0.4678971 magnetization 

 Free energy of the ion-electron system (eV)
  ---------------------------------------------------
  alpha Z        PSCENC =         3.24857844
  Ewald energy   TEWEN  =      -225.91568183
  -Hartree energ DENC   =       -15.53167630
  -exchange      EXHF   =         0.00000000
  -V(xc)+E(xc)   XCENC  =       -19.63663747
  PAW double counting   =       523.22423896     -486.67209543
  entropy T*S    EENTRO =        -0.00003136
  eigenvalues    EBANDS =         4.35115777
  atomic energy  EATOM  =       208.59373829
  Solvation  Ediel_sol  =         0.00000000
  ---------------------------------------------------
  free energy    TOTEN  =        -8.33840894 eV

  energy without entropy =       -8.33837758  energy(sigma->0) =       -8.33839326


--------------------------------------------------------------------------------------------------------




 average (electrostatic) potential at core
  the test charge radii are     0.9892
  (the norm of the test charge is              1.0000)
       1 -83.9207       2 -83.9207



 E-fermi :   5.8067     XC(G=0):  -9.2574     alpha+bet :-11.5728


 k-point     1 :       0.0000    0.0000    0.0000
  band No.  band energies     occupation 
      1      -6.1918      2.00000
      2       5.4589      1.98609
      3       5.4589      1.98609
      4       5.4589      1.98609
      5       8.0742      0.00000
      6       8.0742      0.00000
      7       8.0742      0.00000
      8       8.5298      0.00000
      9      13.2140      0.00000
     10      13.2140      0.00000
     11      13.3485      0.00000
     12      16.6555      0.00000
     13      16.6555      0.00000
     14      16.6555      0.00000
     15      20.7506      0.00000
     16      28.1662      0.00000

 k-point     2 :       0.0769    0.0000    0.0000
  band No.  band energies     occupation 
      1      -6.1167      2.00000
      2       4.7234      2.00000
      3       5.3430      1.99896
      4       5.3430      1.99896
      5       8.0712      0.00000
      6       8.2469      0.00000
      7       8.2469      0.00000
      8       9.1435      0.00000
      9      12.9859      0.00000
     10      12.9859      0.00000
     11      13.6702      0.00000
     12      16.3841      0.00000
     13      17.1303      0.00000
     14      17.1303      0.00000
     15      21.2543      0.00000
     16      27.3021      0.00000

 k-point     3 :       0.1538    0.0000    0.0000
  band No.  band energies     occupation 
      1      -5.8934      2.00000
      2       3.3770      2.00000
      3       5.0820      2.00000
      4       5.0820      2.00000
      5       7.8204      0.00000
      6       8.6289      0.00000
      7       8.6289      0.00000
      8      10.4426      0.00000
      9      12.6332      0.00000
     10      12.6332      0.00000
     11      14.3775      0.00000
     12      16.0405      0.00000
     13      18.2569      0.00000
     14      18.2569      0.00000
     15      22.4221      0.00000
     16      25.4161      0.00000

 k-point     4 :       0.2308    0.0000    0.0000
  band No.  band energies     occupation 
      1      -5.5294      2.00000
      2       1.9810      2.00000
      3       4.8016      2.00000
      4       4.8016      2.00000
      5       7.5150      0.00000
      6       8.9497      0.00000
      7       8.9497      0.00000
      8      11.8088      0.00000
      9      12.6100      0.00000
     10      12.6100      0.00000
     11      14.4849      0.00000
     12      16.7855      0.00000
     13      19.6269      0.00000
     14      19.6269      0.00000
     15      23.2400      0.00000
     16      23.4635      0.00000

 k-point     5 :       0.3077    0.0000    0.0000
  band No.  band energies     occupation 
      1      -5.0438      2.00000
      2       0.6795      2.00000
      3       4.5670      2.00000
      4       4.5670      2.00000
      5       7.2489      0.00000
      6       9.0334      0.00000
      7       9.0334      0.00000
      8      13.0003      0.00000
      9      13.1422      0.00000
     10      13.1422      0.00000
     11      14.2971      0.00000
     12      18.3369      0.00000
     13      20.2135      0.00000
     14      20.2135      0.00000
     15      22.2188      0.00000
     16      22.5904      0.00000

 k-point     6 :       0.3846    0.0000    0.0000
  band No.  band energies     occupation 
      1      -4.4886      2.00000
      2      -0.4338      2.00000
      3       4.4041      2.00000
      4       4.4041      2.00000
      5       7.0599      0.00000
      6       8.9607      0.00000
      7       8.9607      0.00000
      8      13.3221      0.00000
      9      14.1552      0.00000
     10      14.1552      0.00000
     11      15.0398      0.00000
     12      18.8164      0.00000
     13      18.8164      0.00000
     14      19.2038      0.00000
     15      21.8736      0.00000
     16      23.9956      0.00000

 k-point     7 :       0.4615    0.0000    0.0000
  band No.  band energies     occupation 
      1      -4.0291      2.00000
      2      -1.1759      2.00000
      3       4.3214      2.00000
      4       4.3214      2.00000
      5       6.9630      0.00000
      6       8.8861      0.00000
      7       8.8861      0.00000
      8      13.2304      0.00000
      9      15.4525      0.00000
     10      15.4525      0.00000
     11      16.2436      0.00000
     12      17.1789      0.00000
     13      17.1789      0.00000
     14      18.3395      0.00000
     15      23.5936      0.00000
     16      25.9135      0.00000

 k-point     8 :       0.0769    0.0769    0.0000
  band No.  band energies     occupation 
      1      -6.0916      2.00000
      2       4.8446      2.00000
      3       5.1093      2.00000
      4       5.1093      2.00000
[...]
     10      16.2074      0.00000
     11      17.2301      0.00000
     12      18.0854      0.00000
     13      19.5051      0.00000
     14      19.9108      0.00000
     15      21.7423      0.00000
     16      22.7326      0.00000

 k-point    65 :      -0.4615    0.3077    0.0769
  band No.  band energies     occupation 
      1      -3.4603      2.00000
      2      -0.7809      2.00000
      3       1.9606      2.00000
      4       3.0794      2.00000
      5       7.3988      0.00000
      6       9.5535      0.00000
      7      10.6662      0.00000
      8      12.4196      0.00000
      9      14.6876      0.00000
     10      16.4103      0.00000
     11      17.0906      0.00000
     12      18.7403      0.00000
     13      18.9494      0.00000
     14      21.2721      0.00000
     15      22.9230      0.00000
     16      23.2925      0.00000

 k-point    66 :      -0.3846    0.3077    0.0769
  band No.  band energies     occupation 
      1      -3.1122      2.00000
      2      -1.2053      2.00000
      3       1.6340      2.00000
      4       3.1751      2.00000
      5       7.5632      0.00000
      6      10.3231      0.00000
      7      11.0205      0.00000
      8      12.2858      0.00000
      9      13.1448      0.00000
     10      15.4358      0.00000
     11      18.0377      0.00000
     12      18.6493      0.00000
     13      20.4308      0.00000
     14      22.1615      0.00000
     15      22.7123      0.00000
     16      23.0328      0.00000

 k-point    67 :      -0.3077    0.3077    0.0769
  band No.  band energies     occupation 
      1      -3.3531      2.00000
      2      -0.9093      2.00000
      3       1.5148      2.00000
      4       3.4060      2.00000
      5       7.8371      0.00000
      6      10.1513      0.00000
      7      11.6285      0.00000
      8      12.1270      0.00000
      9      12.6472      0.00000
     10      14.0912      0.00000
     11      18.4892      0.00000
     12      19.6553      0.00000
     13      20.6565      0.00000
     14      21.0209      0.00000
     15      22.0777      0.00000
     16      22.7769      0.00000

 k-point    68 :      -0.2308    0.3077    0.0769
  band No.  band energies     occupation 
      1      -3.8907      2.00000
      2      -0.2645      2.00000
      3       1.7085      2.00000
      4       3.7352      2.00000
      5       8.2021      0.00000
      6       9.7467      0.00000
      7      10.7271      0.00000
      8      11.7079      0.00000
      9      13.1933      0.00000
     10      14.2369      0.00000
     11      18.4468      0.00000
     12      19.1042      0.00000
     13      19.2294      0.00000
     14      20.9473      0.00000
     15      22.4293      0.00000
     16      23.3000      0.00000

 k-point    69 :       0.4615    0.3846    0.0769
  band No.  band energies     occupation 
      1      -3.6872      2.00000
      2      -0.4087      2.00000
      3       2.6106      2.00000
      4       2.8440      2.00000
      5       6.7295      0.00000
      6       7.4726      0.00000
      7      12.3949      0.00000
      8      13.5166      0.00000
      9      15.8696      0.00000
     10      16.5966      0.00000
     11      17.1398      0.00000
     12      18.2390      0.00000
     13      19.3976      0.00000
     14      20.5489      0.00000
     15      21.2140      0.00000
     16      22.0733      0.00000

 k-point    70 :      -0.4615    0.3846    0.0769
  band No.  band energies     occupation 
      1      -3.1289      2.00000
      2      -1.0549      2.00000
      3       2.0632      2.00000
      4       2.7379      2.00000
      5       7.0267      0.00000
      6       8.0593      0.00000
      7      12.1325      0.00000
      8      13.8453      0.00000
      9      14.9551      0.00000
     10      16.6415      0.00000
     11      17.2549      0.00000
     12      18.8424      0.00000
     13      19.8444      0.00000
     14      20.5702      0.00000
     15      21.7134      0.00000
     16      22.8873      0.00000

 k-point    71 :      -0.3846    0.3846    0.0769
  band No.  band energies     occupation 
      1      -2.6740      2.00000
      2      -1.5162      2.00000
      3       1.5429      2.00000
      4       2.8330      2.00000
      5       7.1913      0.00000
      6       9.3034      0.00000
      7      11.8544      0.00000
      8      13.2102      0.00000
      9      13.8702      0.00000
     10      15.5327      0.00000
     11      18.3028      0.00000
     12      19.9127      0.00000
     13      20.6085      0.00000
     14      20.7405      0.00000
     15      22.4180      0.00000
     16      22.6851      0.00000

 k-point    72 :      -0.3077    0.3846    0.0769
  band No.  band energies     occupation 
      1      -2.8382      2.00000
      2      -1.3383      2.00000
      3       1.3031      2.00000
      4       3.0662      2.00000
      5       7.4595      0.00000
      6      10.7259      0.00000
      7      11.5061      0.00000
      8      11.9472      0.00000
      9      13.3641      0.00000
     10      14.3945      0.00000
     11      19.4411      0.00000
     12      20.1135      0.00000
     13      20.3532      0.00000
     14      21.3823      0.00000
     15      21.8672      0.00000
     16      23.2924      0.00000

 k-point    73 :      -0.4615    0.4615    0.0769
  band No.  band energies     occupation 
      1      -2.6950      2.00000
      2      -1.5869      2.00000
      3       2.4770      2.00000
      4       2.5514      2.00000
      5       6.7238      0.00000
      6       6.9639      0.00000
      7      13.7051      0.00000
      8      14.7645      0.00000
      9      15.4507      0.00000
     10      16.5615      0.00000
     11      17.4017      0.00000
     12      18.6917      0.00000
     13      18.7406      0.00000
     14      20.1006      0.00000
     15      22.2689      0.00000
     16      23.4666      0.00000

 k-point    74 :      -0.3846    0.4615    0.0769
  band No.  band energies     occupation 
      1      -2.2480      2.00000
      2      -1.9894      2.00000
      3       1.9344      2.00000
      4       2.6077      2.00000
      5       6.9457      0.00000
      6       7.8948      0.00000
      7      13.3454      0.00000
      8      13.5443      0.00000
      9      15.2052      0.00000
     10      15.7082      0.00000
     11      18.1781      0.00000
     12      18.7983      0.00000
     13      20.2381      0.00000
     14      20.7072      0.00000
     15      22.2896      0.00000
     16      22.6861      0.00000

 k-point    75 :       0.4615    0.3077    0.1538
  band No.  band energies     occupation 
      1      -4.2834      2.00000
      2       0.3094      2.00000
      3       2.2842      2.00000
      4       3.5411      2.00000
      5       8.1961      0.00000
      6       9.2744      0.00000
      7       9.6083      0.00000
      8      11.9245      0.00000
      9      13.9384      0.00000
     10      15.8873      0.00000
     11      17.3390      0.00000
     12      18.2209      0.00000
     13      19.0333      0.00000
     14      20.5363      0.00000
     15      21.2934      0.00000
     16      23.3179      0.00000

 k-point    76 :      -0.4615    0.3077    0.1538
  band No.  band energies     occupation 
      1      -3.7306      2.00000
      2      -0.4524      2.00000
      3       1.9152      2.00000
      4       3.2313      2.00000
      5       8.5565      0.00000
      6       9.2467      0.00000
      7       9.9758      0.00000
      8      12.3234      0.00000
      9      14.3870      0.00000
     10      14.7075      0.00000
     11      18.1048      0.00000
     12      18.9922      0.00000
     13      19.5637      0.00000
     14      20.1543      0.00000
     15      22.4889      0.00000
     16      23.2476      0.00000

 k-point    77 :      -0.3846    0.3077    0.1538
  band No.  band energies     occupation 
      1      -3.2527      2.00000
      2      -1.0723      2.00000
      3       1.7701      2.00000
      4       3.0446      2.00000
      5       8.7177      0.00000
      6       8.9455      0.00000
      7      11.2348      0.00000
      8      12.3947      0.00000
      9      12.7873      0.00000
     10      15.9086      0.00000
     11      17.4574      0.00000
     12      18.5228      0.00000
     13      20.7391      0.00000
     14      21.7796      0.00000
     15      22.2343      0.00000
     16      23.2885      0.00000

 k-point    78 :      -0.4615    0.3846    0.1538
  band No.  band energies     occupation 
      1      -3.4846      2.00000
      2      -0.6201      2.00000
      3       2.0094      2.00000
      4       2.7473      2.00000
      5       7.9809      0.00000
      6       8.5849      0.00000
      7      10.6172      0.00000
      8      13.4757      0.00000
      9      14.6161      0.00000
     10      15.4844      0.00000
     11      18.4536      0.00000
     12      19.0649      0.00000
     13      19.5433      0.00000
     14      19.9480      0.00000
     15      21.8539      0.00000
     16      22.8955      0.00000

 k-point    79 :      -0.3846    0.3846    0.1538
  band No.  band energies     occupation 
      1      -2.9444      2.00000
      2      -1.2008      2.00000
      3       1.6765      2.00000
      4       2.5305      2.00000
      5       8.3168      0.00000
      6       9.4974      0.00000
      7      10.3325      0.00000
      8      12.9182      0.00000
      9      13.8933      0.00000
     10      16.3076      0.00000
     11      17.5798      0.00000
     12      19.6191      0.00000
     13      20.3444      0.00000
     14      20.9693      0.00000
     15      22.2981      0.00000
     16      23.7472      0.00000

 k-point    80 :      -0.3077    0.3846    0.1538
  band No.  band energies     occupation 
      1      -2.7625      2.00000
      2      -1.3853      2.00000
      3       1.4735      2.00000
      4       2.5828      2.00000
      5       8.5371      0.00000
      6       9.9357      0.00000
      7      10.9878      0.00000
      8      11.4377      0.00000
      9      13.8594      0.00000
     10      15.9008      0.00000
     11      17.9618      0.00000
     12      19.6557      0.00000
     13      20.5501      0.00000
     14      22.0112      0.00000
     15      22.6290      0.00000
     16      23.2317      0.00000

 k-point    81 :      -0.2308    0.3846    0.1538
  band No.  band energies     occupation 
      1      -3.1823      2.00000
      2      -0.9563      2.00000
      3       1.5190      2.00000
      4       2.8436      2.00000
      5       8.8526      0.00000
      6       9.5594      0.00000
      7      10.1709      0.00000
      8      12.6938      0.00000
      9      13.4136      0.00000
     10      14.9416      0.00000
     11      18.9981      0.00000
     12      19.6328      0.00000
     13      19.8195      0.00000
     14      21.1618      0.00000
     15      21.6766      0.00000
     16      24.0076      0.00000

 k-point    82 :      -0.3846    0.4615    0.1538
  band No.  band energies     occupation 
      1      -2.5699      2.00000
      2      -1.5934      2.00000
      3       1.9742      2.00000
      4       2.2125      2.00000
      5       7.9555      0.00000
      6       8.1490      0.00000
      7      11.8083      0.00000
      8      13.1484      0.00000
      9      15.0806      0.00000
     10      16.4143      0.00000
     11      17.6240      0.00000
     12      18.8278      0.00000
     13      20.6843      0.00000
     14      21.4978      0.00000
     15      22.0169      0.00000
     16      22.9775      0.00000

 k-point    83 :      -0.3077    0.4615    0.1538
  band No.  band energies     occupation 
      1      -2.3040      2.00000
      2      -1.8150      2.00000
      3       1.6113      2.00000
      4       2.2564      2.00000
      5       8.2326      0.00000
      6       9.3840      0.00000
      7      11.4560      0.00000
      8      11.6120      0.00000
      9      15.1207      0.00000
     10      15.9605      0.00000
     11      18.0200      0.00000
     12      18.9881      0.00000
     13      21.2560      0.00000
     14      22.0926      0.00000
     15      22.5502      0.00000
     16      22.7841      0.00000

 k-point    84 :      -0.3077    0.4615    0.2308
  band No.  band energies     occupation 
      1      -2.4183      2.00000
      2      -1.6653      2.00000
      3       1.6303      2.00000
      4       2.0823      2.00000
      5       9.5162      0.00000
      6       9.5350      0.00000
      7      10.1469      0.00000
      8      11.2715      0.00000
      9      15.0870      0.00000
     10      16.2159      0.00000
     11      17.8483      0.00000
     12      18.9752      0.00000
     13      21.0199      0.00000
     14      22.0946      0.00000
     15      22.8838      0.00000
     16      23.4679      0.00000


--------------------------------------------------------------------------------------------------------


 soft charge-density along one line, spin component           1
         0         1         2         3         4         5         6         7         8         9
 total charge-density along one line

 pseudopotential strength for first ion, spin component:           1
 18.546  25.870  -0.000  -0.000  -0.000  -0.000  -0.000  -0.000
 25.870  36.092  -0.000  -0.000  -0.000  -0.000  -0.000  -0.000
 -0.000  -0.000   4.200  -0.000  -0.000   7.819  -0.000  -0.000
 -0.000  -0.000  -0.000   4.200  -0.000  -0.000   7.819  -0.000
 -0.000  -0.000  -0.000  -0.000   4.200  -0.000  -0.000   7.819
 -0.000  -0.000   7.819  -0.000  -0.000  14.567  -0.000  -0.000
 -0.000  -0.000  -0.000   7.819  -0.000  -0.000  14.567  -0.000
 -0.000  -0.000  -0.000  -0.000   7.819  -0.000  -0.000  14.567
 total augmentation occupancy for first ion, spin component:           1
  3.174  -0.925  -0.000  -0.000  -0.000   0.000   0.000   0.000
 -0.925   0.476   0.000   0.000   0.000  -0.000   0.000   0.000
 -0.000   0.000   2.219   0.000   0.000  -0.395  -0.000   0.000
 -0.000   0.000   0.000   2.219   0.000  -0.000  -0.395  -0.000
 -0.000   0.000   0.000   0.000   2.219   0.000   0.000  -0.395
  0.000   0.000  -0.395   0.000   0.000   0.081   0.000   0.000
  0.000   0.000   0.000  -0.395  -0.000  -0.000   0.081   0.000
  0.000  -0.000   0.000  -0.000  -0.395   0.000   0.000   0.081


------------------------ aborting loop because EDIFF is reached ----------------------------------------


    CHARGE:  cpu time    0.0720: real time    0.0731
    FORLOC:  cpu time    0.0040: real time    0.0006
    FORNL :  cpu time    0.1160: real time    0.1177
    STRESS:  cpu time    1.1600: real time    1.1622
    FORCOR:  cpu time    1.5760: real time    1.5732
    FORHAR:  cpu time    0.0040: real time    0.0040
    MIXING:  cpu time    0.0000: real time    0.0007
    OFIELD:  cpu time    0.0000: real time    0.0000

  FORCE on cell =-STRESS in cart. coord.  units (eV):
  Direction    XX          YY          ZZ          XY          YZ          ZX
  --------------------------------------------------------------------------------------
  Alpha Z     3.24858     3.24858     3.24858
  Ewald     -75.30526   -75.30526   -75.30526     0.00000    -0.00000    -0.00000
  Hartree     5.17723     5.17723     5.17723     0.00000     0.00000     0.00000
  E(xc)     -25.30725   -25.30725   -25.30725    -0.00000    -0.00000    -0.00000
  Local     -29.74896   -29.74896   -29.74896     0.00001     0.00001     0.00001
  n-local    78.56147    80.04143    74.27834     2.16584    -1.29706     0.51936
  augment   -11.97739   -11.97739   -11.97739    -0.00001    -0.00001    -0.00001
  Kinetic    58.46344    55.96011    54.43476     3.56609    -0.71016     1.04499
  Fock        0.00000     0.00000     0.00000     0.00000     0.00000     0.00000
  -------------------------------------------------------------------------------------
  Total       0.00013     0.00013     0.00013    -0.00000    -0.00000    -0.00000
  in kB       0.00515     0.00515     0.00515    -0.00000    -0.00000    -0.00000
  external pressure =        0.01 kB  Pullay stress =        0.00 kB


 VOLUME and BASIS-vectors are now :
 -----------------------------------------------------------------------------
  energy-cutoff  :      500.00
  volume of cell :       41.45
      direct lattice vectors                 reciprocal lattice vectors
     0.000000000  2.746821138  2.746821138    -0.182028598  0.182028598  0.182028598
     2.746821138  0.000000000  2.746821138     0.182028598 -0.182028598  0.182028598
     2.746821138  2.746821138  0.000000000     0.182028598  0.182028598 -0.182028598

  length of vectors
     3.884591706  3.884591706  3.884591706     0.315282780  0.315282780  0.315282780


 FORCES acting on ions
    electron-ion (+dipol)            ewald-force                    non-local-force                 convergence-correction
 -----------------------------------------------------------------------------------------------
   0.983E-08 0.983E-08 0.107E-07   -.313E-14 -.268E-14 -.153E-14   0.000E+00 -.486E-16 -.312E-16   -.605E-12 -.603E-12 -.607E-12
   -.983E-08 -.983E-08 -.107E-07   0.307E-14 0.301E-14 0.222E-14   -.694E-17 0.139E-16 0.208E-16   0.602E-12 0.604E-12 0.605E-12
 -----------------------------------------------------------------------------------------------
   0.273E-13 0.726E-13 -.121E-12   -.615E-16 0.330E-15 0.690E-15   -.694E-17 -.347E-16 -.104E-16   -.339E-14 0.485E-15 -.183E-14


 POSITION                                       TOTAL-FORCE (eV/Angst)
 -----------------------------------------------------------------------------------
      4.12023      4.12023      4.12023        -0.000000      0.000000     -0.000000
      2.74682      2.74682      2.74682         0.000000     -0.000000      0.000000
 -----------------------------------------------------------------------------------
    total drift:                                0.000000      0.000000     -0.000000


--------------------------------------------------------------------------------------------------------



  FREE ENERGIE OF THE ION-ELECTRON SYSTEM (eV)
  ---------------------------------------------------
  free  energy   TOTEN  =        -8.33840894 eV

  energy  without entropy=       -8.33837758  energy(sigma->0) =       -8.33839326



--------------------------------------------------------------------------------------------------------


    POTLOK:  cpu time    1.5680: real time    1.5686


--------------------------------------------------------------------------------------------------------




--------------------------------------------------------------------------------------------------------


  
 reached required accuracy - stopping structural energy minimisation
     LOOP+:  cpu time   47.8840: real time   50.1396
    4ORBIT:  cpu time    0.0000: real time    0.0000

 total amount of memory used by VASP on root node    39289. kBytes
========================================================================

   base      :      30000. kBytes
   nonl-proj :       5797. kBytes
   fftplans  :        517. kBytes
   grid      :       1507. kBytes
   one-center:          6. kBytes
   wavefun   :       1462. kBytes

  
  
 General timing and accounting informations for this job:
 ========================================================
  
                  Total CPU time used (sec):       48.668
                            User time (sec):       47.988
                          System time (sec):        0.680
                         Elapsed time (sec):       52.542
  
                   Maximum memory used (kb):      120964.
                   Average memory used (kb):           0.
  
                          Minor page faults:       459252
                          Major page faults:            5
                 Voluntary context switches:          264
