LAMMPS (13 Jan 2016)
Reading data file ...
  triclinic box = (0 0 0) to (28.6378 24.9659 47.3858) with tilt (5.72756 0 0)
  1 by 1 by 1 MPI processor grid
  reading atoms ...
  960 atoms
Neighbor list info ...
  1 neighbor list requests
  update every 1 steps, delay 0 steps, check yes
  max neighbors/atom: 2000, page size: 100000
  master list distance cutoff = 7.72488
  ghost atom cutoff = 7.72488
Setting up cg style minimization ...
  Unit style: metal
Memory usage per processor = 3.38472 Mbytes
Step Temp Press CPU Pxx Pyy Pzz Pxy Pxz Pyz KinEng PotEng TotEng Volume Lx Ly Lz Atoms 
       0            0   -11761.496            0   -12137.047    -12850.13   -10297.312 3.291035e-06 -1.4555673e-07   -402.83435            0   -3142.1496   -3142.1496    33879.363    28.637824    24.965877    47.385819      960 
       1            0   -10833.276 0.0033278465   -11192.092   -11880.031   -9427.7051      1.74225 0.0038354371   -409.24354            0   -3142.8108   -3142.8108     33786.42    28.610776    24.940911    47.347847      960 
       2            0      -9895.8 0.0066540241   -10237.095   -10898.755   -8551.5494    3.6209624  0.010529465   -415.80481            0   -3143.4144   -3143.4144    33693.997    28.583798    24.915945    47.310251      960 
       3            0   -8949.5507 0.0099818707   -9272.4806   -9906.6298   -7669.5417    5.6537097  0.020486715   -422.54396            0   -3143.9604   -3143.9604    33602.145    28.556902    24.890979    47.273085      960 
       4            0   -7995.1746  0.013320923   -8298.8205   -8904.1068   -6782.5966    7.8627776  0.033462377   -429.47698            0   -3144.4485   -3144.4485     33510.93    28.530102    24.866013    47.236423      960 
       5            0   -7033.8026  0.016654968   -7317.1505   -7892.0613   -5892.1958    10.275351  0.051314711   -436.66934            0   -3144.8787   -3144.8787    33420.436    28.503417    24.841047    47.200358      960 
       6            0   -6066.8549  0.019984007   -6328.7639   -6871.5894   -5000.2115    12.925299  0.075713581    -444.1396            0    -3145.251    -3145.251    33330.783    28.476873    24.816081    47.165018      960 
       7            0   -5096.2436  0.023326874   -5335.4401   -5844.1274   -4109.1633    15.871727   0.10576502   -451.97447            0   -3145.5656   -3145.5656    33242.135    28.450508    24.791115    47.130584      960 
       8            0   -4124.8626  0.026677847   -4339.8492   -4811.8783   -3222.8604    19.188801   0.13789606   -460.25838            0   -3145.8229   -3145.8229    33154.738    28.424375    24.766149    47.097319      960 
       9            0   -3157.4165  0.030027866   -3346.3408   -3778.4998    -2347.409    22.985051   0.18255421   -469.12321            0   -3146.0237   -3146.0237     33068.98    28.398561    24.741184    47.065643      960 
      10            0   -2202.0158  0.033378839   -2362.4951   -2750.2562    -1493.296    27.466297    0.2384173   -478.85661            0   -3146.1694   -3146.1694    32985.528    28.373215    24.716218    47.036271      960 
      11            0   -1274.3691     0.046875   -1403.0472   -1739.2885   -680.77152    33.042881   0.29800684   -489.90553            0   -3146.2624   -3146.2624    32905.699    28.348633    24.691252     47.01061      960 
      12            0   -412.93296  0.050240993    -504.1121     -775.333    40.646208     40.68332   0.38375989   -503.41315            0   -3146.3078   -3146.3078    32832.745    28.325553    24.666286     46.99212      960 
      13            0     212.8935  0.056921959    172.17898    2.6431964    463.85831     53.89418   0.50196013   -523.38752            0   -3146.3198   -3146.3198    32781.073    28.307434    24.641965    46.994531      960 
      14            0    58.723019  0.060290813    71.706566    48.724329    55.738163    74.501338   0.59180845   -549.57714            0   -3146.3288   -3146.3288    32796.207    28.307574    24.628386    47.041917      960 
      15            0   -400.95754  0.067003965   -424.33948   -405.82941   -372.70374    79.752449    0.6062524   -547.65011            0   -3146.3344   -3146.3344    32835.371     28.32135    24.636563    47.059559      960 
      16            0   -363.41189  0.070395947   -697.08042   -66.751266     -326.404    151.28019    1.0939201   -555.71328            0   -3146.4832   -3146.4832    32836.129      28.3474    24.611597    47.065093      960 
      17            0    263.27203  0.073789835    89.050882     455.4771     245.2881    119.61406   0.95606898   -550.14209            0   -3146.4965   -3146.4965    32782.999    28.318762    24.608407    47.042556      960 
      18            0    202.95614  0.077174902    348.22022    96.981961    163.66624    46.979096   0.39248949   -528.41499            0   -3146.5101   -3146.5101    32787.743    28.292255    24.633373    47.045715      960 
      19            0   -175.32378  0.083874941   -87.428991   -264.09592   -174.44642    55.929086   0.45231933   -527.59141            0   -3146.5139   -3146.5139    32819.734    28.305859    24.639092    47.058061      960 
      20            0   -173.19614  0.087265015   -415.94593   -10.304676   -93.337807    123.65662   0.97140707   -540.53391            0   -3146.5285   -3146.5285    32820.075    28.334497    24.618925    47.049497      960 
      21            0    377.47772  0.093985796    247.08368    505.14444    380.20504    106.15676   0.88663055   -540.77989            0   -3146.5373   -3146.5373    32773.907     28.31201    24.611511    47.034793      960 
      22            0    490.73834  0.097365856    663.78155    428.38661    380.04686    48.958988   0.41583312   -530.40768            0   -3146.5568   -3146.5568    32765.045    28.283372    24.624446    47.044959      960 
      23            0   -200.78251   0.10423303   -31.848394   -311.07909   -259.42004    44.381168    0.3541604    -524.0432            0   -3146.5694   -3146.5694    32823.427    28.299455    24.641209     47.06996      960 
      24            0   -418.10938   0.10763979   -526.37474   -409.09216   -318.86124    89.452809   0.71549941   -523.11675            0   -3146.5889   -3146.5889     32841.75    28.328093    24.635893    47.058778      960 
      25            0    296.33268   0.11436892    136.16893    378.41944    374.40968      103.226   0.88985139    -528.2597            0   -3146.6025   -3146.6025    32781.555    28.315948    24.616767    47.029183      960 
      26            0    1131.7528     0.117764    1084.9072    1278.8533    1031.4979    97.967992   0.89194091   -535.49504            0   -3146.6387   -3146.6387    32713.897     28.28731    24.596053    47.019198      960 
      27            0    562.36515   0.12116194    660.85759    681.43403    344.80384    79.438708   0.64682014   -531.51894            0   -3146.7519   -3146.7519    32764.363    28.288102    24.608506    47.066583      960 
      28            0   -62.548998   0.12789702   -5.8422514    3.0776657   -184.88241    77.969318   0.60441769   -523.10136            0   -3146.7624   -3146.7624    32816.611    28.305772    24.624424    47.081755      960 
      29            0   -4.7425629    0.1312809   -96.666425   -80.453241    162.89198    75.172675   0.67719074   -497.93022            0   -3146.7713   -3146.7713    32809.755    28.316029    24.635156    47.034369      960 
      30            0    305.30106   0.13467503    476.97985    330.08224    108.84108    59.627475   0.48229973   -519.10651            0   -3146.8098   -3146.8098     32786.89    28.287391      24.6208    47.076608      960 
      31            0    -638.5204   0.14139986   -488.95104   -599.79355   -826.81661    65.261893   0.44972059   -517.50489            0   -3146.8335   -3146.8335    32868.068    28.311077    24.637164    47.122363      960 
      32            0   -1484.4233     0.144804   -1439.1115   -1392.2039   -1621.9545     84.30867   0.50065193    -513.1285            0   -3146.8561   -3146.8561    32942.499    28.339715    24.648703    47.159262      960 
      33            0   -1158.0864   0.14822602   -1428.6683   -831.58149   -1214.0094    146.67596   0.95339265   -505.31492            0   -3147.1021   -3147.1021    32919.666    28.359015    24.623737     47.14225      960 
      34            0   -217.23462   0.15164185   -414.54036    75.069247   -312.23274    132.95667    1.0135742   -504.15111            0   -3147.1403   -3147.1403    32838.993    28.330377    24.609147     47.10217      960 
      35            0    195.70379   0.15839386    110.25686    355.42073    121.43379    103.06282   0.86943813   -492.90552            0   -3147.1464   -3147.1464    32803.407     28.31074    24.612258    47.077813      960 
      36            0     10.64998   0.16178298    91.608704   -96.161152    36.502387     51.00573   0.46094339   -468.21671            0   -3147.1533   -3147.1533    32817.955    28.299949    24.637224    47.068906      960 
      37            0   -372.16167   0.16518593   -517.55855   -284.72903   -314.19743     100.8099   0.83800569   -478.97089            0   -3147.1728   -3147.1728    32851.445    28.328587    24.628732    47.085536      960 
      38            0    300.33407   0.16859198    67.519376    543.49125    289.99159    129.22477    1.1203698   -491.03479            0   -3147.1966   -3147.1966    32795.651    28.320757    24.603766    47.066273      960 
      39            0    533.66858   0.17200184    573.45556    763.52952    264.02066    97.231879   0.81237994   -486.41657            0   -3147.3706   -3147.3706    32781.909    28.292119    24.600223    47.100956      960 
      40            0   -285.25915   0.17540693   -247.52238   -177.20861   -431.04647    82.828042   0.65500415   -470.04529            0      -3147.4      -3147.4    32850.935    28.310621    24.625189    47.121463      960 
      41            0   -500.92149   0.17880201   -492.72909   -646.77268   -363.26271    53.135913   0.47911386   -434.42441            0   -3147.4338   -3147.4338    32867.872    28.316761    24.650155    47.087797      960 
      42            0    315.03197   0.18219399    316.80091    116.78982    511.50519      45.3541   0.46993533   -424.87086            0     -3147.46     -3147.46    32798.472     28.29793     24.63927    47.040411      960 
      43            0    1156.8024   0.18559098    1095.1877     1076.049    1299.1705    65.268389   0.72502764   -425.02881            0   -3147.5374   -3147.5374    32730.942    28.283894    24.614304    47.014491      960 
      44            0     421.8186   0.18899584     285.0953    454.77307    525.58743    88.771939    0.8882841   -423.56724            0   -3147.6985   -3147.6985    32796.772    28.307214    24.618678    47.061877      960 
      45            0   -56.710804      0.19575   -156.03953    -51.67713    37.584249    81.990998   0.77533626   -422.37595            0   -3147.7047   -3147.7047    32837.432    28.315135    24.629719    47.085924      960 
      46            0    2.8659363   0.19916081    230.09446   -27.403229   -194.09343     42.71972   0.36709684   -433.09761            0   -3147.7121   -3147.7121    32834.477    28.286497    24.630978    47.126944      960 
      47            0    184.43793   0.20257902    21.890339    370.66674    160.75671    111.18218    1.0229142   -427.46453            0   -3147.8513   -3147.8513    32822.195    28.315135    24.610598    47.100641      960 
      48            0   -428.15163   0.20599198   -480.21957   -410.83043    -393.4049    78.371348    0.6976952   -411.58764            0   -3147.8641   -3147.8641     32874.06    28.319379    24.635564    47.120198      960 
      49            0   -754.73767   0.20938587   -617.84594   -969.55367    -676.8134    28.753614   0.25650536   -390.98407            0   -3147.8743   -3147.8743    32901.898    28.310042     24.66053    47.127894      960 
      50            0   -271.01169   0.21277785    64.174848   -670.78427   -206.42565   -17.135458  -0.17846706   -374.96629            0    -3147.908    -3147.908    32860.887    28.281404    24.666409    47.105582      960 
      51            0    208.85965   0.21616793    388.39624    6.6960665    231.48664    23.880468   0.23720264   -390.49574            0   -3147.9166   -3147.9166    32820.707    28.284145    24.641443    47.091089      960 
      52            0    -43.97643   0.21959591   -124.18641    19.916336    -27.65922    86.462695   0.80335148   -410.41861            0   -3147.9226   -3147.9226    32842.971    28.312783    24.624708    47.107363      960 
      53            0    318.68097   0.22301698    176.95807    607.89764     171.1872    121.74683    1.0833002   -432.72326            0   -3147.9373   -3147.9373    32814.402    28.310469    24.599742    47.118003      960 
      54            0   -503.45905   0.22644091   -597.64023   -224.31234   -688.42457    116.50217   0.90458499   -431.47078            0   -3147.9707   -3147.9707    32885.908    28.325521    24.615491    47.165388      960 
      55            0   -472.88392   0.22985888   -254.32833   -490.91017   -673.41325    44.012464   0.36252639   -399.32081            0   -3148.0926   -3148.0926    32886.113    28.296883    24.638931    47.168501      960 
      56            0    107.43384   0.23660898     262.1258    116.37788   -56.202165    53.174336   0.48202984   -398.25763            0   -3148.1018   -3148.1018    32836.353    28.288905    24.626119    47.134924      960 
      57            0    50.260251   0.24337697   -107.08411    61.052766     196.8121    86.518453   0.87268081   -382.94486            0   -3148.1076   -3148.1076    32839.302    28.316074    24.627533    47.091223      960 
      58            0   -523.88342   0.25013089   -621.25579   -578.28909   -372.10538     72.60333   0.68833902   -377.26372            0   -3148.1167   -3148.1167    32888.651    28.324144    24.643438    47.118123      960 
      59            0   -456.69157   0.25353384    -236.8873   -607.62594   -525.56148    26.164125   0.22964275   -376.07756            0   -3148.1685   -3148.1685    32885.704    28.295506    24.649648    47.149703      960 
      60            0    70.870382   0.26029086    229.16496   -15.283195   -1.2706144    40.046263   0.37944723   -379.97624            0   -3148.1761   -3148.1761    32840.793    28.288729    24.634635    47.125293      960 
      61            0    -1.721276   0.26370692   -158.86099     80.23644    73.460719     95.47874   0.92885715   -384.93363            0   -3148.1806   -3148.1806    32846.529    28.317367    24.622688    47.108704      960 
      62            0   -439.89265   0.26712799   -472.66327   -340.32359    -506.6911    84.831488   0.74259933   -385.44873            0   -3148.2666   -3148.2666    32887.757    28.316994    24.629144     47.15609      960 
      63            0    519.29545   0.27055192    561.42418    600.06073    396.40143    72.579332    0.7126525   -382.68589            0   -3148.2918   -3148.2918    32807.143    28.288356    24.612993    47.119021      960 
      64            0    1217.9392   0.27731395    1349.3044    1198.2654    1106.2477    48.417248   0.52501239   -369.06608            0   -3148.3058   -3148.3058    32749.347    28.264397     24.60833    47.084806      960 
      65            0    1136.6488   0.28070879    1394.6165    826.73009    1188.5997   -3.4086038  -0.05799911   -329.55228            0   -3148.4125   -3148.4125    32757.804    28.254107    24.633295    47.066367      960 
      66            0    177.54592   0.28410387      355.371   -94.732745    271.99951    11.905809   0.11417757   -332.16139            0   -3148.4484   -3148.4484    32838.671    28.282745    24.648094    47.106482      960 
      67            0   -176.61319   0.29087496   -106.96397   -316.67352   -106.20208    41.214911   0.40675134   -343.55122            0   -3148.4527   -3148.4527    32869.373    28.300506    24.643965    47.128828      960 
      68            0    22.680581   0.29765701   -59.797528    136.00086   -8.1615934     89.99927   0.86059233   -366.50423            0   -3148.4565   -3148.4565    32853.763    28.309736    24.619698    47.137503      960 
      69            0    29.638571   0.30107784    213.66944    166.42963   -291.18336     64.44844   0.55239357   -376.57807            0    -3148.519    -3148.519    32857.461     28.28734    24.617217    47.184889      960 
      70            0   -157.05395    0.3044858   -183.39818   -175.36688   -112.39678    66.677651    0.6546297    -345.8524            0   -3148.5383   -3148.5383    32870.904    28.308305    24.633789    47.137503      960 
      71            0    279.13403   0.31125498    202.58167    231.06174    403.75867    67.245399   0.71755544   -338.33648            0   -3148.5439   -3148.5439     32833.36    28.302161     24.62829    47.104398      960 
      72            0    682.34798   0.31802297    527.58714    568.07175    951.38504    65.988989   0.77528006   -324.28337            0   -3148.5495   -3148.5495    32798.719    28.298863    24.626435     47.06373      960 
      73            0    366.61744   0.32142687    19.854222    22.771427    1057.2267    56.495014   0.74194621    -282.8856            0    -3148.609    -3148.609     32824.64    28.320632    24.651401    47.017054      960 
      74            0   -40.147401   0.32483888   -280.60233   -308.07352    468.23365    55.922609   0.66541553   -296.59319            0   -3148.6269   -3148.6269    32860.601    28.321743    24.652595    47.064439      960 
      75            0    96.512775   0.32824302    35.349888   -4.7765768    258.96501    58.408688   0.62334052   -324.09926            0   -3148.6395   -3148.6395    32851.636    28.304507    24.636072    47.111825      960 
      76            0   -164.53092   0.33500981   -178.81291   -204.68808   -110.09177    61.915981    0.6142866   -334.06865            0    -3148.642    -3148.642    32874.866    28.306977    24.635781    47.141583      960 
      77            0    36.621936    0.3418088    114.28576    139.21581   -143.63576    70.439484   0.64792578   -355.35455            0   -3148.6456   -3148.6456     32859.84    28.295362    24.620179    47.169253      960 
      78            0    22.133005   0.34524298   -230.53989    382.04739   -85.108489    138.55764    1.2803395   -360.45054            0   -3148.7528   -3148.7528    32865.112       28.324    24.599953    47.167869      960 
      79            0   -70.543598   0.34866786   -122.85579    2.1783375   -90.953346    79.690954   0.77960227   -333.83334            0   -3148.7713   -3148.7713     32872.04    28.308016    24.624919    47.156593      960 
      80            0    157.59208   0.35542893    156.81952    176.57025    139.38648     66.76955   0.67362348    -329.0888            0   -3148.7731   -3148.7731    32852.484    28.298181    24.625071    47.144627      960 
      81            0    7.9906854   0.35884881    186.73379    -246.4247    83.662972     12.37148   0.11159788   -303.70304            0   -3148.7811   -3148.7811     32864.33    28.285409    24.650037    47.135135      960 
      82            0   -288.72457   0.36227489   -357.96222   -280.89897   -227.31251    73.166125   0.72337495   -322.15082            0   -3148.8057   -3148.8057     32891.25    28.314047    24.634337    47.156064      960 
      83            0    340.32566   0.36906481    212.92128     500.0565    307.99921    97.995491   0.99802636   -335.47558            0   -3148.8168   -3148.8168    32839.052    28.304952     24.61044    47.142087      960 
      84            0    851.48993   0.37249088    672.31288    1205.2586    676.89833    127.93778    1.3015761   -353.23855            0   -3148.8261   -3148.8261    32798.296    28.298251    24.585474    47.142553      960 
      85            0     564.2304   0.37593484    325.68668    1154.4837    212.52083    165.47133     1.483375   -374.26977            0   -3148.8937   -3148.8937    32827.034    28.310705    24.571493    47.189939      960 
      86            0   -23.387453   0.37937093   -204.80198    389.21776   -254.57814     136.9085    1.2110968   -355.81838            0   -3148.9111   -3148.9111    32875.728    28.318748    24.596459     47.19856      960 
      87            0    17.079764     0.382792   -13.779115    113.87932    -48.86091    79.412686   0.77929038   -323.60365            0   -3148.9219   -3148.9219    32870.287    28.303735    24.621425    47.167903      960 
      88            0   -162.24092   0.38955688   -119.50252   -300.65012   -66.570124    41.203536   0.41940259   -298.28587            0   -3148.9259   -3148.9259    32884.081     28.30061    24.643989    47.149698      960 
      89            0    172.29768   0.39629984    264.70774   -83.121236    335.30654    19.979228   0.20500706    -285.1237            0   -3148.9299   -3148.9299    32855.019    28.288165    24.647365    47.122296      960 
      90            0    160.20067   0.39972401   -24.681614    6.3562324     498.9274    60.600375   0.71366052   -258.17188            0   -3149.2049   -3149.2049    32865.565    28.310787    24.639979    47.113875      960 
      91            0   -194.86124    0.4031508   -262.28817   -274.32537   -47.970177    58.557579   0.61823372   -272.92792            0   -3149.2141   -3149.2141    32897.597    28.309644    24.640207    47.161261      960 
      92            0    94.610586   0.40995288     169.9986    136.12353    -22.29037    58.690101   0.57853426   -293.58198            0   -3149.2194   -3149.2194    32875.205     28.29166    24.624664    47.188886      960 
      93            0   -20.578565   0.41337681    167.46114    165.19601   -394.39284    65.813308   0.57166882   -316.72864            0   -3149.2245   -3149.2245    32887.831    28.285611    24.614672    47.236272      960 
      94            0     -332.709   0.41680789   -405.32549   -162.09269   -430.70882    91.625517   0.86403986    -298.0158            0   -3149.2727   -3149.2727     32914.31    28.314248    24.622148     47.21215      960 
      95            0    346.77252   0.42360497    270.83669    442.14636    327.33451    80.773456   0.85716343   -285.65681            0   -3149.2859   -3149.2859    32855.895    28.298355    24.615985    47.166634      960 
      96            0    723.07283   0.42702198    674.14655     605.9628    889.10913    49.132461   0.57578406   -258.05055            0   -3149.2948   -3149.2948    32822.964    28.286304    24.626531    47.119249      960 
      97            0    344.10268   0.43044281    325.00058    7.8302586    699.47721    17.890178   0.19167552   -231.96046            0   -3149.3211   -3149.3211    32854.231    28.291373    24.651497    47.107926      960 
      98            0   -177.42194   0.43721795    -194.4284   -399.77294     61.93551     33.64171   0.35720096   -246.86066            0   -3149.3296   -3149.3296    32899.853    28.303843    24.651759    47.152056      960 
      99            0    7.9509034   0.44400597    19.186586    45.526404   -40.860279    64.255921   0.64854883   -279.28616            0   -3149.3353   -3149.3353    32886.751    28.298479    24.626824    47.189945      960 
     100            0   -154.66223   0.44744492   -433.16834    75.312685   -106.13104    120.09321    1.2296518   -283.99299            0   -3149.3889   -3149.3889    32902.924    28.327117    24.614499    47.189037      960 
     101            0    312.09432   0.45087385    238.07754    401.18724    297.01816    78.899873   0.84099274   -274.13322            0   -3149.4043   -3149.4043    32863.639    28.298479    24.617284    47.175054      960 
     102            0    180.96195   0.45428586    426.70631   -10.701553    126.88108    8.5142044  0.049590533   -253.66079            0   -3149.4221   -3149.4221    32875.242    28.273625     24.64225    47.185342      960 
     103            0   -248.10585   0.46105981   -110.63307   -388.84348   -244.84101    27.402536   0.25326126   -255.50518            0   -3149.4274   -3149.4274     32911.83    28.292647    24.646166    47.198597      960 
     104            0    -274.4102   0.46448588   -459.13322   -165.08523   -199.01215    94.145891   0.96969372    -269.8235            0   -3149.4357   -3149.4357    32914.575    28.321285    24.626547     47.19237      960 
     105            0    122.73704   0.47129488   -45.347172    255.37939     158.1789    94.681734    1.0074461   -272.26003            0   -3149.4399   -3149.4399    32881.007    28.310747    24.617356    47.179396      960 
     106            0    177.17337   0.47471285    326.99821    106.83762    97.684286    34.275258    0.3352109   -261.77371            0   -3149.4482   -3149.4482    32877.035     28.28211    24.632528    47.192378      960 
     107            0   -157.47731   0.48150301    -11.18062   -257.70571    -203.5456    31.395467   0.29365163   -258.60417            0   -3149.4512   -3149.4512    32905.478    28.289928    24.641156    47.203618      960 
     108            0   -329.42546   0.48493385   -472.97063   -310.45569   -204.85008    77.827977   0.81295566   -258.38622            0   -3149.4628   -3149.4628     32919.87    28.318565    24.634997    47.188302      960 
     109            0    217.82459   0.49173188    25.619292    303.73204    324.12245    90.671328     1.003336   -262.19951            0   -3149.4709   -3149.4709    32873.622    28.310177    24.619558     47.16553      960 
     110            0    716.71039   0.49516296    730.84922    818.05048    601.23145    69.593953    0.7504951   -269.73027            0   -3149.4926   -3149.4926    32834.228    28.281539    24.608932    47.177073      960 
     111            0    109.56888     0.498595    294.22273    146.13937   -111.65546    44.015611   0.41185001   -268.98326            0   -3149.5352   -3149.5352    32887.956    28.280917    24.625009    47.224459      960 
     112            0   -149.49647   0.50539088   -88.368146   -137.06959   -223.05168    54.386336   0.53135046   -260.48526            0   -3149.5379   -3149.5379    32908.987    28.296989    24.631977    47.214458      960 
     113            0    24.805631   0.51218486    -49.76978     26.07127    98.115402    66.917604   0.71557393   -251.86157            0   -3149.5401   -3149.5401    32892.998    28.304177    24.629956    47.183406      960 
     114            0    79.009523   0.51559186     243.7788   -238.12036    231.37013  -0.50307783  -0.06218522   -219.69044            0   -3149.5859   -3149.5859    32889.282    28.281313    24.654922    47.168405      960 
     115            0   -309.86725    0.5190208   -333.70904    -287.3857   -308.50701    64.409625   0.64233263   -251.68959            0   -3149.6065   -3149.6065    32925.338    28.307519    24.634353    47.215791      960 
     116            0     15.14069   0.52245498   -108.66887    270.58072   -116.48978    104.84093    1.0380722   -273.75221            0   -3149.6177   -3149.6177    32899.607    28.309395    24.609387    47.223626      960 
     117            0    490.81579   0.52587581    561.15089    450.36496    460.93153     44.23939   0.46922684    -242.1058            0   -3149.6471   -3149.6471    32858.931    28.280757    24.624812    47.183427      960 
     118            0    114.14463   0.52929091    279.19504   -146.85181    210.09067    5.9818914  0.013129436   -218.59412            0   -3149.6728   -3149.6728    32890.673    28.280385    24.649778    47.181792      960 
     119            0   -168.33985   0.53607202   -128.12629   -265.85809   -111.03517    41.079349   0.41196753   -233.37845            0   -3149.6764   -3149.6764    32915.572    28.298022    24.641689    47.203571      960 
     120            0    19.517306   0.54288101   -30.365248    83.591234    5.3259323    71.376283   0.74144155   -248.28651            0   -3149.6784   -3149.6784    32900.452    28.301955    24.625053    47.207203      960 
     121            0    37.186052    0.5463078    278.61441    107.11642   -274.17268    41.040334    0.3607005   -260.30848            0   -3149.7108   -3149.7108    32902.993    28.277254    24.623749    47.254588      960 
     122            0      -227.75   0.54974389   -263.95548   -246.33013   -172.96438    59.100099   0.60722754   -234.52765            0   -3149.7328   -3149.7328    32923.513    28.305892    24.636485    47.211802      960 
     123            0    294.53243   0.55654502    136.02388    259.94853    487.62488    68.800705   0.79759717   -224.20248            0   -3149.7415   -3149.7415    32878.296    28.303823    24.628483    47.165729      960 
     124            0    648.19014   0.56334782    359.73826    580.13925    1004.6929    77.314065   0.98200761   -211.53465            0   -3149.7465   -3149.7465    32847.898    28.306126    24.625025    47.124901      960 
     125            0    267.13801   0.56678391   -270.56201    65.322101    1006.6539     86.45865     1.198057   -180.13779            0   -3149.7982   -3149.7982    32880.493    28.334764    24.643498    47.088663      960 
     126            0    -50.99573   0.57022285   -417.22144   -215.73577    479.97002    73.678023   0.92645237   -192.25462            0   -3149.8184   -3149.8184    32909.293    28.328117     24.64607    47.136049      960 
     127            0    111.39363   0.57365799    6.0417809    42.262946    285.87615    58.199649   0.65172577   -215.04376            0   -3149.8318   -3149.8318    32898.166    28.303084    24.634762    47.183435      960 
     128            0   -120.35439   0.58045101   -163.54145   -163.42336   -34.098359    55.505655   0.58350878   -221.81381            0   -3149.8337   -3149.8337    32918.777    28.303408    24.636745    47.208656      960 
     129            0    16.590161    0.5872438    77.733221     42.14757   -70.110307    53.184723   0.52923087   -234.84371            0   -3149.8356   -3149.8356    32908.597    28.291905    24.628372    47.229296      960 
     130            0    28.984121     0.590693   -208.97527    362.03642   -66.108779    124.84349    1.2727113   -254.34699            0   -3149.8769   -3149.8769    32910.748     28.31781    24.603406     47.23706      960 
     131            0   -107.77091   0.59412193   -156.79202   -50.767584   -115.75311    68.624989   0.70719746   -228.37133            0   -3149.8966   -3149.8966    32921.745    28.303806    24.628372    47.228299      960 
     132            0    115.91544   0.60091996     110.2879    135.86514    101.59327    58.714777   0.61432923   -225.07103            0   -3149.8982   -3149.8982    32902.586    28.294846     24.62728    47.217854      960 
     133            0     271.0292   0.60769796    441.21171    72.814502     299.0614     11.19697  0.066481029   -205.48128            0   -3149.9018   -3149.9018    32888.859    28.275644    24.642151    47.201706      960 
     134            0   -167.00417   0.61448503     90.88733     -530.971   -60.928836   -18.772949  -0.30630204    -190.0014            0   -3149.9081   -3149.9081    32925.914     28.27756    24.663832    47.210147      960 
     135            0   -351.18855   0.61790991   -374.29832   -458.40707   -220.86025    44.288682   0.44873986   -204.86231            0   -3149.9535   -3149.9535    32944.253    28.306198    24.646533    47.221772      960 
     136            0    164.08321     0.624722    136.36089    139.35351    216.53523     54.47683   0.58455153   -212.78432            0   -3149.9608   -3149.9608    32901.019    28.295056    24.630272     47.20952      960 
     137            0     470.7393    0.6281538    464.20009    681.40709    266.61073       82.428   0.85319854   -241.02215            0   -3149.9672   -3149.9672    32878.116    28.287338    24.605306    47.237409      960 
     138            0    92.127123    0.6315949    95.691881    457.67995   -276.99046    102.30626   0.94701573   -261.25124            0   -3149.9817   -3149.9817    32913.054    28.295856    24.599362    47.284795      960 
     139            0   -188.44988   0.63502884   -195.39999   -63.360328   -306.58931    72.340985   0.70927382   -230.90569            0   -3149.9905   -3149.9905    32934.559    28.302047    24.624328    47.257378      960 
     140            0    77.527789   0.64184284    77.418471    106.16347     49.00143    58.423249   0.60522658   -218.22372            0   -3149.9932   -3149.9932    32910.813    28.294871     24.62746    47.229274      960 
     141            0   -17.282771   0.64863086   -18.773464   -115.88789    82.813046    42.062713   0.43577881    -202.5816            0   -3149.9947   -3149.9947    32917.736    28.296538    24.639728    47.212906      960 
     142            0    358.60671   0.65204692    576.79688    33.493716    465.52955   -13.140788   -0.2622715   -170.59652            0   -3150.1398   -3150.1398    32893.198    28.267901    24.651544    47.202872      960 
     143            0    -401.8728   0.65546894   -312.51236   -593.61596   -299.49009    19.313505   0.14365096   -181.59699            0    -3150.164    -3150.164    32959.959    28.296538    24.654801    47.244565      960 
     144            0   -664.58962    0.6589129   -819.59278   -492.14563   -682.03044    92.985258   0.90973042   -212.73419            0   -3150.1892   -3150.1892     32986.46    28.324689    24.629835    47.283439      960 
     145            0   -66.461639   0.66236591   -288.37094     278.5279   -189.54188      121.454    1.2344889   -227.50691            0   -3150.2142   -3150.2142    32937.169    28.317112    24.604869    47.273336      960 
     146            0    147.48123    0.6691699    151.25673    182.44959    108.73737    56.292384   0.58307773   -198.88535            0   -3150.2216   -3150.2216    32917.345    28.291837    24.626221    47.246091      960 
     147            0   -27.479014   0.67596388    4.1930035   -59.125879   -27.504168    44.963797   0.44730791   -192.53266            0   -3150.2227   -3150.2227    32931.914    28.293217    24.634871    47.248099      960 
     148            0    12.978176   0.67939687   -198.42462   -76.814663    314.17381     62.75012   0.73433124   -172.26732            0   -3150.2356   -3150.2356    32926.999    28.312133    24.639449    47.200713      960 
     149            0    32.527591   0.68282986    28.913233    31.286991    37.382548    52.098648   0.53536108   -191.14849            0   -3150.2626   -3150.2626    32929.077    28.294716    24.631444    47.248099      960 
     150            0   -129.22907   0.68965602   -131.26861   -135.54414   -120.87446    51.593715   0.51956393   -191.08317            0   -3150.2633   -3150.2633    32943.004    28.298283    24.634814     47.25566      960 
     151            0   -125.15074   0.69309187    51.639372   -34.657305   -392.43427    44.927132   0.39075594   -208.83302            0   -3150.3034   -3150.3034    32947.712    28.283554    24.626471    47.303046      960 
     152            0    277.03047   0.69652081    314.41514    329.69998    186.97629    53.729007   0.55003111   -194.82124            0   -3150.3127   -3150.3127    32912.057    28.285695    24.622625     47.25566      960 
     153            0    105.32239   0.69995785   -101.47447    40.312224    377.12942    64.322731    0.7538797   -168.26953            0   -3150.3215   -3150.3215    32924.323    28.309295     24.63597    47.208274      960 
     154            0   -347.45237   0.70676279   -476.37222   -441.68835   -124.29652    53.123746   0.56928701    -169.3254            0   -3150.3275   -3150.3275    32963.966    28.313137     24.64657    47.238378      960 
     155            0   -306.35422   0.71020985   -160.44725   -366.29518   -392.32023    28.382951   0.22643267   -185.70747            0   -3150.3436   -3150.3436    32963.823     28.28935    24.642468    47.285764      960 
     156            0    52.122686   0.71701694     163.8827    26.814484   -34.329121    35.732328    0.3265527   -186.92178            0   -3150.3471   -3150.3471    32933.078    28.284133     24.63312    47.268307      960 
     157            0     22.45183   0.72383189   -56.300674    50.313739    73.342423     62.86746   0.67233794   -184.18285            0   -3150.3488   -3150.3488    32934.745    28.300897     24.62963    47.249392      960 
     158            0   -280.95971   0.73063993   -334.81562   -295.59804   -212.46547    55.240625   0.56403178   -180.85725            0   -3150.3513   -3150.3513    32960.883    28.305605    24.638656    47.261705      960 
     159            0   -218.27291   0.73406482    42.442032   -410.85801   -286.40275    -1.659405  -0.12456513   -171.60357            0   -3150.3794   -3150.3794    32958.014    28.276967    24.651781    47.280264      960 
     160            0    209.48422   0.74086785     364.0844    117.58469    146.78356    21.664971   0.16496037    -177.0082            0   -3150.3849   -3150.3849    32921.607     28.27646    24.635819    47.259485      960 
     161            0    182.76869   0.74430394    11.905052    304.25548    232.14553    84.085038   0.93748874   -187.39851            0   -3150.3898   -3150.3898    32923.866    28.305098    24.619289    47.246611      960 
     162            0   -101.14279   0.75112891   -264.52141  -0.84997593   -38.056971    81.064555   0.87867048    -186.0262            0    -3150.392    -3150.392    32948.171    28.310941    24.626176     47.25851      960 
     163            0   -79.133134   0.75793886     56.75652   -159.60256   -134.55336    25.636527   0.20416946   -177.80696            0   -3150.3967   -3150.3967    32947.008    28.284606    24.640211    47.273899      960 
     164            0    158.29236   0.76475191    288.31969    89.450664    97.106709    27.233292   0.23096155   -177.90474            0   -3150.3982   -3150.3982    32926.799    28.279707    24.634933    47.263209      960 
     165            0    128.75792   0.76818895   -69.469815    211.88925    243.85432    81.826993   0.92779304   -180.13358            0   -3150.4074   -3150.4074    32928.966    28.308345     24.62355    47.240334      960 
     166            0   -230.70989   0.77500892   -374.38239   -182.94306   -134.80422    72.091158   0.77248188   -179.37724            0   -3150.4111   -3150.4111     32960.16    28.311936    24.632924    47.261094      960 
     167            0   -330.25073   0.77843595   -111.33459   -412.53589   -466.88171    16.884219  0.086326137   -180.60194            0   -3150.4202   -3150.4202    32971.064    28.283298    24.644875    47.301651      960 
     168            0    143.75215    0.7852428    419.78952    67.140131   -55.673209    10.518646  0.017672063   -181.90231            0   -3150.4264   -3150.4264    32931.098    28.267763    24.635644     47.28799      960 
     169            0    282.57879   0.78868294    180.73365    326.39145    340.61127    65.701246   0.72892097   -176.81561            0   -3150.4398   -3150.4398     32918.14    28.296401    24.623954    47.243959      960 
     170            0   -110.43812    0.7954998   -259.94019   -75.685168    4.3110012    70.345502   0.76833164   -174.58305            0   -3150.4439   -3150.4439    32951.602    28.309396    24.631938    47.254954      960 
     171            0    -431.4725   0.79892898   -269.16168   -506.58767   -518.66814    23.556946   0.16196685   -176.41448            0   -3150.4533   -3150.4533    32981.566    28.290177    24.646371     47.30234      960 
     172            0    29.810404   0.80235386    407.87843   -78.629417    -239.8178   -4.6169562  -0.16499637   -180.31462            0   -3150.4655   -3150.4655     32944.08    28.261539    24.640286    47.308134      960 
     173            0    246.55261   0.80579495    227.95152    279.70554    232.00076    55.018219   0.57813007    -176.3536            0   -3150.4834   -3150.4834    32924.476    28.290036    24.625485    47.260748      960 
     174            0   -114.34364   0.81261086    -215.5455   -81.867919     -45.6175    64.392066   0.68408579   -173.35734            0   -3150.4871   -3150.4871    32955.007     28.30521    24.632261    47.266208      960 
     175            0   -612.83222   0.81942582   -772.68526    -646.0921   -419.71929    62.787142   0.65600825   -162.80596            0   -3150.4943   -3150.4943    32998.096    28.321281    24.647017    47.272834      960 
     176            0   -443.63278    0.8228569   -662.44478   -719.61015      51.1566    35.363019   0.37639253   -121.54402            0   -3150.5956   -3150.5956    32987.679     28.32043      24.6647    47.225448      960 
     177            0    168.82758   0.82967782    46.475201    2.6114577    457.39608    38.182767   0.41191072   -136.95577            0   -3150.6072   -3150.6072    32936.776    28.298709    24.644118    47.228178      960 
     178            0    29.585682   0.83311391    29.281786   -6.1353068    65.610566    42.752412   0.42188948   -159.35296            0   -3150.6128   -3150.6128    32951.092    28.292423    24.635589    47.275563      960 
     179            0   -100.11632   0.83992887   -102.49934   -100.05292   -97.796693    47.948209   0.47093798   -164.19769            0   -3150.6134   -3150.6134    32962.674    28.295752    24.634981    47.287785      960 
     180            0    25.206483   0.84676385    31.651555    177.63641   -133.66851     66.73285   0.66135233   -183.17394            0   -3150.6153   -3150.6153    32953.846    28.292853     24.62005    47.308637      960 
     181            0    124.11558   0.85022283    22.244822    259.75314    90.348784    73.502126     0.785767    -164.5848            0   -3150.7649   -3150.7649    32955.066    28.298608    24.620554      47.2998      960 
     182            0   -148.07664     0.857054   -194.88803   -100.07776   -149.26414    56.705265   0.56928474   -157.27407            0   -3150.7674   -3150.7674    32978.151    28.299851    24.632655    47.307602      960 
     183            0   -217.91469   0.86384702   -113.56629   -353.01076   -187.16703    16.840584  0.080206902    -141.8341            0   -3150.7696   -3150.7696    32983.729     28.28794    24.648897    47.304334      960 
     184            0    72.447128   0.87065387    227.22809   -102.44953    92.562816    5.6092784 -0.059894642   -137.94474            0    -3150.772    -3150.772    32958.854    28.276901    24.646813    47.291111      960 
     185            0     183.6854   0.87409782    61.527452    292.11076    197.41799    71.704627   0.78337222   -158.91665            0   -3150.7786   -3150.7786    32950.556    28.298701    24.621848    47.290686      960 
     186            0   -112.04258   0.88094187   -269.22126    23.447503   -90.353969    79.577063   0.85169639   -161.63886            0    -3150.781    -3150.781    32976.221    28.308575    24.625015    47.304926      960 
     187            0   -368.43796    0.8843658    -127.4059    -482.3412   -495.56677    5.2007127 -0.074328864   -150.26686            0   -3150.7919   -3150.7919    33000.215    28.279938    24.649711    47.339807      960 
     188            0    170.98715   0.89118385    592.85872   -37.814859   -42.082412   -27.618792  -0.48523191   -144.17996            0   -3150.8011   -3150.8011    32955.109    28.252206    24.647428    47.325888      960 
     189            0    404.39181    0.8946178    469.40377    291.82328     451.9484    21.330956   0.15247888   -135.34976            0   -3150.8355   -3150.8355    32935.458    28.276621     24.63613    47.278502      960 
     190            0   -163.88158   0.90145493   -197.27037   -241.06125   -53.313116    37.580191   0.35118384   -137.03668            0   -3150.8444   -3150.8444    32984.323    28.297969    24.643748    47.298303      960 
     191            0    -467.3723   0.90829682    -663.3614   -274.44031   -464.31518    90.728679   0.93580206   -163.28256            0   -3150.8507   -3150.8507    33013.354    28.319855    24.627112    47.335301      960 
     192            0   -84.560981   0.91175485    -346.0635    328.16327   -235.78272    125.67239    1.3042421   -185.55256            0   -3150.8631   -3150.8631    32983.277    28.317436    24.602146    47.344212      960 
     193            0    211.65061    0.9152019    192.29701    304.98076    137.67407    57.173166   0.58342527   -155.57363            0   -3150.8735   -3150.8735    32956.346    28.288798    24.622886    47.313558      960 
     194            0   -27.019457   0.92203188    6.4239637   -47.699978   -39.782357     37.12395    0.3318977   -144.79102            0   -3150.8758   -3150.8758    32976.139     28.28932    24.636575    47.314795      960 
     195            0    18.229341   0.92884994    -23.05133   -113.39421    191.13356    30.241508   0.27061424   -126.86188            0   -3150.8777   -3150.8777    32970.709    28.293928     24.64517    47.282804      960 
     196            0   -27.898033    0.9322989   -386.93436    111.86683    191.37343    98.816502    1.1729507   -142.53712            0   -3150.9236   -3150.9236    32979.249    28.322565    24.624333    47.287212      960 
     197            0    84.638493    0.9357419    31.025917    139.56636      83.3232    54.814139   0.56061472   -145.75811            0   -3150.9401   -3150.9401    32971.985    28.293928    24.628831    47.316005      960 
     198            0   -59.125958   0.94256687    -84.32489   -36.563057   -56.489927    47.872983   0.46521078   -143.69894            0   -3150.9408   -3150.9408    32984.299    28.294705    24.634068    47.322312      960 
     199            0   -73.258802   0.94939494    31.392866   -160.81306   -90.356211    19.729115   0.10676913    -136.2675            0   -3150.9419   -3150.9419    32985.546    28.283668    24.643243    47.324942      960 
     200            0    118.76428   0.95620179    235.16578     28.25271    92.874346     17.62591  0.083894202   -135.53888            0   -3150.9429   -3150.9429    32969.167     28.27828    24.639984    47.316712      960 
     201            0    142.60583   0.95965385   -80.079948    263.18956    244.70787    80.958794   0.92368189   -144.67742            0   -3150.9518   -3150.9518    32967.541    28.306918    24.622757     47.29958      960 
     202            0   -267.75643   0.96649599   -460.27973   -170.84853   -172.14103     75.44536   0.81251519   -144.64815            0   -3150.9564   -3150.9564    33003.407    28.313754    24.632107    47.321637      960 
     203            0   -463.69196     0.969944   -270.82465   -524.80513   -595.44611    14.165595  0.018763565    -144.0672            0   -3150.9713   -3150.9713    33023.585    28.285116    24.648177    47.367607      960 
     204            0    174.75863     0.976758    482.15951    96.608975   -54.492601   -1.7686033  -0.17361411    -144.2597            0   -3150.9827   -3150.9827    32969.972    28.260937    24.637798    47.351107      960 
     205            0     432.8706   0.98019695    432.15501    421.14107    445.31572    38.339481   0.36988179   -134.91001            0    -3151.002    -3151.002    32947.515    28.280744    24.628419    47.303721      960 
     206            0   -164.30684   0.98703599   -290.07219   -175.72242     -27.1259    52.825426   0.54823519   -131.08062            0   -3151.0121   -3151.0121    32998.534    28.304835    24.639497    47.315363      960 
     207            0   -887.32776   0.99050188   -1101.9956   -782.99986   -776.98787    78.304658   0.79041203   -142.40755            0   -3151.0283   -3151.0283    33065.466    28.329414    24.643373    47.362749      960 
     208            0   -671.07001   0.99396682     -919.527   -308.62539   -785.05766    113.77836    1.1195898   -168.80346            0   -3151.1064   -3151.1064    33056.785    28.327835    24.618407    47.400974      960 
     209            0    79.710136    1.0008309    -74.09761    369.66241   -56.434396    92.543104   0.97789997   -160.80354            0   -3151.1225   -3151.1225    32991.581    28.302101    24.610854    47.365025      960 
     210            0    2.3193572    1.0042708    16.624184    5.1389857   -14.805098    37.062637   0.32252026   -132.92021            0   -3151.1277   -3151.1277    32996.469    28.288443     24.63582    47.346885      960 
     211            0   -72.551112     1.011111   -168.05714    -85.40502    35.808823    46.708889   0.46496602   -125.74609            0   -3151.1287   -3151.1287    33001.996    28.299235    24.638731    47.331163      960 
     212            0    159.65117    1.0179479    14.166057      142.553    322.23445    50.797585   0.54599963   -121.61345            0   -3151.1304   -3151.1304    32981.805    28.298002    24.635016    47.311399      960 
     213            0    114.69943    1.0213909    179.61518   -187.53441    352.01751   -10.923251  -0.32809696   -93.803039            0   -3151.2125   -3151.2125    32993.159     28.27936    24.659982     47.31094      960 
     214            0   -237.64856    1.0248339   -225.77583   -320.55436   -166.61549    24.226523   0.15526264   -120.15746            0   -3151.2222   -3151.2222    33026.227    28.292894    24.648202    47.358326      960 
     215            0    22.777872    1.0316749   0.13930861      168.658   -100.46369    57.264427   0.55582703   -146.25532            0   -3151.2268   -3151.2268    33006.453    28.290869    24.624478     47.37896      960 
     216            0     569.8927    1.0385339    518.78308    871.14962     319.7454    78.982175   0.83576361   -161.62401            0    -3151.236    -3151.236    32963.239    28.281272    24.602068    47.376102      960 
     217            0    351.63145    1.0420129    173.11001     888.7726   -6.9882489    121.62674    1.2628998   -184.66268            0   -3151.3185   -3151.3185    32994.669    28.297075    24.587497    47.422878      960 
     218            0   -129.53604    1.0454788   -253.68507    208.48963    -343.4127    90.529649   0.90832063   -163.72066            0   -3151.3303   -3151.3303    33034.405    28.302635    24.612463    47.422512      960 
     219            0    124.81561     1.052316    126.10377    176.41779    71.925267    38.836849   0.34111492   -131.70011            0   -3151.3372   -3151.3372    33010.113    28.284913    24.631586    47.380516      960 
     220            0   -3.7049092    1.0591459    9.8754361   -13.721667   -7.2684965    29.732172   0.22305642   -125.08277            0   -3151.3379   -3151.3379     33020.64     28.28653    24.639027    47.378605      960 
     221            0   -6.6086522     1.066011   -120.27044    21.878745    78.565742    48.172863   0.48265211   -123.57999            0   -3151.3386   -3151.3386    33020.387    28.297396    24.636154     47.36557      960 
     222            0    801.19426    1.0728729    680.96686    954.31301    768.30291     62.16795   0.70501428   -135.53165            0   -3151.3577   -3151.3577    32956.729    28.279625     24.61179    47.350793      960 
     223            0    631.33833    1.0763299    535.28029    885.60581     473.1289    70.571758   0.77469894   -151.97805            0   -3151.4384   -3151.4384    32983.485    28.281012    24.607382      47.3954      960 
     224            0   -33.676399    1.0831909   -117.34514    124.13583   -107.81989    58.119224   0.57938208   -143.60829            0   -3151.4505   -3151.4505    33039.927    28.294743    24.627225    47.415228      960 
     225            0  -0.11539689    1.0900278    11.450243   -5.0362413   -6.7601921    26.516189   0.18221596   -127.32652            0   -3151.4521   -3151.4521    33035.966    28.285216     24.64005    47.400828      960 
     226            0    8.0940927     1.096885   -60.742673    1.1975932    83.827358    34.658978   0.30327303   -122.94984            0   -3151.4526   -3151.4526    33034.616    28.291721    24.640262    47.387584      960 
     227            0   -956.77048    1.1003349   -1064.2759   -1015.6263    -790.4092    31.967938   0.24392409   -122.48379            0   -3151.4848   -3151.4848    33126.858    28.316153    24.663082     47.43497      960 
     228            0   -687.05387    1.1037939   -763.56269   -729.86816   -567.73075    27.228937   0.19313737   -128.75643            0   -3151.5523   -3151.5523    33114.403     28.30625    24.657768    47.443947      960 
     229            0    3.4808248    1.1106639   -34.467567  -0.61978754    45.529829    26.433867   0.19821347   -131.90784            0   -3151.5653   -3151.5653    33054.932    28.287284    24.641952    47.420912      960 
     230            0   -1.3512993    1.1175179    7.3503385   -4.1443803   -7.2598562    21.719939   0.12879019   -134.54233            0   -3151.5655   -3151.5655    33055.807    28.283503    24.641818    47.428765      960 
     231            0    85.940804    1.1243808    53.792842    168.61657    35.413002    37.017528   0.33246592   -143.16961            0    -3151.566    -3151.566    33049.058    28.285313    24.633189    47.432658      960 
     232            0    -83.36102     1.131279   -174.88511    81.613821   -156.81177    54.476151   0.54551113   -152.07351            0   -3151.5671   -3151.5671     33064.63    28.294525    24.629478    47.446704      960 
     233            0   -64.084756    1.1347518   -155.59761    88.190141    -124.8468    50.013947   0.50467153   -158.23118            0   -3151.6151   -3151.6151    33072.278    28.292911    24.631109    47.457244      960 
     234            0    79.499548     1.141623    52.630019    145.78509     40.08354    31.455374   0.27160293   -149.57232            0   -3151.6162   -3151.6162    33059.342    28.283784    24.635625    47.445291      960 
     235            0   -2.0145351    1.1484859    5.3853141   -3.1704695   -8.2584499    19.164763   0.10564664   -143.05859            0   -3151.6167   -3151.6167    33065.937    28.282455    24.642676    47.443404      960 
     236            0    8.1516896    1.1553519   -8.7892208   0.11208646    33.132203    20.775827   0.13071769   -140.84008            0   -3151.6167   -3151.6167    33064.757    28.284221    24.643134    47.437869      960 
     237            0   -88.457132    1.1622138   -121.08296   -99.993044   -44.295395    22.197048   0.14924875   -140.22047            0    -3151.617    -3151.617    33073.071    28.287718     24.64521    47.439935      960 
     238            0   -70.338596    1.1656969   -369.78397    169.42633   -10.658148    81.278693    0.9553169   -167.59421            0   -3151.6487   -3151.6487    33079.859    28.309926    24.625015    47.451332      960 
     239            0    190.48123    1.1691639    148.17422    261.75286     161.5166    30.657166   0.27958434   -159.60421            0   -3151.6593   -3151.6593    33059.153    28.281288    24.634082     47.45218      960 
     240            0   -90.913056    1.1760218   -5.7052534   -148.58583   -118.44808    0.8196833  -0.13468907   -152.05353            0   -3151.6626   -3151.6626    33084.014    28.276335     24.64973    47.466031      960 
     241            0   -176.01141    1.1829178    27.698409   -363.57027   -192.16237   -28.773705  -0.54423335   -143.35861            0   -3151.6639   -3151.6639    33092.211    28.267585    24.662044    47.468773      960 
     242            0    196.50837     1.189816    461.71614   -61.203382    189.01236   -46.179284  -0.81403377   -137.88212            0   -3151.6684   -3151.6684    33061.769     28.25338    24.661267    47.450445      960 
     243            0    126.05728      1.19328    63.985255    31.039616    283.14696    7.5976634 -0.018698181   -151.13701            0   -3151.6881   -3151.6881    33074.013    28.282017    24.650219    47.441206      960 
     244            0     -69.8984    1.2001629   -108.85806   -136.47298    35.635837      9.49673 0.0047444067     -157.229            0   -3151.6894   -3151.6894    33091.674    28.284716    24.651282    47.459964      960 
     245            0   -3.7781883    1.2070448    3.4717887   -6.7343896   -8.0719641     12.87807  0.047729841   -167.65227            0   -3151.6901   -3151.6901    33087.145    28.279646    24.644603    47.474838      960 
     246            0     8.784748    1.2139339    9.2362331    9.3545582    7.7634528    14.021357  0.063949186   -167.67412            0   -3151.6901   -3151.6901    33086.026    28.279945    24.644098    47.473705      960 
     247            0   -3.2970883     1.220819   -14.942299   0.99286322    4.0581713    15.816615  0.089085382   -167.58785            0   -3151.6901   -3151.6901    33087.005    28.281252     24.64403    47.473046      960 
     248            0    141.56145    1.2242839   -12.031142    70.474281     366.2412    21.220002   0.19533877   -151.51887            0   -3151.6971   -3151.6971    33068.973    28.289735    24.647816     47.42566      960 
     249            0   -309.49434     1.231159   -416.74697    -411.4896   -100.24644    14.404984  0.091533023   -154.52936            0   -3151.7037   -3151.7037    33105.418     28.29638    24.658133    47.446919      960 
     250            0   -284.64865    1.2346239   -184.70624   -341.82868   -327.41103   0.34251692 -0.098250124   -175.71424            0   -3151.7148   -3151.7148    33099.842    28.279261     24.65272    47.478067      960 
     251            0    13.770648     1.241508    93.111378   -13.631264   -38.168169     5.613004 -0.024997299   -176.77689            0   -3151.7173   -3151.7173    33073.925    28.274325    24.644884    47.464261      960 
     252            0    0.8761349     1.248394   -1.1260137    3.1308504   0.62356804    18.102538   0.15001059   -176.38946            0   -3151.7176   -3151.7176    33074.627    28.281564    24.642814    47.457105      960 
     253            0   -29.873018    1.2552979   -27.807587   -42.966674   -18.844793    15.728416   0.11681832   -174.71739            0   -3151.7176   -3151.7176    33077.173    28.281848    24.644648    47.456748      960 
     254            0    14.288045     1.262188     36.60988   -42.122195    48.376449    7.7497503 0.0047775263    -169.6058            0   -3151.7178   -3151.7178    33073.065    28.278916    24.647448    47.450383      960 
     255            0    21.781615    1.2690859   -6.3796539    43.165658    28.558841    23.401407   0.18035047   -171.94136            0   -3151.7211   -3151.7211    33074.375    28.283088    24.640558     47.45853      960 
     256            0   -12.847591     1.275986   -29.871186   -1.0238688   -7.6477166    21.061563   0.14639463   -171.40665            0   -3151.7211   -3151.7211    33077.405    28.282898    24.641953     47.46051      960 
     257            0  -0.31928644    1.2828689    2.0538797  -0.65351615   -2.3582228    17.381776  0.095046055   -170.73035            0   -3151.7212   -3151.7212    33076.364    28.280926    24.642705    47.460878      960 
     258            0    18.397857    1.2897549    11.398816    13.577273    30.217483    17.717168   0.10105514   -169.51956            0   -3151.7212   -3151.7212    33074.612    28.281258    24.642771     47.45768      960 
     259            0   -11.511167    1.2966769   -31.421665    -24.22954    21.117704    18.104388   0.10720803   -167.95329            0   -3151.7212   -3151.7212    33077.046     28.28298    24.644005    47.455905      960 
     260            0   -132.73561      1.30356   -36.556198   -206.62973    -155.0209   -2.3704481  -0.21457141   -164.69208            0    -3151.728    -3151.728    33095.784    28.275202    24.650884    47.482596      960 
     261            0    28.890741    1.3104558    106.97642    -18.15714    -2.147057    2.5606775  -0.14940238   -166.03603            0   -3151.7288   -3151.7288    33082.734    28.273103    24.645731    47.477323      960 
     262            0   0.95049363     1.317353   -1.1143767     1.870491    2.0953665    17.367504  0.057519412   -168.11631            0   -3151.7291   -3151.7291    33085.355    28.280653    24.642369    47.474882      960 
     263            0    -22.80594    1.3345079   -20.271884   -23.837845   -24.308091    16.692712  0.047635108   -168.22075            0   -3151.7291   -3151.7291    33087.476    28.280801    24.642947    47.476566      960 
     264            0    4.7766499    1.3414178    61.729464   -2.0121168   -45.387397    10.159935 -0.042197229    -169.8442            0   -3151.7294   -3151.7294    33085.876    28.275578    24.642783    47.483353      960 
     265            0    24.580296      1.34832    6.5123358    51.009382    16.219172    22.474807   0.16562798   -166.20133            0   -3151.7313   -3151.7313    33087.129    28.281472    24.639646    47.481302      960 
     266            0   -10.177396     1.355211   -23.646105     5.890935   -12.777018    20.714985   0.14132819   -165.20965            0   -3151.7313   -3151.7313    33090.149    28.281828    24.641129     47.48218      960 
     267            0  -0.26603663    1.3621368    1.6409866   -1.9838419  -0.45525462    16.717161  0.086202452   -163.57002            0   -3151.7313   -3151.7313    33089.254    28.280225    24.642416    47.481107      960 
     268            0    28.612797     1.369046    17.714545     32.76124    35.362607    18.773576   0.11691618   -163.32951            0   -3151.7314   -3151.7314    33086.691    28.280669    24.641427    47.478588      960 
     269            0   -11.330447    1.3759449   -65.353276    4.3324419    27.029493    25.003382   0.20890809   -162.13075            0   -3151.7315   -3151.7315    33089.936    28.285266    24.641244    47.475881      960 
     270            0   -16.450658    1.3828468   -13.985801   -18.567075   -16.799099    17.436072   0.12169088   -156.35349            0    -3151.733    -3151.733    33091.066    28.280708    24.642357    47.483008      960 
     271            0    1.2485167    1.3897488    3.6068056   0.46165379  -0.32290929    17.577646   0.12407876   -156.39173            0    -3151.733    -3151.733    33089.537     28.28032    24.641927    47.482295      960 
     272            0   0.14259537    1.3966699    -16.62322    6.7796976    10.271308    20.581021   0.16716749   -156.29274            0    -3151.733    -3151.733     33089.52    28.281986    24.641363    47.480562      960 
     273            0   -57.694543    1.4035618   -76.998262   -109.07181    12.986441    15.242611  0.011817997    -138.7283            0   -3151.7365   -3151.7365    33089.557    28.283757    24.646447    47.467847      960 
     274            0    27.857784    1.4104769    18.914552    -5.540704    70.199503    16.439547  0.023491149   -140.46041            0   -3151.7367   -3151.7367    33082.134    28.281058    24.643303    47.467784      960 
     275            0  -0.84610491     1.417387    2.1032812   -2.6557708   -1.9858251    19.540958   0.06064759   -145.08241            0   -3151.7369   -3151.7369    33084.977    28.280895    24.641078    47.476421      960 
     276            0  -0.84610491     1.526886    2.1032812   -2.6557708   -1.9858251    19.540958   0.06064759   -145.08241            0   -3151.7369   -3151.7369    33084.977    28.280895    24.641078    47.476421      960 
Loop time of 1.52691 on 1 procs for 276 steps with 960 atoms

99.3% CPU use with 1 MPI tasks x no OpenMP threads

Minimization stats:
  Stopping criterion = linesearch alpha is zero
  Energy initial, next-to-last, final = 
        -3142.14959435     -3151.73686775     -3151.73686775
  Force two-norm initial, final = 432.616 0.146785
  Force max component initial, final = 271.727 0.0555646
  Final line search alpha, max atom move = 4.44462e-07 2.46964e-08
  Iterations, force evaluations = 276 440

MPI task timing breakdown:
Section |  min time  |  avg time  |  max time  |%varavg| %total
---------------------------------------------------------------
Pair    | 1.457      | 1.457      | 1.457      |   0.0 | 95.42
Neigh   | 0.020241   | 0.020241   | 0.020241   |   0.0 |  1.33
Comm    | 0.0051329  | 0.0051329  | 0.0051329  |   0.0 |  0.34
Output  | 0.0088174  | 0.0088174  | 0.0088174  |   0.0 |  0.58
Modify  | 0          | 0          | 0          |   0.0 |  0.00
Other   |            | 0.03574    |            |       |  2.34

Nlocal:    960 ave 960 max 960 min
Histogram: 1 0 0 0 0 0 0 0 0 0
Nghost:    1489 ave 1489 max 1489 min
Histogram: 1 0 0 0 0 0 0 0 0 0
Neighs:    55480 ave 55480 max 55480 min
Histogram: 1 0 0 0 0 0 0 0 0 0

Total # of neighbors = 55480
Ave neighs/atom = 57.7917
Neighbor list builds = 2
Dangerous builds = 0
Setting up cg style minimization ...
  Unit style: metal
Memory usage per processor = 3.38472 Mbytes
Step Temp Press CPU Pxx Pyy Pzz Pxy Pxz Pyz KinEng PotEng TotEng Volume Lx Ly Lz Atoms 
     276            0  -0.84610491            0    2.1032812   -2.6557708   -1.9858251    19.540958   0.06064759   -145.08241            0   -3151.7369   -3151.7369    33084.977    28.280895    24.641078    47.476421      960 
     277            0   -7.0063915  0.006816864   -1.1992085     -7.76036   -12.059606     19.56281   0.10416277   -142.98434            0   -3151.7379   -3151.7379    33084.977    28.280895    24.641078    47.476421      960 
     278            0   -24.440635  0.013648033   -13.066622   -22.933213    -37.32207    19.568567   0.12047085   -138.96323            0   -3151.7386   -3151.7386    33084.977    28.280895    24.641078    47.476421      960 
     279            0   -35.180628  0.020473003   -19.112286   -33.009118   -53.420478    19.566707   0.10369708   -134.93261            0   -3151.7387   -3151.7387    33084.977    28.280895    24.641078    47.476421      960 
     280            0   -38.500946   0.02728796   -20.454261   -36.380165   -58.668414    19.571671   0.10404531   -130.83234            0   -3151.7388   -3151.7388    33084.977    28.280895    24.641078    47.476421      960 
     281            0   -26.383599  0.034108877   -11.447612   -30.095105   -37.608082    19.579574   0.11738495   -109.89388            0   -3151.7391   -3151.7391    33084.977    28.280895    24.641078    47.476421      960 
     282            0    2.3972181  0.040921926    9.6259813   -10.814462     8.380135     19.58025   0.11276115   -79.802133            0   -3151.7394   -3151.7394    33084.977    28.280895    24.641078    47.476421      960 
     283            0    21.294373  0.047744989    23.132082    2.5612741    38.189763    19.580791   0.12094486   -59.508814            0   -3151.7396   -3151.7396    33084.977    28.280895    24.641078    47.476421      960 
     284            0    26.482684   0.05456686    27.308783    7.0839782    45.055292    19.562821   0.12081269   -47.126097            0   -3151.7398   -3151.7398    33084.977    28.280895    24.641078    47.476421      960 
     285            0    28.765474  0.061393976    28.882911     8.928826    48.484686    19.542972   0.11157449   -34.637969            0   -3151.7399   -3151.7399    33084.977    28.280895    24.641078    47.476421      960 
     286            0    28.750952  0.068220854    28.645581    7.8267936    49.780481    19.545179   0.11279211   -26.171607            0     -3151.74     -3151.74    33084.977    28.280895    24.641078    47.476421      960 
     287            0    27.360359   0.07503891    27.359389    4.3403912    50.381297    19.554671   0.11209776   -19.874839            0   -3151.7401   -3151.7401    33084.977    28.280895    24.641078    47.476421      960 
     288            0    25.138662   0.08187294    25.894633    1.7150071    47.806345    19.564907   0.11084902   -16.795897            0   -3151.7401   -3151.7401    33084.977    28.280895    24.641078    47.476421      960 
     289            0    21.336121   0.08869195    23.397985   -1.3900306    42.000407    19.569833   0.11456107   -13.970205            0   -3151.7401   -3151.7401    33084.977    28.280895    24.641078    47.476421      960 
     290            0     16.31567  0.095518827    19.701367   -5.8910269     35.13667    19.568862   0.11815174   -10.402435            0   -3151.7402   -3151.7402    33084.977    28.280895    24.641078    47.476421      960 
     291            0    9.0604723   0.10234189     14.19503   -11.845097    24.831484    19.568023   0.12088872   -5.6939395            0   -3151.7402   -3151.7402    33084.977    28.280895    24.641078    47.476421      960 
     292            0     2.132065   0.10915804    9.0837093   -16.953817    14.266303    19.565713   0.12289974   -2.3234012            0   -3151.7402   -3151.7402    33084.977    28.280895    24.641078    47.476421      960 
     293            0   -2.3152372   0.11598086    5.8258097   -20.434257     7.662736     19.56315   0.12208947  -0.85405936            0   -3151.7402   -3151.7402    33084.977    28.280895    24.641078    47.476421      960 
     294            0   -4.0132582   0.12279987     4.573516   -21.896872    5.2835809    19.561544   0.11938488  -0.46654008            0   -3151.7402   -3151.7402    33084.977    28.280895    24.641078    47.476421      960 
     295            0   -5.1357186   0.12962794    3.7742213   -22.973214    3.7918374    19.558187   0.11871744  -0.28738568            0   -3151.7402   -3151.7402    33084.977    28.280895    24.641078    47.476421      960 
     296            0   -5.8399947   0.13644695    3.2964197   -23.714151    2.8977469    19.555548   0.11941635  -0.18164397            0   -3151.7402   -3151.7402    33084.977    28.280895    24.641078    47.476421      960 
     297            0   -6.2464152   0.14327002    3.0227956   -24.094196    2.3321549    19.554739   0.11923662 -0.039426487            0   -3151.7402   -3151.7402    33084.977    28.280895    24.641078    47.476421      960 
     298            0    -6.620515   0.15010786     2.746436   -24.376538    1.7685565    19.554346   0.12030772  0.032793496            0   -3151.7402   -3151.7402    33084.977    28.280895    24.641078    47.476421      960 
     299            0   -7.0396067   0.15692091    2.4463785    -24.70738    1.1421814    19.554493   0.12258517  0.035867952            0   -3151.7402   -3151.7402    33084.977    28.280895    24.641078    47.476421      960 
     300            0    -7.276944   0.16374397    2.2482149   -24.909283   0.83023571    19.554708   0.12460488  0.050888915            0   -3151.7402   -3151.7402    33084.977    28.280895    24.641078    47.476421      960 
     301            0    -7.531849   0.17057085    2.0347858   -25.128741   0.49840834    19.554236   0.12715286  0.027483255            0   -3151.7402   -3151.7402    33084.977    28.280895    24.641078    47.476421      960 
     302            0   -7.7824045   0.17738605    1.8439509   -25.367245   0.17608054    19.553464   0.13037711 0.0025930751            0   -3151.7402   -3151.7402    33084.977    28.280895    24.641078    47.476421      960 
     303            0   -7.8711392   0.18420386    1.7723769   -25.445743  0.059948584    19.552855    0.1324499  -0.01031232            0   -3151.7402   -3151.7402    33084.977    28.280895    24.641078    47.476421      960 
     304            0   -7.9010321   0.19102597    1.7411624   -25.465932  0.021673222    19.552175   0.13484435 -0.026759257            0   -3151.7402   -3151.7402    33084.977    28.280895    24.641078    47.476421      960 
     305            0   -7.9465324   0.19784093      1.70764   -25.502584 -0.044652739    19.551348   0.13846751 -0.030352028            0   -3151.7402   -3151.7402    33084.977    28.280895    24.641078    47.476421      960 
     306            0   -8.0295567   0.20467591     1.652368   -25.562604  -0.17843389    19.549053   0.14837517  -0.02340157            0   -3151.7402   -3151.7402    33084.977    28.280895    24.641078    47.476421      960 
     307            0    -8.159303   0.21149898    1.5713913   -25.675415  -0.37388563     19.54298   0.17937861  0.063325785            0   -3151.7402   -3151.7402    33084.977    28.280895    24.641078    47.476421      960 
     308            0   -8.4184033     0.218328    1.4195111    -25.90146  -0.77326054    19.530081   0.25106626   0.14914999            0   -3151.7402   -3151.7402    33084.977    28.280895    24.641078    47.476421      960 
     309            0   -9.8958131    0.2217629   0.54892424   -27.158598   -3.0777656    19.455564   0.67931443   0.55369941            0   -3151.7402   -3151.7402    33084.977    28.280895    24.641078    47.476421      960 
     310            0   -15.607478   0.22521186   -2.8486609   -31.890951   -12.082823    19.144651    2.4817653    2.0432843            0   -3151.7402   -3151.7402    33084.977    28.280895    24.641078    47.476421      960 
     311            0   -21.085529   0.22865796   -6.0135811   -36.379114   -20.863892    18.834235    4.3013417    3.4693417            0   -3151.7403   -3151.7403    33084.977    28.280895    24.641078    47.476421      960 
     312            0   -26.184134   0.23210287   -8.8979986   -40.479646   -29.174757    18.524876    6.1334005    4.7440839            0   -3151.7404   -3151.7404    33084.977    28.280895    24.641078    47.476421      960 
     313            0   -30.077251   0.23555398   -11.185393   -43.345238   -35.701121     18.22184    7.9866754    5.3600987            0   -3151.7407   -3151.7407    33084.977    28.280895    24.641078    47.476421      960 
     314            0   -28.966118   0.23899984    -10.57855   -40.967792   -35.352011    17.959955    10.010431    2.5908344            0   -3151.7412   -3151.7412    33084.977    28.280895    24.641078    47.476421      960 
     315            0    -22.06244   0.24244785   -7.0817444   -34.497548   -24.608027    17.654583    12.162817    1.0653238            0   -3151.7416   -3151.7416    33084.977    28.280895    24.641078    47.476421      960 
     316            0   -16.123342    0.2458899    -3.457397   -28.953226   -15.959403    17.387614    14.285247   -0.1677621            0    -3151.742    -3151.742    33084.977    28.280895    24.641078    47.476421      960 
     317            0   -12.531721   0.24934006 -0.074972924    -25.52205    -11.99814    17.190985    16.346631   -1.1049053            0   -3151.7429   -3151.7429    33084.977    28.280895    24.641078    47.476421      960 
     318            0   -14.124422   0.25618005 -0.055615486   -26.952448   -15.365203    17.221026    16.496946   -1.1202052            0   -3151.7431   -3151.7431    33084.977    28.280895    24.641078    47.476421      960 
     319            0   -11.839278   0.26302695    3.0417013   -25.600137   -12.959399    17.174818     17.55102    1.8233393            0   -3151.7434   -3151.7434    33084.977    28.280895    24.641078    47.476421      960 
     320            0   -4.5452444   0.26647687    10.544376   -20.258427   -3.9216825    17.015341    20.008634    10.843842            0    -3151.744    -3151.744    33084.977    28.280895    24.641078    47.476421      960 
     321            0  -0.37626482   0.26993394    15.421908   -15.581507  -0.96919537    16.697292    22.760149    13.156822            0   -3151.7446   -3151.7446    33084.977    28.280895    24.641078    47.476421      960 
     322            0    2.2015607   0.27338696     19.06096    -11.94106  -0.51521836    16.440022    25.416738    13.763023            0   -3151.7455   -3151.7455    33084.977    28.280895    24.641078    47.476421      960 
     323            0    4.1169926   0.28023291      19.8293   -10.053234    2.5749116    16.420426    25.718276    12.103841            0    -3151.746    -3151.746    33084.977    28.280895    24.641078    47.476421      960 
     324            0    7.8722163   0.28708291    21.244218   -5.4470925    7.8195231    16.222675    26.987314     3.834209            0   -3151.7468   -3151.7468    33084.977    28.280895    24.641078    47.476421      960 
     325            0     7.808155   0.29393888    21.573318   -4.3760314    6.2271782    16.245452    28.897524   -2.2379225            0   -3151.7476   -3151.7476    33084.977    28.280895    24.641078    47.476421      960 
     326            0    9.1192118   0.30078602     23.42755   -1.3127935    5.2428789    16.265033    31.005794   -5.8500614            0   -3151.7483   -3151.7483    33084.977    28.280895    24.641078    47.476421      960 
     327            0    10.061012   0.30423689    26.077214    1.4847221    2.6211015    16.323634    32.952769   -7.0327971            0   -3151.7493   -3151.7493    33084.977    28.280895    24.641078    47.476421      960 
     328            0    10.417777   0.31108904     27.31231   0.92407218    3.0169497    16.300813    32.964207   -3.2376725            0     -3151.75     -3151.75    33084.977    28.280895    24.641078    47.476421      960 
     329            0    13.905403   0.31793284    31.165381      3.02221     7.528617    16.078649    33.868202    2.7818454            0    -3151.751    -3151.751    33084.977    28.280895    24.641078    47.476421      960 
     330            0    13.627645   0.32138801     34.36536    3.9625114    2.5550622    16.174221    36.147286    8.5434347            0   -3151.7522   -3151.7522    33084.977    28.280895    24.641078    47.476421      960 
     331            0    12.140612   0.32484102     36.38449    4.6439357   -4.6065887    16.188981    38.645326     10.07639            0   -3151.7532   -3151.7532    33084.977    28.280895    24.641078    47.476421      960 
     332            0    11.964995   0.32829404     38.64496     6.123418   -8.8733925    16.128366    40.481762    10.877851            0   -3151.7545   -3151.7545    33084.977    28.280895    24.641078    47.476421      960 
     333            0    18.210255   0.33515096    42.549272    11.542178   0.53931602    16.085573    40.551112    11.461291            0   -3151.7556   -3151.7556    33084.977    28.280895    24.641078    47.476421      960 
     334            0    25.372641   0.33861995    47.731019    19.045636    9.3412688    16.152309    41.541279    7.5750757            0   -3151.7569   -3151.7569    33084.977    28.280895    24.641078    47.476421      960 
     335            0    22.817136   0.34208202    48.938509    19.152292    0.3606071    16.904391    43.446078    2.3716071            0   -3151.7585   -3151.7585    33084.977    28.280895    24.641078    47.476421      960 
     336            0    24.894897   0.34893203    52.482535    23.901313   -1.6991578    17.131699    44.835116   -1.1071294            0   -3151.7595   -3151.7595    33084.977    28.280895    24.641078    47.476421      960 
     337            0    27.966547   0.35239196    57.218454     28.69184   -2.0106517    17.345186    45.687845   -1.4385678            0   -3151.7607   -3151.7607    33084.977    28.280895    24.641078    47.476421      960 
     338            0    29.678354   0.35927987    59.991294    28.966038  0.077729211    17.503337    45.535148    1.8432001            0   -3151.7618   -3151.7618    33084.977    28.280895    24.641078    47.476421      960 
     339            0    36.120726   0.36614585    66.729118    33.294716    8.3383437    17.580831    45.637979    5.2554615            0   -3151.7628   -3151.7628    33084.977    28.280895    24.641078    47.476421      960 
     340            0    39.249179   0.36959887    71.916612    38.031153    7.7997717    18.132702    46.416208    6.1060528            0   -3151.7642   -3151.7642    33084.977    28.280895    24.641078    47.476421      960 
     341            0     36.61056   0.37305903      74.1365     39.01408   -3.3188992    19.037916    47.752169    5.0173553            0   -3151.7657   -3151.7657    33084.977    28.280895    24.641078    47.476421      960 
[...]

MPI task timing breakdown:
Section |  min time  |  avg time  |  max time  |%varavg| %total
---------------------------------------------------------------
Pair    | 0.4622     | 0.4622     | 0.4622     |   0.0 | 98.52
Neigh   | 0          | 0          | 0          |   0.0 |  0.00
Comm    | 0.001596   | 0.001596   | 0.001596   |   0.0 |  0.34
Output  | 0.0021131  | 0.0021131  | 0.0021131  |   0.0 |  0.45
Modify  | 0          | 0          | 0          |   0.0 |  0.00
Other   |            | 0.00325    |            |       |  0.69

Nlocal:    960 ave 960 max 960 min
Histogram: 1 0 0 0 0 0 0 0 0 0
Nghost:    1489 ave 1489 max 1489 min
Histogram: 1 0 0 0 0 0 0 0 0 0
Neighs:    55400 ave 55400 max 55400 min
Histogram: 1 0 0 0 0 0 0 0 0 0

Total # of neighbors = 55400
Ave neighs/atom = 57.7083
Neighbor list builds = 0
Dangerous builds = 0
Reading restart file ...
  restart file = 13 Jan 2016, LAMMPS = 13 Jan 2016
  triclinic box = (0.178465 0.162399 -0.045301) to (28.4594 24.8035 47.4311) with tilt (5.65305 0 0)
  1 by 1 by 1 MPI processor grid
  960 atoms
Changing box ...
  triclinic box = (0.178465 0.162399 -0.045301) to (28.4594 24.8035 47.4311) with tilt (5.65308 0 0)
Neighbor list info ...
  1 neighbor list requests
  update every 1 steps, delay 0 steps, check yes
  max neighbors/atom: 2000, page size: 100000
  master list distance cutoff = 7.72488
  ghost atom cutoff = 7.72488
Setting up cg style minimization ...
  Unit style: metal
Memory usage per processor = 3.38623 Mbytes
Step Temp Press CPU Pxx Pyy Pzz Pxy Pxz Pyz KinEng PotEng TotEng Volume Lx Ly Lz Atoms 
     489            0    62.750344            0    119.03333    69.217114 0.00058575364    25.511691 -0.0023506138 0.00053161555            0   -3151.7724   -3151.7724    33084.977    28.280895    24.641078    47.476421      960 
     490            0    62.750182 0.0068459511    119.03308     69.21718 0.0002899908     25.51497 -0.0018281036 0.00059795253            0   -3151.7724   -3151.7724    33084.977    28.280895    24.641078    47.476421      960 
     491            0    62.750016  0.013701916    119.03293    69.217234 -0.00011976685    25.516433 -0.0016163724 0.00030335726            0   -3151.7724   -3151.7724    33084.977    28.280895    24.641078    47.476421      960 
     492            0    62.750151  0.020545959    119.03297     69.21724 0.00024688656     25.51708 -0.0013943038 0.00041674429            0   -3151.7724   -3151.7724    33084.977    28.280895    24.641078    47.476421      960 
     493            0    62.750137  0.027395964    119.03293    69.217209 0.00027120501    25.517373 -0.0011992819 0.0003779173            0   -3151.7724   -3151.7724    33084.977    28.280895    24.641078    47.476421      960 
     494            0    62.750089  0.034242868    119.03292    69.217218 0.00012612296    25.517522 -0.0010644701 0.00039480091            0   -3151.7724   -3151.7724    33084.977    28.280895    24.641078    47.476421      960 
     495            0    62.750091  0.041093826    119.03293    69.217254 8.6578078e-05     25.51759 -0.00095316257 0.00034165028            0   -3151.7724   -3151.7724    33084.977    28.280895    24.641078    47.476421      960 
     496            0    62.750111   0.04793787    119.03297    69.217274 8.6619682e-05    25.517624 -0.00090119418 0.00029845122            0   -3151.7724   -3151.7724    33084.977    28.280895    24.641078    47.476421      960 
     497            0    62.750141   0.05479002      119.033    69.217302 0.00012111714     25.51764 -0.00086845761 0.00027010714            0   -3151.7724   -3151.7724    33084.977    28.280895    24.641078    47.476421      960 
     498            0    62.750177  0.061643839    119.03304    69.217351 0.00013501432    25.517651 -0.00083094513 0.0002541683            0   -3151.7724   -3151.7724    33084.977    28.280895    24.641078    47.476421      960 
     499            0    62.750201  0.068487883     119.0331    69.217373 0.00012609891    25.517666 -0.00073092898 0.00023772722            0   -3151.7724   -3151.7724    33084.977    28.280895    24.641078    47.476421      960 
     500            0    62.750189  0.075337887    119.03316    69.217383 2.8498389e-05     25.51768 -0.00061574551 0.0001837069            0   -3151.7724   -3151.7724    33084.977    28.280895    24.641078    47.476421      960 
     501            0    62.750207  0.082185984    119.03322    69.217421 -1.9713669e-05    25.517694 -0.00048758068 0.00015097018            0   -3151.7724   -3151.7724    33084.977    28.280895    24.641078    47.476421      960 
     502            0    62.750259  0.089032888    119.03329    69.217481 1.1309499e-05    25.517703 -0.00039872336 0.00013803257            0   -3151.7724   -3151.7724    33084.977    28.280895    24.641078    47.476421      960 
     503            0     62.75027  0.095880032    119.03332    69.217497 -3.7704407e-06    25.517708 -0.00035049542 0.00013130802            0   -3151.7724   -3151.7724    33084.977    28.280895    24.641078    47.476421      960 
     504            0    62.750266   0.10273099    119.03333      69.2175 -2.7300973e-05     25.51771 -0.00033690008 0.00012459676            0   -3151.7724   -3151.7724    33084.977    28.280895    24.641078    47.476421      960 
     505            0    62.750273   0.10958385    119.03333    69.217508 -2.3411856e-05    25.517711 -0.0003388985 0.00011796431            0   -3151.7724   -3151.7724    33084.977    28.280895    24.641078    47.476421      960 
     506            0    62.750281   0.11642885    119.03334    69.217508 -5.835738e-06    25.517712 -0.00033679944 0.00012495112            0   -3151.7724   -3151.7724    33084.977    28.280895    24.641078    47.476421      960 
     507            0    62.750279    0.1232779    119.03334    69.217501 -5.5092485e-06    25.517713 -0.00032987639 0.00011858943            0   -3151.7724   -3151.7724    33084.977    28.280895    24.641078    47.476421      960 
     508            0    62.750275     0.130126    119.03334    69.217493 -9.8769705e-06    25.517713 -0.00032024241 0.00011133283            0   -3151.7724   -3151.7724    33084.977    28.280895    24.641078    47.476421      960 
     509            0    62.750269   0.13697481    119.03334    69.217482 -1.1527525e-05    25.517714 -0.00030502252 0.00010707347            0   -3151.7724   -3151.7724    33084.977    28.280895    24.641078    47.476421      960 
     510            0    62.750262   0.14382195    119.03333    69.217468 -1.3036955e-05    25.517714 -0.00028694086 9.822943e-05            0   -3151.7724   -3151.7724    33084.977    28.280895    24.641078    47.476421      960 
     511            0    62.750262   0.15067387    119.03333    69.217464 -1.1499042e-05    25.517715 -0.00026578368 8.7327455e-05            0   -3151.7724   -3151.7724    33084.977    28.280895    24.641078    47.476421      960 
     512            0    62.750266   0.15753484    119.03333    69.217469 -4.1027448e-06    25.517715 -0.00024024571 7.6182524e-05            0   -3151.7724   -3151.7724    33084.977    28.280895    24.641078    47.476421      960 
     513            0    62.750268   0.16437793    119.03333    69.217474 -1.5087592e-07    25.517715 -0.00021360773 6.2193385e-05            0   -3151.7724   -3151.7724    33084.977    28.280895    24.641078    47.476421      960 
     514            0     62.75027   0.17122984    119.03333     69.21748 2.2265715e-06    25.517715 -0.00018015876 4.5285426e-05            0   -3151.7724   -3151.7724    33084.977    28.280895    24.641078    47.476421      960 
     515            0     62.75027   0.17807698    119.03333    69.217487 -3.4996444e-06    25.517716 -0.0001410878 2.6862208e-05            0   -3151.7724   -3151.7724    33084.977    28.280895    24.641078    47.476421      960 
     516            0    62.750271   0.18492389    119.03332    69.217489 -1.2723438e-06    25.517716 -0.00010972625 1.6902206e-05            0   -3151.7724   -3151.7724    33084.977    28.280895    24.641078    47.476421      960 
     517            0    62.750268   0.19177198    119.03332    69.217488 -5.0287674e-06    25.517716 -9.0923113e-05 1.2125099e-05            0   -3151.7724   -3151.7724    33084.977    28.280895    24.641078    47.476421      960 
     518            0    62.750266    0.1986239    119.03332    69.217485 -6.2946772e-06    25.517716 -7.7937483e-05 1.0086289e-05            0   -3151.7724   -3151.7724    33084.977    28.280895    24.641078    47.476421      960 
     519            0    62.750267   0.20547485    119.03332    69.217486 -5.343319e-06    25.517716 -7.2236072e-05 8.8229135e-06            0   -3151.7724   -3151.7724    33084.977    28.280895    24.641078    47.476421      960 
     520            0    62.750268    0.2123189    119.03332    69.217488 -4.8946679e-06    25.517716 -6.6874899e-05 6.7526284e-06            0   -3151.7724   -3151.7724    33084.977    28.280895    24.641078    47.476421      960 
     521            0    62.750268   0.21916795    119.03332    69.217489 -4.3977552e-06    25.517716 -6.2088165e-05 4.9756475e-06            0   -3151.7724   -3151.7724    33084.977    28.280895    24.641078    47.476421      960 
     522            0     62.75027   0.22601581    119.03332     69.21749 -1.5379485e-06    25.517716 -5.8425971e-05 5.5661027e-06            0   -3151.7724   -3151.7724    33084.977    28.280895    24.641078    47.476421      960 
     523            0     62.75027    0.2328639    119.03332    69.217491 -4.4430626e-07    25.517716 -5.4484543e-05 3.8931275e-06            0   -3151.7724   -3151.7724    33084.977    28.280895    24.641078    47.476421      960 
     524            0    62.750269   0.23970985    119.03332     69.21749 -1.8278757e-06    25.517716 -5.0746666e-05 2.2583058e-06            0   -3151.7724   -3151.7724    33084.977    28.280895    24.641078    47.476421      960 
     525            0    62.750269   0.24656296    119.03332    69.217489 -1.9877596e-06    25.517716 -4.6652958e-05 1.0294918e-06            0   -3151.7724   -3151.7724    33084.977    28.280895    24.641078    47.476421      960 
     526            0     62.75027   0.25341296    119.03332     69.21749 1.6283011e-07    25.517716 -4.1854176e-05 5.6796171e-07            0   -3151.7724   -3151.7724    33084.977    28.280895    24.641078    47.476421      960 
     527            0     62.75027   0.26025701    119.03332     69.21749 6.6237191e-07    25.517716 -3.6068494e-05 -6.5970406e-07            0   -3151.7724   -3151.7724    33084.977    28.280895    24.641078    47.476421      960 
     528            0    62.750271   0.26710701    119.03332    69.217489 1.5595898e-06    25.517716 -2.8741731e-05 -1.5658234e-06            0   -3151.7724   -3151.7724    33084.977    28.280895    24.641078    47.476421      960 
     529            0    62.750272   0.27395892    119.03332     69.21749 2.8680926e-06    25.517716 -2.0926828e-05 -2.4858336e-06            0   -3151.7724   -3151.7724    33084.977    28.280895    24.641078    47.476421      960 
     530            0    62.750271    0.2808249    119.03332     69.21749 2.2741999e-06    25.517716 -1.5392753e-05 -2.904004e-06            0   -3151.7724   -3151.7724    33084.977    28.280895    24.641078    47.476421      960 
     531            0    62.750271     0.287673    119.03332     69.21749 2.4469905e-06    25.517716 -1.0719525e-05 -3.3034631e-06            0   -3151.7724   -3151.7724    33084.977    28.280895    24.641078    47.476421      960 
     532            0    62.750271   0.29452586    119.03332     69.21749 1.9475507e-06    25.517716 -6.9694772e-06 -2.95229e-06            0   -3151.7724   -3151.7724    33084.977    28.280895    24.641078    47.476421      960 
     533            0    62.750271   0.30137682    119.03332    69.217489 1.0362034e-06    25.517716 -4.0827757e-06 -2.4684728e-06            0   -3151.7724   -3151.7724    33084.977    28.280895    24.641078    47.476421      960 
     534            0     62.75027   0.30821991    119.03332    69.217489 3.6314749e-07    25.517716 -2.3861225e-06 -2.0930986e-06            0   -3151.7724   -3151.7724    33084.977    28.280895    24.641078    47.476421      960 
     535            0     62.75027   0.31507492    119.03332    69.217489 5.6043924e-07    25.517716 -1.3227015e-06 -1.5099187e-06            0   -3151.7724   -3151.7724    33084.977    28.280895    24.641078    47.476421      960 
     536            0     62.75027   0.32192087    119.03332     69.21749 5.1546252e-07    25.517716 -8.2748027e-07 -1.5555254e-06            0   -3151.7724   -3151.7724    33084.977    28.280895    24.641078    47.476421      960 
     537            0     62.75027   0.32877398    119.03332     69.21749 4.8286226e-07    25.517716 -5.5509247e-07 -1.4960232e-06            0   -3151.7724   -3151.7724    33084.977    28.280895    24.641078    47.476421      960 
     538            0     62.75027   0.33561897    119.03332     69.21749 3.2969298e-07    25.517716 -3.6458383e-07 -1.5839887e-06            0   -3151.7724   -3151.7724    33084.977    28.280895    24.641078    47.476421      960 
     539            0     62.75027   0.34247494    119.03332    69.217489 2.1088475e-07    25.517716 -2.8856201e-07 -1.6161696e-06            0   -3151.7724   -3151.7724    33084.977    28.280895    24.641078    47.476421      960 
     540            0     62.75027   0.34932494    119.03332    69.217489 1.0727593e-07    25.517716 -2.8662344e-07 -1.6355523e-06            0   -3151.7724   -3151.7724    33084.977    28.280895    24.641078    47.476421      960 
     541            0     62.75027   0.35616994    119.03332     69.21749 8.1205676e-08    25.517716 -2.9124303e-07 -1.6575726e-06            0   -3151.7724   -3151.7724    33084.977    28.280895    24.641078    47.476421      960 
     542            0     62.75027    0.3630209    119.03332     69.21749 6.8842352e-08    25.517716 -3.0004043e-07 -1.6503443e-06            0   -3151.7724   -3151.7724    33084.977    28.280895    24.641078    47.476421      960 
     543            0     62.75027   0.36986589    119.03332     69.21749 8.3195543e-08    25.517716 -3.0203443e-07 -1.6168895e-06            0   -3151.7724   -3151.7724    33084.977    28.280895    24.641078    47.476421      960 
     544            0     62.75027   0.37671494    119.03332     69.21749 1.0071709e-07    25.517716 -2.9186652e-07 -1.5334202e-06            0   -3151.7724   -3151.7724    33084.977    28.280895    24.641078    47.476421      960 
     545            0     62.75027    0.3835609    119.03332     69.21749 9.8545795e-08    25.517716 -2.5838647e-07 -1.4040418e-06            0   -3151.7724   -3151.7724    33084.977    28.280895    24.641078    47.476421      960 
     546            0     62.75027     0.390414    119.03332     69.21749 8.6341821e-08    25.517716 -2.1723284e-07 -1.2813609e-06            0   -3151.7724   -3151.7724    33084.977    28.280895    24.641078    47.476421      960 
     547            0     62.75027   0.39727187    119.03332    69.217489 5.5342215e-08    25.517716 -1.722766e-07 -1.1370558e-06            0   -3151.7724   -3151.7724    33084.977    28.280895    24.641078    47.476421      960 
     548            0     62.75027   0.40411592    119.03332    69.217489 2.1082023e-08    25.517716 -1.3363714e-07 -9.7154946e-07            0   -3151.7724   -3151.7724    33084.977    28.280895    24.641078    47.476421      960 
     549            0     62.75027   0.41096497    119.03332    69.217489 -3.3929135e-09    25.517716 -1.0109912e-07 -8.2864116e-07            0   -3151.7724   -3151.7724    33084.977    28.280895    24.641078    47.476421      960 
     550            0     62.75027   0.41781282    119.03332    69.217489 -1.8579529e-08    25.517716 -7.1844065e-08 -6.7040992e-07            0   -3151.7724   -3151.7724    33084.977    28.280895    24.641078    47.476421      960 
     551            0     62.75027   0.42466092    119.03332    69.217489 -3.3473057e-09    25.517716 -5.4386824e-08 -5.1519429e-07            0   -3151.7724   -3151.7724    33084.977    28.280895    24.641078    47.476421      960 
     552            0     62.75027   0.43150902    119.03332    69.217489 1.8445448e-08    25.517716 -3.8456921e-08 -3.8872889e-07            0   -3151.7724   -3151.7724    33084.977    28.280895    24.641078    47.476421      960 
     553            0     62.75027   0.43835902    119.03332    69.217489 1.5154546e-08    25.517716 -2.5968246e-08 -2.7049414e-07            0   -3151.7724   -3151.7724    33084.977    28.280895    24.641078    47.476421      960 
     554            0     62.75027   0.44521189    119.03332    69.217489 7.1177915e-09    25.517716 -1.1872118e-08 -1.4690319e-07            0   -3151.7724   -3151.7724    33084.977    28.280895    24.641078    47.476421      960 
     555            0     62.75027   0.45205402    119.03332    69.217489 7.0904204e-09    25.517716 -4.3897033e-09 -6.8939014e-08            0   -3151.7724   -3151.7724    33084.977    28.280895    24.641078    47.476421      960 
     556            0     62.75027   0.45890403    119.03332    69.217489 3.8664487e-09    25.517716 -2.6322371e-09 -3.141983e-08            0   -3151.7724   -3151.7724    33084.977    28.280895    24.641078    47.476421      960 
     557            0     62.75027   0.46913886    119.03332    69.217489 -1.1029047e-09    25.517716 7.8362718e-11 -1.5430723e-08            0   -3151.7724   -3151.7724    33084.977    28.280895    24.641078    47.476421      960 
Loop time of 0.469157 on 1 procs for 68 steps with 960 atoms

100.6% CPU use with 1 MPI tasks x no OpenMP threads

Minimization stats:
  Stopping criterion = force tolerance
  Energy initial, next-to-last, final = 
         -3151.7724448      -3151.7724448      -3151.7724448
  Force two-norm initial, final = 1.69679e-05 8.52355e-11
  Force max component initial, final = 1.73843e-06 4.95684e-12
  Final line search alpha, max atom move = 1 4.95684e-12
  Iterations, force evaluations = 68 136

MPI task timing breakdown:
Section |  min time  |  avg time  |  max time  |%varavg| %total
---------------------------------------------------------------
Pair    | 0.46219    | 0.46219    | 0.46219    |   0.0 | 98.52
Neigh   | 0          | 0          | 0          |   0.0 |  0.00
Comm    | 0.0015781  | 0.0015781  | 0.0015781  |   0.0 |  0.34
Output  | 0.002125   | 0.002125   | 0.002125   |   0.0 |  0.45
Modify  | 0          | 0          | 0          |   0.0 |  0.00
Other   |            | 0.003259   |            |       |  0.69

Nlocal:    960 ave 960 max 960 min
Histogram: 1 0 0 0 0 0 0 0 0 0
Nghost:    1489 ave 1489 max 1489 min
Histogram: 1 0 0 0 0 0 0 0 0 0
Neighs:    55400 ave 55400 max 55400 min
Histogram: 1 0 0 0 0 0 0 0 0 0

Total # of neighbors = 55400
Ave neighs/atom = 57.7083
Neighbor list builds = 0
Dangerous builds = 0
Elastic Constant C11all = 48.5885604595996 GPa
Elastic Constant C22all = 41.8096326811947 GPa
Elastic Constant C33all = 6.50550191494403e-09 GPa
Elastic Constant C12all = 15.5310836094277 GPa
Elastic Constant C13all = 0.00595128883665552 GPa
Elastic Constant C23all = 0.00346050345716264 GPa
Elastic Constant C44all = 5.4997144616209e-09 GPa
Elastic Constant C55all = -4.20385459776185e-09 GPa
Elastic Constant C66all = 15.381899990655 GPa
Elastic Constant C14all = 5.21349647897297e-07 GPa
Elastic Constant C15all = 4.09035943849112e-06 GPa
Elastic Constant C16all = -1.79157805690752 GPa
Elastic Constant C24all = -6.64662593408138e-07 GPa
Elastic Constant C25all = 4.72875390222782e-06 GPa
Elastic Constant C26all = -0.0379897096899242 GPa
Elastic Constant C34all = 8.13394073873041e-07 GPa
Elastic Constant C35all = 1.96769781266593e-05 GPa
Elastic Constant C36all = 0.00128366820273129 GPa
Elastic Constant C45all = 5.83105362217398e-07 GPa
Elastic Constant C46all = 6.92212410058347e-07 GPa
Elastic Constant C56all = 1.01110062544763e-07 GPa
Total wall time: 0:00:09
