    2    2    1    1
  0.2044415E+02  0.3866974E-09  0.3866975E-09  0.3866975E-09  0.5000000E-15
  1.000000000000000E-004
  CAR 
 unknown system                          
    8    4    8
 
  0.0000000E+00  0.0000000E+00  0.0000000E+00  0.3703704E-01
   1       -6.067554
   2        5.693746
   3        5.693746
   4        5.693748
   5        8.280273
   6        8.280276
   7        8.280277
   8        8.938202
 
  0.3333333E+00  0.4163336E-16  0.0000000E+00  0.2962963E+00
   1       -4.716395
   2        0.460034
   3        4.720923
   4        4.720925
   5        7.441004
   6        9.215677
   7        9.215680
   8       13.497440
 
  0.3333333E+00  0.3333333E+00  0.0000000E+00  0.2222222E+00
   1       -4.197392
   2        0.754090
   3        3.340539
   4        3.340539
   5        6.474829
   6        7.730548
   7       12.879804
   8       12.879804
 
 -0.3333333E+00  0.3333333E+00  0.0000000E+00  0.4444444E+00
   1       -2.867177
   2       -0.969114
   3        1.397418
   4        3.638286
   5        7.302594
   6       11.462195
   7       12.132379
   8       12.684134
