    2    2    1    1
  0.2072484E+02  0.3884592E-09  0.3884592E-09  0.3884592E-09  0.5000000E-15
   1.0000000000000000E-004
  CAR 
 unknown system                          
      8      4     16

  0.3742002E-15  0.3742002E-15  0.3742002E-15  0.3703704E-01
    1       -6.112439   1.000000
    2        5.558263   0.996638
    3        5.558263   0.996638
    4        5.558263   0.996638
    5        8.137938   0.000000
    6        8.137938   0.000000
    7        8.137938   0.000000
    8        8.646024   0.000000
    9       13.263372   0.000000
   10       13.263372   0.000000
   11       13.391211   0.000000
   12       16.681386   0.000000
   13       16.681386   0.000000
   14       16.681386   0.000000
   15       20.781039   0.000000
   16       28.250023   0.000000

  0.3333333E+00  0.3608225E-15  0.3608225E-15  0.2962963E+00
    1       -4.778386   1.000000
    2        0.362680   1.000000
    3        4.595788   1.000000
    4        4.595788   1.000000
    5        7.256107   0.000000
    6        9.075878   0.000000
    7        9.075878   0.000000
    8       13.297804   0.000000
    9       13.487806   0.000000
   10       13.487806   0.000000
   11       14.467581   0.000000
   12       18.889595   0.000000
   13       19.933760   0.000000
   14       19.933760   0.000000
   15       21.966068   0.000000
   16       22.951144   0.000000

  0.3333333E+00  0.3333333E+00  0.3742002E-15  0.2222222E+00
    1       -4.264374   1.000000
    2        0.628957   1.000000
    3        3.235288   1.000000
    4        3.235288   1.000000
    5        6.356276   0.001681
    6        7.610772   0.000000
    7       12.684165   0.000000
    8       12.684165   0.000000
    9       15.053562   0.000000
   10       15.359697   0.000000
   11       18.388270   0.000000
   12       18.826195   0.000000
   13       18.826195   0.000000
   14       20.514939   0.000000
   15       21.526630   0.000000
   16       21.679384   0.000000

 -0.3333333E+00  0.3333333E+00  0.3885781E-15  0.4444444E+00
    1       -2.955111   1.000000
    2       -1.071221   1.000000
    3        1.323994   1.000000
    4        3.528236   1.000000
    5        7.177131   0.000000
    6       11.310952   0.000000
    7       11.949381   0.000000
    8       12.476716   0.000000
    9       12.806520   0.000000
   10       13.177562   0.000000
   11       19.732540   0.000000
   12       20.266948   0.000000
   13       20.857687   0.000000
   14       21.039952   0.000000
   15       21.864727   0.000000
   16       22.750911   0.000000
