 vasp.5.4.1 24Jun15 (build Feb  9 2019 14:16:27) complex                         
 executed on           IFC91_ompi date 2020.09.26  22:24:57
 running on   16 total cores
 distrk:  each k-point on   16 cores,    1 groups
 distr:  one band on NCORES_PER_BAND=   1 cores,   16 groups


--------------------------------------------------------------------------------------------------------


 INCAR:
 POTCAR:    PAW_PBE Si 05Jan2001                  

 ----------------------------------------------------------------------------- 
|                                                                             |
|           W    W    AA    RRRRR   N    N  II  N    N   GGGG   !!!           |
|           W    W   A  A   R    R  NN   N  II  NN   N  G    G  !!!           |
|           W    W  A    A  R    R  N N  N  II  N N  N  G       !!!           |
|           W WW W  AAAAAA  RRRRR   N  N N  II  N  N N  G  GGG   !            |
|           WW  WW  A    A  R   R   N   NN  II  N   NN  G    G                |
|           W    W  A    A  R    R  N    N  II  N    N   GGGG   !!!           |
|                                                                             |
|      For optimal performance we recommend to set                            |
|        NCORE= 4 - approx SQRT( number of cores)                             |
|      NCORE specifies how many cores store one orbital (NPAR=cpu/NCORE).     |
|      This setting can  greatly improve the performance of VASP for DFT.     |
|      The default, NPAR=number of cores might be grossly inefficient         |
|      on modern multi-core architectures or massively parallel machines.     |
|      Do your own testing !!!!                                               |
|      Unfortunately you need to use the default for GW and RPA calculations. |
|      (for HF NCORE is supported but not extensively tested yet)             |
|                                                                             |
 ----------------------------------------------------------------------------- 


 ----------------------------------------------------------------------------- 
|                                                                             |
|  ADVICE TO THIS USER RUNNING 'VASP/VAMP'   (HEAR YOUR MASTER'S VOICE ...):  |
|                                                                             |
|      You have switched on vdW-DFT.                                          |
|      This routine was written and supplied by Jiri Klimes.                  |
|      We recommed that you carefully read and cite the following             |
|      publication                                                            |
|      J. Klimes, D.R. Bowler, A. Michelides                                  |
|        J. Phys.: Cond Matt. 22 022201 (2010)                                |
|      J. Klimes, D.R. Bowler, A. Michelides                                  |
|        Phys. Rev. B. 83, 195131 (2011)                                      |
|      and references therein.                                                |
|                                                                             |
 ----------------------------------------------------------------------------- 

 POTCAR:    PAW_PBE Si 05Jan2001                  
   VRHFIN =Si: s2p2                                                             
   LEXCH  = PE                                                                  
   EATOM  =   103.0669 eV,    7.5752 Ry                                         
                                                                                
   TITEL  = PAW_PBE Si 05Jan2001                                                
   LULTRA =        F    use ultrasoft PP ?                                      
   IUNSCR =        1    unscreen: 0-lin 1-nonlin 2-no                           
   RPACOR =    1.500    partial core radius                                     
   POMASS =   28.085; ZVAL   =    4.000    mass and valenz                      
   RCORE  =    1.900    outmost cutoff radius                                   
   RWIGS  =    2.480; RWIGS  =    1.312    wigner-seitz radius (au A)           
   ENMAX  =  245.345; ENMIN  =  184.009 eV                                      
   ICORE  =        2    local potential                                         
   LCOR   =        T    correct aug charges                                     
   LPAW   =        T    paw PP                                                  
   EAUG   =  322.069                                                            
   DEXC   =    0.000                                                            
   RMAX   =    1.950    core radius for proj-oper                               
   RAUG   =    1.300    factor for augmentation sphere                          
   RDEP   =    1.993    radius for radial grids                                 
   RDEPT  =    1.837    core radius for aug-charge                              
                                                                                
   Atomic configuration                                                         
    6 entries                                                                   
     n  l   j            E        occ.                                          
     1  0  0.50     -1785.8828   2.0000                                         
     2  0  0.50      -139.4969   2.0000                                         
     2  1  1.50       -95.5546   6.0000                                         
     3  0  0.50       -10.8127   2.0000                                         
     3  1  0.50        -4.0811   2.0000                                         
     3  2  1.50        -4.0817   0.0000                                         
   Description                                                                  
     l       E           TYP  RCUT    TYP  RCUT                                 
     0    -10.8127223     23  1.900                                             
     0     -7.6451159     23  1.900                                             
     1     -4.0811372     23  1.900                                             
     1      2.4879257     23  1.900                                             
     2     -4.0817478      7  1.900                                             
  local pseudopotential read in
  partial core-charges read in
  partial kinetic energy density read in
  atomic valenz-charges read in
  non local Contribution for L=           0  read in
    real space projection operators read in
  non local Contribution for L=           0  read in
    real space projection operators read in
  non local Contribution for L=           1  read in
    real space projection operators read in
  non local Contribution for L=           1  read in
    real space projection operators read in
    PAW grid and wavefunctions read in

   number of l-projection  operators is LMAX  =           4
   number of lm-projection operators is LMMAX =           8


 ----------------------------------------------------------------------------- 
|                                                                             |
|  ADVICE TO THIS USER RUNNING 'VASP/VAMP'   (HEAR YOUR MASTER'S VOICE ...):  |
|                                                                             |
|      You enforced a specific xc-type in the INCAR file,                     |
|      a different type was found on the POTCAR file                          |
|          I HOPE YOU KNOW, WHAT YOU ARE  DOING                               |
|                                                                             |
 ----------------------------------------------------------------------------- 

  PAW_PBE Si 05Jan2001                  :
 energy of atom  1       EATOM= -103.0669
 kinetic energy error for atom=    0.0002 (will be added to EATOM!!)


 POSCAR: bulk@JVASP-1002                         
  positions in direct lattice
  No initial velocities read in
 exchange correlation table for  LEXCH =       42
   RHO(1)=    0.500       N(1)  =     2000
   RHO(2)=  100.500       N(2)  =     4000



--------------------------------------------------------------------------------------------------------


 ion  position               nearest neighbor table
   1  0.750  0.750  0.750-   2 2.38   2 2.38   2 2.38   2 2.38
   2  0.500  0.500  0.500-   1 2.38   1 2.38   1 2.38   1 2.38

  LATTYP: Found a face centered cubic cell.
 ALAT       =     5.4936422752
  
  Lattice vectors:
  
 A1 = (   0.0000000000,   2.7468211376,   2.7468211376)
 A2 = (   2.7468211376,   0.0000000000,   2.7468211376)
 A3 = (   2.7468211376,   2.7468211376,   0.0000000000)


Analysis of symmetry for initial positions (statically):
=====================================================================
 Subroutine PRICEL returns:
 Original cell was already a primitive cell.
 

 Routine SETGRP: Setting up the symmetry group for a 
 face centered cubic supercell.


 Subroutine GETGRP returns: Found 48 space group operations
 (whereof 24 operations were pure point group operations)
 out of a pool of 48 trial point group operations.


The static configuration has the point symmetry T_d .
 The point group associated with its full space group is O_h .


Analysis of symmetry for dynamics (positions and initial velocities):
=====================================================================
 Subroutine PRICEL returns:
 Original cell was already a primitive cell.
 

 Routine SETGRP: Setting up the symmetry group for a 
 face centered cubic supercell.


 Subroutine GETGRP returns: Found 48 space group operations
 (whereof 24 operations were pure point group operations)
 out of a pool of 48 trial point group operations.


The dynamic configuration has the point symmetry T_d .
 The point group associated with its full space group is O_h .


 KPOINTS: Automatic kpoint scheme                 

Automatic generation of k-mesh.
Space group operators:
 irot       det(A)        alpha          n_x          n_y          n_z        tau_x        tau_y        tau_z
    1     1.000000     0.000000     1.000000     0.000000     0.000000     0.000000     0.000000     0.000000
    2     1.000000   120.000000    -0.577350    -0.577350    -0.577350     0.000000     0.000000     0.000000
    3     1.000000   120.000000     0.577350     0.577350     0.577350     0.000000     0.000000     0.000000
    4    -1.000000    90.000000     0.000000     0.000000    -1.000000     0.000000     0.000000     0.000000
    5    -1.000000   180.000000     0.000000     0.707107     0.707107     0.000000     0.000000     0.000000
    6    -1.000000    90.000000     0.000000     1.000000     0.000000     0.000000     0.000000     0.000000
    7     1.000000   180.000000     0.000000     0.000000     1.000000     0.000000     0.000000     0.000000
    8     1.000000   120.000000    -0.577350     0.577350     0.577350     0.000000     0.000000     0.000000
    9     1.000000   120.000000    -0.577350     0.577350    -0.577350     0.000000     0.000000     0.000000
   10    -1.000000    90.000000     0.000000     0.000000     1.000000     0.000000     0.000000     0.000000
   11    -1.000000    90.000000    -1.000000     0.000000     0.000000     0.000000     0.000000     0.000000
   12    -1.000000   180.000000     0.707107     0.000000     0.707107     0.000000     0.000000     0.000000
   13     1.000000   120.000000     0.577350    -0.577350     0.577350     0.000000     0.000000     0.000000
   14     1.000000   120.000000    -0.577350    -0.577350     0.577350     0.000000     0.000000     0.000000
   15     1.000000   180.000000     1.000000     0.000000     0.000000     0.000000     0.000000     0.000000
   16    -1.000000    90.000000     0.000000    -1.000000     0.000000     0.000000     0.000000     0.000000
   17    -1.000000   180.000000     0.707107     0.707107     0.000000     0.000000     0.000000     0.000000
   18    -1.000000    90.000000     1.000000     0.000000     0.000000     0.000000     0.000000     0.000000
   19     1.000000   120.000000     0.577350    -0.577350    -0.577350     0.000000     0.000000     0.000000
   20     1.000000   180.000000     0.000000     1.000000     0.000000     0.000000     0.000000     0.000000
   21     1.000000   120.000000     0.577350     0.577350    -0.577350     0.000000     0.000000     0.000000
   22    -1.000000   180.000000     0.000000    -0.707107     0.707107     0.000000     0.000000     0.000000
   23    -1.000000   180.000000     0.707107    -0.707107     0.000000     0.000000     0.000000     0.000000
   24    -1.000000   180.000000     0.707107     0.000000    -0.707107     0.000000     0.000000     0.000000
   25    -1.000000     0.000000     1.000000     0.000000     0.000000     0.250000     0.250000     0.250000
   26    -1.000000   120.000000    -0.577350    -0.577350    -0.577350     0.250000     0.250000     0.250000
   27    -1.000000   120.000000     0.577350     0.577350     0.577350     0.250000     0.250000     0.250000
   28     1.000000    90.000000     0.000000     0.000000    -1.000000     0.250000     0.250000     0.250000
   29     1.000000   180.000000     0.000000     0.707107     0.707107     0.250000     0.250000     0.250000
   30     1.000000    90.000000     0.000000     1.000000     0.000000     0.250000     0.250000     0.250000
   31    -1.000000   180.000000     0.000000     0.000000     1.000000     0.250000     0.250000     0.250000
   32    -1.000000   120.000000    -0.577350     0.577350     0.577350     0.250000     0.250000     0.250000
   33    -1.000000   120.000000    -0.577350     0.577350    -0.577350     0.250000     0.250000     0.250000
   34     1.000000    90.000000     0.000000     0.000000     1.000000     0.250000     0.250000     0.250000
   35     1.000000    90.000000    -1.000000     0.000000     0.000000     0.250000     0.250000     0.250000
   36     1.000000   180.000000     0.707107     0.000000     0.707107     0.250000     0.250000     0.250000
   37    -1.000000   120.000000     0.577350    -0.577350     0.577350     0.250000     0.250000     0.250000
   38    -1.000000   120.000000    -0.577350    -0.577350     0.577350     0.250000     0.250000     0.250000
   39    -1.000000   180.000000     1.000000     0.000000     0.000000     0.250000     0.250000     0.250000
   40     1.000000    90.000000     0.000000    -1.000000     0.000000     0.250000     0.250000     0.250000
   41     1.000000   180.000000     0.707107     0.707107     0.000000     0.250000     0.250000     0.250000
   42     1.000000    90.000000     1.000000     0.000000     0.000000     0.250000     0.250000     0.250000
   43    -1.000000   120.000000     0.577350    -0.577350    -0.577350     0.250000     0.250000     0.250000
   44    -1.000000   180.000000     0.000000     1.000000     0.000000     0.250000     0.250000     0.250000
   45    -1.000000   120.000000     0.577350     0.577350    -0.577350     0.250000     0.250000     0.250000
   46     1.000000   180.000000     0.000000    -0.707107     0.707107     0.250000     0.250000     0.250000
   47     1.000000   180.000000     0.707107    -0.707107     0.000000     0.250000     0.250000     0.250000
   48     1.000000   180.000000     0.707107     0.000000    -0.707107     0.250000     0.250000     0.250000
 
 Subroutine IBZKPT returns following result:
 ===========================================
 
 Found      4 irreducible k-points:
 
 Following reciprocal coordinates:
            Coordinates               Weight
  0.000000  0.000000  0.000000      1.000000
  0.333333  0.000000  0.000000      8.000000
  0.333333  0.333333  0.000000      6.000000
 -0.333333  0.333333  0.000000     12.000000
 
 Following cartesian coordinates:
            Coordinates               Weight
  0.000000  0.000000  0.000000      1.000000
 -0.060676  0.060676  0.060676      8.000000
  0.000000  0.000000  0.121352      6.000000
  0.121352 -0.121352  0.000000     12.000000
 


--------------------------------------------------------------------------------------------------------




 Dimension of arrays:
   k-points           NKPTS =        4   k-points in BZ     NKDIM =        4   number of bands    NBANDS=     16
   number of dos      NEDOS =    301   number of ions     NIONS =      2
   non local maximal  LDIM  =      4   non local SUM 2l+1 LMDIM =      8
   total plane-waves  NPLWV =  46656
   max r-space proj   IRMAX =      1   max aug-charges    IRDMAX=  37830
   dimension x,y,z NGX =    36 NGY =   36 NGZ =   36
   dimension x,y,z NGXF=    72 NGYF=   72 NGZF=   72
   support grid    NGXF=    72 NGYF=   72 NGZF=   72
   ions per type =               2
 NGX,Y,Z   is equivalent  to a cutoff of  15.41, 15.41, 15.41 a.u.
 NGXF,Y,Z  is equivalent  to a cutoff of  30.81, 30.81, 30.81 a.u.


 I would recommend the setting:
   dimension x,y,z NGX =    35 NGY =   35 NGZ =   35
 SYSTEM =  unknown system                          
 POSCAR =  bulk@JVASP-1002                         

 Startparameter for this run:
   NWRITE =      2    write-flag & timer
   PREC   = accura    normal or accurate (medium, high low for compatibility)
   ISTART =      0    job   : 0-new  1-cont  2-samecut
   ICHARG =      2    charge: 1-file 2-atom 10-const
   ISPIN  =      1    spin polarized calculation?
   LNONCOLLINEAR =      F non collinear calculations
   LSORBIT =      F    spin-orbit coupling
   INIWAV =      1    electr: 0-lowe 1-rand  2-diag
   LASPH  =      F    aspherical Exc in radial PAW
   METAGGA=      F    non-selfconsistent MetaGGA calc.

 Electronic Relaxation 1
   ENCUT  =  750.0 eV  55.12 Ry    7.42 a.u.   8.67  8.67  8.67*2*pi/ulx,y,z
   ENINI  =  750.0     initial cutoff
   ENAUG  =  322.1 eV  augmentation charge cutoff
   NELM   =    400;   NELMIN=  2; NELMDL= -5     # of ELM steps 
   EDIFF  = 0.1E-06   stopping-criterion for ELM
   LREAL  =      F    real-space projection
   NLSPLINE    = F    spline interpolate recip. space projectors
   LCOMPAT=      F    compatible to vasp.4.4
   GGA_COMPAT  = T    GGA compatible to vasp.4.4-vasp.4.6
   LMAXPAW     = -100 max onsite density
   LMAXMIX     =    2 max onsite mixed and CHGCAR
   VOSKOWN=      0    Vosko Wilk Nusair interpolation
   ROPT   =    0.00000
 Ionic relaxation
   EDIFFG = 0.1E-05   stopping-criterion for IOM
   NSW    =      1    number of steps for IOM
   NBLOCK =      1;   KBLOCK =      1    inner block; outer block 
   IBRION =      2    ionic relax: 0-MD 1-quasi-New 2-CG
   NFREE  =      1    steps in history (QN), initial steepest desc. (CG)
   ISIF   =      2    stress and relaxation
   IWAVPR =     11    prediction:  0-non 1-charg 2-wave 3-comb
   ISYM   =      2    0-nonsym 1-usesym 2-fastsym
   LCORR  =      T    Harris-Foulkes like correction to forces

   POTIM  = 0.5000    time-step for ionic-motion
   TEIN   =    0.0    initial temperature
   TEBEG  =    0.0;   TEEND  =   0.0 temperature during run
   SMASS  =  -3.00    Nose mass-parameter (am)
   estimated Nose-frequenzy (Omega)   =  0.10E-29 period in steps =****** mass=  -0.345E-27a.u.
   SCALEE = 1.0000    scale energy and forces
   NPACO  =    256;   APACO  = 16.0  distance and # of slots for P.C.
   PSTRESS=    0.0 pullay stress

  Mass of Ions in am
   POMASS =  28.09
  Ionic Valenz
   ZVAL   =   4.00
  Atomic Wigner-Seitz radii
   RWIGS  =  -1.00
  virtual crystal weights 
   VCA    =   1.00
   NELECT =       8.0000    total number of electrons
   NUPDOWN=      -1.0000    fix difference up-down

 DOS related values:
   EMIN   =  10.00;   EMAX   =-10.00  energy-range for DOS
   EFERMI =   0.00
   ISMEAR =     0;   SIGMA  =   0.20  broadening in eV -4-tet -1-fermi 0-gaus

 Electronic relaxation 2 (details)
   IALGO  =     38    algorithm
   LDIAG  =      T    sub-space diagonalisation (order eigenvalues)
   LSUBROT=      F    optimize rotation matrix (better conditioning)
   TURBO    =      0    0=normal 1=particle mesh
   IRESTART =      0    0=no restart 2=restart with 2 vectors
   NREBOOT  =      0    no. of reboots
   NMIN     =      0    reboot dimension
   EREF     =   0.00    reference energy to select bands
   IMIX   =      4    mixing-type and parameters
     AMIX     =   0.40;   BMIX     =  1.00
     AMIX_MAG =   1.60;   BMIX_MAG =  1.00
     AMIN     =   0.10
     WC   =   100.;   INIMIX=   1;  MIXPRE=   1;  MAXMIX= -45

 Intra band minimization:
   WEIMIN = 0.0010     energy-eigenvalue tresh-hold
   EBREAK =  0.16E-08  absolut break condition
   DEPER  =   0.30     relativ break condition  

   TIME   =   0.40     timestep for ELM

  volume/ion in A,a.u.               =      20.72       139.86
  Fermi-wavevector in a.u.,A,eV,Ry     =   0.946087  1.787845 12.178313  0.895081
  Thomas-Fermi vector in A             =   2.074051

 Write flags
   LWAVE  =      F    write WAVECAR
   LCHARG =      F    write CHGCAR
   LVTOT  =      F    write LOCPOT, total local potential
   LVHAR  =      F    write LOCPOT, Hartree potential only
   LELF   =      F    write electronic localiz. function (ELF)
   LORBIT =      0    0 simple, 1 ext, 2 COOP (PROOUT)


 Dipole corrections
   LMONO  =      F    monopole corrections only (constant potential shift)
   LDIPOL =      F    correct potential (dipole corrections)
   IDIPOL =      0    1-x, 2-y, 3-z, 4-all directions 
   EPSILON=  1.0000000 bulk dielectric constant

 Exchange correlation treatment:
   GGA     =    BO    GGA type
   LEXCH   =    42    internal setting for exchange type
   VOSKOWN=      0    Vosko Wilk Nusair interpolation
   LHFCALC =     F    Hartree Fock is set to
   LHFONE  =     F    Hartree Fock one center treatment
   AEXX    =    0.0000 exact exchange contribution

 vdW DFT:
   LUSE_VDW   =     T    switch on vdW DFT
   Zab_VDW    =-.8491    correlation parameter
   PARAM1     =0.1833
   PARAM2     =0.2200
   PARAM3     =0.0000

 Linear response parameters
   LEPSILON=     F    determine dielectric tensor
   LRPA    =     F    only Hartree local field effects (RPA)
   LNABLA  =     F    use nabla operator in PAW spheres
   LVEL    =     F    velocity operator in full k-point grid
   LINTERFAST=   F  fast interpolation
   KINTER  =     0    interpolate to denser k-point grid
   CSHIFT  =0.1000    complex shift for real part using Kramers Kronig
   OMEGAMAX=  -1.0    maximum frequency
   DEG_THRESHOLD= 0.2000000E-02 threshold for treating states as degnerate
   RTIME   =    0.100 relaxation time in fs

 Orbital magnetization related:
   ORBITALMAG=     F  switch on orbital magnetization
   LCHIMAG   =     F  perturbation theory with respect to B field
   DQ        =  0.001000  dq finite difference perturbation B field



--------------------------------------------------------------------------------------------------------


 conjugate gradient relaxation of ions
 charge density and potential will be updated during run
 non-spin polarized calculation
 Variant of blocked Davidson
 Davidson routine will perform the subspace rotation
 perform sub-space diagonalisation
    after iterative eigenvector-optimisation
 modified Broyden-mixing scheme, WC =      100.0
 initial mixing is a Kerker type mixing with AMIX =  0.4000 and BMIX =      1.0000
 Hartree-type preconditioning will be used
 using additional bands           12
 reciprocal scheme for non local part
 use partial core corrections
 calculate Harris-corrections to forces   (improved forces if not selfconsistent)
 use gradient corrections 
 use of overlap-Matrix (Vanderbilt PP)
 Gauss-broadening in eV      SIGMA  =   0.20


--------------------------------------------------------------------------------------------------------


  energy-cutoff  :      750.00
  volume of cell :       41.45
      direct lattice vectors                 reciprocal lattice vectors
     0.000000000  2.746821138  2.746821138    -0.182028598  0.182028598  0.182028598
     2.746821138  0.000000000  2.746821138     0.182028598 -0.182028598  0.182028598
     2.746821138  2.746821138  0.000000000     0.182028598  0.182028598 -0.182028598

  length of vectors
     3.884591706  3.884591706  3.884591706     0.315282780  0.315282780  0.315282780



 k-points in units of 2pi/SCALE and weight: Automatic kpoint scheme                 
   0.00000000  0.00000000  0.00000000       0.037
  -0.06067620  0.06067620  0.06067620       0.296
   0.00000000  0.00000000  0.12135240       0.222
   0.12135240 -0.12135240  0.00000000       0.444

 k-points in reciprocal lattice and weights: Automatic kpoint scheme                 
   0.00000000  0.00000000  0.00000000       0.037
   0.33333333  0.00000000  0.00000000       0.296
   0.33333333  0.33333333  0.00000000       0.222
  -0.33333333  0.33333333  0.00000000       0.444

 position of ions in fractional coordinates (direct lattice) 
   0.75000000  0.75000000  0.75000000
   0.50000000  0.50000000  0.50000000

 position of ions in cartesian coordinates  (Angst):
   4.12023171  4.12023171  4.12023171
   2.74682114  2.74682114  2.74682114



--------------------------------------------------------------------------------------------------------


 k-point  1 :   0.0000 0.0000 0.0000  plane waves:    1917
 k-point  2 :   0.3333 0.0000 0.0000  plane waves:    1922
 k-point  3 :   0.3333 0.3333 0.0000  plane waves:    1948
 k-point  4 :  -0.3333 0.3333 0.0000  plane waves:    1911

 maximum and minimum number of plane-waves per node :      1948     1911

 maximum number of plane-waves:      1948
 maximum index in each direction: 
   IXMAX=    8   IYMAX=    8   IZMAX=    8
   IXMIN=   -8   IYMIN=   -8   IZMIN=   -8

 NGX is ok and might be reduce to  34
 NGY is ok and might be reduce to  34
 NGZ is ok and might be reduce to  34

 serial   3D FFT for wavefunctions
 parallel 3D FFT for charge:
    minimum data exchange during FFTs selected (reduces bandwidth)


 total amount of memory used by VASP on root node    34918. kBytes
========================================================================

   base      :      30000. kBytes
   nonl-proj :        562. kBytes
   fftplans  :       1071. kBytes
   grid      :       3154. kBytes
   one-center:          6. kBytes
   wavefun   :        125. kBytes

     INWAV:  cpu time    0.0000: real time    0.0000
 Broyden mixing: mesh for mixing (old mesh)
   NGX = 17   NGY = 17   NGZ = 17
  (NGX  = 72   NGY  = 72   NGZ  = 72)
  gives a total of   4913 points

 initial charge density was supplied:
 charge density of overlapping atoms calculated
 number of electron       8.0000000 magnetization 
 keeping initial charge density in first step


--------------------------------------------------------------------------------------------------------


 Maximum index for augmentation-charges         2591 (set IRDMAX)


--------------------------------------------------------------------------------------------------------


 First call to EWALD:  gamma=   0.512
 Maximum number of real-space cells 3x 3x 3
 Maximum number of reciprocal cells 3x 3x 3

 FEWALD executed in parallel
    FEWALD:  cpu time    0.0000: real time    0.0010


----------------------------------------- Iteration    1(   1)  ---------------------------------------


vdW kernel read from vdw_kernel.bindat
  0.0000  0.2424  0.5071  0.7962  1.1119  1.4567  1.8333  2.2446  2.6937  3.1842
  3.7199  4.3049  4.9438  5.6415  6.4036  7.2358  8.1446  9.1372 10.2212 11.4050
 12.6979 14.1099 15.6519 17.3360 19.1751 21.1837 23.3773 25.7729 28.3892 31.2465
 34.3669 37.7748 41.4965 45.5611 50.0000

    POTLOK:  cpu time    3.9760: real time    3.9740
    SETDIJ:  cpu time    0.0040: real time    0.0026
     EDDAV:  cpu time    0.0760: real time    0.0785
       DOS:  cpu time    0.0040: real time    0.0003
    --------------------------------------------
      LOOP:  cpu time    4.0600: real time    4.0573

 eigenvalue-minimisations  :   128
 total energy-change (2. order) : 0.9152075E+01  (-0.4651129E+03)
 number of electron       8.0000000 magnetization 
 augmentation part        8.0000000 magnetization 

 Free energy of the ion-electron system (eV)
  ---------------------------------------------------
  alpha Z        PSCENC =         3.24857844
  Ewald energy   TEWEN  =      -225.91568183
  -Hartree energ DENC   =       -11.53197166
  -exchange      EXHF   =         0.00000000
  -V(xc)+E(xc)   XCENC  =       -20.29573788
  PAW double counting   =       189.40224250     -152.61488262
  entropy T*S    EENTRO =        -0.03200897
  eigenvalues    EBANDS =        18.29697843
  atomic energy  EATOM  =       208.59455892
  Solvation  Ediel_sol  =         0.00000000
  ---------------------------------------------------
  free energy    TOTEN  =         9.15207533 eV

  energy without entropy =        9.18408429  energy(sigma->0) =        9.16807981


--------------------------------------------------------------------------------------------------------




----------------------------------------- Iteration    1(   2)  ---------------------------------------


     EDDAV:  cpu time    0.1120: real time    0.1135
       DOS:  cpu time    0.0000: real time    0.0003
    --------------------------------------------
      LOOP:  cpu time    0.1120: real time    0.2049

 eigenvalue-minimisations  :   176
 total energy-change (2. order) :-0.1688963E+02  (-0.1610360E+02)
 number of electron       8.0000000 magnetization 
 augmentation part        8.0000000 magnetization 

 Free energy of the ion-electron system (eV)
  ---------------------------------------------------
  alpha Z        PSCENC =         3.24857844
  Ewald energy   TEWEN  =      -225.91568183
  -Hartree energ DENC   =       -11.53197166
  -exchange      EXHF   =         0.00000000
  -V(xc)+E(xc)   XCENC  =       -20.29573788
  PAW double counting   =       189.40224250     -152.61488262
  entropy T*S    EENTRO =        -0.00002857
  eigenvalues    EBANDS =         1.37537159
  atomic energy  EATOM  =       208.59455892
  Solvation  Ediel_sol  =         0.00000000
  ---------------------------------------------------
  free energy    TOTEN  =        -7.73755112 eV

  energy without entropy =       -7.73752255  energy(sigma->0) =       -7.73753683


--------------------------------------------------------------------------------------------------------




----------------------------------------- Iteration    1(   3)  ---------------------------------------


     EDDAV:  cpu time    0.1080: real time    0.1066
       DOS:  cpu time    0.0000: real time    0.0003
    --------------------------------------------
      LOOP:  cpu time    0.1080: real time    0.1196

 eigenvalue-minimisations  :   160
 total energy-change (2. order) :-0.1355990E+00  (-0.1355987E+00)
 number of electron       8.0000000 magnetization 
 augmentation part        8.0000000 magnetization 

 Free energy of the ion-electron system (eV)
  ---------------------------------------------------
  alpha Z        PSCENC =         3.24857844
  Ewald energy   TEWEN  =      -225.91568183
  -Hartree energ DENC   =       -11.53197166
  -exchange      EXHF   =         0.00000000
  -V(xc)+E(xc)   XCENC  =       -20.29573788
  PAW double counting   =       189.40224250     -152.61488262
  entropy T*S    EENTRO =        -0.00001828
  eigenvalues    EBANDS =         1.23976229
  atomic energy  EATOM  =       208.59455892
  Solvation  Ediel_sol  =         0.00000000
  ---------------------------------------------------
  free energy    TOTEN  =        -7.87315012 eV

  energy without entropy =       -7.87313184  energy(sigma->0) =       -7.87314098


--------------------------------------------------------------------------------------------------------




----------------------------------------- Iteration    1(   4)  ---------------------------------------


     EDDAV:  cpu time    0.1640: real time    0.1635
       DOS:  cpu time    0.0000: real time    0.0003
    --------------------------------------------
      LOOP:  cpu time    0.1640: real time    0.1840

 eigenvalue-minimisations  :   224
 total energy-change (2. order) :-0.4391698E-03  (-0.4391693E-03)
 number of electron       8.0000000 magnetization 
 augmentation part        8.0000000 magnetization 

 Free energy of the ion-electron system (eV)
  ---------------------------------------------------
  alpha Z        PSCENC =         3.24857844
  Ewald energy   TEWEN  =      -225.91568183
  -Hartree energ DENC   =       -11.53197166
  -exchange      EXHF   =         0.00000000
  -V(xc)+E(xc)   XCENC  =       -20.29573788
  PAW double counting   =       189.40224250     -152.61488262
  entropy T*S    EENTRO =        -0.00001829
  eigenvalues    EBANDS =         1.23932314
  atomic energy  EATOM  =       208.59455892
  Solvation  Ediel_sol  =         0.00000000
  ---------------------------------------------------
  free energy    TOTEN  =        -7.87358929 eV

  energy without entropy =       -7.87357100  energy(sigma->0) =       -7.87358015


--------------------------------------------------------------------------------------------------------




----------------------------------------- Iteration    1(   5)  ---------------------------------------


     EDDAV:  cpu time    0.1040: real time    0.1053
       DOS:  cpu time    0.0000: real time    0.0003
    CHARGE:  cpu time    0.0400: real time    0.0366
    MIXING:  cpu time    0.0000: real time    0.0008
    --------------------------------------------
      LOOP:  cpu time    0.1440: real time    0.1710

 eigenvalue-minimisations  :   160
 total energy-change (2. order) :-0.1372686E-07  (-0.1405800E-07)
 number of electron       8.0000000 magnetization 
 augmentation part       -0.4719856 magnetization 

 Broyden mixing:
  rms(total) = 0.39320E+00    rms(broyden)= 0.39320E+00
  rms(prec ) = 0.99136E+00
  weight for this iteration     100.00

 Free energy of the ion-electron system (eV)
  ---------------------------------------------------
  alpha Z        PSCENC =         3.24857844
  Ewald energy   TEWEN  =      -225.91568183
  -Hartree energ DENC   =       -11.53197166
  -exchange      EXHF   =         0.00000000
  -V(xc)+E(xc)   XCENC  =       -20.29573788
  PAW double counting   =       189.40224250     -152.61488262
  entropy T*S    EENTRO =        -0.00001829
  eigenvalues    EBANDS =         1.23932312
  atomic energy  EATOM  =       208.59455892
  Solvation  Ediel_sol  =         0.00000000
  ---------------------------------------------------
  free energy    TOTEN  =        -7.87358931 eV

  energy without entropy =       -7.87357101  energy(sigma->0) =       -7.87358016


--------------------------------------------------------------------------------------------------------




----------------------------------------- Iteration    1(   6)  ---------------------------------------


    POTLOK:  cpu time    3.4920: real time    3.4900
    SETDIJ:  cpu time    0.0040: real time    0.0035
     EDDAV:  cpu time    0.0920: real time    0.0949
       DOS:  cpu time    0.0000: real time    0.0003
    CHARGE:  cpu time    0.0320: real time    0.0307
    MIXING:  cpu time    0.0000: real time    0.0010
    --------------------------------------------
      LOOP:  cpu time    3.6200: real time    3.6345

 eigenvalue-minimisations  :   176
 total energy-change (2. order) : 0.8094768E-01  (-0.1079456E-01)
 number of electron       8.0000000 magnetization 
 augmentation part       -0.4639326 magnetization 

 Broyden mixing:
  rms(total) = 0.24177E+00    rms(broyden)= 0.24177E+00
  rms(prec ) = 0.60087E+00
  weight for this iteration     100.00

 eigenvalues of (default mixing * dielectric matrix)
  average eigenvalue GAMMA=   2.5771
  2.5771

 Free energy of the ion-electron system (eV)
  ---------------------------------------------------
  alpha Z        PSCENC =         3.24857844
  Ewald energy   TEWEN  =      -225.91568183
  -Hartree energ DENC   =       -13.30856037
  -exchange      EXHF   =         0.00000000
  -V(xc)+E(xc)   XCENC  =       -20.03033350
  PAW double counting   =       306.41880728     -269.77027164
  entropy T*S    EENTRO =        -0.00009697
  eigenvalues    EBANDS =         2.97035804
  atomic energy  EATOM  =       208.59455892
  Solvation  Ediel_sol  =         0.00000000
  ---------------------------------------------------
  free energy    TOTEN  =        -7.79264163 eV

  energy without entropy =       -7.79254466  energy(sigma->0) =       -7.79259314


--------------------------------------------------------------------------------------------------------




----------------------------------------- Iteration    1(   7)  ---------------------------------------


    POTLOK:  cpu time    3.5080: real time    3.5051
    SETDIJ:  cpu time    0.0040: real time    0.0032
     EDDAV:  cpu time    0.1080: real time    0.1106
       DOS:  cpu time    0.0000: real time    0.0005
    CHARGE:  cpu time    0.0320: real time    0.0309
    MIXING:  cpu time    0.0000: real time    0.0009
    --------------------------------------------
      LOOP:  cpu time    3.6520: real time    3.6973

 eigenvalue-minimisations  :   176
 total energy-change (2. order) : 0.2199164E-01  (-0.2566138E-01)
 number of electron       8.0000000 magnetization 
 augmentation part       -0.4529764 magnetization 

 Broyden mixing:
  rms(total) = 0.21032E-01    rms(broyden)= 0.21032E-01
  rms(prec ) = 0.54024E-01
  weight for this iteration     100.00

 eigenvalues of (default mixing * dielectric matrix)
  average eigenvalue GAMMA=   2.1909
  2.1909  2.1909

 Free energy of the ion-electron system (eV)
  ---------------------------------------------------
  alpha Z        PSCENC =         3.24857844
  Ewald energy   TEWEN  =      -225.91568183
  -Hartree energ DENC   =       -16.39640771
  -exchange      EXHF   =         0.00000000
  -V(xc)+E(xc)   XCENC  =       -19.54124992
  PAW double counting   =       553.43288488     -516.96458683
  entropy T*S    EENTRO =        -0.00090751
  eigenvalues    EBANDS =         5.77216159
  atomic energy  EATOM  =       208.59455892
  Solvation  Ediel_sol  =         0.00000000
  ---------------------------------------------------
  free energy    TOTEN  =        -7.77064999 eV

  energy without entropy =       -7.76974248  energy(sigma->0) =       -7.77019623


--------------------------------------------------------------------------------------------------------




----------------------------------------- Iteration    1(   8)  ---------------------------------------


    POTLOK:  cpu time    3.4440: real time    3.4402
    SETDIJ:  cpu time    0.0000: real time    0.0027
     EDDAV:  cpu time    0.0680: real time    0.0691
       DOS:  cpu time    0.0000: real time    0.0003
    CHARGE:  cpu time    0.0280: real time    0.0299
    MIXING:  cpu time    0.0000: real time    0.0009
    --------------------------------------------
      LOOP:  cpu time    3.5440: real time    3.7853

 eigenvalue-minimisations  :   128
 total energy-change (2. order) : 0.1789252E-01  (-0.5967026E-03)
 number of electron       8.0000000 magnetization 
 augmentation part       -0.4544910 magnetization 

 Broyden mixing:
  rms(total) = 0.11280E-01    rms(broyden)= 0.11280E-01
  rms(prec ) = 0.27581E-01
  weight for this iteration     100.00

 eigenvalues of (default mixing * dielectric matrix)
  average eigenvalue GAMMA=   2.1652
  3.1125  1.6915  1.6915

 Free energy of the ion-electron system (eV)
  ---------------------------------------------------
  alpha Z        PSCENC =         3.24857844
  Ewald energy   TEWEN  =      -225.91568183
  -Hartree energ DENC   =       -16.13728064
  -exchange      EXHF   =         0.00000000
  -V(xc)+E(xc)   XCENC  =       -19.56033890
  PAW double counting   =       530.85638902     -494.31674035
  entropy T*S    EENTRO =        -0.00061866
  eigenvalues    EBANDS =         5.47837655
  atomic energy  EATOM  =       208.59455892
  Solvation  Ediel_sol  =         0.00000000
  ---------------------------------------------------
  free energy    TOTEN  =        -7.75275746 eV

  energy without entropy =       -7.75213880  energy(sigma->0) =       -7.75244813


--------------------------------------------------------------------------------------------------------




----------------------------------------- Iteration    1(   9)  ---------------------------------------


    POTLOK:  cpu time    3.4640: real time    3.4615
    SETDIJ:  cpu time    0.0040: real time    0.0032
     EDDAV:  cpu time    0.1000: real time    0.1021
       DOS:  cpu time    0.0000: real time    0.0004
    CHARGE:  cpu time    0.0320: real time    0.0312
    MIXING:  cpu time    0.0000: real time    0.0009
    --------------------------------------------
      LOOP:  cpu time    3.6000: real time    3.6402

 eigenvalue-minimisations  :   160
 total energy-change (2. order) :-0.5761132E-03  (-0.7488479E-04)
 number of electron       8.0000000 magnetization 
 augmentation part       -0.4540993 magnetization 

 Broyden mixing:
  rms(total) = 0.56466E-02    rms(broyden)= 0.56466E-02
  rms(prec ) = 0.77924E-02
  weight for this iteration     100.00

 eigenvalues of (default mixing * dielectric matrix)
  average eigenvalue GAMMA=   2.1706
  0.9360  2.9892  2.3786  2.3786

 Free energy of the ion-electron system (eV)
  ---------------------------------------------------
  alpha Z        PSCENC =         3.24857844
  Ewald energy   TEWEN  =      -225.91568183
  -Hartree energ DENC   =       -16.31385338
  -exchange      EXHF   =         0.00000000
  -V(xc)+E(xc)   XCENC  =       -19.53004797
  PAW double counting   =       542.00249513     -505.46832953
  entropy T*S    EENTRO =        -0.00067513
  eigenvalues    EBANDS =         5.62962176
  atomic energy  EATOM  =       208.59455892
  Solvation  Ediel_sol  =         0.00000000
  ---------------------------------------------------
  free energy    TOTEN  =        -7.75333358 eV

  energy without entropy =       -7.75265845  energy(sigma->0) =       -7.75299602


--------------------------------------------------------------------------------------------------------




----------------------------------------- Iteration    1(  10)  ---------------------------------------


    POTLOK:  cpu time    3.4840: real time    3.4819
    SETDIJ:  cpu time    0.0040: real time    0.0025
     EDDAV:  cpu time    0.1240: real time    0.1277
       DOS:  cpu time    0.0040: real time    0.0004
    CHARGE:  cpu time    0.0280: real time    0.0308
    MIXING:  cpu time    0.0000: real time    0.0010
    --------------------------------------------
      LOOP:  cpu time    3.6440: real time    3.7360

 eigenvalue-minimisations  :   192
 total energy-change (2. order) :-0.2391330E-03  (-0.2558707E-05)
 number of electron       8.0000000 magnetization 
 augmentation part       -0.4541386 magnetization 

 Broyden mixing:
  rms(total) = 0.40730E-03    rms(broyden)= 0.40730E-03
  rms(prec ) = 0.96599E-03
  weight for this iteration     100.00

 eigenvalues of (default mixing * dielectric matrix)
  average eigenvalue GAMMA=   1.9069
  2.9251  2.5370  2.2730  0.9730  0.8265

 Free energy of the ion-electron system (eV)
  ---------------------------------------------------
  alpha Z        PSCENC =         3.24857844
  Ewald energy   TEWEN  =      -225.91568183
  -Hartree energ DENC   =       -16.29121801
  -exchange      EXHF   =         0.00000000
  -V(xc)+E(xc)   XCENC  =       -19.53460080
  PAW double counting   =       534.25212125     -497.71804180
  entropy T*S    EENTRO =        -0.00066273
  eigenvalues    EBANDS =         5.61137385
  atomic energy  EATOM  =       208.59455892
  Solvation  Ediel_sol  =         0.00000000
  ---------------------------------------------------
  free energy    TOTEN  =        -7.75357271 eV

  energy without entropy =       -7.75290998  energy(sigma->0) =       -7.75324135


--------------------------------------------------------------------------------------------------------




----------------------------------------- Iteration    1(  11)  ---------------------------------------


    POTLOK:  cpu time    3.4920: real time    3.4986
    SETDIJ:  cpu time    0.0040: real time    0.0029
     EDDAV:  cpu time    0.1200: real time    0.1218
       DOS:  cpu time    0.0040: real time    0.0004
    CHARGE:  cpu time    0.0280: real time    0.0304
    MIXING:  cpu time    0.0000: real time    0.0010
    --------------------------------------------
      LOOP:  cpu time    3.6520: real time    3.7274

 eigenvalue-minimisations  :   224
 total energy-change (2. order) : 0.2603070E-03  (-0.1275049E-06)
 number of electron       8.0000000 magnetization 
 augmentation part       -0.4541673 magnetization 

 Broyden mixing:
  rms(total) = 0.12422E-03    rms(broyden)= 0.12422E-03
  rms(prec ) = 0.16647E-03
  weight for this iteration     100.00

 eigenvalues of (default mixing * dielectric matrix)
  average eigenvalue GAMMA=   1.9720
  2.9556  2.5645  2.2298  2.1369  1.0002  0.9452

 Free energy of the ion-electron system (eV)
  ---------------------------------------------------
  alpha Z        PSCENC =         3.24857844
  Ewald energy   TEWEN  =      -225.91568183
  -Hartree energ DENC   =       -16.28747386
  -exchange      EXHF   =         0.00000000
  -V(xc)+E(xc)   XCENC  =       -19.53489760
  PAW double counting   =       534.15785035     -497.62278844
  entropy T*S    EENTRO =        -0.00065910
  eigenvalues    EBANDS =         5.60720072
  atomic energy  EATOM  =       208.59455892
  Solvation  Ediel_sol  =         0.00000000
  ---------------------------------------------------
  free energy    TOTEN  =        -7.75331240 eV

  energy without entropy =       -7.75265330  energy(sigma->0) =       -7.75298285


--------------------------------------------------------------------------------------------------------




----------------------------------------- Iteration    1(  12)  ---------------------------------------


    POTLOK:  cpu time    3.4640: real time    3.4665
    SETDIJ:  cpu time    0.0040: real time    0.0034
     EDDAV:  cpu time    0.0760: real time    0.0768
       DOS:  cpu time    0.0000: real time    0.0003
    CHARGE:  cpu time    0.0280: real time    0.0281
    MIXING:  cpu time    0.0000: real time    0.0010
    --------------------------------------------
      LOOP:  cpu time    3.5760: real time    4.0357

 eigenvalue-minimisations  :   144
 total energy-change (2. order) : 0.7091585E-05  (-0.4907091E-08)
 number of electron       8.0000000 magnetization 
 augmentation part       -0.4541664 magnetization 

 Broyden mixing:
  rms(total) = 0.33907E-04    rms(broyden)= 0.33907E-04
  rms(prec ) = 0.70530E-04
  weight for this iteration     100.00

 eigenvalues of (default mixing * dielectric matrix)
  average eigenvalue GAMMA=   1.9602
  2.9280  2.7073  2.7073  2.2480  0.9764  0.9894  1.1648

 Free energy of the ion-electron system (eV)
  ---------------------------------------------------
  alpha Z        PSCENC =         3.24857844
  Ewald energy   TEWEN  =      -225.91568183
  -Hartree energ DENC   =       -16.28792841
  -exchange      EXHF   =         0.00000000
  -V(xc)+E(xc)   XCENC  =       -19.53485750
  PAW double counting   =       534.33478200     -497.79970548
  entropy T*S    EENTRO =        -0.00065902
  eigenvalues    EBANDS =         5.60760758
  atomic energy  EATOM  =       208.59455892
  Solvation  Ediel_sol  =         0.00000000
  ---------------------------------------------------
  free energy    TOTEN  =        -7.75330531 eV

  energy without entropy =       -7.75264629  energy(sigma->0) =       -7.75297580


--------------------------------------------------------------------------------------------------------




----------------------------------------- Iteration    1(  13)  ---------------------------------------


    POTLOK:  cpu time    3.4800: real time    3.4803
    SETDIJ:  cpu time    0.0040: real time    0.0035
     EDDAV:  cpu time    0.1080: real time    0.1090
       DOS:  cpu time    0.0000: real time    0.0004
    CHARGE:  cpu time    0.0320: real time    0.0316
    MIXING:  cpu time    0.0000: real time    0.0011
    --------------------------------------------
      LOOP:  cpu time    3.6280: real time    3.6461

 eigenvalue-minimisations  :   160
 total energy-change (2. order) : 0.1417816E-04  (-0.5858995E-09)
 number of electron       8.0000000 magnetization 
 augmentation part       -0.4541677 magnetization 

 Broyden mixing:
  rms(total) = 0.18766E-04    rms(broyden)= 0.18766E-04
  rms(prec ) = 0.20540E-04
  weight for this iteration     100.00

 eigenvalues of (default mixing * dielectric matrix)
  average eigenvalue GAMMA=   1.9590
  3.0601  2.7620  2.5094  2.2257  2.1747  0.9929  0.9929  0.9544

 Free energy of the ion-electron system (eV)
  ---------------------------------------------------
  alpha Z        PSCENC =         3.24857844
  Ewald energy   TEWEN  =      -225.91568183
  -Hartree energ DENC   =       -16.28759908
  -exchange      EXHF   =         0.00000000
  -V(xc)+E(xc)   XCENC  =       -19.53490977
  PAW double counting   =       534.37105267     -497.83592231
  entropy T*S    EENTRO =        -0.00065877
  eigenvalues    EBANDS =         5.60729059
  atomic energy  EATOM  =       208.59455892
  Solvation  Ediel_sol  =         0.00000000
  ---------------------------------------------------
  free energy    TOTEN  =        -7.75329113 eV

  energy without entropy =       -7.75263236  energy(sigma->0) =       -7.75296175


--------------------------------------------------------------------------------------------------------




----------------------------------------- Iteration    1(  14)  ---------------------------------------


    POTLOK:  cpu time    3.4040: real time    3.4002
    SETDIJ:  cpu time    0.0000: real time    0.0028
     EDDAV:  cpu time    0.0680: real time    0.0645
       DOS:  cpu time    0.0000: real time    0.0004
    CHARGE:  cpu time    0.0280: real time    0.0284
    MIXING:  cpu time    0.0000: real time    0.0011
    --------------------------------------------
      LOOP:  cpu time    3.5000: real time    3.5859

 eigenvalue-minimisations  :   112
 total energy-change (2. order) :-0.3779304E-05  (-0.3353034E-10)
 number of electron       8.0000000 magnetization 
 augmentation part       -0.4541676 magnetization 

 Broyden mixing:
  rms(total) = 0.38606E-05    rms(broyden)= 0.38606E-05
  rms(prec ) = 0.41389E-05
  weight for this iteration     100.00

 eigenvalues of (default mixing * dielectric matrix)
  average eigenvalue GAMMA=   1.8663
  3.0191  2.8207  2.5001  2.5001  2.2227  1.0130  0.9849  0.9396  0.7965

 Free energy of the ion-electron system (eV)
  ---------------------------------------------------
  alpha Z        PSCENC =         3.24857844
  Ewald energy   TEWEN  =      -225.91568183
  -Hartree energ DENC   =       -16.28764205
  -exchange      EXHF   =         0.00000000
  -V(xc)+E(xc)   XCENC  =       -19.53490731
  PAW double counting   =       534.34240910     -497.80729194
  entropy T*S    EENTRO =        -0.00065879
  eigenvalues    EBANDS =         5.60734056
  atomic energy  EATOM  =       208.59455892
  Solvation  Ediel_sol  =         0.00000000
  ---------------------------------------------------
  free energy    TOTEN  =        -7.75329491 eV

  energy without entropy =       -7.75263612  energy(sigma->0) =       -7.75296552


--------------------------------------------------------------------------------------------------------




----------------------------------------- Iteration    1(  15)  ---------------------------------------


    POTLOK:  cpu time    3.4520: real time    3.4500
    SETDIJ:  cpu time    0.0040: real time    0.0038
     EDDAV:  cpu time    0.0520: real time    0.0535
       DOS:  cpu time    0.0000: real time    0.0004
    CHARGE:  cpu time    0.0360: real time    0.0336
    MIXING:  cpu time    0.0000: real time    0.0012
    --------------------------------------------
      LOOP:  cpu time    3.5440: real time    3.5730

 eigenvalue-minimisations  :    64
 total energy-change (2. order) :-0.1320872E-06  (-0.8929928E-12)
 number of electron       8.0000000 magnetization 
 augmentation part       -0.4541675 magnetization 

 Broyden mixing:
  rms(total) = 0.92877E-06    rms(broyden)= 0.92877E-06
  rms(prec ) = 0.10284E-05
  weight for this iteration     100.00

 eigenvalues of (default mixing * dielectric matrix)
  average eigenvalue GAMMA=   1.8543
  3.0436  2.8217  2.6647  2.4502  2.2339  1.2522  0.9504  0.9975  0.9975  1.1317

 Free energy of the ion-electron system (eV)
  ---------------------------------------------------
  alpha Z        PSCENC =         3.24857844
  Ewald energy   TEWEN  =      -225.91568183
  -Hartree energ DENC   =       -16.28764005
  -exchange      EXHF   =         0.00000000
  -V(xc)+E(xc)   XCENC  =       -19.53490778
  PAW double counting   =       534.34048130     -497.80536479
  entropy T*S    EENTRO =        -0.00065880
  eigenvalues    EBANDS =         5.60733955
  atomic energy  EATOM  =       208.59455892
  Solvation  Ediel_sol  =         0.00000000
  ---------------------------------------------------
  free energy    TOTEN  =        -7.75329505 eV

  energy without entropy =       -7.75263625  energy(sigma->0) =       -7.75296565


--------------------------------------------------------------------------------------------------------




----------------------------------------- Iteration    1(  16)  ---------------------------------------


    POTLOK:  cpu time    3.4840: real time    3.4801
    SETDIJ:  cpu time    0.0000: real time    0.0032
     EDDAV:  cpu time    0.0480: real time    0.0474
       DOS:  cpu time    0.0000: real time    0.0003
    --------------------------------------------
      LOOP:  cpu time    3.5320: real time    3.9939

 eigenvalue-minimisations  :    64
 total energy-change (2. order) :-0.3217735E-07  ( 0.2665453E-12)
 number of electron       8.0000000 magnetization 
 augmentation part       -0.4541675 magnetization 

 Free energy of the ion-electron system (eV)
  ---------------------------------------------------
  alpha Z        PSCENC =         3.24857844
  Ewald energy   TEWEN  =      -225.91568183
  -Hartree energ DENC   =       -16.28764120
  -exchange      EXHF   =         0.00000000
  -V(xc)+E(xc)   XCENC  =       -19.53490778
  PAW double counting   =       534.33961102     -497.80449475
  entropy T*S    EENTRO =        -0.00065880
  eigenvalues    EBANDS =         5.60734090
  atomic energy  EATOM  =       208.59455892
  Solvation  Ediel_sol  =         0.00000000
  ---------------------------------------------------
  free energy    TOTEN  =        -7.75329508 eV

  energy without entropy =       -7.75263628  energy(sigma->0) =       -7.75296568


--------------------------------------------------------------------------------------------------------




 average (electrostatic) potential at core
  the test charge radii are     0.9892
  (the norm of the test charge is              1.0000)
       1 -83.7670       2 -83.7670



 E-fermi :   5.9415     XC(G=0):  -9.2147     alpha+bet :-11.5728


 k-point     1 :       0.0000    0.0000    0.0000
  band No.  band energies     occupation 
      1      -6.1124      2.00000
      2       5.5583      1.99328
      3       5.5583      1.99328
      4       5.5583      1.99328
      5       8.1379      0.00000
      6       8.1379      0.00000
      7       8.1379      0.00000
      8       8.6460      0.00000
      9      13.2634      0.00000
     10      13.2634      0.00000
     11      13.3912      0.00000
     12      16.6814      0.00000
     13      16.6814      0.00000
     14      16.6814      0.00000
     15      20.7810      0.00000
     16      28.2500      0.00000

 k-point     2 :       0.3333    0.0000    0.0000
  band No.  band energies     occupation 
      1      -4.7784      2.00000
      2       0.3627      2.00000
      3       4.5958      2.00000
      4       4.5958      2.00000
      5       7.2561      0.00000
      6       9.0759      0.00000
      7       9.0759      0.00000
      8      13.2978      0.00000
      9      13.4878      0.00000
     10      13.4878      0.00000
     11      14.4676      0.00000
     12      18.8896      0.00000
     13      19.9338      0.00000
     14      19.9338      0.00000
     15      21.9661      0.00000
     16      22.9511      0.00000

 k-point     3 :       0.3333    0.3333    0.0000
  band No.  band energies     occupation 
      1      -4.2644      2.00000
      2       0.6290      2.00000
      3       3.2353      2.00000
      4       3.2353      2.00000
      5       6.3563      0.00336
      6       7.6108      0.00000
      7      12.6842      0.00000
      8      12.6842      0.00000
      9      15.0536      0.00000
     10      15.3597      0.00000
     11      18.3883      0.00000
     12      18.8262      0.00000
     13      18.8262      0.00000
     14      20.5149      0.00000
     15      21.5266      0.00000
     16      21.6794      0.00000

 k-point     4 :      -0.3333    0.3333    0.0000
  band No.  band energies     occupation 
      1      -2.9551      2.00000
      2      -1.0712      2.00000
      3       1.3240      2.00000
      4       3.5282      2.00000
      5       7.1771      0.00000
      6      11.3110      0.00000
      7      11.9494      0.00000
      8      12.4767      0.00000
      9      12.8065      0.00000
     10      13.1776      0.00000
     11      19.7325      0.00000
     12      20.2669      0.00000
     13      20.8577      0.00000
     14      21.0400      0.00000
     15      21.8647      0.00000
     16      22.7509      0.00000


--------------------------------------------------------------------------------------------------------


 soft charge-density along one line, spin component           1
         0         1         2         3         4         5         6         7         8         9
 total charge-density along one line

 pseudopotential strength for first ion, spin component:           1
 18.532  25.850  -0.000  -0.000  -0.000  -0.000  -0.000  -0.000
 25.850  36.064  -0.000  -0.000  -0.000  -0.000  -0.000  -0.000
 -0.000  -0.000   4.199   0.000   0.000   7.817   0.000   0.000
 -0.000  -0.000   0.000   4.199   0.000   0.000   7.817   0.000
 -0.000  -0.000   0.000   0.000   4.199   0.000   0.000   7.817
 -0.000  -0.000   7.817   0.000   0.000  14.563   0.000   0.000
 -0.000  -0.000   0.000   7.817   0.000   0.000  14.563   0.000
 -0.000  -0.000   0.000   0.000   7.817   0.000   0.000  14.563
 total augmentation occupancy for first ion, spin component:           1
  3.179  -0.884   0.000   0.000   0.000   0.000   0.000  -0.000
 -0.884   0.373  -0.000  -0.000   0.000  -0.000  -0.000   0.000
  0.000  -0.000   2.261   0.000   0.000  -0.394   0.000  -0.000
  0.000   0.000   0.000   2.261   0.000   0.000  -0.394  -0.000
  0.000  -0.000   0.000   0.000   2.261  -0.000  -0.000  -0.394
  0.000   0.000  -0.394   0.000   0.000   0.082  -0.000   0.000
  0.000   0.000  -0.000  -0.394   0.000  -0.000   0.082   0.000
 -0.000  -0.000   0.000   0.000  -0.394   0.000   0.000   0.082


------------------------ aborting loop because EDIFF is reached ----------------------------------------


    CHARGE:  cpu time    0.0320: real time    0.0315
    FORLOC:  cpu time    0.0000: real time    0.0010
    FORNL :  cpu time    0.0200: real time    0.0169
    STRESS:  cpu time    0.1320: real time    0.1327
    FORCOR:  cpu time    3.4640: real time    3.4593
    FORHAR:  cpu time    0.0080: real time    0.0082
    MIXING:  cpu time    0.0000: real time    0.0011
    OFIELD:  cpu time    0.0000: real time    0.0000

  FORCE on cell =-STRESS in cart. coord.  units (eV):
  Direction    XX          YY          ZZ          XY          YZ          ZX
  --------------------------------------------------------------------------------------
  Alpha Z     3.24858     3.24858     3.24858
  Ewald     -75.30526   -75.30526   -75.30526     0.00000    -0.00000    -0.00000
  Hartree     5.42921     5.42921     5.42921     0.00000     0.00000     0.00000
  E(xc)     -25.42071   -25.42071   -25.42071     0.00000     0.00000     0.00000
  Local     -30.12350   -30.12350   -30.12350     0.00000     0.00000     0.00000
  n-local    78.77040    78.77040    72.78880     2.89240    -1.22746     1.22746
  augment   -11.63031   -11.63031   -11.63031    -0.00000    -0.00000    -0.00000
  Kinetic    59.15526    59.15526    53.99884     4.52007    -1.73039     1.73039
  Fock        0.00000     0.00000     0.00000     0.00000     0.00000     0.00000
  -------------------------------------------------------------------------------------
  Total       0.41099     0.41099     0.41099     0.00000     0.00000    -0.00000
  in kB      15.88633    15.88633    15.88633     0.00000     0.00000    -0.00000
  external pressure =       15.89 kB  Pullay stress =        0.00 kB


 VOLUME and BASIS-vectors are now :
 -----------------------------------------------------------------------------
  energy-cutoff  :      750.00
  volume of cell :       41.45
      direct lattice vectors                 reciprocal lattice vectors
     0.000000000  2.746821138  2.746821138    -0.182028598  0.182028598  0.182028598
     2.746821138  0.000000000  2.746821138     0.182028598 -0.182028598  0.182028598
     2.746821138  2.746821138  0.000000000     0.182028598  0.182028598 -0.182028598

  length of vectors
     3.884591706  3.884591706  3.884591706     0.315282780  0.315282780  0.315282780


 FORCES acting on ions
    electron-ion (+dipol)            ewald-force                    non-local-force                 convergence-correction
 -----------------------------------------------------------------------------------------------
   0.819E-09 0.818E-09 0.139E-08   -.313E-14 -.268E-14 -.153E-14   0.153E-15 0.416E-16 0.429E-16   -.104E-13 -.915E-14 -.113E-13
   -.818E-09 -.818E-09 -.139E-08   0.307E-14 0.301E-14 0.222E-14   -.833E-16 -.555E-16 0.173E-17   0.150E-13 0.136E-13 0.104E-13
 -----------------------------------------------------------------------------------------------
   0.368E-12 0.834E-13 0.237E-12   -.615E-16 0.330E-15 0.690E-15   0.694E-16 -.139E-16 0.447E-16   0.460E-14 0.444E-14 -.922E-15


 POSITION                                       TOTAL-FORCE (eV/Angst)
 -----------------------------------------------------------------------------------
      4.12023      4.12023      4.12023        -0.000000     -0.000000     -0.000000
      2.74682      2.74682      2.74682         0.000000      0.000000      0.000000
 -----------------------------------------------------------------------------------
    total drift:                                0.000000      0.000000      0.000000


--------------------------------------------------------------------------------------------------------



  FREE ENERGIE OF THE ION-ELECTRON SYSTEM (eV)
  ---------------------------------------------------
  free  energy   TOTEN  =        -7.75329508 eV

  energy  without entropy=       -7.75263628  energy(sigma->0) =       -7.75296568



--------------------------------------------------------------------------------------------------------


    POTLOK:  cpu time    3.4480: real time    3.4465


--------------------------------------------------------------------------------------------------------




--------------------------------------------------------------------------------------------------------


  
 reached required accuracy - stopping structural energy minimisation
     LOOP+:  cpu time   51.1880: real time   53.1792
    4ORBIT:  cpu time    0.0000: real time    0.0000

 total amount of memory used by VASP on root node    34918. kBytes
========================================================================

   base      :      30000. kBytes
   nonl-proj :        562. kBytes
   fftplans  :       1071. kBytes
   grid      :       3154. kBytes
   one-center:          6. kBytes
   wavefun   :        125. kBytes

  
  
 General timing and accounting informations for this job:
 ========================================================
  
                  Total CPU time used (sec):       51.832
                            User time (sec):       51.336
                          System time (sec):        0.496
                         Elapsed time (sec):       55.017
  
                   Maximum memory used (kb):      125624.
                   Average memory used (kb):           0.
  
                          Minor page faults:       235400
                          Major page faults:            7
                 Voluntary context switches:          287
