<?xml version="1.0" encoding="ISO-8859-1"?>
<modeling>
 <generator>
  <i name="program" type="string">vasp </i>
  <i name="version" type="string">5.4.1  </i>
  <i name="subversion" type="string">24Jun15 (build Feb  9 2019 14:16:27) complex                          parallel </i>
  <i name="platform" type="string">IFC91_ompi </i>
  <i name="date" type="string">2020 09 26 </i>
  <i name="time" type="string">22:24:57 </i>
 </generator>
 <incar>
  <i type="string" name="PREC">accurate</i>
  <i type="int" name="NELM">   400</i>
  <i type="int" name="IBRION">     2</i>
  <i name="EDIFF">      0.00000010</i>
  <i type="int" name="NSW">     1</i>
  <i type="int" name="ISIF">     2</i>
  <i name="ENCUT">    750.00000000</i>
  <i type="int" name="ISMEAR">     0</i>
  <i type="logical" name="LWAVE"> F  </i>
  <i type="logical" name="LCHARG"> F  </i>
  <v type="int" name="KPOINT_BSE">    -1     0     0     0</v>
  <i type="int" name="NELM">   400</i>
  <i type="string" name="GGA">BO</i>
  <i name="PARAM1">      0.18333333</i>
  <i name="PARAM2">      0.22000000</i>
  <i type="logical" name="LUSE_VDW"> T  </i>
  <i name="AGGAC">      0.00000000</i>
 </incar>
 <kpoints>
  <generation param="Gamma">
   <v type="int" name="divisions">       3        3        3 </v>
   <v name="usershift">      0.00000000       0.00000000       0.00000000 </v>
   <v name="genvec1">      0.33333333       0.00000000       0.00000000 </v>
   <v name="genvec2">      0.00000000       0.33333333       0.00000000 </v>
   <v name="genvec3">      0.00000000       0.00000000       0.33333333 </v>
   <v name="shift">      0.00000000       0.00000000       0.00000000 </v>
  </generation>
  <varray name="kpointlist" >
   <v>       0.00000000       0.00000000       0.00000000 </v>
   <v>       0.33333333       0.00000000       0.00000000 </v>
   <v>       0.33333333       0.33333333       0.00000000 </v>
   <v>      -0.33333333       0.33333333       0.00000000 </v>
  </varray>
  <varray name="weights" >
   <v>       0.03703704 </v>
   <v>       0.29629630 </v>
   <v>       0.22222222 </v>
   <v>       0.44444444 </v>
  </varray>
 </kpoints>
 <parameters>
  <separator name="general" >
   <i type="string" name="SYSTEM">unknown system</i>
   <i type="logical" name="LCOMPAT"> F  </i>
  </separator>
  <separator name="electronic" >
   <i type="string" name="PREC">accura</i>
   <i name="ENMAX">    750.00000000</i>
   <i name="ENAUG">    322.06900000</i>
   <i name="EDIFF">      0.00000010</i>
   <i type="int" name="IALGO">    38</i>
   <i type="int" name="IWAVPR">    11</i>
   <i type="int" name="NBANDS">    16</i>
   <i name="NELECT">      8.00000000</i>
   <i type="int" name="TURBO">     0</i>
   <i type="int" name="IRESTART">     0</i>
   <i type="int" name="NREBOOT">     0</i>
   <i type="int" name="NMIN">     0</i>
   <i name="EREF">      0.00000000</i>
   <separator name="electronic smearing" >
    <i type="int" name="ISMEAR">     0</i>
    <i name="SIGMA">      0.20000000</i>
    <i name="KSPACING">      0.50000000</i>
    <i type="logical" name="KGAMMA"> T  </i>
   </separator>
   <separator name="electronic projectors" >
    <i type="logical" name="LREAL"> F  </i>
    <v name="ROPT">      0.00000000</v>
    <i type="int" name="LMAXPAW">  -100</i>
    <i type="int" name="LMAXMIX">     2</i>
    <i type="logical" name="NLSPLINE"> F  </i>
   </separator>
   <separator name="electronic startup" >
    <i type="int" name="ISTART">     0</i>
    <i type="int" name="ICHARG">     2</i>
    <i type="int" name="INIWAV">     1</i>
   </separator>
   <separator name="electronic spin" >
    <i type="int" name="ISPIN">     1</i>
    <i type="logical" name="LNONCOLLINEAR"> F  </i>
    <v name="MAGMOM">      1.00000000      1.00000000</v>
    <i name="NUPDOWN">     -1.00000000</i>
    <i type="logical" name="LSORBIT"> F  </i>
    <v name="SAXIS">      0.00000000      0.00000000      1.00000000</v>
    <i type="logical" name="LSPIRAL"> F  </i>
    <v name="QSPIRAL">      0.00000000      0.00000000      0.00000000</v>
    <i type="logical" name="LZEROZ"> F  </i>
   </separator>
   <separator name="electronic exchange-correlation" >
    <i type="logical" name="LASPH"> F  </i>
    <i type="logical" name="LMETAGGA"> F  </i>
   </separator>
   <separator name="electronic convergence" >
    <i type="int" name="NELM">   400</i>
    <i type="int" name="NELMDL">    -5</i>
    <i type="int" name="NELMIN">     2</i>
    <i name="ENINI">    750.00000000</i>
    <separator name="electronic convergence detail" >
     <i type="logical" name="LDIAG"> T  </i>
     <i type="logical" name="LSUBROT"> F  </i>
     <i name="WEIMIN">      0.00100000</i>
     <i name="EBREAK">      0.00000000</i>
     <i name="DEPER">      0.30000000</i>
     <i type="int" name="NRMM">     4</i>
     <i name="TIME">      0.40000000</i>
    </separator>
   </separator>
   <separator name="electronic mixer" >
    <i name="AMIX">      0.40000000</i>
    <i name="BMIX">      1.00000000</i>
    <i name="AMIN">      0.10000000</i>
    <i name="AMIX_MAG">      1.60000000</i>
    <i name="BMIX_MAG">      1.00000000</i>
    <separator name="electronic mixer details" >
     <i type="int" name="IMIX">     4</i>
     <i type="logical" name="MIXFIRST"> F  </i>
     <i type="int" name="MAXMIX">   -45</i>
     <i name="WC">    100.00000000</i>
     <i type="int" name="INIMIX">     1</i>
     <i type="int" name="MIXPRE">     1</i>
     <i type="int" name="MREMOVE">     5</i>
    </separator>
   </separator>
   <separator name="electronic dipolcorrection" >
    <i type="logical" name="LDIPOL"> F  </i>
    <i type="logical" name="LMONO"> F  </i>
    <i type="int" name="IDIPOL">     0</i>
    <i name="EPSILON">      1.00000000</i>
    <v name="DIPOL">   -100.00000000   -100.00000000   -100.00000000</v>
    <i name="EFIELD">      0.00000000</i>
   </separator>
  </separator>
  <separator name="grids" >
   <i type="int" name="NGX">    36</i>
   <i type="int" name="NGY">    36</i>
   <i type="int" name="NGZ">    36</i>
   <i type="int" name="NGXF">    72</i>
   <i type="int" name="NGYF">    72</i>
   <i type="int" name="NGZF">    72</i>
   <i type="logical" name="ADDGRID"> F  </i>
  </separator>
  <separator name="ionic" >
   <i type="int" name="NSW">     1</i>
   <i type="int" name="IBRION">     2</i>
   <i type="int" name="ISIF">     2</i>
   <i name="PSTRESS">      0.00000000</i>
   <i name="EDIFFG">      0.00000100</i>
   <i type="int" name="NFREE">     1</i>
   <i name="POTIM">      0.50000000</i>
   <i name="SMASS">     -3.00000000</i>
   <i name="SCALEE">      1.00000000</i>
  </separator>
  <separator name="ionic md" >
   <i name="TEBEG">      0.00010000</i>
   <i name="TEEND">      0.00010000</i>
   <i type="int" name="NBLOCK">     1</i>
   <i type="int" name="KBLOCK">     1</i>
   <i type="int" name="NPACO">   256</i>
   <i name="APACO">     16.00000000</i>
  </separator>
  <separator name="symmetry" >
   <i type="int" name="ISYM">     2</i>
   <i name="SYMPREC">      0.00001000</i>
  </separator>
  <separator name="dos" >
   <i type="logical" name="LORBIT"> T  </i>
   <v name="RWIGS">     -1.00000000</v>
   <i type="int" name="NEDOS">   301</i>
   <i name="EMIN">     10.00000000</i>
   <i name="EMAX">    -10.00000000</i>
   <i name="EFERMI">      0.00000000</i>
  </separator>
  <separator name="writing" >
   <i type="int" name="NWRITE">     2</i>
   <i type="logical" name="LWAVE"> F  </i>
   <i type="logical" name="LCHARG"> F  </i>
   <i type="logical" name="LPARD"> F  </i>
   <i type="logical" name="LVTOT"> F  </i>
   <i type="logical" name="LVHAR"> F  </i>
   <i type="logical" name="LELF"> F  </i>
   <i type="logical" name="LOPTICS"> F  </i>
   <v name="STM">      0.00000000      0.00000000      0.00000000      0.00000000      0.00000000      0.00000000      0.00000000</v>
  </separator>
  <separator name="performance" >
   <i type="int" name="NPAR">    16</i>
   <i type="int" name="NSIM">     4</i>
   <i type="int" name="NBLK">    -1</i>
   <i type="logical" name="LPLANE"> T  </i>
   <i type="logical" name="LSCALAPACK"> T  </i>
   <i type="logical" name="LSCAAWARE"> F  </i>
   <i type="logical" name="LSCALU"> F  </i>
   <i type="logical" name="LASYNC"> F  </i>
   <i type="logical" name="LORBITALREAL"> F  </i>
  </separator>
  <separator name="miscellaneous" >
   <i type="int" name="IDIOT">     3</i>
   <i type="logical" name="LMUSIC"> F  </i>
   <v name="POMASS">     28.08500000</v>
   <v name="DARWINR">      0.00000000</v>
   <v name="DARWINV">      1.00000000</v>
   <i type="logical" name="LCORR"> T  </i>
  </separator>
  <i type="logical" name="GGA_COMPAT"> T  </i>
  <i type="logical" name="LBERRY"> F  </i>
  <i type="int" name="ICORELEVEL">     0</i>
  <i type="logical" name="LDAU"> F  </i>
  <i type="int" name="I_CONSTRAINED_M">     0</i>
  <separator name="electronic exchange-correlation" >
   <i type="string" name="GGA">BO</i>
   <i type="int" name="VOSKOWN">     0</i>
   <i type="logical" name="LHFCALC"> F  </i>
   <i type="string" name="PRECFOCK"></i>
   <i type="logical" name="LSYMGRAD"> F  </i>
   <i type="logical" name="LHFONE"> F  </i>
   <i type="logical" name="LRHFCALC"> F  </i>
   <i type="logical" name="LTHOMAS"> F  </i>
   <i type="logical" name="LMODELHF"> F  </i>
   <i name="ENCUT4O">     -1.00000000</i>
   <i type="int" name="EXXOEP">     0</i>
   <i type="int" name="FOURORBIT">     0</i>
   <i name="AEXX">      0.00000000</i>
   <i name="HFALPHA">      0.00000000</i>
   <i name="MCALPHA">      0.00000000</i>
   <i name="ALDAX">      1.00000000</i>
   <i name="AGGAX">      1.00000000</i>
   <i name="ALDAC">      1.00000000</i>
   <i name="AGGAC">      0.00000000</i>
   <i type="int" name="NKREDX">     1</i>
   <i type="int" name="NKREDY">     1</i>
   <i type="int" name="NKREDZ">     1</i>
   <i type="logical" name="SHIFTRED"> F  </i>
   <i type="logical" name="ODDONLY"> F  </i>
   <i type="logical" name="EVENONLY"> F  </i>
   <i type="int" name="LMAXFOCK">     0</i>
   <i type="int" name="NMAXFOCKAE">     0</i>
   <i type="logical" name="LFOCKAEDFT"> F  </i>
   <i name="HFSCREEN">      0.00000000</i>
   <i name="HFSCREENC">      0.00000000</i>
   <i type="int" name="NBANDSGWLOW">     0</i>
  </separator>
  <separator name="vdW DFT" >
   <i type="logical" name="LUSE_VDW"> T  </i>
   <i name="Zab_VDW">     -0.84910000</i>
   <i name="PARAM1">      0.18333333</i>
   <i name="PARAM2">      0.22000000</i>
   <i name="PARAM3">      0.00000000</i>
  </separator>
  <separator name="model GW" >
   <i type="int" name="MODEL_GW">     0</i>
   <i name="MODEL_EPS0">     12.43490274</i>
   <i name="MODEL_ALPHA">      1.00000000</i>
  </separator>
  <separator name="linear response parameters" >
   <i type="logical" name="LEPSILON"> F  </i>
   <i type="logical" name="LRPA"> F  </i>
   <i type="logical" name="LNABLA"> F  </i>
   <i type="logical" name="LVEL"> F  </i>
   <i type="int" name="KINTER">     0</i>
   <i name="CSHIFT">      0.10000000</i>
   <i name="OMEGAMAX">     -1.00000000</i>
   <i name="DEG_THRESHOLD">      0.00200000</i>
  </separator>
  <separator name="orbital magnetization" >
   <i type="logical" name="NUCIND"> F  </i>
   <v name="MAGPOS">      0.00000000      0.00000000      0.00000000</v>
   <i type="logical" name="LNICSALL"> T  </i>
   <i type="logical" name="ORBITALMAG"> F  </i>
   <i type="logical" name="LMAGBLOCH"> F  </i>
   <i type="logical" name="LCHIMAG"> F  </i>
   <i type="logical" name="LGAUGE"> T  </i>
   <i type="int" name="MAGATOM">     0</i>
   <v name="MAGDIPOL">      0.00000000      0.00000000      0.00000000</v>
   <v name="AVECCONST">      0.00000000      0.00000000      0.00000000</v>
  </separator>
  <separator name="response functions" >
   <i type="logical" name="LADDER"> F  </i>
   <i type="logical" name="LFXC"> F  </i>
   <i type="logical" name="LHARTREE"> T  </i>
   <i type="int" name="IBSE">     0</i>
   <v type="int" name="KPOINT">    -1     0     0     0</v>
   <i type="logical" name="LTCTE"> F  </i>
   <i type="logical" name="LTETE"> F  </i>
   <i type="logical" name="LTRIPLET"> F  </i>
   <i type="logical" name="LFXCEPS"> F  </i>
   <i type="logical" name="LFXHEG"> F  </i>
   <i type="int" name="NATURALO">     0</i>
   <i type="logical" name="L2ORDER"> F  </i>
   <i type="logical" name="LUSEW"> F  </i>
   <i name="ENCUTGW">     -2.00000000</i>
   <i name="ENCUTGWSOFT">     -2.00000000</i>
   <i name="ENCUTLF">     -1.00000000</i>
   <i type="int" name="LMAXMP2">    -1</i>
   <i name="SCISSOR">      0.00000000</i>
   <i type="int" name="NOMEGA">     0</i>
   <i type="int" name="NOMEGAR">     0</i>
   <i type="int" name="NBANDSGW">    -1</i>
   <i type="int" name="NBANDSO">    -1</i>
   <i type="int" name="NBANDSV">    -1</i>
   <i type="int" name="NELM">   400</i>
   <i type="int" name="NELMHF">     1</i>
   <i type="int" name="DIM">     3</i>
   <i type="int" name="ANTIRES">     0</i>
   <i name="OMEGAMAX">    -30.00000000</i>
   <i name="OMEGAMIN">    -30.00000000</i>
   <i name="OMEGATL">   -200.00000000</i>
   <i type="int" name="OMEGAGRID">     0</i>
   <i name="CSHIFT">     -0.10000000</i>
   <i type="logical" name="SELFENERGY"> F  </i>
   <i type="logical" name="LSPECTRAL"> F  </i>
   <i type="logical" name="LSPECTRALGW"> F  </i>
   <i type="logical" name="LSINGLES"> F  </i>
   <i type="logical" name="LFERMIGW"> F  </i>
   <i type="logical" name="ODDONLYGW"> F  </i>
   <i type="logical" name="EVENONLYGW"> F  </i>
   <i type="int" name="NKREDLFX">     1</i>
   <i type="int" name="NKREDLFY">     1</i>
   <i type="int" name="NKREDLFZ">     1</i>
   <i type="int" name="MAXMEM">  1800</i>
   <i type="int" name="TELESCOPE">     0</i>
   <i type="int" name="TAUPAR">     1</i>
   <i type="int" name="OMEGAPAR">    -1</i>
   <i name="LAMBDA">      1.00000000</i>
  </separator>
  <separator name="External order field" >
   <i name="OFIELD_KAPPA">      0.00000000</i>
   <v name="OFIELD_K">      0.00000000      0.00000000      0.00000000</v>
   <i name="OFIELD_Q6_NEAR">      0.00000000</i>
   <i name="OFIELD_Q6_FAR">      0.00000000</i>
   <i name="OFIELD_A">      0.00000000</i>
  </separator>
 </parameters>
 <atominfo>
  <atoms>       2 </atoms>
  <types>       1 </types>
  <array name="atoms" >
   <dimension dim="1">ion</dimension>
   <field type="string">element</field>
   <field type="int">atomtype</field>
   <set>
    <rc><c>Si</c><c>   1</c></rc>
    <rc><c>Si</c><c>   1</c></rc>
   </set>
  </array>
  <array name="atomtypes" >
   <dimension dim="1">type</dimension>
   <field type="int">atomspertype</field>
   <field type="string">element</field>
   <field>mass</field>
   <field>valence</field>
   <field type="string">pseudopotential</field>
   <set>
    <rc><c>   2</c><c>Si</c><c>     28.08500000</c><c>      4.00000000</c><c>  PAW_PBE Si 05Jan2001                  </c></rc>
   </set>
  </array>
 </atominfo>
 <structure name="initialpos" >
  <crystal>
   <varray name="basis" >
    <v>       0.00000000       2.74682114       2.74682114 </v>
    <v>       2.74682114       0.00000000       2.74682114 </v>
    <v>       2.74682114       2.74682114       0.00000000 </v>
   </varray>
   <i name="volume">     41.44967579 </i>
   <varray name="rec_basis" >
    <v>      -0.18202860       0.18202860       0.18202860 </v>
    <v>       0.18202860      -0.18202860       0.18202860 </v>
    <v>       0.18202860       0.18202860      -0.18202860 </v>
   </varray>
  </crystal>
  <varray name="positions" >
   <v>       0.75000000       0.75000000       0.75000000 </v>
   <v>       0.50000000       0.50000000       0.50000000 </v>
  </varray>
 </structure>
 <calculation>
  <scstep>
   <time name="dav">    0.08    0.08</time>
   <time name="total">    4.06    4.06</time>
   <energy>
    <i name="alphaZ">      3.24857844 </i>
    <i name="ewald">   -225.91568183 </i>
    <i name="hartreedc">    -11.53197166 </i>
    <i name="XCdc">    -20.29573788 </i>
    <i name="pawpsdc">    189.40224250 </i>
    <i name="pawaedc">   -152.61488262 </i>
    <i name="eentropy">     -0.03200897 </i>
    <i name="bandstr">     18.29697843 </i>
    <i name="atom">    208.59455892 </i>
    <i name="e_fr_energy">      9.15207533 </i>
    <i name="e_wo_entrp">      9.18408429 </i>
    <i name="e_0_energy">      9.16807981 </i>
   </energy>
  </scstep>
  <scstep>
   <time name="dav">    0.11    0.11</time>
   <time name="total">    0.11    0.20</time>
   <energy>
    <i name="e_fr_energy">     -7.73755112 </i>
    <i name="e_wo_entrp">     -7.73752255 </i>
    <i name="e_0_energy">     -7.73753683 </i>
   </energy>
  </scstep>
  <scstep>
   <time name="dav">    0.11    0.11</time>
   <time name="total">    0.11    0.12</time>
   <energy>
    <i name="e_fr_energy">     -7.87315012 </i>
    <i name="e_wo_entrp">     -7.87313184 </i>
    <i name="e_0_energy">     -7.87314098 </i>
   </energy>
  </scstep>
  <scstep>
   <time name="dav">    0.16    0.16</time>
   <time name="total">    0.16    0.18</time>
   <energy>
    <i name="e_fr_energy">     -7.87358929 </i>
    <i name="e_wo_entrp">     -7.87357100 </i>
    <i name="e_0_energy">     -7.87358015 </i>
   </energy>
  </scstep>
  <scstep>
   <time name="dav">    0.10    0.11</time>
   <time name="total">    0.14    0.17</time>
   <energy>
    <i name="e_fr_energy">     -7.87358931 </i>
    <i name="e_wo_entrp">     -7.87357101 </i>
    <i name="e_0_energy">     -7.87358016 </i>
   </energy>
  </scstep>
  <scstep>
   <time name="dav">    0.09    0.09</time>
   <time name="total">    3.62    3.63</time>
   <energy>
    <i name="e_fr_energy">     -7.79264163 </i>
    <i name="e_wo_entrp">     -7.79254466 </i>
    <i name="e_0_energy">     -7.79259314 </i>
   </energy>
  </scstep>
  <scstep>
   <time name="dav">    0.11    0.11</time>
   <time name="total">    3.65    3.70</time>
   <energy>
    <i name="e_fr_energy">     -7.77064999 </i>
    <i name="e_wo_entrp">     -7.76974248 </i>
    <i name="e_0_energy">     -7.77019623 </i>
   </energy>
  </scstep>
  <scstep>
   <time name="dav">    0.07    0.07</time>
   <time name="total">    3.54    3.79</time>
   <energy>
    <i name="e_fr_energy">     -7.75275746 </i>
    <i name="e_wo_entrp">     -7.75213880 </i>
    <i name="e_0_energy">     -7.75244813 </i>
   </energy>
  </scstep>
  <scstep>
   <time name="dav">    0.10    0.10</time>
   <time name="total">    3.60    3.64</time>
   <energy>
    <i name="e_fr_energy">     -7.75333358 </i>
    <i name="e_wo_entrp">     -7.75265845 </i>
    <i name="e_0_energy">     -7.75299602 </i>
   </energy>
  </scstep>
  <scstep>
   <time name="dav">    0.12    0.13</time>
   <time name="total">    3.64    3.74</time>
   <energy>
    <i name="e_fr_energy">     -7.75357271 </i>
    <i name="e_wo_entrp">     -7.75290998 </i>
    <i name="e_0_energy">     -7.75324135 </i>
   </energy>
  </scstep>
  <scstep>
   <time name="dav">    0.12    0.12</time>
   <time name="total">    3.65    3.73</time>
   <energy>
    <i name="e_fr_energy">     -7.75331240 </i>
    <i name="e_wo_entrp">     -7.75265330 </i>
    <i name="e_0_energy">     -7.75298285 </i>
   </energy>
  </scstep>
  <scstep>
   <time name="dav">    0.08    0.08</time>
   <time name="total">    3.58    4.04</time>
   <energy>
    <i name="e_fr_energy">     -7.75330531 </i>
    <i name="e_wo_entrp">     -7.75264629 </i>
    <i name="e_0_energy">     -7.75297580 </i>
   </energy>
  </scstep>
  <scstep>
   <time name="dav">    0.11    0.11</time>
   <time name="total">    3.63    3.65</time>
   <energy>
    <i name="e_fr_energy">     -7.75329113 </i>
    <i name="e_wo_entrp">     -7.75263236 </i>
    <i name="e_0_energy">     -7.75296175 </i>
   </energy>
  </scstep>
  <scstep>
   <time name="dav">    0.07    0.06</time>
   <time name="total">    3.50    3.59</time>
   <energy>
    <i name="e_fr_energy">     -7.75329491 </i>
    <i name="e_wo_entrp">     -7.75263612 </i>
    <i name="e_0_energy">     -7.75296552 </i>
   </energy>
  </scstep>
  <scstep>
   <time name="dav">    0.05    0.05</time>
   <time name="total">    3.54    3.57</time>
   <energy>
    <i name="e_fr_energy">     -7.75329505 </i>
    <i name="e_wo_entrp">     -7.75263625 </i>
    <i name="e_0_energy">     -7.75296565 </i>
   </energy>
  </scstep>
  <scstep>
   <time name="dav">    0.05    0.05</time>
   <time name="total">    3.53    3.99</time>
   <energy>
    <i name="alphaZ">      3.24857844 </i>
    <i name="ewald">   -225.91568183 </i>
    <i name="hartreedc">    -16.28764120 </i>
    <i name="XCdc">    -19.53490778 </i>
    <i name="pawpsdc">    534.33961102 </i>
    <i name="pawaedc">   -497.80449475 </i>
    <i name="eentropy">     -0.00065880 </i>
    <i name="bandstr">      5.60734090 </i>
    <i name="atom">    208.59455892 </i>
    <i name="e_fr_energy">     -7.75329508 </i>
    <i name="e_wo_entrp">     -7.75263628 </i>
    <i name="e_0_energy">     -7.75296568 </i>
   </energy>
  </scstep>
  <structure>
   <crystal>
    <varray name="basis" >
     <v>       0.00000000       2.74682114       2.74682114 </v>
     <v>       2.74682114       0.00000000       2.74682114 </v>
     <v>       2.74682114       2.74682114       0.00000000 </v>
    </varray>
    <i name="volume">     41.44967579 </i>
    <varray name="rec_basis" >
     <v>      -0.18202860       0.18202860       0.18202860 </v>
     <v>       0.18202860      -0.18202860       0.18202860 </v>
     <v>       0.18202860       0.18202860      -0.18202860 </v>
    </varray>
   </crystal>
   <varray name="positions" >
    <v>       0.75000000       0.75000000       0.75000000 </v>
    <v>       0.50000000       0.50000000       0.50000000 </v>
   </varray>
  </structure>
  <varray name="forces" >
   <v>      -0.00000000      -0.00000000      -0.00000000 </v>
   <v>       0.00000000       0.00000000       0.00000000 </v>
  </varray>
  <varray name="stress" >
   <v>      15.88633209       0.00000000      -0.00000000 </v>
   <v>       0.00000000      15.88633209       0.00000000 </v>
   <v>       0.00000000       0.00000000      15.88633209 </v>
  </varray>
  <energy>
   <i name="e_fr_energy">     -7.75329508 </i>
   <i name="e_wo_entrp">     -7.75296568 </i>
   <i name="e_0_energy">     -0.00065880 </i>
  </energy>
  <time name="totalsc">   51.19   53.18</time>
  <eigenvalues>
   <array>
    <dimension dim="1">band</dimension>
    <dimension dim="2">kpoint</dimension>
    <dimension dim="3">spin</dimension>
    <field>eigene</field>
    <field>occ</field>
    <set>
     <set comment="spin 1">
      <set comment="kpoint 1">
       <r>   -6.1124    1.0000 </r>
       <r>    5.5583    0.9966 </r>
       <r>    5.5583    0.9966 </r>
       <r>    5.5583    0.9966 </r>
       <r>    8.1379    0.0000 </r>
       <r>    8.1379    0.0000 </r>
       <r>    8.1379    0.0000 </r>
       <r>    8.6460    0.0000 </r>
       <r>   13.2634    0.0000 </r>
       <r>   13.2634    0.0000 </r>
       <r>   13.3912    0.0000 </r>
       <r>   16.6814    0.0000 </r>
       <r>   16.6814    0.0000 </r>
       <r>   16.6814    0.0000 </r>
       <r>   20.7810    0.0000 </r>
       <r>   28.2500    0.0000 </r>
      </set>
      <set comment="kpoint 2">
       <r>   -4.7784    1.0000 </r>
       <r>    0.3627    1.0000 </r>
       <r>    4.5958    1.0000 </r>
       <r>    4.5958    1.0000 </r>
       <r>    7.2561    0.0000 </r>
       <r>    9.0759    0.0000 </r>
       <r>    9.0759    0.0000 </r>
       <r>   13.2978    0.0000 </r>
       <r>   13.4878    0.0000 </r>
       <r>   13.4878    0.0000 </r>
       <r>   14.4676    0.0000 </r>
       <r>   18.8896    0.0000 </r>
       <r>   19.9338    0.0000 </r>
       <r>   19.9338    0.0000 </r>
       <r>   21.9661    0.0000 </r>
       <r>   22.9511    0.0000 </r>
      </set>
      <set comment="kpoint 3">
       <r>   -4.2644    1.0000 </r>
       <r>    0.6290    1.0000 </r>
       <r>    3.2353    1.0000 </r>
       <r>    3.2353    1.0000 </r>
       <r>    6.3563    0.0017 </r>
       <r>    7.6108    0.0000 </r>
       <r>   12.6842    0.0000 </r>
       <r>   12.6842    0.0000 </r>
       <r>   15.0536    0.0000 </r>
       <r>   15.3597    0.0000 </r>
       <r>   18.3883    0.0000 </r>
       <r>   18.8262    0.0000 </r>
       <r>   18.8262    0.0000 </r>
       <r>   20.5149    0.0000 </r>
       <r>   21.5266    0.0000 </r>
       <r>   21.6794    0.0000 </r>
      </set>
      <set comment="kpoint 4">
       <r>   -2.9551    1.0000 </r>
       <r>   -1.0712    1.0000 </r>
       <r>    1.3240    1.0000 </r>
       <r>    3.5282    1.0000 </r>
       <r>    7.1771    0.0000 </r>
       <r>   11.3110    0.0000 </r>
       <r>   11.9494    0.0000 </r>
       <r>   12.4767    0.0000 </r>
       <r>   12.8065    0.0000 </r>
       <r>   13.1776    0.0000 </r>
       <r>   19.7325    0.0000 </r>
       <r>   20.2669    0.0000 </r>
       <r>   20.8577    0.0000 </r>
       <r>   21.0400    0.0000 </r>
       <r>   21.8647    0.0000 </r>
       <r>   22.7509    0.0000 </r>
      </set>
     </set>
    </set>
   </array>
  </eigenvalues>
  <separator name="orbital magnetization" >
   <v name="MAGDIPOLOUT">      0.00000000      0.00000000      0.00000000</v>
  </separator>
  <dos>
   <i name="efermi">      5.94154833 </i>
   <total>
    <array>
     <dimension dim="1">gridpoints</dimension>
     <dimension dim="2">spin</dimension>
     <field>energy</field>
     <field>total</field>
     <field>integrated</field>
     <set>
      <set comment="spin 1">
       <r>    -8.1124     0.0000     0.0000 </r>
       <r>    -7.9846     0.0000     0.0000 </r>
       <r>    -7.8567     0.0000     0.0000 </r>
       <r>    -7.7288     0.0000     0.0000 </r>
       <r>    -7.6009     0.0000     0.0000 </r>
       <r>    -7.4731     0.0000     0.0000 </r>
       <r>    -7.3452     0.0000     0.0000 </r>
       <r>    -7.2173     0.0000     0.0000 </r>
       <r>    -7.0894     0.0000     0.0000 </r>
       <r>    -6.9616     0.0000     0.0000 </r>
       <r>    -6.8337     0.0000     0.0000 </r>
       <r>    -6.7058     0.0000     0.0000 </r>
       <r>    -6.5779     0.0003     0.0000 </r>
       <r>    -6.4501     0.0046     0.0006 </r>
       <r>    -6.3222     0.0351     0.0051 </r>
       <r>    -6.1943     0.1230     0.0208 </r>
       <r>    -6.0664     0.2005     0.0465 </r>
       <r>    -5.9386     0.1524     0.0660 </r>
       <r>    -5.8107     0.0539     0.0729 </r>
       <r>    -5.6828     0.0088     0.0740 </r>
       <r>    -5.5549     0.0007     0.0741 </r>
       <r>    -5.4271     0.0000     0.0741 </r>
       <r>    -5.2992     0.0005     0.0741 </r>
       <r>    -5.1713     0.0121     0.0757 </r>
       <r>    -5.0434     0.1285     0.0921 </r>
       <r>    -4.9156     0.6283     0.1725 </r>
       <r>    -4.7877     1.4265     0.3549 </r>
       <r>    -4.6598     1.5163     0.5488 </r>
       <r>    -4.5319     0.8351     0.6555 </r>
       <r>    -4.4041     0.6299     0.7361 </r>
       <r>    -4.2762     1.0782     0.8740 </r>
       <r>    -4.1483     1.1387     1.0196 </r>
       <r>    -4.0204     0.5688     1.0923 </r>
       <r>    -3.8926     0.1321     1.1092 </r>
       <r>    -3.7647     0.0142     1.1110 </r>
       <r>    -3.6368     0.0007     1.1111 </r>
       <r>    -3.5089     0.0003     1.1112 </r>
       <r>    -3.3811     0.0087     1.1123 </r>
       <r>    -3.2532     0.1128     1.1267 </r>
       <r>    -3.1253     0.6733     1.2128 </r>
       <r>    -2.9974     1.8626     1.4510 </r>
       <r>    -2.8696     2.3984     1.7577 </r>
       <r>    -2.7417     1.4389     1.9417 </r>
       <r>    -2.6138     0.4013     1.9930 </r>
       <r>    -2.4859     0.0518     1.9996 </r>
       <r>    -2.3581     0.0031     2.0000 </r>
       <r>    -2.2302     0.0001     2.0000 </r>
       <r>    -2.1023     0.0000     2.0000 </r>
       <r>    -1.9744     0.0000     2.0000 </r>
       <r>    -1.8466     0.0000     2.0000 </r>
       <r>    -1.7187     0.0000     2.0000 </r>
       <r>    -1.5908     0.0008     2.0001 </r>
       <r>    -1.4629     0.0187     2.0025 </r>
       <r>    -1.3351     0.1963     2.0276 </r>
       <r>    -1.2072     0.9531     2.1495 </r>
       <r>    -1.0793     2.1480     2.4241 </r>
       <r>    -0.9514     2.2544     2.7124 </r>
       <r>    -0.8236     1.1021     2.8534 </r>
       <r>    -0.6957     0.2502     2.8854 </r>
       <r>    -0.5678     0.0262     2.8887 </r>
       <r>    -0.4399     0.0013     2.8889 </r>
       <r>    -0.3121     0.0000     2.8889 </r>
       <r>    -0.1842     0.0003     2.8889 </r>
       <r>    -0.0563     0.0068     2.8898 </r>
       <r>     0.0716     0.0847     2.9006 </r>
       <r>     0.1994     0.4879     2.9630 </r>
       <r>     0.3273     1.3370     3.1340 </r>
       <r>     0.4552     1.9096     3.3782 </r>
       <r>     0.5831     1.8274     3.6118 </r>
       <r>     0.7109     1.4474     3.7969 </r>
       <r>     0.8388     0.7696     3.8953 </r>
       <r>     0.9667     0.2498     3.9273 </r>
       <r>     1.0946     0.3517     3.9722 </r>
       <r>     1.2224     1.2804     4.1360 </r>
       <r>     1.3503     2.3459     4.4360 </r>
       <r>     1.4782     2.0048     4.6923 </r>
       <r>     1.6061     0.7977     4.7943 </r>
       <r>     1.7339     0.1472     4.8131 </r>
       <r>     1.8618     0.0125     4.8148 </r>
       <r>     1.9897     0.0005     4.8148 </r>
       <r>     2.1176     0.0000     4.8148 </r>
       <r>     2.2454     0.0000     4.8148 </r>
       <r>     2.3733     0.0000     4.8148 </r>
       <r>     2.5012     0.0000     4.8148 </r>
       <r>     2.6291     0.0001     4.8148 </r>
       <r>     2.7569     0.0024     4.8151 </r>
       <r>     2.8848     0.0434     4.8207 </r>
       <r>     3.0127     0.3563     4.8662 </r>
       <r>     3.1406     1.3670     5.0411 </r>
       <r>     3.2684     2.5803     5.3710 </r>
       <r>     3.3963     2.9352     5.7463 </r>
       <r>     3.5242     2.9197     6.1197 </r>
       <r>     3.6520     2.3616     6.4217 </r>
       <r>     3.7799     1.0749     6.5592 </r>
       <r>     3.9078     0.2362     6.5894 </r>
       <r>     4.0357     0.0245     6.5925 </r>
       <r>     4.1635     0.0112     6.5939 </r>
       <r>     4.2914     0.1351     6.6112 </r>
       <r>     4.4193     0.8372     6.7182 </r>
       <r>     4.5472     2.4051     7.0258 </r>
       <r>     4.6750     3.2152     7.4369 </r>
       <r>     4.8029     2.0027     7.6930 </r>
       <r>     4.9308     0.5801     7.7672 </r>
       <r>     5.0587     0.0781     7.7772 </r>
       <r>     5.1865     0.0119     7.7787 </r>
       <r>     5.3144     0.0663     7.7872 </r>
       <r>     5.4423     0.2846     7.8236 </r>
       <r>     5.5702     0.5690     7.8963 </r>
       <r>     5.6980     0.5300     7.9641 </r>
       <r>     5.8259     0.2302     7.9935 </r>
       <r>     5.9538     0.0537     8.0004 </r>
       <r>     6.0817     0.0873     8.0116 </r>
       <r>     6.2095     0.4300     8.0666 </r>
       <r>     6.3374     1.0331     8.1987 </r>
       <r>     6.4653     1.1561     8.3465 </r>
       <r>     6.5932     0.6029     8.4236 </r>
       <r>     6.7210     0.1506     8.4429 </r>
       <r>     6.8489     0.0914     8.4545 </r>
       <r>     6.9768     0.5772     8.5283 </r>
       <r>     7.1047     2.1177     8.7991 </r>
       <r>     7.2325     3.7848     9.2831 </r>
       <r>     7.3604     3.4149     9.7198 </r>
       <r>     7.4883     1.9538     9.9696 </r>
       <r>     7.6162     1.4172    10.1509 </r>
       <r>     7.7440     1.1184    10.2939 </r>
       <r>     7.8719     0.5376    10.3626 </r>
       <r>     7.9998     0.3358    10.4056 </r>
       <r>     8.1277     0.5430    10.4750 </r>
       <r>     8.2555     0.5688    10.5477 </r>
       <r>     8.3834     0.2974    10.5858 </r>
       <r>     8.5113     0.1452    10.6043 </r>
       <r>     8.6392     0.1956    10.6293 </r>
       <r>     8.7670     0.3125    10.6693 </r>
       <r>     8.8949     0.8866    10.7827 </r>
       <r>     9.0228     2.3686    11.0856 </r>
       <r>     9.1507     3.2261    11.4981 </r>
       <r>     9.2785     2.0626    11.7619 </r>
       <r>     9.4064     0.6136    11.8403 </r>
       <r>     9.5343     0.0845    11.8511 </r>
       <r>     9.6622     0.0054    11.8518 </r>
       <r>     9.7900     0.0002    11.8519 </r>
       <r>     9.9179     0.0000    11.8519 </r>
       <r>    10.0458     0.0000    11.8519 </r>
       <r>    10.1737     0.0000    11.8519 </r>
       <r>    10.3015     0.0000    11.8519 </r>
       <r>    10.4294     0.0000    11.8519 </r>
       <r>    10.5573     0.0000    11.8519 </r>
       <r>    10.6852     0.0000    11.8519 </r>
       <r>    10.8130     0.0015    11.8520 </r>
       <r>    10.9409     0.0294    11.8558 </r>
       <r>    11.0688     0.2709    11.8904 </r>
       <r>    11.1967     1.1546    12.0381 </r>
       <r>    11.3245     2.2854    12.3303 </r>
       <r>    11.4524     2.1087    12.6000 </r>
       <r>    11.5803     0.9347    12.7195 </r>
       <r>    11.7082     0.4549    12.7777 </r>
       <r>    11.8360     1.1803    12.9286 </r>
       <r>    11.9639     2.2920    13.2217 </r>
       <r>    12.0918     2.1216    13.4930 </r>
       <r>    12.2197     1.1178    13.6359 </r>
       <r>    12.3475     1.2527    13.7961 </r>
       <r>    12.4754     2.7005    14.1415 </r>
       <r>    12.6033     4.1561    14.6729 </r>
       <r>    12.7312     4.9938    15.3115 </r>
       <r>    12.8590     4.5483    15.8931 </r>
       <r>    12.9869     3.0517    16.2833 </r>
       <r>    13.1148     2.9520    16.6608 </r>
       <r>    13.2427     4.4461    17.2294 </r>
       <r>    13.3705     5.3233    17.9101 </r>
       <r>    13.4984     4.9860    18.5477 </r>
       <r>    13.6263     3.3818    18.9801 </r>
       <r>    13.7542     1.3207    19.1490 </r>
       <r>    13.8820     0.2579    19.1820 </r>
       <r>    14.0099     0.0265    19.1854 </r>
       <r>    14.1378     0.0439    19.1910 </r>
       <r>    14.2657     0.3097    19.2306 </r>
       <r>    14.3935     1.0363    19.3631 </r>
       <r>    14.5214     1.6129    19.5694 </r>
       <r>    14.6493     1.1763    19.7198 </r>
       <r>    14.7772     0.4752    19.7806 </r>
       <r>    14.9050     0.4861    19.8427 </r>
       <r>    15.0329     1.0642    19.9788 </r>
       <r>    15.1608     1.4017    20.1581 </r>
       <r>    15.2887     1.4038    20.3376 </r>
       <r>    15.4165     1.3606    20.5116 </r>
       <r>    15.5444     0.8793    20.6240 </r>
       <r>    15.6723     0.2866    20.6606 </r>
       <r>    15.8002     0.0439    20.6663 </r>
       <r>    15.9280     0.0031    20.6667 </r>
       <r>    16.0559     0.0001    20.6667 </r>
       <r>    16.1838     0.0004    20.6667 </r>
       <r>    16.3117     0.0074    20.6677 </r>
       <r>    16.4395     0.0680    20.6764 </r>
       <r>    16.5674     0.2894    20.7134 </r>
       <r>    16.6953     0.5717    20.7865 </r>
       <r>    16.8232     0.5262    20.8538 </r>
       <r>    16.9510     0.2255    20.8826 </r>
       <r>    17.0789     0.0449    20.8883 </r>
       <r>    17.2068     0.0041    20.8889 </r>
       <r>    17.3347     0.0002    20.8889 </r>
       <r>    17.4625     0.0000    20.8889 </r>
       <r>    17.5904     0.0000    20.8889 </r>
       <r>    17.7183     0.0000    20.8889 </r>
       <r>    17.8462     0.0002    20.8889 </r>
       <r>    17.9740     0.0057    20.8896 </r>
       <r>    18.1019     0.0686    20.8984 </r>
       <r>    18.2298     0.3816    20.9472 </r>
       <r>    18.3577     0.9875    21.0735 </r>
       <r>    18.4855     1.2432    21.2325 </r>
       <r>    18.6134     1.1732    21.3825 </r>
       <r>    18.7413     2.1811    21.6614 </r>
       <r>    18.8692     3.7894    22.1460 </r>
       <r>    18.9970     3.4045    22.5813 </r>
       <r>    19.1249     1.4827    22.7709 </r>
       <r>    19.2528     0.3130    22.8110 </r>
       <r>    19.3807     0.0737    22.8204 </r>
       <r>    19.5085     0.3621    22.8667 </r>
       <r>    19.6364     1.4851    23.0566 </r>
       <r>    19.7643     3.2729    23.4751 </r>
       <r>    19.8922     4.4772    24.0476 </r>
       <r>    20.0200     4.2033    24.5851 </r>
       <r>    20.1479     3.1681    24.9903 </r>
       <r>    20.2758     2.9415    25.3664 </r>
       <r>    20.4037     2.8096    25.7257 </r>
       <r>    20.5315     2.1912    26.0059 </r>
       <r>    20.6594     1.8361    26.2407 </r>
       <r>    20.7873     2.4679    26.5563 </r>
       <r>    20.9152     3.7442    27.0350 </r>
       <r>    21.0430     4.0321    27.5506 </r>
       <r>    21.1709     2.7879    27.9071 </r>
       <r>    21.2988     1.2642    28.0688 </r>
       <r>    21.4267     0.9883    28.1952 </r>
       <r>    21.5545     1.8239    28.4284 </r>
       <r>    21.6824     2.7915    28.7854 </r>
       <r>    21.8103     3.7553    29.2656 </r>
       <r>    21.9382     4.3181    29.8178 </r>
       <r>    22.0660     3.2408    30.2322 </r>
       <r>    22.1939     1.3421    30.4038 </r>
       <r>    22.3218     0.2943    30.4414 </r>
       <r>    22.4497     0.1380    30.4591 </r>
       <r>    22.5775     0.6699    30.5448 </r>
       <r>    22.7054     2.0047    30.8011 </r>
       <r>    22.8333     3.1524    31.2042 </r>
       <r>    22.9612     2.9811    31.5854 </r>
       <r>    23.0890     1.8408    31.8208 </r>
       <r>    23.2169     0.6791    31.9076 </r>
       <r>    23.3448     0.1304    31.9243 </r>
       <r>    23.4727     0.0120    31.9259 </r>
       <r>    23.6005     0.0005    31.9259 </r>
       <r>    23.7284     0.0000    31.9259 </r>
       <r>    23.8563     0.0000    31.9259 </r>
       <r>    23.9842     0.0000    31.9259 </r>
       <r>    24.1120     0.0000    31.9259 </r>
       <r>    24.2399     0.0000    31.9259 </r>
       <r>    24.3678     0.0000    31.9259 </r>
       <r>    24.4957     0.0000    31.9259 </r>
       <r>    24.6235     0.0000    31.9259 </r>
       <r>    24.7514     0.0000    31.9259 </r>
       <r>    24.8793     0.0000    31.9259 </r>
       <r>    25.0072     0.0000    31.9259 </r>
       <r>    25.1350     0.0000    31.9259 </r>
       <r>    25.2629     0.0000    31.9259 </r>
       <r>    25.3908     0.0000    31.9259 </r>
       <r>    25.5187     0.0000    31.9259 </r>
       <r>    25.6465     0.0000    31.9259 </r>
       <r>    25.7744     0.0000    31.9259 </r>
       <r>    25.9023     0.0000    31.9259 </r>
       <r>    26.0302     0.0000    31.9259 </r>
       <r>    26.1580     0.0000    31.9259 </r>
       <r>    26.2859     0.0000    31.9259 </r>
       <r>    26.4138     0.0000    31.9259 </r>
       <r>    26.5417     0.0000    31.9259 </r>
       <r>    26.6695     0.0000    31.9259 </r>
       <r>    26.7974     0.0000    31.9259 </r>
       <r>    26.9253     0.0000    31.9259 </r>
       <r>    27.0532     0.0000    31.9259 </r>
       <r>    27.1810     0.0000    31.9259 </r>
       <r>    27.3089     0.0000    31.9259 </r>
       <r>    27.4368     0.0000    31.9259 </r>
       <r>    27.5647     0.0000    31.9259 </r>
       <r>    27.6925     0.0000    31.9259 </r>
       <r>    27.8204     0.0007    31.9260 </r>
       <r>    27.9483     0.0088    31.9271 </r>
       <r>    28.0762     0.0539    31.9340 </r>
       <r>    28.2040     0.1524    31.9535 </r>
       <r>    28.3319     0.2005    31.9792 </r>
       <r>    28.4598     0.1230    31.9949 </r>
       <r>    28.5877     0.0351    31.9994 </r>
       <r>    28.7155     0.0046    32.0000 </r>
       <r>    28.8434     0.0003    32.0000 </r>
       <r>    28.9713     0.0000    32.0000 </r>
       <r>    29.0991     0.0000    32.0000 </r>
       <r>    29.2270     0.0000    32.0000 </r>
       <r>    29.3549     0.0000    32.0000 </r>
       <r>    29.4828     0.0000    32.0000 </r>
       <r>    29.6106     0.0000    32.0000 </r>
       <r>    29.7385     0.0000    32.0000 </r>
       <r>    29.8664     0.0000    32.0000 </r>
       <r>    29.9943     0.0000    32.0000 </r>
       <r>    30.1221     0.0000    32.0000 </r>
       <r>    30.2500     0.0000    32.0000 </r>
      </set>
     </set>
    </array>
   </total>
  </dos>
 </calculation>
 <structure name="finalpos" >
  <crystal>
   <varray name="basis" >
    <v>       0.00000000       2.74682114       2.74682114 </v>
    <v>       2.74682114       0.00000000       2.74682114 </v>
    <v>       2.74682114       2.74682114       0.00000000 </v>
   </varray>
   <i name="volume">     41.44967579 </i>
   <varray name="rec_basis" >
    <v>      -0.18202860       0.18202860       0.18202860 </v>
    <v>       0.18202860      -0.18202860       0.18202860 </v>
    <v>       0.18202860       0.18202860      -0.18202860 </v>
   </varray>
  </crystal>
  <varray name="positions" >
   <v>       0.75000000       0.75000000       0.75000000 </v>
   <v>       0.50000000       0.50000000       0.50000000 </v>
  </varray>
 </structure>
</modeling>
