LAMMPS data file via write_data, version 13 Jan 2016, timestep = 116

255 atoms
1 atom types

4.3591348858268873e-03 1.6195640735114182e+01 xlo xhi
4.3591348858297990e-03 1.6195640735114186e+01 ylo yhi
4.3591343856909433e-03 1.6195640734614301e+01 zlo zhi
0.0000000000000000e+00 0.0000000000000000e+00 0.0000000000000000e+00 xy xz yz

Masses

1 26.982

Atoms # charge

1 1 0.0000000000000000e+00 4.3591350112552234e-03 4.3591350112592237e-03 4.0524864459821250e+00 0 0 0
2 1 0.0000000000000000e+00 4.3591350112515189e-03 4.3591350112556866e-03 8.0999999350644227e+00 0 0 0
3 1 0.0000000000000000e+00 4.3591350112553908e-03 4.3591350112582097e-03 1.2147513424146720e+01 0 0 0
4 1 0.0000000000000000e+00 4.3591350112568384e-03 4.0524864460407439e+00 4.3591349501036778e-03 0 0 0
5 1 0.0000000000000000e+00 4.3591350112541323e-03 4.0369875609769652e+00 4.0369875609160282e+00 0 0 0
6 1 0.0000000000000000e+00 4.3591350112515935e-03 4.0501757743981557e+00 8.0999999350644121e+00 0 0 0
7 1 0.0000000000000000e+00 4.3591350112532458e-03 4.0369875609769652e+00 1.2163012309212792e+01 0 0 0
8 1 0.0000000000000000e+00 4.3591350112527315e-03 8.0999999351254406e+00 4.3591349500902181e-03 0 0 0
9 1 0.0000000000000000e+00 4.3591350112498631e-03 8.0999999351254370e+00 4.0501757743352718e+00 0 0 0
10 1 0.0000000000000000e+00 4.3591350112471986e-03 8.0999999351254335e+00 8.0999999350644032e+00 0 0 0
11 1 0.0000000000000000e+00 4.3591350112511277e-03 8.0999999351254370e+00 1.2149824095793523e+01 0 0 0
12 1 0.0000000000000000e+00 4.3591350112569885e-03 1.2147513424210135e+01 4.3591349501038807e-03 0 0 0
13 1 0.0000000000000000e+00 4.3591350112538729e-03 1.2163012309273908e+01 4.0369875609160299e+00 0 0 0
14 1 0.0000000000000000e+00 4.3591350112510497e-03 1.2149824095852711e+01 8.0999999350644121e+00 0 0 0
15 1 0.0000000000000000e+00 4.3591350112542181e-03 1.2163012309273906e+01 1.2163012309212791e+01 0 0 0
16 1 0.0000000000000000e+00 4.0524864460407404e+00 4.3591350112595255e-03 4.3591349501045451e-03 0 0 0
17 1 0.0000000000000000e+00 4.0369875609769617e+00 4.3591350112561905e-03 4.0369875609160291e+00 0 0 0
18 1 0.0000000000000000e+00 4.0501757743981521e+00 4.3591350112532302e-03 8.0999999350644121e+00 0 0 0
19 1 0.0000000000000000e+00 4.0369875609769608e+00 4.3591350112572227e-03 1.2163012309212792e+01 0 0 0
20 1 0.0000000000000000e+00 4.0369875609763337e+00 4.0369875609763373e+00 4.3591349500911140e-03 0 0 0
21 1 0.0000000000000000e+00 4.0506481698108239e+00 4.0506481698108283e+00 4.0506481697497021e+00 0 0 0
22 1 0.0000000000000000e+00 4.0500747893947233e+00 4.0500747893947260e+00 8.0999999350643996e+00 0 0 0
23 1 0.0000000000000000e+00 4.0506481698108256e+00 4.0506481698108301e+00 1.2149351700379089e+01 0 0 0
24 1 0.0000000000000000e+00 4.0501757743978928e+00 8.0999999351254353e+00 4.3591349500765684e-03 0 0 0
25 1 0.0000000000000000e+00 4.0500747893946203e+00 8.0999999351254335e+00 4.0500747893333564e+00 0 0 0
26 1 0.0000000000000000e+00 4.0512675210727993e+00 8.0999999351254317e+00 8.0999999350643854e+00 0 0 0
27 1 0.0000000000000000e+00 4.0500747893946221e+00 8.0999999351254317e+00 1.2149925080795413e+01 0 0 0
28 1 0.0000000000000000e+00 4.0369875609763337e+00 1.2163012309274531e+01 4.3591349500905572e-03 0 0 0
29 1 0.0000000000000000e+00 4.0506481698108230e+00 1.2149351700440038e+01 4.0506481697497021e+00 0 0 0
30 1 0.0000000000000000e+00 4.0500747893947233e+00 1.2149925080856134e+01 8.0999999350644014e+00 0 0 0
31 1 0.0000000000000000e+00 4.0506481698108265e+00 1.2149351700440036e+01 1.2149351700379089e+01 0 0 0
32 1 0.0000000000000000e+00 8.0999999351254353e+00 4.3591350112561029e-03 4.3591349500903308e-03 0 0 0
33 1 0.0000000000000000e+00 8.0999999351254335e+00 4.3591350112548704e-03 4.0501757743352718e+00 0 0 0
34 1 0.0000000000000000e+00 8.0999999351254282e+00 4.3591350112506637e-03 8.0999999350644032e+00 0 0 0
35 1 0.0000000000000000e+00 8.0999999351254335e+00 4.3591350112538929e-03 1.2149824095793523e+01 0 0 0
36 1 0.0000000000000000e+00 8.0999999351254317e+00 4.0501757743978963e+00 4.3591349500765797e-03 0 0 0
37 1 0.0000000000000000e+00 8.0999999351254299e+00 4.0500747893946230e+00 4.0500747893333555e+00 0 0 0
38 1 0.0000000000000000e+00 8.0999999351254264e+00 4.0512675210728029e+00 8.0999999350643854e+00 0 0 0
39 1 0.0000000000000000e+00 8.0999999351254282e+00 4.0500747893946247e+00 1.2149925080795413e+01 0 0 0
40 1 0.0000000000000000e+00 8.0999999351254299e+00 8.0999999351254317e+00 4.3591349500626602e-03 0 0 0
41 1 0.0000000000000000e+00 8.0999999351254264e+00 8.0999999351254299e+00 4.0512675210130489e+00 0 0 0
42 1 0.0000000000000000e+00 8.0999999351254228e+00 8.0999999351254282e+00 8.0999999350643677e+00 0 0 0
43 1 0.0000000000000000e+00 8.0999999351254282e+00 8.0999999351254317e+00 1.2148732349115692e+01 0 0 0
44 1 0.0000000000000000e+00 8.0999999351254317e+00 1.2149824095852969e+01 4.3591349500776673e-03 0 0 0
45 1 0.0000000000000000e+00 8.0999999351254299e+00 1.2149925080856239e+01 4.0500747893333555e+00 0 0 0
46 1 0.0000000000000000e+00 8.0999999351254264e+00 1.2148732349178049e+01 8.0999999350643836e+00 0 0 0
47 1 0.0000000000000000e+00 8.0999999351254299e+00 1.2149925080856237e+01 1.2149925080795413e+01 0 0 0
48 1 0.0000000000000000e+00 1.2147513424210132e+01 4.3591350112595047e-03 4.3591349501038582e-03 0 0 0
49 1 0.0000000000000000e+00 1.2163012309273904e+01 4.3591350112571203e-03 4.0369875609160291e+00 0 0 0
50 1 0.0000000000000000e+00 1.2149824095852706e+01 4.3591350112532406e-03 8.0999999350644121e+00 0 0 0
51 1 0.0000000000000000e+00 1.2163012309273904e+01 4.3591350112562278e-03 1.2163012309212791e+01 0 0 0
52 1 0.0000000000000000e+00 1.2163012309274530e+01 4.0369875609763373e+00 4.3591349500895034e-03 0 0 0
53 1 0.0000000000000000e+00 1.2149351700440038e+01 4.0506481698108274e+00 4.0506481697497021e+00 0 0 0
54 1 0.0000000000000000e+00 1.2149925080856129e+01 4.0500747893947269e+00 8.0999999350643996e+00 0 0 0
55 1 0.0000000000000000e+00 1.2149351700440034e+01 4.0506481698108310e+00 1.2149351700379089e+01 0 0 0
56 1 0.0000000000000000e+00 1.2149824095852967e+01 8.0999999351254353e+00 4.3591349500772154e-03 0 0 0
57 1 0.0000000000000000e+00 1.2149925080856235e+01 8.0999999351254335e+00 4.0500747893333582e+00 0 0 0
58 1 0.0000000000000000e+00 1.2148732349178044e+01 8.0999999351254299e+00 8.0999999350643836e+00 0 0 0
59 1 0.0000000000000000e+00 1.2149925080856233e+01 8.0999999351254335e+00 1.2149925080795411e+01 0 0 0
60 1 0.0000000000000000e+00 1.2163012309274530e+01 1.2163012309274531e+01 4.3591349500904878e-03 0 0 0
61 1 0.0000000000000000e+00 1.2149351700440036e+01 1.2149351700440040e+01 4.0506481697497021e+00 0 0 0
62 1 0.0000000000000000e+00 1.2149925080856129e+01 1.2149925080856134e+01 8.0999999350643996e+00 0 0 0
63 1 0.0000000000000000e+00 1.2149351700440034e+01 1.2149351700440036e+01 1.2149351700379091e+01 0 0 0
64 1 0.0000000000000000e+00 4.3591350112573840e-03 2.0120605807334773e+00 2.0120605806740355e+00 0 0 0
65 1 0.0000000000000000e+00 4.3591350112523177e-03 2.0266455249168316e+00 6.0724307908036259e+00 0 0 0
66 1 0.0000000000000000e+00 4.3591350112533673e-03 2.0266455249168338e+00 1.0127569079325214e+01 0 0 0
67 1 0.0000000000000000e+00 4.3591350112558028e-03 2.0120605807334773e+00 1.4187939289454800e+01 0 0 0
68 1 0.0000000000000000e+00 4.3591350112534254e-03 6.0724307908635646e+00 2.0266455248547879e+00 0 0 0
69 1 0.0000000000000000e+00 4.3591350112501962e-03 6.0712816863930206e+00 6.0712816863310914e+00 0 0 0
70 1 0.0000000000000000e+00 4.3591350112492464e-03 6.0712816863930197e+00 1.0128718183797716e+01 0 0 0
71 1 0.0000000000000000e+00 4.3591350112531643e-03 6.0724307908635673e+00 1.4173354345274017e+01 0 0 0
72 1 0.0000000000000000e+00 4.3591350112538183e-03 1.0127569079387312e+01 2.0266455248547888e+00 0 0 0
73 1 0.0000000000000000e+00 4.3591350112491553e-03 1.0128718183857844e+01 6.0712816863310923e+00 0 0 0
74 1 0.0000000000000000e+00 4.3591350112495465e-03 1.0128718183857844e+01 1.0128718183797716e+01 0 0 0
75 1 0.0000000000000000e+00 4.3591350112535373e-03 1.0127569079387312e+01 1.4173354345274015e+01 0 0 0
76 1 0.0000000000000000e+00 4.3591350112563189e-03 1.4187939289517399e+01 2.0120605806740355e+00 0 0 0
77 1 0.0000000000000000e+00 4.3591350112527532e-03 1.4173354345334033e+01 6.0724307908036259e+00 0 0 0
78 1 0.0000000000000000e+00 4.3591350112537888e-03 1.4173354345334033e+01 1.0127569079325214e+01 0 0 0
79 1 0.0000000000000000e+00 4.3591350112570319e-03 1.4187939289517399e+01 1.4187939289454800e+01 0 0 0
80 1 0.0000000000000000e+00 4.0486481875786957e+00 2.0267556568520622e+00 2.0267556567910736e+00 0 0 0
81 1 0.0000000000000000e+00 4.0496668364516717e+00 2.0258507509928774e+00 6.0727855193218065e+00 0 0 0
82 1 0.0000000000000000e+00 4.0496668364516708e+00 2.0258507509928783e+00 1.0127214350807010e+01 0 0 0
83 1 0.0000000000000000e+00 4.0486481875786966e+00 2.0267556568520626e+00 1.4173244213337739e+01 0 0 0
84 1 0.0000000000000000e+00 4.0496668364514141e+00 6.0727855193826148e+00 2.0258507509315571e+00 0 0 0
85 1 0.0000000000000000e+00 4.0507411527846164e+00 6.0751829262951622e+00 6.0751829262339694e+00 0 0 0
86 1 0.0000000000000000e+00 4.0507411527846209e+00 6.0751829262951667e+00 1.0124816943894805e+01 0 0 0
87 1 0.0000000000000000e+00 4.0496668364514141e+00 6.0727855193826157e+00 1.4174149119197219e+01 0 0 0
88 1 0.0000000000000000e+00 4.0496668364514141e+00 1.0127214350868254e+01 2.0258507509315566e+00 0 0 0
89 1 0.0000000000000000e+00 4.0507411527846173e+00 1.0124816943955697e+01 6.0751829262339694e+00 0 0 0
90 1 0.0000000000000000e+00 4.0507411527846218e+00 1.0124816943955693e+01 1.0124816943894805e+01 0 0 0
91 1 0.0000000000000000e+00 4.0496668364514141e+00 1.0127214350868254e+01 1.4174149119197219e+01 0 0 0
92 1 0.0000000000000000e+00 4.0486481875786966e+00 1.4173244213398808e+01 2.0267556567910745e+00 0 0 0
93 1 0.0000000000000000e+00 4.0496668364516708e+00 1.4174149119257983e+01 6.0727855193218065e+00 0 0 0
94 1 0.0000000000000000e+00 4.0496668364516708e+00 1.4174149119257983e+01 1.0127214350807009e+01 0 0 0
95 1 0.0000000000000000e+00 4.0486481875786966e+00 1.4173244213398808e+01 1.4173244213337739e+01 0 0 0
96 1 0.0000000000000000e+00 8.0999999351254335e+00 2.0267570626822966e+00 2.0267570626203688e+00 0 0 0
97 1 0.0000000000000000e+00 8.0999999351254282e+00 2.0268761364720618e+00 6.0748250577878915e+00 0 0 0
98 1 0.0000000000000000e+00 8.0999999351254282e+00 2.0268761364720658e+00 1.0125174812340894e+01 0 0 0
99 1 0.0000000000000000e+00 8.0999999351254335e+00 2.0267570626822966e+00 1.4173242807508416e+01 0 0 0
100 1 0.0000000000000000e+00 8.0999999351254299e+00 6.0748250578497789e+00 2.0268761364115098e+00 0 0 0
101 1 0.0000000000000000e+00 8.0999999351254264e+00 6.0753107047554824e+00 6.0753107046950667e+00 0 0 0
102 1 0.0000000000000000e+00 8.0999999351254246e+00 6.0753107047554833e+00 1.0124689165433672e+01 0 0 0
103 1 0.0000000000000000e+00 8.0999999351254299e+00 6.0748250578497798e+00 1.4173123733717238e+01 0 0 0
104 1 0.0000000000000000e+00 8.0999999351254299e+00 1.0125174812401085e+01 2.0268761364115098e+00 0 0 0
105 1 0.0000000000000000e+00 8.0999999351254246e+00 1.0124689165495374e+01 6.0753107046950667e+00 0 0 0
106 1 0.0000000000000000e+00 8.0999999351254246e+00 1.0124689165495374e+01 1.0124689165433670e+01 0 0 0
107 1 0.0000000000000000e+00 8.0999999351254299e+00 1.0125174812401085e+01 1.4173123733717238e+01 0 0 0
108 1 0.0000000000000000e+00 8.0999999351254335e+00 1.4173242807568565e+01 2.0267570626203688e+00 0 0 0
109 1 0.0000000000000000e+00 8.0999999351254299e+00 1.4173123733778796e+01 6.0748250577878915e+00 0 0 0
110 1 0.0000000000000000e+00 8.0999999351254299e+00 1.4173123733778791e+01 1.0125174812340896e+01 0 0 0
111 1 0.0000000000000000e+00 8.0999999351254335e+00 1.4173242807568567e+01 1.4173242807508418e+01 0 0 0
112 1 0.0000000000000000e+00 1.2151351682672173e+01 2.0267556568520626e+00 2.0267556567910732e+00 0 0 0
113 1 0.0000000000000000e+00 1.2150333033799187e+01 2.0258507509928783e+00 6.0727855193218057e+00 0 0 0
114 1 0.0000000000000000e+00 1.2150333033799187e+01 2.0258507509928791e+00 1.0127214350807009e+01 0 0 0
115 1 0.0000000000000000e+00 1.2151351682672171e+01 2.0267556568520639e+00 1.4173244213337739e+01 0 0 0
116 1 0.0000000000000000e+00 1.2150333033799447e+01 6.0727855193826121e+00 2.0258507509315566e+00 0 0 0
117 1 0.0000000000000000e+00 1.2149258717466235e+01 6.0751829262951622e+00 6.0751829262339685e+00 0 0 0
118 1 0.0000000000000000e+00 1.2149258717466232e+01 6.0751829262951649e+00 1.0124816943894805e+01 0 0 0
119 1 0.0000000000000000e+00 1.2150333033799447e+01 6.0727855193826121e+00 1.4174149119197217e+01 0 0 0
120 1 0.0000000000000000e+00 1.2150333033799447e+01 1.0127214350868256e+01 2.0258507509315562e+00 0 0 0
121 1 0.0000000000000000e+00 1.2149258717466235e+01 1.0124816943955697e+01 6.0751829262339685e+00 0 0 0
122 1 0.0000000000000000e+00 1.2149258717466232e+01 1.0124816943955695e+01 1.0124816943894805e+01 0 0 0
123 1 0.0000000000000000e+00 1.2150333033799447e+01 1.0127214350868256e+01 1.4174149119197219e+01 0 0 0
124 1 0.0000000000000000e+00 1.2151351682672171e+01 1.4173244213398808e+01 2.0267556567910736e+00 0 0 0
125 1 0.0000000000000000e+00 1.2150333033799187e+01 1.4174149119257983e+01 6.0727855193218065e+00 0 0 0
126 1 0.0000000000000000e+00 1.2150333033799187e+01 1.4174149119257981e+01 1.0127214350807010e+01 0 0 0
127 1 0.0000000000000000e+00 1.2151351682672171e+01 1.4173244213398807e+01 1.4173244213337739e+01 0 0 0
128 1 0.0000000000000000e+00 2.0120605807334724e+00 4.3591350112600442e-03 2.0120605806740337e+00 0 0 0
129 1 0.0000000000000000e+00 2.0266455249168294e+00 4.3591350112555860e-03 6.0724307908036259e+00 0 0 0
130 1 0.0000000000000000e+00 2.0266455249168294e+00 4.3591350112562113e-03 1.0127569079325216e+01 0 0 0
131 1 0.0000000000000000e+00 2.0120605807334733e+00 4.3591350112581898e-03 1.4187939289454802e+01 0 0 0
132 1 0.0000000000000000e+00 2.0267556568520586e+00 4.0486481875787002e+00 2.0267556567910745e+00 0 0 0
133 1 0.0000000000000000e+00 2.0258507509928747e+00 4.0496668364516752e+00 6.0727855193218065e+00 0 0 0
134 1 0.0000000000000000e+00 2.0258507509928743e+00 4.0496668364516744e+00 1.0127214350807009e+01 0 0 0
135 1 0.0000000000000000e+00 2.0267556568520591e+00 4.0486481875787002e+00 1.4173244213337739e+01 0 0 0
136 1 0.0000000000000000e+00 2.0267570626822939e+00 8.0999999351254370e+00 2.0267570626203675e+00 0 0 0
137 1 0.0000000000000000e+00 2.0268761364720587e+00 8.0999999351254335e+00 6.0748250577878924e+00 0 0 0
138 1 0.0000000000000000e+00 2.0268761364720631e+00 8.0999999351254335e+00 1.0125174812340894e+01 0 0 0
139 1 0.0000000000000000e+00 2.0267570626822935e+00 8.0999999351254370e+00 1.4173242807508418e+01 0 0 0
140 1 0.0000000000000000e+00 2.0267556568520604e+00 1.2151351682672175e+01 2.0267556567910745e+00 0 0 0
141 1 0.0000000000000000e+00 2.0258507509928743e+00 1.2150333033799191e+01 6.0727855193218057e+00 0 0 0
142 1 0.0000000000000000e+00 2.0258507509928751e+00 1.2150333033799191e+01 1.0127214350807010e+01 0 0 0
143 1 0.0000000000000000e+00 2.0267556568520599e+00 1.2151351682672175e+01 1.4173244213337739e+01 0 0 0
144 1 0.0000000000000000e+00 6.0724307908635602e+00 4.3591350112563076e-03 2.0266455248547879e+00 0 0 0
145 1 0.0000000000000000e+00 6.0712816863930144e+00 4.3591350112524487e-03 6.0712816863310914e+00 0 0 0
146 1 0.0000000000000000e+00 6.0712816863930144e+00 4.3591350112517835e-03 1.0128718183797716e+01 0 0 0
147 1 0.0000000000000000e+00 6.0724307908635620e+00 4.3591350112560908e-03 1.4173354345274017e+01 0 0 0
148 1 0.0000000000000000e+00 6.0727855193826095e+00 4.0496668364514186e+00 2.0258507509315562e+00 0 0 0
149 1 0.0000000000000000e+00 6.0751829262951595e+00 4.0507411527846200e+00 6.0751829262339694e+00 0 0 0
150 1 0.0000000000000000e+00 6.0751829262951613e+00 4.0507411527846235e+00 1.0124816943894805e+01 0 0 0
151 1 0.0000000000000000e+00 6.0727855193826121e+00 4.0496668364514177e+00 1.4174149119197219e+01 0 0 0
152 1 0.0000000000000000e+00 6.0748250578497753e+00 8.0999999351254317e+00 2.0268761364115093e+00 0 0 0
153 1 0.0000000000000000e+00 6.0753107047554797e+00 8.0999999351254299e+00 6.0753107046950667e+00 0 0 0
154 1 0.0000000000000000e+00 6.0753107047554806e+00 8.0999999351254299e+00 1.0124689165433670e+01 0 0 0
155 1 0.0000000000000000e+00 6.0748250578497762e+00 8.0999999351254317e+00 1.4173123733717240e+01 0 0 0
156 1 0.0000000000000000e+00 6.0727855193826095e+00 1.2150333033799448e+01 2.0258507509315562e+00 0 0 0
157 1 0.0000000000000000e+00 6.0751829262951595e+00 1.2149258717466239e+01 6.0751829262339685e+00 0 0 0
158 1 0.0000000000000000e+00 6.0751829262951622e+00 1.2149258717466235e+01 1.0124816943894805e+01 0 0 0
159 1 0.0000000000000000e+00 6.0727855193826121e+00 1.2150333033799448e+01 1.4174149119197219e+01 0 0 0
160 1 0.0000000000000000e+00 1.0127569079387309e+01 4.3591350112564525e-03 2.0266455248547874e+00 0 0 0
161 1 0.0000000000000000e+00 1.0128718183857842e+01 4.3591350112525259e-03 6.0712816863310923e+00 0 0 0
162 1 0.0000000000000000e+00 1.0128718183857844e+01 4.3591350112524661e-03 1.0128718183797716e+01 0 0 0
163 1 0.0000000000000000e+00 1.0127569079387309e+01 4.3591350112559312e-03 1.4173354345274015e+01 0 0 0
164 1 0.0000000000000000e+00 1.0127214350868252e+01 4.0496668364514177e+00 2.0258507509315562e+00 0 0 0
165 1 0.0000000000000000e+00 1.0124816943955693e+01 4.0507411527846209e+00 6.0751829262339685e+00 0 0 0
166 1 0.0000000000000000e+00 1.0124816943955690e+01 4.0507411527846244e+00 1.0124816943894805e+01 0 0 0
167 1 0.0000000000000000e+00 1.0127214350868250e+01 4.0496668364514177e+00 1.4174149119197219e+01 0 0 0
168 1 0.0000000000000000e+00 1.0125174812401081e+01 8.0999999351254317e+00 2.0268761364115102e+00 0 0 0
169 1 0.0000000000000000e+00 1.0124689165495372e+01 8.0999999351254299e+00 6.0753107046950667e+00 0 0 0
170 1 0.0000000000000000e+00 1.0124689165495370e+01 8.0999999351254299e+00 1.0124689165433670e+01 0 0 0
171 1 0.0000000000000000e+00 1.0125174812401081e+01 8.0999999351254335e+00 1.4173123733717238e+01 0 0 0
172 1 0.0000000000000000e+00 1.0127214350868250e+01 1.2150333033799448e+01 2.0258507509315566e+00 0 0 0
173 1 0.0000000000000000e+00 1.0124816943955693e+01 1.2149258717466239e+01 6.0751829262339685e+00 0 0 0
174 1 0.0000000000000000e+00 1.0124816943955691e+01 1.2149258717466235e+01 1.0124816943894805e+01 0 0 0
175 1 0.0000000000000000e+00 1.0127214350868250e+01 1.2150333033799448e+01 1.4174149119197219e+01 0 0 0
176 1 0.0000000000000000e+00 1.4187939289517397e+01 4.3591350112593685e-03 2.0120605806740346e+00 0 0 0
177 1 0.0000000000000000e+00 1.4173354345334031e+01 4.3591350112556345e-03 6.0724307908036259e+00 0 0 0
178 1 0.0000000000000000e+00 1.4173354345334030e+01 4.3591350112564247e-03 1.0127569079325216e+01 0 0 0
179 1 0.0000000000000000e+00 1.4187939289517395e+01 4.3591350112587857e-03 1.4187939289454800e+01 0 0 0
180 1 0.0000000000000000e+00 1.4173244213398805e+01 4.0486481875787002e+00 2.0267556567910745e+00 0 0 0
181 1 0.0000000000000000e+00 1.4174149119257979e+01 4.0496668364516752e+00 6.0727855193218057e+00 0 0 0
182 1 0.0000000000000000e+00 1.4174149119257981e+01 4.0496668364516752e+00 1.0127214350807010e+01 0 0 0
183 1 0.0000000000000000e+00 1.4173244213398803e+01 4.0486481875787010e+00 1.4173244213337737e+01 0 0 0
184 1 0.0000000000000000e+00 1.4173242807568563e+01 8.0999999351254370e+00 2.0267570626203675e+00 0 0 0
185 1 0.0000000000000000e+00 1.4173123733778793e+01 8.0999999351254335e+00 6.0748250577878915e+00 0 0 0
186 1 0.0000000000000000e+00 1.4173123733778787e+01 8.0999999351254335e+00 1.0125174812340894e+01 0 0 0
187 1 0.0000000000000000e+00 1.4173242807568563e+01 8.0999999351254370e+00 1.4173242807508418e+01 0 0 0
188 1 0.0000000000000000e+00 1.4173244213398803e+01 1.2151351682672175e+01 2.0267556567910749e+00 0 0 0
189 1 0.0000000000000000e+00 1.4174149119257979e+01 1.2150333033799193e+01 6.0727855193218065e+00 0 0 0
190 1 0.0000000000000000e+00 1.4174149119257979e+01 1.2150333033799191e+01 1.0127214350807010e+01 0 0 0
191 1 0.0000000000000000e+00 1.4173244213398803e+01 1.2151351682672173e+01 1.4173244213337739e+01 0 0 0
192 1 0.0000000000000000e+00 2.0120605807324332e+00 2.0120605807324372e+00 4.3591349501097623e-03 0 0 0
193 1 0.0000000000000000e+00 2.0267556568523100e+00 2.0267556568523140e+00 4.0486481875190998e+00 0 0 0
194 1 0.0000000000000000e+00 2.0267570626824254e+00 2.0267570626824298e+00 8.0999999350644174e+00 0 0 0
195 1 0.0000000000000000e+00 2.0267556568523104e+00 2.0267556568523144e+00 1.2151351682609734e+01 0 0 0
196 1 0.0000000000000000e+00 2.0266455249166140e+00 6.0724307908635478e+00 4.3591349500913170e-03 0 0 0
197 1 0.0000000000000000e+00 2.0258507509928085e+00 6.0727855193827036e+00 4.0496668363895756e+00 0 0 0
198 1 0.0000000000000000e+00 2.0268761364720769e+00 6.0748250578499636e+00 8.0999999350644014e+00 0 0 0
199 1 0.0000000000000000e+00 2.0258507509928103e+00 6.0727855193827054e+00 1.2150333033739217e+01 0 0 0
200 1 0.0000000000000000e+00 2.0266455249166153e+00 1.0127569079387330e+01 4.3591349500910290e-03 0 0 0
201 1 0.0000000000000000e+00 2.0258507509928085e+00 1.0127214350868167e+01 4.0496668363895747e+00 0 0 0
202 1 0.0000000000000000e+00 2.0268761364720769e+00 1.0125174812400898e+01 8.0999999350644014e+00 0 0 0
203 1 0.0000000000000000e+00 2.0258507509928099e+00 1.0127214350868165e+01 1.2150333033739219e+01 0 0 0
204 1 0.0000000000000000e+00 2.0120605807324328e+00 1.4187939289518440e+01 4.3591349501088377e-03 0 0 0
205 1 0.0000000000000000e+00 2.0267556568523104e+00 1.4173244213398554e+01 4.0486481875191016e+00 0 0 0
206 1 0.0000000000000000e+00 2.0267570626824267e+00 1.4173242807568434e+01 8.0999999350644174e+00 0 0 0
207 1 0.0000000000000000e+00 2.0267556568523095e+00 1.4173244213398556e+01 1.2151351682609732e+01 0 0 0
208 1 0.0000000000000000e+00 6.0724307908635433e+00 2.0266455249166175e+00 4.3591349500916934e-03 0 0 0
209 1 0.0000000000000000e+00 6.0727855193826992e+00 2.0258507509928116e+00 4.0496668363895756e+00 0 0 0
210 1 0.0000000000000000e+00 6.0748250578499601e+00 2.0268761364720804e+00 8.0999999350644014e+00 0 0 0
211 1 0.0000000000000000e+00 6.0727855193827001e+00 2.0258507509928134e+00 1.2150333033739217e+01 0 0 0
212 1 0.0000000000000000e+00 6.0712816863927044e+00 6.0712816863927079e+00 4.3591349500711647e-03 0 0 0
213 1 0.0000000000000000e+00 6.0751829262951160e+00 6.0751829262951196e+00 4.0507411527240897e+00 0 0 0
214 1 0.0000000000000000e+00 6.0753107047554904e+00 6.0753107047554931e+00 8.0999999350643748e+00 0 0 0
215 1 0.0000000000000000e+00 6.0751829262951160e+00 6.0751829262951214e+00 1.2149258717404667e+01 0 0 0
216 1 0.0000000000000000e+00 6.0712816863927044e+00 1.0128718183858158e+01 4.3591349500716227e-03 0 0 0
217 1 0.0000000000000000e+00 6.0751829262951160e+00 1.0124816943955738e+01 4.0507411527240906e+00 0 0 0
218 1 0.0000000000000000e+00 6.0753107047554895e+00 1.0124689165495361e+01 8.0999999350643748e+00 0 0 0
219 1 0.0000000000000000e+00 6.0751829262951178e+00 1.0124816943955739e+01 1.2149258717404667e+01 0 0 0
220 1 0.0000000000000000e+00 6.0724307908635442e+00 1.4173354345334250e+01 4.3591349500912493e-03 0 0 0
221 1 0.0000000000000000e+00 6.0727855193826992e+00 1.4174149119258050e+01 4.0496668363895765e+00 0 0 0
222 1 0.0000000000000000e+00 6.0748250578499601e+00 1.4173123733778773e+01 8.0999999350643996e+00 0 0 0
223 1 0.0000000000000000e+00 6.0727855193827009e+00 1.4174149119258049e+01 1.2150333033739217e+01 0 0 0
224 1 0.0000000000000000e+00 1.0127569079387326e+01 2.0266455249166180e+00 4.3591349500907775e-03 0 0 0
225 1 0.0000000000000000e+00 1.0127214350868163e+01 2.0258507509928112e+00 4.0496668363895747e+00 0 0 0
226 1 0.0000000000000000e+00 1.0125174812400896e+01 2.0268761364720795e+00 8.0999999350644014e+00 0 0 0
227 1 0.0000000000000000e+00 1.0127214350868160e+01 2.0258507509928139e+00 1.2150333033739219e+01 0 0 0
228 1 0.0000000000000000e+00 1.0128718183858156e+01 6.0712816863927079e+00 4.3591349500723756e-03 0 0 0
229 1 0.0000000000000000e+00 1.0124816943955736e+01 6.0751829262951205e+00 4.0507411527240889e+00 0 0 0
230 1 0.0000000000000000e+00 1.0124689165495358e+01 6.0753107047554931e+00 8.0999999350643748e+00 0 0 0
231 1 0.0000000000000000e+00 1.0124816943955734e+01 6.0751829262951214e+00 1.2149258717404665e+01 0 0 0
232 1 0.0000000000000000e+00 1.0128718183858156e+01 1.0128718183858158e+01 4.3591349500726774e-03 0 0 0
233 1 0.0000000000000000e+00 1.0124816943955736e+01 1.0124816943955738e+01 4.0507411527240889e+00 0 0 0
234 1 0.0000000000000000e+00 1.0124689165495358e+01 1.0124689165495361e+01 8.0999999350643748e+00 0 0 0
235 1 0.0000000000000000e+00 1.0124816943955734e+01 1.0124816943955738e+01 1.2149258717404665e+01 0 0 0
236 1 0.0000000000000000e+00 1.0127569079387326e+01 1.4173354345334248e+01 4.3591349500910377e-03 0 0 0
237 1 0.0000000000000000e+00 1.0127214350868162e+01 1.4174149119258050e+01 4.0496668363895747e+00 0 0 0
238 1 0.0000000000000000e+00 1.0125174812400898e+01 1.4173123733778773e+01 8.0999999350644014e+00 0 0 0
239 1 0.0000000000000000e+00 1.0127214350868162e+01 1.4174149119258047e+01 1.2150333033739219e+01 0 0 0
240 1 0.0000000000000000e+00 1.4187939289518436e+01 2.0120605807324368e+00 4.3591349501086226e-03 0 0 0
241 1 0.0000000000000000e+00 1.4173244213398553e+01 2.0267556568523148e+00 4.0486481875190998e+00 0 0 0
242 1 0.0000000000000000e+00 1.4173242807568432e+01 2.0267570626824298e+00 8.0999999350644174e+00 0 0 0
243 1 0.0000000000000000e+00 1.4173244213398553e+01 2.0267556568523140e+00 1.2151351682609734e+01 0 0 0
244 1 0.0000000000000000e+00 1.4173354345334246e+01 6.0724307908635486e+00 4.3591349500906812e-03 0 0 0
245 1 0.0000000000000000e+00 1.4174149119258049e+01 6.0727855193827027e+00 4.0496668363895747e+00 0 0 0
246 1 0.0000000000000000e+00 1.4173123733778770e+01 6.0748250578499636e+00 8.0999999350644014e+00 0 0 0
247 1 0.0000000000000000e+00 1.4174149119258045e+01 6.0727855193827045e+00 1.2150333033739219e+01 0 0 0
248 1 0.0000000000000000e+00 1.4173354345334245e+01 1.0127569079387330e+01 4.3591349500901912e-03 0 0 0
249 1 0.0000000000000000e+00 1.4174149119258047e+01 1.0127214350868167e+01 4.0496668363895747e+00 0 0 0
250 1 0.0000000000000000e+00 1.4173123733778770e+01 1.0125174812400900e+01 8.0999999350644014e+00 0 0 0
251 1 0.0000000000000000e+00 1.4174149119258045e+01 1.0127214350868165e+01 1.2150333033739219e+01 0 0 0
252 1 0.0000000000000000e+00 1.4187939289518436e+01 1.4187939289518440e+01 4.3591349501090363e-03 0 0 0
253 1 0.0000000000000000e+00 1.4173244213398551e+01 1.4173244213398554e+01 4.0486481875191016e+00 0 0 0
254 1 0.0000000000000000e+00 1.4173242807568430e+01 1.4173242807568434e+01 8.0999999350644156e+00 0 0 0
255 1 0.0000000000000000e+00 1.4173244213398551e+01 1.4173244213398556e+01 1.2151351682609732e+01 0 0 0

Velocities

1 0.0000000000000000e+00 0.0000000000000000e+00 0.0000000000000000e+00
2 0.0000000000000000e+00 0.0000000000000000e+00 0.0000000000000000e+00
3 0.0000000000000000e+00 0.0000000000000000e+00 0.0000000000000000e+00
4 0.0000000000000000e+00 0.0000000000000000e+00 0.0000000000000000e+00
5 0.0000000000000000e+00 0.0000000000000000e+00 0.0000000000000000e+00
6 0.0000000000000000e+00 0.0000000000000000e+00 0.0000000000000000e+00
7 0.0000000000000000e+00 0.0000000000000000e+00 0.0000000000000000e+00
8 0.0000000000000000e+00 0.0000000000000000e+00 0.0000000000000000e+00
9 0.0000000000000000e+00 0.0000000000000000e+00 0.0000000000000000e+00
10 0.0000000000000000e+00 0.0000000000000000e+00 0.0000000000000000e+00
11 0.0000000000000000e+00 0.0000000000000000e+00 0.0000000000000000e+00
12 0.0000000000000000e+00 0.0000000000000000e+00 0.0000000000000000e+00
13 0.0000000000000000e+00 0.0000000000000000e+00 0.0000000000000000e+00
14 0.0000000000000000e+00 0.0000000000000000e+00 0.0000000000000000e+00
15 0.0000000000000000e+00 0.0000000000000000e+00 0.0000000000000000e+00
16 0.0000000000000000e+00 0.0000000000000000e+00 0.0000000000000000e+00
17 0.0000000000000000e+00 0.0000000000000000e+00 0.0000000000000000e+00
18 0.0000000000000000e+00 0.0000000000000000e+00 0.0000000000000000e+00
19 0.0000000000000000e+00 0.0000000000000000e+00 0.0000000000000000e+00
20 0.0000000000000000e+00 0.0000000000000000e+00 0.0000000000000000e+00
21 0.0000000000000000e+00 0.0000000000000000e+00 0.0000000000000000e+00
22 0.0000000000000000e+00 0.0000000000000000e+00 0.0000000000000000e+00
23 0.0000000000000000e+00 0.0000000000000000e+00 0.0000000000000000e+00
24 0.0000000000000000e+00 0.0000000000000000e+00 0.0000000000000000e+00
25 0.0000000000000000e+00 0.0000000000000000e+00 0.0000000000000000e+00
26 0.0000000000000000e+00 0.0000000000000000e+00 0.0000000000000000e+00
27 0.0000000000000000e+00 0.0000000000000000e+00 0.0000000000000000e+00
28 0.0000000000000000e+00 0.0000000000000000e+00 0.0000000000000000e+00
29 0.0000000000000000e+00 0.0000000000000000e+00 0.0000000000000000e+00
30 0.0000000000000000e+00 0.0000000000000000e+00 0.0000000000000000e+00
31 0.0000000000000000e+00 0.0000000000000000e+00 0.0000000000000000e+00
32 0.0000000000000000e+00 0.0000000000000000e+00 0.0000000000000000e+00
33 0.0000000000000000e+00 0.0000000000000000e+00 0.0000000000000000e+00
34 0.0000000000000000e+00 0.0000000000000000e+00 0.0000000000000000e+00
35 0.0000000000000000e+00 0.0000000000000000e+00 0.0000000000000000e+00
36 0.0000000000000000e+00 0.0000000000000000e+00 0.0000000000000000e+00
37 0.0000000000000000e+00 0.0000000000000000e+00 0.0000000000000000e+00
38 0.0000000000000000e+00 0.0000000000000000e+00 0.0000000000000000e+00
39 0.0000000000000000e+00 0.0000000000000000e+00 0.0000000000000000e+00
40 0.0000000000000000e+00 0.0000000000000000e+00 0.0000000000000000e+00
41 0.0000000000000000e+00 0.0000000000000000e+00 0.0000000000000000e+00
42 0.0000000000000000e+00 0.0000000000000000e+00 0.0000000000000000e+00
43 0.0000000000000000e+00 0.0000000000000000e+00 0.0000000000000000e+00
44 0.0000000000000000e+00 0.0000000000000000e+00 0.0000000000000000e+00