datafile (written by JARVIS-FF) 

255 	 atoms 
1  atom types
0.0 16.199999870  xlo xhi
0.0 16.199999870  ylo yhi
0.0 16.199999869  zlo zhi
0E-9 0E-9 0E-9  xy xz yz


Atoms 

     1   1 0.000000 0E-9 0E-9 4.049999968
     2   1 0.000000 0E-9 0E-9 8.099999935
     3   1 0.000000 0E-9 0E-9 12.149999903
     4   1 0.000000 0E-9 4.049999968 0E-9
     5   1 0.000000 0E-9 4.049999968 4.049999968
     6   1 0.000000 0E-9 4.049999968 8.099999935
     7   1 0.000000 0E-9 4.049999968 12.149999903
     8   1 0.000000 0E-9 8.099999935 0E-9
     9   1 0.000000 0E-9 8.099999935 4.049999968
    10   1 0.000000 0E-9 8.099999935 8.099999935
    11   1 0.000000 0E-9 8.099999935 12.149999903
    12   1 0.000000 0E-9 12.149999903 0E-9
    13   1 0.000000 0E-9 12.149999903 4.049999968
    14   1 0.000000 0E-9 12.149999903 8.099999935
    15   1 0.000000 0E-9 12.149999903 12.149999903
    16   1 0.000000 4.049999968 0E-9 0E-9
    17   1 0.000000 4.049999968 0E-9 4.049999968
    18   1 0.000000 4.049999968 0E-9 8.099999935
    19   1 0.000000 4.049999968 0E-9 12.149999903
    20   1 0.000000 4.049999968 4.049999968 0E-9
    21   1 0.000000 4.049999968 4.049999968 4.049999968
    22   1 0.000000 4.049999968 4.049999968 8.099999935
    23   1 0.000000 4.049999968 4.049999968 12.149999903
    24   1 0.000000 4.049999968 8.099999935 0E-9
    25   1 0.000000 4.049999968 8.099999935 4.049999968
    26   1 0.000000 4.049999968 8.099999935 8.099999935
    27   1 0.000000 4.049999968 8.099999935 12.149999903
    28   1 0.000000 4.049999968 12.149999903 0E-9
    29   1 0.000000 4.049999968 12.149999903 4.049999968
    30   1 0.000000 4.049999968 12.149999903 8.099999935
    31   1 0.000000 4.049999968 12.149999903 12.149999903
    32   1 0.000000 8.099999935 0E-9 0E-9
    33   1 0.000000 8.099999935 0E-9 4.049999968
    34   1 0.000000 8.099999935 0E-9 8.099999935
    35   1 0.000000 8.099999935 0E-9 12.149999903
    36   1 0.000000 8.099999935 4.049999968 0E-9
    37   1 0.000000 8.099999935 4.049999968 4.049999968
    38   1 0.000000 8.099999935 4.049999968 8.099999935
    39   1 0.000000 8.099999935 4.049999968 12.149999903
    40   1 0.000000 8.099999935 8.099999935 0E-9
    41   1 0.000000 8.099999935 8.099999935 4.049999968
    42   1 0.000000 8.099999935 8.099999935 8.099999935
    43   1 0.000000 8.099999935 8.099999935 12.149999903
    44   1 0.000000 8.099999935 12.149999903 0E-9
    45   1 0.000000 8.099999935 12.149999903 4.049999968
    46   1 0.000000 8.099999935 12.149999903 8.099999935
    47   1 0.000000 8.099999935 12.149999903 12.149999903
    48   1 0.000000 12.149999903 -0E-9 0E-9
    49   1 0.000000 12.149999903 0E-9 4.049999968
    50   1 0.000000 12.149999903 0E-9 8.099999935
    51   1 0.000000 12.149999903 0E-9 12.149999903
    52   1 0.000000 12.149999903 4.049999968 0E-9
    53   1 0.000000 12.149999903 4.049999968 4.049999968
    54   1 0.000000 12.149999903 4.049999968 8.099999935
    55   1 0.000000 12.149999903 4.049999968 12.149999903
    56   1 0.000000 12.149999903 8.099999935 0E-9
    57   1 0.000000 12.149999903 8.099999935 4.049999968
    58   1 0.000000 12.149999903 8.099999935 8.099999935
    59   1 0.000000 12.149999903 8.099999935 12.149999903
    60   1 0.000000 12.149999903 12.149999903 0E-9
    61   1 0.000000 12.149999903 12.149999903 4.049999968
    62   1 0.000000 12.149999903 12.149999903 8.099999935
    63   1 0.000000 12.149999903 12.149999903 12.149999903
    64   1 0.000000 0E-9 2.024999984 2.024999984
    65   1 0.000000 0E-9 2.024999984 6.074999951
    66   1 0.000000 0E-9 2.024999984 10.124999919
    67   1 0.000000 0E-9 2.024999984 14.174999886
    68   1 0.000000 0E-9 6.074999951 2.024999984
    69   1 0.000000 0E-9 6.074999951 6.074999951
    70   1 0.000000 0E-9 6.074999951 10.124999919
    71   1 0.000000 0E-9 6.074999951 14.174999886
    72   1 0.000000 0E-9 10.124999919 2.024999984
    73   1 0.000000 0E-9 10.124999919 6.074999951
    74   1 0.000000 0E-9 10.124999919 10.124999919
    75   1 0.000000 0E-9 10.124999919 14.174999886
    76   1 0.000000 0E-9 14.174999886 2.024999984
    77   1 0.000000 0E-9 14.174999886 6.074999951
    78   1 0.000000 0E-9 14.174999886 10.124999919
    79   1 0.000000 0E-9 14.174999886 14.174999886
    80   1 0.000000 4.049999968 2.024999984 2.024999984
    81   1 0.000000 4.049999968 2.024999984 6.074999951
    82   1 0.000000 4.049999968 2.024999984 10.124999919
    83   1 0.000000 4.049999968 2.024999984 14.174999886
    84   1 0.000000 4.049999968 6.074999951 2.024999984
    85   1 0.000000 4.049999968 6.074999951 6.074999951
    86   1 0.000000 4.049999968 6.074999951 10.124999919
    87   1 0.000000 4.049999968 6.074999951 14.174999886
    88   1 0.000000 4.049999968 10.124999919 2.024999984
    89   1 0.000000 4.049999968 10.124999919 6.074999951
    90   1 0.000000 4.049999968 10.124999919 10.124999919
    91   1 0.000000 4.049999968 10.124999919 14.174999886
    92   1 0.000000 4.049999968 14.174999886 2.024999984
    93   1 0.000000 4.049999968 14.174999886 6.074999951
    94   1 0.000000 4.049999968 14.174999886 10.124999919
    95   1 0.000000 4.049999968 14.174999886 14.174999886
    96   1 0.000000 8.099999935 2.024999984 2.024999984
    97   1 0.000000 8.099999935 2.024999984 6.074999951
    98   1 0.000000 8.099999935 2.024999984 10.124999919
    99   1 0.000000 8.099999935 2.024999984 14.174999886
   100   1 0.000000 8.099999935 6.074999951 2.024999984
   101   1 0.000000 8.099999935 6.074999951 6.074999951
   102   1 0.000000 8.099999935 6.074999951 10.124999919
   103   1 0.000000 8.099999935 6.074999951 14.174999886
   104   1 0.000000 8.099999935 10.124999919 2.024999984
   105   1 0.000000 8.099999935 10.124999919 6.074999951
   106   1 0.000000 8.099999935 10.124999919 10.124999919
   107   1 0.000000 8.099999935 10.124999919 14.174999886
   108   1 0.000000 8.099999935 14.174999886 2.024999984
   109   1 0.000000 8.099999935 14.174999886 6.074999951
   110   1 0.000000 8.099999935 14.174999886 10.124999919
   111   1 0.000000 8.099999935 14.174999886 14.174999886
   112   1 0.000000 12.149999903 2.024999984 2.024999984
   113   1 0.000000 12.149999903 2.024999984 6.074999951
   114   1 0.000000 12.149999903 2.024999984 10.124999919
   115   1 0.000000 12.149999903 2.024999984 14.174999886
   116   1 0.000000 12.149999903 6.074999951 2.024999984
   117   1 0.000000 12.149999903 6.074999951 6.074999951
   118   1 0.000000 12.149999903 6.074999951 10.124999919
   119   1 0.000000 12.149999903 6.074999951 14.174999886
   120   1 0.000000 12.149999903 10.124999919 2.024999984
   121   1 0.000000 12.149999903 10.124999919 6.074999951
   122   1 0.000000 12.149999903 10.124999919 10.124999919
   123   1 0.000000 12.149999903 10.124999919 14.174999886
   124   1 0.000000 12.149999903 14.174999886 2.024999984
   125   1 0.000000 12.149999903 14.174999886 6.074999951
   126   1 0.000000 12.149999903 14.174999886 10.124999919
   127   1 0.000000 12.149999903 14.174999886 14.174999886
   128   1 0.000000 2.024999984 0E-9 2.024999984
   129   1 0.000000 2.024999984 0E-9 6.074999951
   130   1 0.000000 2.024999984 0E-9 10.124999919
   131   1 0.000000 2.024999984 0E-9 14.174999886
   132   1 0.000000 2.024999984 4.049999968 2.024999984
   133   1 0.000000 2.024999984 4.049999968 6.074999951
   134   1 0.000000 2.024999984 4.049999968 10.124999919
   135   1 0.000000 2.024999984 4.049999968 14.174999886
   136   1 0.000000 2.024999984 8.099999935 2.024999984
   137   1 0.000000 2.024999984 8.099999935 6.074999951
   138   1 0.000000 2.024999984 8.099999935 10.124999919
   139   1 0.000000 2.024999984 8.099999935 14.174999886
   140   1 0.000000 2.024999984 12.149999903 2.024999984
   141   1 0.000000 2.024999984 12.149999903 6.074999951
   142   1 0.000000 2.024999984 12.149999903 10.124999919
   143   1 0.000000 2.024999984 12.149999903 14.174999886
   144   1 0.000000 6.074999951 0E-9 2.024999984
   145   1 0.000000 6.074999951 0E-9 6.074999951
   146   1 0.000000 6.074999951 0E-9 10.124999919
   147   1 0.000000 6.074999951 0E-9 14.174999886
   148   1 0.000000 6.074999951 4.049999968 2.024999984
   149   1 0.000000 6.074999951 4.049999968 6.074999951
   150   1 0.000000 6.074999951 4.049999968 10.124999919
   151   1 0.000000 6.074999951 4.049999968 14.174999886
   152   1 0.000000 6.074999951 8.099999935 2.024999984
   153   1 0.000000 6.074999951 8.099999935 6.074999951
   154   1 0.000000 6.074999951 8.099999935 10.124999919
   155   1 0.000000 6.074999951 8.099999935 14.174999886
   156   1 0.000000 6.074999951 12.149999903 2.024999984
   157   1 0.000000 6.074999951 12.149999903 6.074999951
   158   1 0.000000 6.074999951 12.149999903 10.124999919
   159   1 0.000000 6.074999951 12.149999903 14.174999886
   160   1 0.000000 10.124999919 0E-9 2.024999984
   161   1 0.000000 10.124999919 0E-9 6.074999951
   162   1 0.000000 10.124999919 0E-9 10.124999919
   163   1 0.000000 10.124999919 0E-9 14.174999886
   164   1 0.000000 10.124999919 4.049999968 2.024999984
   165   1 0.000000 10.124999919 4.049999968 6.074999951
   166   1 0.000000 10.124999919 4.049999968 10.124999919
   167   1 0.000000 10.124999919 4.049999968 14.174999886
   168   1 0.000000 10.124999919 8.099999935 2.024999984
   169   1 0.000000 10.124999919 8.099999935 6.074999951
   170   1 0.000000 10.124999919 8.099999935 10.124999919
   171   1 0.000000 10.124999919 8.099999935 14.174999886
   172   1 0.000000 10.124999919 12.149999903 2.024999984
   173   1 0.000000 10.124999919 12.149999903 6.074999951
   174   1 0.000000 10.124999919 12.149999903 10.124999919
   175   1 0.000000 10.124999919 12.149999903 14.174999886
   176   1 0.000000 14.174999886 0E-9 2.024999984
   177   1 0.000000 14.174999886 0E-9 6.074999951
   178   1 0.000000 14.174999886 0E-9 10.124999919
   179   1 0.000000 14.174999886 0E-9 14.174999886
   180   1 0.000000 14.174999886 4.049999968 2.024999984
   181   1 0.000000 14.174999886 4.049999968 6.074999951
   182   1 0.000000 14.174999886 4.049999968 10.124999919
   183   1 0.000000 14.174999886 4.049999968 14.174999886
   184   1 0.000000 14.174999886 8.099999935 2.024999984
   185   1 0.000000 14.174999886 8.099999935 6.074999951
   186   1 0.000000 14.174999886 8.099999935 10.124999919
   187   1 0.000000 14.174999886 8.099999935 14.174999886
   188   1 0.000000 14.174999886 12.149999903 2.024999984
   189   1 0.000000 14.174999886 12.149999903 6.074999951
   190   1 0.000000 14.174999886 12.149999903 10.124999919
   191   1 0.000000 14.174999886 12.149999903 14.174999886
   192   1 0.000000 2.024999984 2.024999984 0E-9
   193   1 0.000000 2.024999984 2.024999984 4.049999968
   194   1 0.000000 2.024999984 2.024999984 8.099999935
   195   1 0.000000 2.024999984 2.024999984 12.149999903
   196   1 0.000000 2.024999984 6.074999951 0E-9
   197   1 0.000000 2.024999984 6.074999951 4.049999968
   198   1 0.000000 2.024999984 6.074999951 8.099999935
   199   1 0.000000 2.024999984 6.074999951 12.149999903
   200   1 0.000000 2.024999984 10.124999919 0E-9
   201   1 0.000000 2.024999984 10.124999919 4.049999968
   202   1 0.000000 2.024999984 10.124999919 8.099999935
   203   1 0.000000 2.024999984 10.124999919 12.149999903
   204   1 0.000000 2.024999984 14.174999886 0E-9
   205   1 0.000000 2.024999984 14.174999886 4.049999968
   206   1 0.000000 2.024999984 14.174999886 8.099999935
   207   1 0.000000 2.024999984 14.174999886 12.149999903
   208   1 0.000000 6.074999951 2.024999984 0E-9
   209   1 0.000000 6.074999951 2.024999984 4.049999968
   210   1 0.000000 6.074999951 2.024999984 8.099999935
   211   1 0.000000 6.074999951 2.024999984 12.149999903
   212   1 0.000000 6.074999951 6.074999951 0E-9
   213   1 0.000000 6.074999951 6.074999951 4.049999968
   214   1 0.000000 6.074999951 6.074999951 8.099999935
   215   1 0.000000 6.074999951 6.074999951 12.149999903
   216   1 0.000000 6.074999951 10.124999919 0E-9
   217   1 0.000000 6.074999951 10.124999919 4.049999968
   218   1 0.000000 6.074999951 10.124999919 8.099999935
   219   1 0.000000 6.074999951 10.124999919 12.149999903
   220   1 0.000000 6.074999951 14.174999886 0E-9
   221   1 0.000000 6.074999951 14.174999886 4.049999968
   222   1 0.000000 6.074999951 14.174999886 8.099999935
   223   1 0.000000 6.074999951 14.174999886 12.149999903
   224   1 0.000000 10.124999919 2.024999984 0E-9
   225   1 0.000000 10.124999919 2.024999984 4.049999968
   226   1 0.000000 10.124999919 2.024999984 8.099999935
   227   1 0.000000 10.124999919 2.024999984 12.149999903
   228   1 0.000000 10.124999919 6.074999951 0E-9
   229   1 0.000000 10.124999919 6.074999951 4.049999968
   230   1 0.000000 10.124999919 6.074999951 8.099999935
   231   1 0.000000 10.124999919 6.074999951 12.149999903
   232   1 0.000000 10.124999919 10.124999919 0E-9
   233   1 0.000000 10.124999919 10.124999919 4.049999968
   234   1 0.000000 10.124999919 10.124999919 8.099999935
   235   1 0.000000 10.124999919 10.124999919 12.149999903
   236   1 0.000000 10.124999919 14.174999886 0E-9
   237   1 0.000000 10.124999919 14.174999886 4.049999968
   238   1 0.000000 10.124999919 14.174999886 8.099999935
   239   1 0.000000 10.124999919 14.174999886 12.149999903
   240   1 0.000000 14.174999886 2.024999984 0E-9
   241   1 0.000000 14.174999886 2.024999984 4.049999968
   242   1 0.000000 14.174999886 2.024999984 8.099999935
   243   1 0.000000 14.174999886 2.024999984 12.149999903
   244   1 0.000000 14.174999886 6.074999951 0E-9
   245   1 0.000000 14.174999886 6.074999951 4.049999968
   246   1 0.000000 14.174999886 6.074999951 8.099999935
   247   1 0.000000 14.174999886 6.074999951 12.149999903
   248   1 0.000000 14.174999886 10.124999919 0E-9
   249   1 0.000000 14.174999886 10.124999919 4.049999968
   250   1 0.000000 14.174999886 10.124999919 8.099999935
   251   1 0.000000 14.174999886 10.124999919 12.149999903
   252   1 0.000000 14.174999886 14.174999886 0E-9
   253   1 0.000000 14.174999886 14.174999886 4.049999968
   254   1 0.000000 14.174999886 14.174999886 8.099999935
   255   1 0.000000 14.174999886 14.174999886 12.149999903
