LAMMPS (13 Jan 2016)
Reading data file ...
  triclinic box = (0 0 0) to (16.2 16.2 16.2) with tilt (0 0 0)
  1 by 1 by 1 MPI processor grid
  reading atoms ...
  255 atoms
Neighbor list info ...
  1 neighbor list requests
  update every 1 steps, delay 0 steps, check yes
  max neighbors/atom: 2000, page size: 100000
  master list distance cutoff = 7.72488
  ghost atom cutoff = 7.72488
Setting up cg style minimization ...
  Unit style: metal
Memory usage per processor = 3.35976 Mbytes
Step Temp Press CPU Pxx Pyy Pzz Pxy Pxz Pyz KinEng PotEng TotEng Volume Lx Ly Lz Atoms 
       0            0    -1164.618            0    -1164.618    -1164.618    -1164.618 -1.3095434e-11 6.6941515e-13 -6.0456556e-12            0   -856.07375   -856.07375    4251.5279         16.2         16.2         16.2      255 
       1            0     1.258346 0.0020551682    1.2583373    1.2583373    1.2583635 1.2863374e-11 5.0699293e-12 1.1931094e-11            0   -856.07605   -856.07605    4245.2577    16.192032    16.192032    16.192032      255 
       2            0    3.9357747 0.0031080246    3.9385103    3.9385103    3.9303034 -5.3638244e-12 2.0952439e-12 -2.2649587e-11            0   -856.08805   -856.08805     4244.788    16.191435    16.191435    16.191435      255 
       3            0     -354.713 0.0051851273   -354.76959   -354.76959   -354.59981 -1.0680922e-11 -4.272369e-12 6.2828956e-12            0   -856.08828   -856.08828    4246.7041    16.193872    16.193872    16.193868      255 
       4            0   -354.80841 0.0072669983   -355.55381   -355.55381   -353.31761 -8.5867953e-12 -5.612832e-12 9.5606635e-12            0   -856.09151   -856.09151    4246.6194    16.193784    16.193784     16.19372      255 
       5            0  -0.32564227 0.0093481541  -0.89524865  -0.89524855   0.81357039 -6.3277397e-12 -1.0392579e-11 1.0664965e-11            0   -856.09172   -856.09172    4244.7188    16.191363    16.191363    16.191314      255 
       6            0    207.04978  0.011434078    294.39151    294.39149    32.366356 1.4419342e-11 1.9281678e-12 -3.8720544e-12            0   -856.09217   -856.09217    4243.5917    16.187424    16.187424    16.194894      255 
       7            0   -74.704344  0.013525963    9.5966513    9.5966365   -243.30632 5.4053405e-12 -5.1958312e-12 6.3586079e-12            0   -856.09234   -856.09234    4245.0933    16.189415    16.189415    16.196639      255 
       8            0   -2.7026051  0.015606165   -2.9142832   -2.9142831    -2.279249 -2.0533807e-12 -6.4115765e-12 -1.0355953e-11            0   -856.09247   -856.09247    4244.7018    16.191331    16.191331    16.191313      255 
       9            0    51.162948  0.017691135    51.957138    51.957138    49.574567 7.1244577e-13 -4.4004004e-12 -8.9946279e-12            0   -856.09248   -856.09248    4244.4136    16.190936    16.190936    16.191004      255 
      10            0   -14.597241  0.019778967    28.649708    28.649698   -101.09113 1.8019153e-12 8.7162416e-12 -9.5386274e-12            0   -856.09274   -856.09274    4244.7749    16.190183    16.190183    16.193888      255 
      11            0    37.719829   0.02186799     43.46891    43.468908    26.221668 2.4306503e-12 -6.74715e-12 3.9602837e-12            0   -856.09277   -856.09277    4244.4957    16.190899    16.190899    16.191391      255 
      12            0   -2.4283469    0.0239501   -2.6248547   -2.6248547   -2.0353312 -1.1272617e-11 -9.0097127e-12 9.2454319e-12            0   -856.09277   -856.09277    4244.7108    16.191342    16.191342    16.191325      255 
      13            0    35.156706  0.026045084    3.7442583    3.7442656    97.981593 1.8858438e-12 2.0073759e-11 1.0503102e-11            0   -856.09279   -856.09279    4244.5083    16.191976    16.191976    16.189286      255 
      14            0   -82.113872  0.028133154   -125.79818   -125.79817      5.25473 -1.1648606e-11 4.9862739e-12 1.930086e-11            0   -856.09282   -856.09282    4245.1342    16.193123    16.193123     16.18938      255 
      15            0    2.5220072  0.030236006   -8.9470881   -8.9470854    25.460195 6.4116354e-12 6.7049782e-13 5.332553e-12            0   -856.09305   -856.09305    4244.6628    16.191603    16.191603    16.190621      255 
      16            0    -8.229957  0.032323122   -8.0532495   -8.0532496    -8.583372 3.7714991e-12 2.7238605e-12 -1.2519282e-12            0   -856.09305   -856.09305    4244.7204    16.191344    16.191344    16.191359      255 
      17            0    2.8595478  0.034413099    4.2588564     4.258856  0.060930935 1.1314656e-11 -1.257184e-12 -1.0010327e-11            0   -856.09305   -856.09305    4244.6609    16.191233    16.191233    16.191353      255 
      18            0   -4.0777012  0.036512136   -12.695887   -12.695885    13.158668 -4.6934564e-12 -6.621126e-12 2.9648397e-11            0   -856.09308   -856.09308    4244.6885    16.191554    16.191554    16.190816      255 
      19            0    9.2045809  0.038609982    7.0427876    7.0427881    13.528167 5.8669193e-13 1.2236717e-11  5.58405e-12            0   -856.09308   -856.09308     4244.617    16.191279    16.191279    16.191094      255 
      20            0  -0.24680225  0.040696144  -0.20449654  -0.20449654  -0.33141368 -3.1429551e-12 1.4667124e-12 -3.5410627e-12            0   -856.09308   -856.09308    4244.6675     16.19128     16.19128    16.191284      255 
      21            0    6.3290406  0.042786121    9.7890474    9.7890466  -0.59097238 -8.8003475e-12 -6.4954946e-12 7.9465042e-12            0   -856.09308   -856.09308    4244.6322    16.191138    16.191138    16.191434      255 
      22            0    -6.611293  0.044871092  -0.93087026  -0.93087156   -17.972137 7.8363723e-12 -2.9334014e-13 1.8192327e-11            0   -856.09308   -856.09308    4244.7013    16.191162    16.191162    16.191649      255 
      23            0    1.3288033  0.046962976    2.5579545    2.5579542   -1.1294988 -1.8271089e-11 1.2990912e-11 1.2205171e-12            0   -856.09309   -856.09309    4244.6575    16.191234    16.191234    16.191339      255 
      24            0   -1.4926055  0.049057007   -0.8861403  -0.88614044   -2.7055356 -6.956399e-12 7.2078351e-12 -1.1304148e-11            0   -856.09309   -856.09309    4244.6726    16.191271    16.191271    16.191323      255 
      25            0  0.073997663  0.051141977  -0.17458595  -0.17458589   0.57116484 2.2838825e-11 2.6819904e-12 -1.655291e-12            0   -856.09309   -856.09309    4244.6642    16.191284    16.191284    16.191263      255 
      26            0    8.2936156  0.053229094    10.224847    10.224847    4.4311527 -6.4955114e-12 9.8899399e-12 9.8270801e-12            0   -856.09309   -856.09309    4244.6212    16.191168    16.191168    16.191333      255 
      27            0   -1.2384178   0.05531311    1.3424157    1.3424151   -6.4000843 -1.240418e-11 3.142951e-12 -5.4215906e-12            0   -856.09309   -856.09309    4244.6729    16.191215    16.191215    16.191436      255 
      28            0  -0.25506495  0.057404995  -0.30049181   -0.3004918  -0.16421123 3.5201092e-12 2.5143637e-12 2.9124713e-12            0   -856.09309   -856.09309    4244.6681    16.191284    16.191284     16.19128      255 
      29            0   0.23925125  0.059487104   0.21481924   0.21481925   0.28811525 1.4289976e-11 -7.8783446e-12 -5.5054124e-12            0   -856.09309   -856.09309    4244.6654     16.19128     16.19128    16.191278      255 
      30            0  -0.11297286  0.061579943   0.68615924   0.68615906   -1.7112369 3.0591431e-12 -9.2193353e-13 -2.6086528e-12            0   -856.09309   -856.09309    4244.6673    16.191259    16.191259    16.191327      255 
      31            0    2.0588007   0.06366396    2.2507639    2.2507639    1.6748744 5.992584e-12 8.3812363e-13 -6.4011693e-12            0   -856.09309   -856.09309     4244.656    16.191261    16.191261    16.191278      255 
      32            0 -0.044974451  0.065752983  0.063140491  0.063140463  -0.26120431 8.3812141e-13 5.7411316e-12 4.0753653e-12            0   -856.09309   -856.09309    4244.6672    16.191278    16.191278    16.191287      255 
      33            0  0.039233339     0.067837 -0.080434638 -0.080434608   0.27856926 -5.1125411e-12 -8.5907453e-12 5.4215984e-12            0   -856.09309   -856.09309    4244.6668    16.191284    16.191284    16.191274      255 
      34            0    -1.783972  0.069923162   -1.9522871    -1.952287   -1.4473419 -1.2152734e-11 3.2267603e-12 5.2382472e-12            0   -856.09309   -856.09309    4244.6766    16.191298    16.191298    16.191284      255 
      35            0   0.01269952  0.072009087  -0.17619407  -0.17619402   0.39048666 3.3105792e-12 1.374519e-11 3.7505929e-12            0   -856.09309   -856.09309    4244.6676    16.191287    16.191287    16.191271      255 
      36            0 -0.036032326  0.074104071 -0.024881789 -0.024881793 -0.058333397 1.5421431e-11 -4.6934791e-12 1.8805346e-12            0   -856.09309   -856.09309    4244.6679    16.191282    16.191282    16.191283      255 
      37            0   0.13329127  0.076187134   0.14929198   0.14929197   0.10128987 5.2382591e-12 5.1544469e-12 7.076888e-12            0   -856.09309   -856.09309     4244.667     16.19128     16.19128    16.191282      255 
      38            0 -0.055956481  0.078272104 -0.045004455 -0.045004463 -0.077860526 -4.4839487e-12 -2.640082e-12 -5.9978052e-12            0   -856.09309   -856.09309     4244.668    16.191282    16.191282    16.191283      255 
      39            0  0.018444956  0.080355167  0.025875505    0.0258755 0.0035838626 7.5011859e-12 -7.6688102e-12 -9.2245729e-12            0   -856.09309   -856.09309    4244.6676    16.191281    16.191281    16.191282      255 
      40            0 -0.0072552952  0.082441092 -0.056909756 -0.056909717  0.092053588 -9.7641132e-12 -7.8364342e-12 1.8024846e-11            0   -856.09309   -856.09309    4244.6677    16.191283    16.191283    16.191279      255 
      41            0   0.19431418  0.084522009   0.18536668   0.18536669   0.21220916 -1.2571823e-11 1.2781353e-11 2.5615089e-12            0   -856.09309   -856.09309    4244.6666    16.191281    16.191281     16.19128      255 
      42            0 -0.0045468337  0.087275982 -0.0080712016 -0.0080711978 0.0025018984 -4.9030098e-12 -1.236229e-11 1.9753472e-11            0   -856.09309   -856.09309    4244.6676    16.191282    16.191282    16.191282      255 
      43            0    0.0326594  0.090065956   0.10616881   0.10616873  -0.11435934 -5.7830375e-12 4.8611039e-12 9.622681e-12            0   -856.09309   -856.09309    4244.6674    16.191279    16.191279    16.191286      255 
      44            0  -0.24634007  0.092837095  -0.19577462  -0.19577467  -0.34747091 -5.7830355e-12 -8.9259895e-12 -1.7883409e-11            0   -856.09309   -856.09309    4244.6689    16.191282    16.191282    16.191286      255 
      45            0 0.00032486025  0.095617056 0.0003770047 0.00037700395 0.00022057211 -5.2382584e-12 -9.4707713e-12 -3.2529585e-12            0   -856.09309   -856.09309    4244.6675    16.191282    16.191282    16.191282      255 
      46            0  -0.19759699  0.098433018   -0.2324258   -0.2324256  -0.12793957 -4.8191966e-12 -1.0769857e-11 -6.9983116e-12            0   -856.09309   -856.09309    4244.6686    16.191284    16.191284    16.191281      255 
      47            0  0.010271945   0.10121012 -0.019151774 -0.019151608  0.069119218 4.1906068e-13 2.0114913e-12 3.0067604e-12            0   -856.09309   -856.09309    4244.6675    16.191282    16.191282     16.19128      255 
      48            0 -0.00058784371   0.10398102 0.0011101605 0.0011101508 -0.0039838425 -6.6211587e-12 -8.5069317e-12 -7.7892903e-12            0   -856.09309   -856.09309    4244.6675    16.191282    16.191282    16.191282      255 
      49            0   0.15753121   0.10676813    0.1652306   0.16523057   0.14213247 -3.7715468e-12 -5.7830385e-12 1.9564899e-11            0   -856.09309   -856.09309    4244.6667     16.19128     16.19128    16.191281      255 
      50            0 -0.0016705503   0.10954905  0.012281079  0.012281029 -0.029573759 -2.9753308e-12 -1.0476517e-12 6.0344737e-12            0   -856.09309   -856.09309    4244.6675    16.191281    16.191281    16.191282      255 
      51            0 0.0014284201   0.11231804 0.0012307378 0.0012307385 0.0018237841 6.9564072e-12 -7.6269043e-12 -7.8311964e-12            0   -856.09309   -856.09309    4244.6675    16.191282    16.191282    16.191282      255 
      52            0 -0.0060146993   0.11509109 -0.0064003705 -0.0064003691 -0.0052433583 -1.843867e-12 6.2859101e-13 2.1476859e-13            0   -856.09309   -856.09309    4244.6676    16.191282    16.191282    16.191282      255 
      53            0 0.0021473663   0.11788917  -0.01343168 -0.013431596  0.033305375 -7.7107164e-12 -4.6096674e-12 -1.0748906e-11            0   -856.09309   -856.09309    4244.6675    16.191282    16.191282    16.191281      255 
      54            0 -0.0067992958   0.12067294 -0.0071323706 -0.0071323688 -0.0061331481 -1.1566075e-11 3.771546e-13 5.0287281e-12            0   -856.09309   -856.09309    4244.6676    16.191282    16.191282    16.191282      255 
      55            0 0.00070469704   0.12345099 0.00082410256 0.00082410194 0.00046588663 -1.3870908e-11 7.5849982e-12 3.3943915e-12            0   -856.09309   -856.09309    4244.6675    16.191282    16.191282    16.191282      255 
      56            0 -0.0057032034   0.12611508 0.0051214868 0.0051214225 -0.027352519 4.1906067e-14 -1.2948975e-11 -1.2226095e-11            0   -856.09309   -856.09309    4244.6676    16.191281    16.191281    16.191282      255 
      57            0  0.014080734   0.12820411  0.017770961  0.017770939 0.0067003018 8.8002743e-12 1.6762427e-11 5.7097018e-13            0   -856.09309   -856.09309    4244.6674    16.191281    16.191281    16.191282      255 
      58            0 -5.2815031e-05   0.13029909 -3.427408e-05 -3.4274083e-05 -8.9896932e-05 7.7526225e-12 9.5126773e-12 -7.2445114e-12            0   -856.09309   -856.09309    4244.6675    16.191282    16.191282    16.191282      255 
      59            0 0.0060633453   0.13238215 0.0034453721 0.0034453818  0.011299282 9.6383956e-12 1.2697539e-11 8.7688447e-12            0   -856.09309   -856.09309    4244.6675    16.191282    16.191282    16.191281      255 
      60            0 -0.0037378969   0.13447714 -0.0080038491 -0.0080038334 0.0047939918 5.0287281e-13 6.6211586e-12 -6.2649571e-12            0   -856.09309   -856.09309    4244.6675    16.191282    16.191282    16.191281      255 
      61            0 0.0001781514   0.13655901 0.00011132981 0.00011133006 0.00031179432 5.3639766e-12 9.0098045e-12 -1.2802304e-11            0   -856.09309   -856.09309    4244.6675    16.191282    16.191282    16.191282      255 
      62            0 -0.0011042642   0.13864803 -0.0010397765 -0.0010397768 -0.0012332394 -5.9925677e-12 2.7658005e-12 8.2031127e-12            0   -856.09309   -856.09309    4244.6675    16.191282    16.191282    16.191282      255 
      63            0 0.00035048831   0.14073014 0.0019467763 0.0019467707 -0.0028420821 -6.4535344e-12 -4.7353856e-12 3.0958107e-12            0   -856.09309   -856.09309    4244.6675    16.191282    16.191282    16.191282      255 
      64            0 -0.00072356862   0.14281702 -0.00064872685 -0.00064872571 -0.00087325331 3.2267672e-12 -4.1906068e-13 -8.51217e-12            0   -856.09309   -856.09309    4244.6675    16.191282    16.191282    16.191282      255 
      65            0 4.8856578e-05   0.14490008 9.9375832e-05  9.93767e-05 -5.2182797e-05 -1.6762427e-13 -8.1716832e-12 7.1240315e-13            0   -856.09309   -856.09309    4244.6675    16.191282    16.191282    16.191282      255 
      66            0 -3.4069256e-05   0.14699411 -0.00028953637 -0.00028954049 0.00047686909 2.1414001e-11 -1.9151073e-11 -8.8317037e-12            0   -856.09309   -856.09309    4244.6675    16.191282    16.191282    16.191282      255 
      67            0 0.0032303341   0.14908004 0.0030375097 0.0030375021 0.0036159905 3.4782036e-12 1.9276791e-12 -5.8249434e-12            0   -856.09309   -856.09309    4244.6675    16.191282    16.191282    16.191282      255 
      68            0 -1.2419795e-05   0.15116215 -9.7625093e-05 -9.7631923e-05 0.00015799763 6.2859101e-13 -9.7222077e-12 -3.0224751e-12            0   -856.09309   -856.09309    4244.6675    16.191282    16.191282    16.191282      255 
      69            0 3.8012474e-05   0.15324807 8.7261237e-05 8.7265104e-05 -6.0488918e-05 1.2865163e-11 -1.8983449e-11 -1.2676585e-11            0   -856.09309   -856.09309    4244.6675    16.191282    16.191282    16.191282      255 
      70            0 -0.00040124331   0.15532994 -0.00033375652 -0.00033375106 -0.00053622235 7.1240315e-13 -1.4792842e-11 -2.415361e-11            0   -856.09309   -856.09309    4244.6675    16.191282    16.191282    16.191282      255 
      71            0 2.612095e-05   0.15742111 9.9696584e-05 9.9708037e-05 -0.00012104177 1.0811765e-11 -1.9234885e-11 4.7039561e-12            0   -856.09309   -856.09309    4244.6675    16.191282    16.191282    16.191282      255 
      72            0 -6.9430199e-05   0.15950608 -6.1751466e-05 -6.175009e-05 -8.4789043e-05 4.9030099e-12 4.8191978e-12 -8.1140623e-12            0   -856.09309   -856.09309    4244.6675    16.191282    16.191282    16.191282      255 
      73            0 8.5521877e-06   0.16159296 2.8325521e-06 2.8316969e-06 1.9992314e-05 -1.8145327e-11 1.7600548e-12 6.6263969e-12            0   -856.09309   -856.09309    4244.6675    16.191282    16.191282    16.191282      255 
      74            0 -0.0001125904   0.16367507 -0.00018774682 -0.00018777071 3.7746332e-05 9.8898319e-12 1.1817511e-11 -1.9067261e-12            0   -856.09309   -856.09309    4244.6675    16.191282    16.191282    16.191282      255 
      75            0 6.6949356e-05   0.16576099 1.7545043e-05 1.7529244e-05 0.00016577378 8.9678985e-12 4.0648886e-12 9.5126773e-12            0   -856.09309   -856.09309    4244.6675    16.191282    16.191282    16.191282      255 
      76            0 -8.2123332e-07   0.16784406 -2.448823e-07 -2.447731e-07 -1.9740446e-06 9.5545834e-12 1.6678615e-11 2.7060843e-11            0   -856.09309   -856.09309    4244.6675    16.191282    16.191282    16.191282      255 
      77            0 0.00013179499   0.16993499 0.00015253317 0.00015254411 9.0307698e-05 -1.1901323e-11 9.0517106e-12 2.5562701e-12            0   -856.09309   -856.09309    4244.6675    16.191282    16.191282    16.191282      255 
      78            0 -1.4258014e-05   0.17201614 3.0467698e-05 3.0491746e-05 -0.00010373349 6.7049708e-13 -8.045965e-12 1.3252794e-12            0   -856.09309   -856.09309    4244.6675    16.191282    16.191282    16.191282      255 
      79            0 2.0813149e-06   0.17410302 2.3083107e-06 2.3084309e-06 1.6272033e-06            0 1.4667124e-12 -1.1393212e-11            0   -856.09309   -856.09309    4244.6675    16.191282    16.191282    16.191282      255 
      80            0 -4.836997e-06   0.17618394 -4.8923578e-06 -4.8923737e-06 -4.7262594e-06 -1.257182e-12 1.4960466e-11 -5.9139938e-12            0   -856.09309   -856.09309    4244.6675    16.191282    16.191282    16.191282      255 
      81            0 2.0029129e-06    0.1782701 -1.4292226e-05 -1.4301169e-05 3.4602133e-05 -2.1372094e-12 -9.6383955e-13 -1.2760398e-11            0   -856.09309   -856.09309    4244.6675    16.191282    16.191282    16.191282      255 
      82            0 -1.0594254e-05   0.18035316 -1.119742e-05 -1.1197815e-05 -9.3875266e-06 -9.0936167e-12 -6.9983133e-12 -3.0277134e-12            0   -856.09309   -856.09309    4244.6675    16.191282    16.191282    16.191282      255 
      83            0 3.9343106e-07    0.1824441 1.5999351e-07 1.5975601e-07 8.6054365e-07 4.9030099e-12 1.9695852e-12 -9.7169694e-12            0   -856.09309   -856.09309    4244.6675    16.191282    16.191282    16.191282      255 
      84            0 -1.6434416e-06   0.18452597 4.9660277e-06 4.9721018e-06 -1.4868454e-05 5.6992252e-12 -4.9030099e-12 -3.404868e-12            0   -856.09309   -856.09309    4244.6675    16.191282    16.191282    16.191282      255 
      85            0 4.1874394e-05   0.18661213 4.6909297e-05 4.6915026e-05 3.179886e-05 1.1901323e-11 -2.0114912e-12 2.9858073e-12            0   -856.09309   -856.09309    4244.6675    16.191282    16.191282    16.191282      255 
      86            0 -1.6719055e-07     0.188694 3.7955184e-07 3.8154059e-07 -1.2626641e-06 1.3284223e-11 6.7468769e-12 -9.6436338e-12            0   -856.09309   -856.09309    4244.6675    16.191282    16.191282    16.191282      255 
      87            0 2.3764198e-06   0.19078612 3.7893436e-07  3.71961e-07 6.3783639e-06 -3.6039218e-12 1.8312952e-11 -1.6296222e-11            0   -856.09309   -856.09309    4244.6675    16.191282    16.191282    16.191282      255 
      88            0 -6.0530474e-06   0.19287705 -9.0090467e-06 -9.0197756e-06 -1.3031989e-07 -4.1906068e-13 -1.4667124e-12 -5.877326e-12            0   -856.09309   -856.09309    4244.6675    16.191282    16.191282    16.191282      255 
      89            0 9.5014629e-07   0.19496703 2.7569331e-08 1.8459654e-08 2.8044099e-06 -1.4667124e-12 -1.3409942e-12 3.1534316e-12            0   -856.09309   -856.09309    4244.6675    16.191282    16.191282    16.191282      255 
      90            0 -2.0382532e-06   0.19705415 -2.2573377e-06 -2.2595719e-06 -1.59785e-06 -1.6133836e-11 2.5562701e-12 -1.4635694e-11            0   -856.09309   -856.09309    4244.6675    16.191282    16.191282    16.191282      255 
      91            0 5.172041e-07   0.19913507 1.5717884e-06 1.5822472e-06 -1.6024233e-06 6.4116283e-12 -1.1775605e-11 3.3996297e-12            0   -856.09309   -856.09309    4244.6675    16.191282    16.191282    16.191282      255 
      92            0 -5.7625872e-06   0.20122099 -4.4233632e-06 -4.4199922e-06 -8.4444061e-06            0 -1.4583312e-11 -6.4954405e-13            0   -856.09309   -856.09309    4244.6675    16.191282    16.191282    16.191282      255 
      93            0 5.217857e-07   0.20330215 1.5114287e-06 1.5137712e-06 -1.4598429e-06 1.7139582e-11 -8.9678985e-12 -2.5405553e-11            0   -856.09309   -856.09309    4244.6675    16.191282    16.191282    16.191282      255 
      94            0 -5.0358069e-08   0.20539308 -2.1634611e-07 -2.1670935e-07 2.8198125e-07 1.8229139e-11 1.0476517e-12 1.0020788e-11            0   -856.09309   -856.09309    4244.6675    16.191282    16.191282    16.191282      255 
      95            0 1.0272666e-05   0.20747495 9.5662491e-06 9.561399e-06 1.1690351e-05 1.0350799e-11 -1.3577566e-11 -1.4824271e-11            0   -856.09309   -856.09309    4244.6675    16.191282    16.191282    16.191282      255 
      96            0 -2.3657809e-07   0.20956206 -1.8772137e-06 -1.8907832e-06 3.0582626e-06 1.3829002e-11 -8.4650256e-12 1.2823257e-11            0   -856.09309   -856.09309    4244.6675    16.191282    16.191282    16.191282      255 
      97            0 1.9661455e-07   0.21164298 2.5456574e-07 2.5496045e-07 8.0317441e-08 -1.5630963e-11 4.1906068e-13 1.5803826e-11            0   -856.09309   -856.09309    4244.6675    16.191282    16.191282    16.191282      255 
      98            0 -1.3054249e-06   0.21372914 -1.2042688e-06 -1.20339e-06 -1.508616e-06 -2.0114912e-12 1.2990881e-12 -2.7291326e-12            0   -856.09309   -856.09309    4244.6675    16.191282    16.191282    16.191282      255 
      99            0 3.8365168e-07   0.21581006 2.3898936e-06 2.4241053e-06 -3.6630439e-06 1.3242317e-11 1.1524169e-11 -1.2194666e-11            0   -856.09309   -856.09309    4244.6675    16.191282    16.191282    16.191282      255 
     100            0 -1.1265624e-06   0.21790099 -1.0311283e-06 -1.0292828e-06 -1.3192762e-06 1.4667124e-11 8.6326499e-12 -1.5044278e-11            0   -856.09309   -856.09309    4244.6675    16.191282    16.191282    16.191282      255 
     101            0 4.0233418e-08    0.2199831 3.7864898e-08 3.8007766e-08 4.4827591e-08 5.8668495e-13 3.8972643e-12 -2.8758039e-12            0   -856.09309   -856.09309    4244.6675    16.191282    16.191282    16.191282      255 
     102            0 -9.5408416e-07   0.22206903 -2.2633847e-06 -2.3080463e-06 1.7091785e-06 5.6573191e-12 -1.3116599e-11 2.8705656e-12            0   -856.09309   -856.09309    4244.6675    16.191282    16.191282    16.191282      255 
     103            0 2.8372653e-06   0.22415209 1.8443032e-06 1.8100671e-06 4.8574257e-06 -7.2497497e-12 -2.2210216e-12 9.6383955e-13            0   -856.09309   -856.09309    4244.6675    16.191282    16.191282    16.191282      255 
     104            0 -1.6549202e-08   0.22623706 -3.2363888e-08 -3.3494215e-08 1.6210498e-08 1.0183174e-11 4.0229825e-12 -2.634844e-12            0   -856.09309   -856.09309    4244.6675    16.191282    16.191282    16.191282      255 
     105            0 6.3592225e-07   0.22831917 8.2462831e-07 8.3697092e-07 2.4616752e-07 -4.5677614e-12 5.9925677e-12 -3.7453548e-12            0   -856.09309   -856.09309    4244.6675    16.191282    16.191282    16.191282      255 
     106            0 -3.3245621e-07   0.23040915 1.5571721e-07 1.876866e-07 -1.3407724e-06 -7.9621528e-13 7.3335618e-12 3.2372437e-12            0   -856.09309   -856.09309    4244.6675    16.191282    16.191282    16.191282      255 
     107            0 8.1035916e-08   0.23249102 1.0602633e-07 1.072557e-07 2.9825716e-08 -1.2278478e-11 8.8421803e-12 -4.8872951e-12            0   -856.09309   -856.09309    4244.6675    16.191282    16.191282    16.191282      255 
     108            0 -5.4630932e-08   0.23457599 -4.0085165e-08 -3.9566777e-08 -8.4240855e-08 -2.6819883e-12 -5.8668495e-12 -7.0192663e-13            0   -856.09309   -856.09309    4244.6675    16.191282    16.191282    16.191282      255 
     109            0 1.6991355e-08   0.23665714 -7.2072695e-08 -7.6071487e-08 1.9911825e-07 -9.1355227e-12 -1.8690106e-11 9.7745903e-12            0   -856.09309   -856.09309    4244.6675    16.191282    16.191282    16.191282      255 
     110            0 -6.2215719e-07   0.23874307 -6.8316952e-07 -6.7645135e-07 -5.0685071e-07 -4.6096674e-12 -2.9334247e-13 2.6400823e-12            0   -856.09309   -856.09309    4244.6675    16.191282    16.191282    16.191282      255 
     111            0 8.7792181e-09   0.24082494 -3.4071183e-08 -2.8363881e-08 8.8772719e-08 1.2027041e-11 -2.1372094e-12 5.6258896e-12            0   -856.09309   -856.09309    4244.6675    16.191282    16.191282    16.191282      255 
     112            0 -5.4149641e-09   0.24291515 6.4253735e-09 4.9211395e-09 -2.7591405e-08 -3.5620157e-12 1.1356544e-11 -2.0953034e-12            0   -856.09309   -856.09309    4244.6675    16.191282    16.191282    16.191282      255 
     113            0 2.3135445e-07   0.24500108 2.5099622e-07 2.4775437e-07 1.9531275e-07 4.4420432e-12 1.5798587e-11 1.2618965e-11            0   -856.09309   -856.09309    4244.6675    16.191282    16.191282    16.191282      255 
     114            0 -5.2716384e-09     0.247082 4.3908046e-08 3.0997803e-08 -9.0720764e-08 -1.4960466e-11 1.1649887e-11 2.7396092e-12            0   -856.09309   -856.09309    4244.6675    16.191282    16.191282    16.191282      255 
     115            0 1.2353638e-08   0.25016117 1.2245707e-08 1.2247651e-08 1.2567556e-08 8.5907438e-12 3.3105793e-12 2.027206e-12            0   -856.09309   -856.09309    4244.6675    16.191282    16.191282    16.191282      255 
Loop time of 0.250179 on 1 procs for 115 steps with 255 atoms

100.7% CPU use with 1 MPI tasks x no OpenMP threads

Minimization stats:
  Stopping criterion = force tolerance
  Energy initial, next-to-last, final = 
        -856.073751517     -856.093087043     -856.093087043
  Force two-norm initial, final = 5.36228 6.96844e-11
  Force max component initial, final = 3.09042 3.33133e-11
  Final line search alpha, max atom move = 1 3.33133e-11
  Iterations, force evaluations = 115 229

MPI task timing breakdown:
Section |  min time  |  avg time  |  max time  |%varavg| %total
---------------------------------------------------------------
Pair    | 0.23514    | 0.23514    | 0.23514    |   0.0 | 93.99
Neigh   | 0          | 0          | 0          |   0.0 |  0.00
Comm    | 0.0022178  | 0.0022178  | 0.0022178  |   0.0 |  0.89
Output  | 0.0027544  | 0.0027544  | 0.0027544  |   0.0 |  1.10
Modify  | 0          | 0          | 0          |   0.0 |  0.00
Other   |            | 0.01006    |            |       |  4.02

Nlocal:    255 ave 255 max 255 min
Histogram: 1 0 0 0 0 0 0 0 0 0
Nghost:    1424 ave 1424 max 1424 min
Histogram: 1 0 0 0 0 0 0 0 0 0
Neighs:    17018 ave 17018 max 17018 min
Histogram: 1 0 0 0 0 0 0 0 0 0

Total # of neighbors = 17018
Ave neighs/atom = 66.7373
Neighbor list builds = 0
Dangerous builds = 0
Setting up cg style minimization ...
  Unit style: metal
Memory usage per processor = 3.35976 Mbytes
Step Temp Press CPU Pxx Pyy Pzz Pxy Pxz Pyz KinEng PotEng TotEng Volume Lx Ly Lz Atoms 
     115            0 1.2348924e-08            0 1.2254675e-08 1.2246226e-08 1.254587e-08 6.1182859e-12 -2.3467398e-12 -1.1628934e-12            0   -856.09309   -856.09309    4244.6675    16.191282    16.191282    16.191282      255 
     116            0 1.2019657e-08 0.0029931068 1.2434326e-08 1.2436008e-08 1.1188637e-08 -7.5430922e-13 -5.2801645e-12 -9.0098045e-13            0   -856.09309   -856.09309    4244.6675    16.191282    16.191282    16.191282      255 
Loop time of 0.00301003 on 1 procs for 1 steps with 255 atoms

132.9% CPU use with 1 MPI tasks x no OpenMP threads

Minimization stats:
  Stopping criterion = force tolerance
  Energy initial, next-to-last, final = 
        -856.093087043     -856.093087043     -856.093087043
  Force two-norm initial, final = 4.04803e-11 1.40173e-11
  Force max component initial, final = 6.25928e-12 2.42528e-12
  Final line search alpha, max atom move = 1 2.42528e-12
  Iterations, force evaluations = 1 2

MPI task timing breakdown:
Section |  min time  |  avg time  |  max time  |%varavg| %total
---------------------------------------------------------------
Pair    | 0.0029392  | 0.0029392  | 0.0029392  |   0.0 | 97.65
Neigh   | 0          | 0          | 0          |   0.0 |  0.00
Comm    | 2.718e-05  | 2.718e-05  | 2.718e-05  |   0.0 |  0.90
Output  | 0          | 0          | 0          |   0.0 |  0.00
Modify  | 0          | 0          | 0          |   0.0 |  0.00
Other   |            | 4.363e-05  |            |       |  1.45

Nlocal:    255 ave 255 max 255 min
Histogram: 1 0 0 0 0 0 0 0 0 0
Nghost:    1424 ave 1424 max 1424 min
Histogram: 1 0 0 0 0 0 0 0 0 0
Neighs:    17018 ave 17018 max 17018 min
Histogram: 1 0 0 0 0 0 0 0 0 0

Total # of neighbors = 17018
Ave neighs/atom = 66.7373
Neighbor list builds = 0
Dangerous builds = 0
System init for write_restart ...
System init for write_data ...
Reading restart file ...
  restart file = 13 Jan 2016, LAMMPS = 13 Jan 2016
  triclinic box = (0.00435913 0.00435913 0.00435913) to (16.1956 16.1956 16.1956) with tilt (0 0 0)
  1 by 1 by 1 MPI processor grid
  255 atoms
Changing box ...
  triclinic box = (0.00435913 0.00435913 0.00435913) to (16.1956 16.1956 16.1956) with tilt (0 0 0)
Neighbor list info ...
  1 neighbor list requests
  update every 1 steps, delay 0 steps, check yes
  max neighbors/atom: 2000, page size: 100000
  master list distance cutoff = 7.72488
  ghost atom cutoff = 7.72488
Setting up cg style minimization ...
  Unit style: metal
Memory usage per processor = 3.35976 Mbytes
Step Temp Press CPU Pxx Pyy Pzz Pxy Pxz Pyz KinEng PotEng TotEng Volume Lx Ly Lz Atoms 
     116            0    0.7926702            0    1.1707894   0.60361057   0.60361057 5.1125454e-12 -5.741137e-12 2.980572e-12            0   -856.09309   -856.09309    4244.6633    16.191265    16.191282    16.191282      255 
     117            0   0.79116445 0.0019819736    1.1680025    0.6027454    0.6027454 -7.9621608e-12 1.9109186e-11 -4.2691849e-12            0   -856.09309   -856.09309    4244.6633    16.191265    16.191282    16.191282      255 
     118            0   0.79106497 0.0039849281    1.1669921    0.6031014   0.60310139 -1.4248077e-12 -2.5981788e-12 -1.0879874e-11            0   -856.09309   -856.09309    4244.6633    16.191265    16.191282    16.191282      255 
     119            0    0.7911834 0.0059781075    1.1665547   0.60349775   0.60349775 -6.0344798e-12 8.7583769e-12 4.9030148e-12            0   -856.09309   -856.09309    4244.6633    16.191265    16.191282    16.191282      255 
     120            0   0.79122525 0.0079760551    1.1663969   0.60363944   0.60363943 3.7296437e-12 1.0476527e-12 -6.2021042e-12            0   -856.09309   -856.09309    4244.6633    16.191265    16.191282    16.191282      255 
     121            0   0.79123331  0.009968996    1.1663219   0.60368901     0.603689 6.872602e-12 -1.2781363e-11 1.3603771e-11            0   -856.09309   -856.09309    4244.6633    16.191265    16.191282    16.191282      255 
     122            0   0.79123751   0.01196599    1.1662915    0.6037105    0.6037105 3.813456e-12 -1.6762444e-13 9.2717267e-13            0   -856.09309   -856.09309    4244.6633    16.191265    16.191282    16.191282      255 
     123            0   0.79124319  0.013958931    1.1662765   0.60372652   0.60372651 -1.8983468e-11 -8.423128e-12 8.1035939e-12            0   -856.09309   -856.09309    4244.6633    16.191265    16.191282    16.191282      255 
     124            0   0.79123893  0.015960932    1.1662735   0.60372166   0.60372165 2.8915216e-12 -6.7468836e-12 6.8254576e-12            0   -856.09309   -856.09309    4244.6633    16.191265    16.191282    16.191282      255 
     125            0   0.79123749  0.017952919    1.1662723   0.60372008   0.60372007 -4.609672e-13 -4.4001415e-12 -8.3183627e-12            0   -856.09309   -856.09309    4244.6633    16.191265    16.191282    16.191282      255 
     126            0   0.79123447  0.019950151    1.1662721   0.60371567   0.60371566 -1.4373796e-11 -6.6211653e-12 1.7967244e-11            0   -856.09309   -856.09309    4244.6633    16.191265    16.191282    16.191282      255 
     127            0   0.79123335  0.021942139     1.166272   0.60371404   0.60371403 -4.2325171e-12 1.8438688e-12 5.1701663e-12            0   -856.09309   -856.09309    4244.6633    16.191265    16.191282    16.191282      255 
     128            0   0.79123431  0.023939133    1.1662719    0.6037155   0.60371549 -5.363982e-12 1.4289983e-11 -2.4305543e-12            0   -856.09309   -856.09309    4244.6633    16.191265    16.191282    16.191282      255 
     129            0   0.79123517  0.025932074    1.1662719    0.6037168    0.6037168 1.1230837e-11 4.3582354e-12 -5.4687473e-12            0   -856.09309   -856.09309    4244.6633    16.191265    16.191282    16.191282      255 
     130            0    0.7912352  0.027934074    1.1662719   0.60371685   0.60371684 -4.1067987e-12 2.0953055e-13 4.8506322e-12            0   -856.09309   -856.09309    4244.6633    16.191265    16.191282    16.191282      255 
     131            0   0.79123505  0.029927015    1.1662719   0.60371662   0.60371661 -1.3242331e-11 -3.6039254e-12 -1.4845239e-11            0   -856.09309   -856.09309    4244.6633    16.191265    16.191282    16.191282      255 
     132            0   0.79123503  0.031923056    1.1662719   0.60371659   0.60371658 -1.2110866e-11 -2.304836e-12 -1.538478e-11            0   -856.09309   -856.09309    4244.6633    16.191265    16.191282    16.191282      255 
     133            0   0.79123501  0.033915043    1.1662719   0.60371656   0.60371655 5.363982e-12 -1.1733711e-12 -7.2235656e-12            0   -856.09309   -856.09309    4244.6633    16.191265    16.191282    16.191282      255 
     134            0   0.79123501  0.035912037    1.1662719   0.60371656   0.60371655 -4.1906109e-14 1.0308903e-11 -5.5787508e-12            0   -856.09309   -856.09309    4244.6633    16.191265    16.191282    16.191282      255 
     135            0   0.79123502  0.038881063    1.1662719   0.60371657   0.60371656 9.3869685e-12 -1.0895588e-12 -1.1325126e-11            0   -856.09309   -856.09309    4244.6633    16.191265    16.191282    16.191282      255 
Loop time of 0.038898 on 1 procs for 19 steps with 255 atoms

92.5% CPU use with 1 MPI tasks x no OpenMP threads

Minimization stats:
  Stopping criterion = force tolerance
  Energy initial, next-to-last, final = 
        -856.093087041     -856.093087041     -856.093087041
  Force two-norm initial, final = 5.84583e-06 2.86545e-11
  Force max component initial, final = 1.45839e-06 4.63937e-12
  Final line search alpha, max atom move = 1 4.63937e-12
  Iterations, force evaluations = 19 38

MPI task timing breakdown:
Section |  min time  |  avg time  |  max time  |%varavg| %total
---------------------------------------------------------------
Pair    | 0.037817   | 0.037817   | 0.037817   |   0.0 | 97.22
Neigh   | 0          | 0          | 0          |   0.0 |  0.00
Comm    | 0.0003593  | 0.0003593  | 0.0003593  |   0.0 |  0.92
Output  | 0.00040793 | 0.00040793 | 0.00040793 |   0.0 |  1.05
Modify  | 0          | 0          | 0          |   0.0 |  0.00
Other   |            | 0.0003133  |            |       |  0.81

Nlocal:    255 ave 255 max 255 min
Histogram: 1 0 0 0 0 0 0 0 0 0
Nghost:    1424 ave 1424 max 1424 min
Histogram: 1 0 0 0 0 0 0 0 0 0
Neighs:    17018 ave 17018 max 17018 min
Histogram: 1 0 0 0 0 0 0 0 0 0

Total # of neighbors = 17018
Ave neighs/atom = 66.7373
Neighbor list builds = 0
Dangerous builds = 0
Reading restart file ...
  restart file = 13 Jan 2016, LAMMPS = 13 Jan 2016
  triclinic box = (0.00435913 0.00435913 0.00435913) to (16.1956 16.1956 16.1956) with tilt (0 0 0)
  1 by 1 by 1 MPI processor grid
  255 atoms
Changing box ...
  triclinic box = (0.00435913 0.00435913 0.00435913) to (16.1957 16.1956 16.1956) with tilt (0 0 0)
Neighbor list info ...
  1 neighbor list requests
  update every 1 steps, delay 0 steps, check yes
  max neighbors/atom: 2000, page size: 100000
  master list distance cutoff = 7.72488
  ghost atom cutoff = 7.72488
Setting up cg style minimization ...
  Unit style: metal
Memory usage per processor = 3.35976 Mbytes
Step Temp Press CPU Pxx Pyy Pzz Pxy Pxz Pyz KinEng PotEng TotEng Volume Lx Ly Lz Atoms 
     116            0  -0.79266445            0   -1.1707796  -0.60360688  -0.60360688 7.2497424e-12 -1.9528208e-11 -3.0277104e-12            0   -856.09309   -856.09309    4244.6718    16.191298    16.191282    16.191282      255 
     117            0  -0.79115871 0.0019907951   -1.1679927  -0.60274171  -0.60274171 1.2990868e-12 -1.0769849e-11 5.0391996e-12            0   -856.09309   -856.09309    4244.6718    16.191298    16.191282    16.191282      255 
     118            0  -0.79105923 0.0039858818   -1.1669823   -0.6030977  -0.60309771 2.1372073e-12 -1.2529902e-11 7.6845175e-12            0   -856.09309   -856.09309    4244.6718    16.191298    16.191282    16.191282      255 
     119            0  -0.79117766 0.0059850216   -1.1665449  -0.60349406  -0.60349407 1.676241e-13 -3.0172338e-12 -1.4750921e-11            0   -856.09309   -856.09309    4244.6718    16.191298    16.191282    16.191282      255 
     120            0  -0.79121951 0.0079798698    -1.166387  -0.60363575  -0.60363576 -1.898343e-11 -2.0953013e-12 1.6542404e-11            0   -856.09309   -856.09309    4244.6718    16.191298    16.191282    16.191282      255 
     121            0  -0.79122758 0.0099840164   -1.1663121  -0.60368532  -0.60368533 -3.0591399e-12 -1.4834733e-11 -2.5824588e-12            0   -856.09309   -856.09309    4244.6718    16.191298    16.191282    16.191282      255 
     122            0  -0.79123178  0.011977911   -1.1662817  -0.60370681  -0.60370682 3.1848579e-12 -2.8496097e-12 3.8448779e-12            0   -856.09309   -856.09309    4244.6718    16.191298    16.191282    16.191282      255 
     123            0  -0.79123745  0.013976812   -1.1662667  -0.60372283  -0.60372284 -2.0366328e-11 8.8421714e-12 -1.5672854e-11            0   -856.09309   -856.09309    4244.6718    16.191298    16.191282    16.191282      255 
     124            0   -0.7912332  0.015969992   -1.1662636  -0.60371797  -0.60371798 2.3886435e-12 -3.0591399e-12 1.2178939e-11            0   -856.09309   -856.09309    4244.6718    16.191298    16.191282    16.191282      255 
     125            0  -0.79123175  0.017968893   -1.1662625  -0.60371638  -0.60371639 -7.5430846e-13 -3.0591399e-12 2.3048314e-13            0   -856.09309   -856.09309    4244.6718    16.191298    16.191282    16.191282      255 
     126            0  -0.79122873  0.019962788   -1.1662622  -0.60371198  -0.60371199 2.5185521e-11 5.7411255e-12 -1.2000838e-11            0   -856.09309   -856.09309    4244.6718    16.191298    16.191282    16.191282      255 
     127            0  -0.79122761  0.021964788   -1.1662621  -0.60371035  -0.60371036 2.2629254e-12 4.7353809e-12 -5.0811056e-12            0   -856.09309   -856.09309    4244.6718    16.191298    16.191282    16.191282      255 
     128            0  -0.79122857  0.023959875   -1.1662621  -0.60371181  -0.60371182 -2.1036825e-11 8.8002654e-13 9.2559934e-12            0   -856.09309   -856.09309    4244.6718    16.191298    16.191282    16.191282      255 
     129            0  -0.79122944  0.025957823   -1.1662621  -0.60371311  -0.60371312 3.9810724e-12 -1.4248049e-12 1.9695832e-12            0   -856.09309   -856.09309    4244.6718    16.191298    16.191282    16.191282      255 
     130            0  -0.79122947  0.027951956   -1.1662621  -0.60371316  -0.60371317 1.1901311e-11 -9.9317281e-12 1.262419e-12            0   -856.09309   -856.09309    4244.6718    16.191298    16.191282    16.191282      255 
     131            0  -0.79122931  0.029949903   -1.1662621  -0.60371293  -0.60371294 -3.8553544e-12 4.4420387e-12 2.503885e-12            0   -856.09309   -856.09309    4244.6718    16.191298    16.191282    16.191282      255 
     132            0  -0.79122929  0.031943798   -1.1662621   -0.6037129  -0.60371291 4.1906026e-14 7.8783328e-12 -7.6688027e-12            0   -856.09309   -856.09309    4244.6718    16.191298    16.191282    16.191282      255 
     133            0  -0.79122927  0.033945799   -1.1662621  -0.60371286  -0.60371287 8.3812051e-14 -3.1429519e-12 -2.7186534e-12            0   -856.09309   -856.09309    4244.6718    16.191298    16.191282    16.191282      255 
     134            0  -0.79122928  0.035939932   -1.1662621  -0.60371287  -0.60371288 8.171675e-12 1.0560318e-11 -5.9716087e-13            0   -856.09309   -856.09309    4244.6718    16.191298    16.191282    16.191282      255 
     135            0  -0.79122928  0.038914919   -1.1662621  -0.60371288  -0.60371289 3.1010459e-12 -1.8145309e-11 -1.6736219e-11            0   -856.09309   -856.09309    4244.6718    16.191298    16.191282    16.191282      255 
Loop time of 0.0389318 on 1 procs for 19 steps with 255 atoms

102.7% CPU use with 1 MPI tasks x no OpenMP threads

Minimization stats:
  Stopping criterion = force tolerance
  Energy initial, next-to-last, final = 
        -856.093087041     -856.093087041     -856.093087041
  Force two-norm initial, final = 5.84582e-06 2.86973e-11
  Force max component initial, final = 1.45839e-06 4.61139e-12
  Final line search alpha, max atom move = 1 4.61139e-12
  Iterations, force evaluations = 19 38

MPI task timing breakdown:
Section |  min time  |  avg time  |  max time  |%varavg| %total
---------------------------------------------------------------
Pair    | 0.037858   | 0.037858   | 0.037858   |   0.0 | 97.24
Neigh   | 0          | 0          | 0          |   0.0 |  0.00
Comm    | 0.00035882 | 0.00035882 | 0.00035882 |   0.0 |  0.92
Output  | 0.0004065  | 0.0004065  | 0.0004065  |   0.0 |  1.04
Modify  | 0          | 0          | 0          |   0.0 |  0.00
Other   |            | 0.0003088  |            |       |  0.79

Nlocal:    255 ave 255 max 255 min
Histogram: 1 0 0 0 0 0 0 0 0 0
Nghost:    1424 ave 1424 max 1424 min
Histogram: 1 0 0 0 0 0 0 0 0 0
Neighs:    17018 ave 17018 max 17018 min
Histogram: 1 0 0 0 0 0 0 0 0 0

Total # of neighbors = 17018
Ave neighs/atom = 66.7373
Neighbor list builds = 0
Dangerous builds = 0
Reading restart file ...
  restart file = 13 Jan 2016, LAMMPS = 13 Jan 2016
  triclinic box = (0.00435913 0.00435913 0.00435913) to (16.1956 16.1956 16.1956) with tilt (0 0 0)
  1 by 1 by 1 MPI processor grid
  255 atoms
Changing box ...
  triclinic box = (0.00435913 0.00435913 0.00435913) to (16.1956 16.1956 16.1956) with tilt (0 0 0)
Neighbor list info ...
  1 neighbor list requests
  update every 1 steps, delay 0 steps, check yes
  max neighbors/atom: 2000, page size: 100000
  master list distance cutoff = 7.72488
  ghost atom cutoff = 7.72488
Setting up cg style minimization ...
  Unit style: metal
Memory usage per processor = 3.35976 Mbytes
Step Temp Press CPU Pxx Pyy Pzz Pxy Pxz Pyz KinEng PotEng TotEng Volume Lx Ly Lz Atoms 
     116            0    0.7926702            0   0.60361057    1.1707894   0.60361057 -3.6877376e-12 -4.8611087e-12 -6.9616524e-12            0   -856.09309   -856.09309    4244.6633    16.191282    16.191265    16.191282      255 
     117            0   0.79116445 0.0020000935    0.6027454    1.1680025    0.6027454 -6.9145081e-12 -2.9753338e-12 9.476019e-12            0   -856.09309   -856.09309    4244.6633    16.191282    16.191265    16.191282      255 
     118            0   0.79106497 0.0039989948    0.6031014    1.1669921   0.60310139 1.8354876e-11 -5.5735126e-12 -1.2100389e-11            0   -856.09309   -856.09309    4244.6633    16.191282    16.191265    16.191282      255 
     119            0    0.7911834 0.0060031414   0.60349775    1.1665547   0.60349775 9.0517196e-12 -1.2571833e-13 -7.4907171e-13            0   -856.09309   -856.09309    4244.6633    16.191282    16.191265    16.191282      255 
     120            0   0.79122525 0.0080020428   0.60363944    1.1663969   0.60363943 -2.681991e-12 -1.6762444e-13 -1.4195695e-11            0   -856.09309   -856.09309    4244.6633    16.191282    16.191265    16.191282      255 
     121            0   0.79123331  0.010004044   0.60368901    1.1663219     0.603689 4.609672e-13 -2.0953055e-13 -5.919238e-13            0   -856.09309   -856.09309    4244.6633    16.191282    16.191265    16.191282      255 
     122            0   0.79123751  0.012002945    0.6037105    1.1662915    0.6037105 -6.7049775e-13 -6.7468836e-12 7.1973743e-12            0   -856.09309   -856.09309    4244.6633    16.191282    16.191265    16.191282      255 
     123            0   0.79124319  0.014008999   0.60372652    1.1662765   0.60372651 -1.1943241e-11 -7.3754753e-12 1.0790823e-12            0   -856.09309   -856.09309    4244.6633    16.191282    16.191265    16.191282      255 
     124            0   0.79123893  0.016008139   0.60372166    1.1662735   0.60372165 -5.2382637e-12 4.8192026e-12 8.3288393e-13            0   -856.09309   -856.09309    4244.6633    16.191282    16.191265    16.191282      255 
     125            0   0.79123749  0.018011093   0.60372008    1.1662723   0.60372007 -4.2744232e-12 3.9391743e-12 -4.8925383e-12            0   -856.09309   -856.09309    4244.6633    16.191282    16.191265    16.191282      255 
     126            0   0.79123447  0.020009995   0.60371567    1.1662721   0.60371566 -1.5924322e-12 5.8668553e-12 3.0277164e-12            0   -856.09309   -856.09309    4244.6633    16.191282    16.191265    16.191282      255 
     127            0   0.79123335  0.022017002   0.60371404     1.166272   0.60371403 -1.0057466e-12 1.0225091e-11 1.5206679e-11            0   -856.09309   -856.09309    4244.6633    16.191282    16.191265    16.191282      255 
     128            0   0.79123431   0.02401495    0.6037155    1.1662719   0.60371549 8.7164708e-12 -6.2440103e-12 -6.3487756e-12            0   -856.09309   -856.09309    4244.6633    16.191282    16.191265    16.191282      255 
     129            0   0.79123517  0.026023149    0.6037168    1.1662719    0.6037168 -7.0821325e-12 -2.6400849e-12 -5.7463753e-12            0   -856.09309   -856.09309    4244.6633    16.191282    16.191265    16.191282      255 
     130            0    0.7912352  0.028029919   0.60371685    1.1662719   0.60371684 1.0895588e-12 8.9679074e-12 -6.0344798e-12            0   -856.09309   -856.09309    4244.6633    16.191282    16.191265    16.191282      255 
     131            0   0.79123505     0.030056   0.60371662    1.1662719   0.60371661 -2.6400849e-12 -1.6720538e-11 -4.033463e-13            0   -856.09309   -856.09309    4244.6633    16.191282    16.191265    16.191282      255 
     132            0   0.79123503   0.03205514   0.60371659    1.1662719   0.60371658 -1.2571833e-13 5.6573248e-12 -2.1267351e-12            0   -856.09309   -856.09309    4244.6633    16.191282    16.191265    16.191282      255 
     133            0   0.79123501   0.03405714   0.60371656    1.1662719   0.60371655 1.0686058e-11 -9.1355319e-12 -1.6867209e-12            0   -856.09309   -856.09309    4244.6633    16.191282    16.191265    16.191282      255 
     134            0   0.79123501  0.036056042   0.60371656    1.1662719   0.60371655 -3.9391743e-12 -7.5430997e-13 5.2382637e-13            0   -856.09309   -856.09309    4244.6633    16.191282    16.191265    16.191282      255 
     135            0   0.79123502   0.03905201   0.60371657    1.1662719   0.60371656 1.131465e-12 -6.7049775e-12 4.8192026e-13            0   -856.09309   -856.09309    4244.6633    16.191282    16.191265    16.191282      255 
Loop time of 0.039068 on 1 procs for 19 steps with 255 atoms

92.1% CPU use with 1 MPI tasks x no OpenMP threads

Minimization stats:
  Stopping criterion = force tolerance
  Energy initial, next-to-last, final = 
        -856.093087041     -856.093087041     -856.093087041
  Force two-norm initial, final = 5.84583e-06 2.86036e-11
  Force max component initial, final = 1.45839e-06 4.70708e-12
  Final line search alpha, max atom move = 1 4.70708e-12
  Iterations, force evaluations = 19 38

MPI task timing breakdown:
Section |  min time  |  avg time  |  max time  |%varavg| %total
---------------------------------------------------------------
Pair    | 0.037982   | 0.037982   | 0.037982   |   0.0 | 97.22
Neigh   | 0          | 0          | 0          |   0.0 |  0.00
Comm    | 0.00035381 | 0.00035381 | 0.00035381 |   0.0 |  0.91
Output  | 0.00041628 | 0.00041628 | 0.00041628 |   0.0 |  1.07
Modify  | 0          | 0          | 0          |   0.0 |  0.00
Other   |            | 0.0003159  |            |       |  0.81

Nlocal:    255 ave 255 max 255 min
Histogram: 1 0 0 0 0 0 0 0 0 0
Nghost:    1424 ave 1424 max 1424 min
Histogram: 1 0 0 0 0 0 0 0 0 0
Neighs:    17018 ave 17018 max 17018 min
Histogram: 1 0 0 0 0 0 0 0 0 0

Total # of neighbors = 17018
Ave neighs/atom = 66.7373
Neighbor list builds = 0
Dangerous builds = 0
Reading restart file ...
  restart file = 13 Jan 2016, LAMMPS = 13 Jan 2016
  triclinic box = (0.00435913 0.00435913 0.00435913) to (16.1956 16.1956 16.1956) with tilt (0 0 0)
  1 by 1 by 1 MPI processor grid
  255 atoms
Changing box ...
  triclinic box = (0.00435913 0.00435913 0.00435913) to (16.1956 16.1957 16.1956) with tilt (0 0 0)
Neighbor list info ...
  1 neighbor list requests
  update every 1 steps, delay 0 steps, check yes
  max neighbors/atom: 2000, page size: 100000
  master list distance cutoff = 7.72488
  ghost atom cutoff = 7.72488
Setting up cg style minimization ...
  Unit style: metal
Memory usage per processor = 3.35976 Mbytes
Step Temp Press CPU Pxx Pyy Pzz Pxy Pxz Pyz KinEng PotEng TotEng Volume Lx Ly Lz Atoms 
     116            0  -0.79266445            0  -0.60360688   -1.1707796  -0.60360688 9.1774196e-12 -6.453528e-12 -1.6992893e-11            0   -856.09309   -856.09309    4244.6718    16.191282    16.191298    16.191282      255 
     117            0  -0.79115871 0.0019869804  -0.60274171   -1.1679927  -0.60274171 -5.7830315e-12 -8.6326413e-12 4.9501493e-12            0   -856.09309   -856.09309    4244.6718    16.191282    16.191298    16.191282      255 
     118            0  -0.79105923 0.0039951801   -0.6030977   -1.1669823  -0.60309771 2.5981736e-12 6.0763737e-12 4.572995e-12            0   -856.09309   -856.09309    4244.6718    16.191282    16.191298    16.191282      255 
     119            0  -0.79117766 0.0059940815  -0.60349406   -1.1665449  -0.60349407 6.3697159e-12 1.3828988e-12 -1.6526689e-11            0   -856.09309   -856.09309    4244.6718    16.191282    16.191298    16.191282      255 
     120            0  -0.79121951 0.0080051422  -0.60363575    -1.166387  -0.60363576 2.2629254e-12 2.2754972e-11 4.6568071e-12            0   -856.09309   -856.09309    4244.6718    16.191282    16.191298    16.191282      255 
     121            0  -0.79122758  0.010004044  -0.60368532   -1.1663121  -0.60368533 -3.4362941e-12 9.3869497e-12 3.9915489e-12            0   -856.09309   -856.09309    4244.6718    16.191282    16.191298    16.191282      255 
     122            0  -0.79123178  0.012006998  -0.60370681   -1.1662817  -0.60370682 -6.1182797e-12 -1.0518412e-11 4.0648845e-12            0   -856.09309   -856.09309    4244.6718    16.191282    16.191298    16.191282      255 
     123            0  -0.79123745  0.014006138  -0.60372283   -1.1662667  -0.60372284 -1.7642437e-11 5.0287231e-12 6.3749542e-12            0   -856.09309   -856.09309    4244.6718    16.191282    16.191298    16.191282      255 
     124            0   -0.7912332     0.016011  -0.60371797   -1.1662636  -0.60371798 1.2110841e-11 3.7715423e-13 -2.9281835e-12            0   -856.09309   -856.09309    4244.6718    16.191282    16.191298    16.191282      255 
     125            0  -0.79123175  0.018010139  -0.60371638   -1.1662625  -0.60371639 -6.2859038e-12 5.4477833e-13 2.5143615e-13            0   -856.09309   -856.09309    4244.6718    16.191282    16.191298    16.191282      255 
     126            0  -0.79122873    0.0200212  -0.60371198   -1.1662622  -0.60371199 8.5488292e-12 -9.5545738e-12 -8.3235843e-12            0   -856.09309   -856.09309    4244.6718    16.191282    16.191298    16.191282      255 
     127            0  -0.79122761  0.022020102  -0.60371035   -1.1662621  -0.60371036 -4.0648845e-12 -4.5258508e-12 -4.7563339e-12            0   -856.09309   -856.09309    4244.6718    16.191282    16.191298    16.191282      255 
     128            0  -0.79122857  0.024394035  -0.60371181   -1.1662621  -0.60371182 3.5620122e-12 7.4592726e-12 -7.5378464e-12            0   -856.09309   -856.09309    4244.6718    16.191282    16.191298    16.191282      255 
     129            0  -0.79122944  0.027072191  -0.60371311   -1.1662621  -0.60371312 -1.8354839e-11 -1.9653926e-11 -3.247717e-12            0   -856.09309   -856.09309    4244.6718    16.191282    16.191298    16.191282      255 
     130            0  -0.79122947  0.029772997  -0.60371316   -1.1662621  -0.60371317 1.8857712e-12 1.2152747e-12 -8.8212184e-12            0   -856.09309   -856.09309    4244.6718    16.191282    16.191298    16.191282      255 
     131            0  -0.79122931  0.032454967  -0.60371293   -1.1662621  -0.60371294 -6.1182797e-12 -8.4650172e-12 -3.5305827e-12            0   -856.09309   -856.09309    4244.6718    16.191282    16.191298    16.191282      255 
     132            0  -0.79122929  0.035134077   -0.6037129   -1.1662621  -0.60371291 4.3163206e-12 7.1240244e-13 -3.9653577e-12            0   -856.09309   -856.09309    4244.6718    16.191282    16.191298    16.191282      255 
     133            0  -0.79122927   0.03781414  -0.60371286   -1.1662621  -0.60371287 -9.5545738e-12 2.0953013e-12 -2.3048314e-12            0   -856.09309   -856.09309    4244.6718    16.191282    16.191298    16.191282      255 
     134            0  -0.79122928   0.04049015  -0.60371287   -1.1662621  -0.60371288 -2.5227427e-11 -1.7558625e-11 -8.3759669e-12            0   -856.09309   -856.09309    4244.6718    16.191282    16.191298    16.191282      255 
     135            0  -0.79122928  0.044483185  -0.60371288   -1.1662621  -0.60371289 -3.1429519e-12 -1.2152747e-12 3.5620122e-13            0   -856.09309   -856.09309    4244.6718    16.191282    16.191298    16.191282      255 
Loop time of 0.044507 on 1 procs for 19 steps with 255 atoms

89.9% CPU use with 1 MPI tasks x no OpenMP threads

Minimization stats:
  Stopping criterion = force tolerance
  Energy initial, next-to-last, final = 
        -856.093087041     -856.093087041     -856.093087041
  Force two-norm initial, final = 5.84582e-06 2.84854e-11
  Force max component initial, final = 1.45839e-06 4.54022e-12
  Final line search alpha, max atom move = 1 4.54022e-12
  Iterations, force evaluations = 19 38

MPI task timing breakdown:
Section |  min time  |  avg time  |  max time  |%varavg| %total
---------------------------------------------------------------
Pair    | 0.043147   | 0.043147   | 0.043147   |   0.0 | 96.94
Neigh   | 0          | 0          | 0          |   0.0 |  0.00
Comm    | 0.00043988 | 0.00043988 | 0.00043988 |   0.0 |  0.99
Output  | 0.00049686 | 0.00049686 | 0.00049686 |   0.0 |  1.12
Modify  | 0          | 0          | 0          |   0.0 |  0.00
Other   |            | 0.0004234  |            |       |  0.95

Nlocal:    255 ave 255 max 255 min
Histogram: 1 0 0 0 0 0 0 0 0 0
Nghost:    1424 ave 1424 max 1424 min
Histogram: 1 0 0 0 0 0 0 0 0 0
Neighs:    17018 ave 17018 max 17018 min
Histogram: 1 0 0 0 0 0 0 0 0 0

Total # of neighbors = 17018
Ave neighs/atom = 66.7373
Neighbor list builds = 0
Dangerous builds = 0
Reading restart file ...
  restart file = 13 Jan 2016, LAMMPS = 13 Jan 2016
  triclinic box = (0.00435913 0.00435913 0.00435913) to (16.1956 16.1956 16.1956) with tilt (0 0 0)
  1 by 1 by 1 MPI processor grid
  255 atoms
Changing box ...
  triclinic box = (0.00435913 0.00435913 0.00435913) to (16.1956 16.1956 16.1956) with tilt (0 0 0)
Neighbor list info ...
  1 neighbor list requests
  update every 1 steps, delay 0 steps, check yes
  max neighbors/atom: 2000, page size: 100000
  master list distance cutoff = 7.72488
  ghost atom cutoff = 7.72488
Setting up cg style minimization ...
  Unit style: metal
Memory usage per processor = 3.35976 Mbytes
Step Temp Press CPU Pxx Pyy Pzz Pxy Pxz Pyz KinEng PotEng TotEng Volume Lx Ly Lz Atoms 
     116            0    0.7926702            0   0.60361057   0.60361057    1.1707894 -1.5505261e-12 -2.2419769e-11 -1.4986672e-11            0   -856.09309   -856.09309    4244.6633    16.191282    16.191282    16.191265      255 
     117            0   0.79116445 0.0020000935    0.6027454    0.6027454    1.1680025 9.5964991e-12 9.8479357e-12 -5.4739855e-12            0   -856.09309   -856.09309    4244.6633    16.191282    16.191282    16.191265      255 
     118            0   0.79106497 0.0040171146    0.6031014    0.6031014    1.1669921 3.6039254e-12 -8.2555036e-12 2.1424498e-12            0   -856.09309   -856.09309    4244.6633    16.191282    16.191282    16.191265      255 
     119            0    0.7911834  0.006029129   0.60349775   0.60349775    1.1665547 -1.9905402e-11 1.1147025e-11 6.6106888e-12            0   -856.09309   -856.09309    4244.6633    16.191282    16.191282    16.191265      255 
     120            0   0.79122525  0.008051157   0.60363944   0.60363944    1.1663969 3.059146e-12 -1.0476527e-12 -2.6557997e-12            0   -856.09309   -856.09309    4244.6633    16.191282    16.191282    16.191265      255 
     121            0   0.79123331  0.010061979   0.60368901   0.60368901    1.1663219 -2.4808417e-11 -6.2021042e-12 -1.8904894e-11            0   -856.09309   -856.09309    4244.6633    16.191282    16.191282    16.191265      255 
     122            0   0.79123751  0.012078047    0.6037105    0.6037105    1.1662915 3.813456e-12 9.6384052e-13 6.0606711e-12            0   -856.09309   -856.09309    4244.6633    16.191282    16.191282    16.191265      255 
     123            0   0.79124319  0.014089108   0.60372652   0.60372652    1.1662765 -9.3031563e-12 -1.1147025e-11 1.9292525e-11            0   -856.09309   -856.09309    4244.6633    16.191282    16.191282    16.191265      255 
     124            0   0.79123893  0.016103983   0.60372166   0.60372166    1.1662735 -3.7715499e-13 -3.6458315e-12 -3.9077447e-12            0   -856.09309   -856.09309    4244.6633    16.191282    16.191282    16.191265      255 
     125            0   0.79123749  0.018115997   0.60372008   0.60372008    1.1662723 -2.8915216e-12 3.3524888e-13 -1.7129122e-12            0   -856.09309   -856.09309    4244.6633    16.191282    16.191282    16.191265      255 
     126            0   0.79123447  0.020137072   0.60371567   0.60371567    1.1662721 -1.4583326e-11 1.3200424e-11 5.9297145e-12            0   -856.09309   -856.09309    4244.6633    16.191282    16.191282    16.191265      255 
     127            0   0.79123335   0.02215004   0.60371404   0.60371404     1.166272 7.9621608e-12 -1.378711e-11 1.5211918e-11            0   -856.09309   -856.09309    4244.6633    16.191282    16.191282    16.191265      255 
     128            0   0.79123431  0.024165154    0.6037155    0.6037155    1.1662719 1.0853682e-11 -5.4477942e-13 -3.1743878e-12            0   -856.09309   -856.09309    4244.6633    16.191282    16.191282    16.191265      255 
     129            0   0.79123517  0.026175976    0.6037168    0.6037168    1.1662719 -3.8553621e-12 -2.5143666e-12 8.4755106e-12            0   -856.09309   -856.09309    4244.6633    16.191282    16.191282    16.191265      255 
     130            0    0.7912352  0.028203011   0.60371685   0.60371685    1.1662719 4.609672e-13 -1.927681e-12 -1.0722726e-11            0   -856.09309   -856.09309    4244.6633    16.191282    16.191282    16.191265      255 
     131            0   0.79123505  0.030215025   0.60371662   0.60371662    1.1662719 1.3409955e-11 2.1372116e-12 -1.402807e-11            0   -856.09309   -856.09309    4244.6633    16.191282    16.191282    16.191265      255 
     132            0   0.79123503     0.032233   0.60371659   0.60371659    1.1662719 9.8898418e-12 -1.85225e-11 -4.0858457e-12            0   -856.09309   -856.09309    4244.6633    16.191282    16.191282    16.191265      255 
     133            0   0.79123501  0.034244061   0.60371656   0.60371656    1.1662719 1.8019627e-12 -5.0287331e-13 7.9097782e-12            0   -856.09309   -856.09309    4244.6633    16.191282    16.191282    16.191265      255 
     134            0   0.79123501  0.036261082   0.60371656   0.60371656    1.1662719 -7.5430997e-13 -7.4592875e-12 -5.7097074e-13            0   -856.09309   -856.09309    4244.6633    16.191282    16.191282    16.191265      255 
     135            0   0.79123502   0.03925705   0.60371657   0.60371657    1.1662719 -2.7238971e-12 1.8187252e-11 2.3676952e-12            0   -856.09309   -856.09309    4244.6633    16.191282    16.191282    16.191265      255 
Loop time of 0.039274 on 1 procs for 19 steps with 255 atoms

101.8% CPU use with 1 MPI tasks x no OpenMP threads

Minimization stats:
  Stopping criterion = force tolerance
  Energy initial, next-to-last, final = 
        -856.093087041     -856.093087041     -856.093087041
  Force two-norm initial, final = 5.84583e-06 2.84189e-11
  Force max component initial, final = 1.45839e-06 4.41732e-12
  Final line search alpha, max atom move = 1 4.41732e-12
  Iterations, force evaluations = 19 38

MPI task timing breakdown:
Section |  min time  |  avg time  |  max time  |%varavg| %total
---------------------------------------------------------------
Pair    | 0.038181   | 0.038181   | 0.038181   |   0.0 | 97.22
Neigh   | 0          | 0          | 0          |   0.0 |  0.00
Comm    | 0.00036192 | 0.00036192 | 0.00036192 |   0.0 |  0.92
Output  | 0.00041819 | 0.00041819 | 0.00041819 |   0.0 |  1.06
Modify  | 0          | 0          | 0          |   0.0 |  0.00
Other   |            | 0.0003126  |            |       |  0.80

Nlocal:    255 ave 255 max 255 min
Histogram: 1 0 0 0 0 0 0 0 0 0
Nghost:    1424 ave 1424 max 1424 min
Histogram: 1 0 0 0 0 0 0 0 0 0
Neighs:    17018 ave 17018 max 17018 min
Histogram: 1 0 0 0 0 0 0 0 0 0

Total # of neighbors = 17018
Ave neighs/atom = 66.7373
Neighbor list builds = 0
Dangerous builds = 0
Reading restart file ...
  restart file = 13 Jan 2016, LAMMPS = 13 Jan 2016
  triclinic box = (0.00435913 0.00435913 0.00435913) to (16.1956 16.1956 16.1956) with tilt (0 0 0)
  1 by 1 by 1 MPI processor grid
  255 atoms
Changing box ...
  triclinic box = (0.00435913 0.00435913 0.00435913) to (16.1956 16.1956 16.1957) with tilt (0 0 0)
Neighbor list info ...
  1 neighbor list requests
  update every 1 steps, delay 0 steps, check yes
  max neighbors/atom: 2000, page size: 100000
  master list distance cutoff = 7.72488
  ghost atom cutoff = 7.72488
Setting up cg style minimization ...
  Unit style: metal
Memory usage per processor = 3.35976 Mbytes
Step Temp Press CPU Pxx Pyy Pzz Pxy Pxz Pyz KinEng PotEng TotEng Volume Lx Ly Lz Atoms 
     116            0  -0.79266445            0  -0.60360688  -0.60360688   -1.1707796 -1.9276772e-12 -1.0727943e-11 -1.3436119e-11            0   -856.09309   -856.09309    4244.6718    16.191282    16.191282    16.191298      255 
     117            0  -0.79115871 0.0019991398  -0.60274171  -0.60274171   -1.1679927 1.5589042e-11 9.3869497e-12 4.5572803e-12            0   -856.09309   -856.09309    4244.6718    16.191282    16.191282    16.191298      255 
     118            0  -0.79105923  0.004016161   -0.6030977   -0.6030977   -1.1669823 -1.4709015e-11 1.2697526e-11 4.944911e-12            0   -856.09309   -856.09309    4244.6718    16.191282    16.191282    16.191298      255 
     119            0  -0.79117767 0.0060269833  -0.60349406  -0.60349406   -1.1665449 -8.5069232e-12 5.8249376e-12 -1.7401477e-11            0   -856.09309   -856.09309    4244.6718    16.191282    16.191282    16.191298      255 
     120            0  -0.79121951 0.0080451965  -0.60363575  -0.60363575    -1.166387 -1.0895567e-12 1.3954707e-11 -4.4001327e-12            0   -856.09309   -856.09309    4244.6718    16.191282    16.191282    16.191298      255 
     121            0  -0.79122758  0.010056973  -0.60368532  -0.60368532   -1.1663121 -1.5505229e-11 5.6992195e-12 1.0439839e-11            0   -856.09309   -856.09309    4244.6718    16.191282    16.191282    16.191298      255 
     122            0  -0.79123178  0.012078047  -0.60370681  -0.60370681   -1.1662817 7.1659304e-12 2.3886435e-12 -2.9648513e-12            0   -856.09309   -856.09309    4244.6718    16.191282    16.191282    16.191298      255 
     123            0  -0.79123745  0.014088154  -0.60372283  -0.60372283   -1.1662667 1.676241e-12 2.0953013e-12 -2.8705628e-12            0   -856.09309   -856.09309    4244.6718    16.191282    16.191282    16.191298      255 
     124            0   -0.7912332  0.016105175  -0.60371797  -0.60371797   -1.1662636 1.0895567e-12 -3.8553544e-12 7.3754605e-12            0   -856.09309   -856.09309    4244.6718    16.191282    16.191282    16.191298      255 
     125            0  -0.79123175  0.018115997  -0.60371638  -0.60371638   -1.1662625 -3.26867e-12 -9.0517015e-12 -5.6573135e-13            0   -856.09309   -856.09309    4244.6718    16.191282    16.191282    16.191298      255 
     126            0  -0.79122873  0.020132065  -0.60371198  -0.60371198   -1.1662622 3.6877303e-12 -4.7353809e-12 3.4153411e-12            0   -856.09309   -856.09309    4244.6718    16.191282    16.191282    16.191298      255 
     127            0  -0.79122761  0.022142172  -0.60371035  -0.60371035   -1.1662621 1.7977685e-11 -2.5143615e-12 1.4960451e-11            0   -856.09309   -856.09309    4244.6718    16.191282    16.191282    16.191298      255 
     128            0  -0.79122857  0.024162054  -0.60371181  -0.60371181   -1.1662621 1.0937473e-11 -6.3278099e-12 9.4655235e-12            0   -856.09309   -856.09309    4244.6718    16.191282    16.191282    16.191298      255 
     129            0  -0.79122944  0.026173115  -0.60371311  -0.60371311   -1.1662621 1.7013846e-11 -6.6630581e-12 1.1000332e-13            0   -856.09309   -856.09309    4244.6718    16.191282    16.191282    16.191298      255 
     130            0  -0.79122947  0.028189182  -0.60371316  -0.60371316   -1.1662621 -2.7238917e-12 -9.3869497e-12 8.2397723e-12            0   -856.09309   -856.09309    4244.6718    16.191282    16.191282    16.191298      255 
     131            0  -0.79122931  0.030200005  -0.60371293  -0.60371293   -1.1662621 -9.5126678e-12 1.7684343e-11 1.0775087e-11            0   -856.09309   -856.09309    4244.6718    16.191282    16.191282    16.191298      255 
     132            0  -0.79122929  0.032215118   -0.6037129   -0.6037129   -1.1662621 -6.1601858e-12 -5.4477833e-12 1.6029055e-12            0   -856.09309   -856.09309    4244.6718    16.191282    16.191282    16.191298      255 
     133            0  -0.79122927  0.034224987  -0.60371286  -0.60371286   -1.1662621 3.7296363e-12  9.80601e-12 -4.6672836e-12            0   -856.09309   -856.09309    4244.6718    16.191282    16.191282    16.191298      255 
     134            0  -0.79122928  0.036244154  -0.60371287  -0.60371287   -1.1662621 -9.2193256e-12 -2.1749227e-11 -1.9716785e-11            0   -856.09309   -856.09309    4244.6718    16.191282    16.191282    16.191298      255 
     135            0  -0.79122928  0.039234161  -0.60371288  -0.60371288   -1.1662621 1.3787082e-11 1.3200398e-11 -1.1298912e-11            0   -856.09309   -856.09309    4244.6718    16.191282    16.191282    16.191298      255 
Loop time of 0.0392511 on 1 procs for 19 steps with 255 atoms

91.7% CPU use with 1 MPI tasks x no OpenMP threads

Minimization stats:
  Stopping criterion = force tolerance
  Energy initial, next-to-last, final = 
        -856.093087041     -856.093087041     -856.093087041
  Force two-norm initial, final = 5.84582e-06 2.82547e-11
  Force max component initial, final = 1.45839e-06 4.44104e-12
  Final line search alpha, max atom move = 1 4.44104e-12
  Iterations, force evaluations = 19 38

MPI task timing breakdown:
Section |  min time  |  avg time  |  max time  |%varavg| %total
---------------------------------------------------------------
Pair    | 0.03817    | 0.03817    | 0.03817    |   0.0 | 97.25
Neigh   | 0          | 0          | 0          |   0.0 |  0.00
Comm    | 0.00035858 | 0.00035858 | 0.00035858 |   0.0 |  0.91
Output  | 0.00041437 | 0.00041437 | 0.00041437 |   0.0 |  1.06
Modify  | 0          | 0          | 0          |   0.0 |  0.00
Other   |            | 0.000308   |            |       |  0.78

Nlocal:    255 ave 255 max 255 min
Histogram: 1 0 0 0 0 0 0 0 0 0
Nghost:    1424 ave 1424 max 1424 min
Histogram: 1 0 0 0 0 0 0 0 0 0
Neighs:    17018 ave 17018 max 17018 min
Histogram: 1 0 0 0 0 0 0 0 0 0

Total # of neighbors = 17018
Ave neighs/atom = 66.7373
Neighbor list builds = 0
Dangerous builds = 0
Reading restart file ...
  restart file = 13 Jan 2016, LAMMPS = 13 Jan 2016
  triclinic box = (0.00435913 0.00435913 0.00435913) to (16.1956 16.1956 16.1956) with tilt (0 0 0)
  1 by 1 by 1 MPI processor grid
  255 atoms
Changing box ...
  triclinic box = (0.00435913 0.00435913 0.00435913) to (16.1956 16.1956 16.1956) with tilt (0 0 -1.61913e-05)
Neighbor list info ...
  1 neighbor list requests
  update every 1 steps, delay 0 steps, check yes
  max neighbors/atom: 2000, page size: 100000
  master list distance cutoff = 7.72488
  ghost atom cutoff = 7.72488
Setting up cg style minimization ...
  Unit style: metal
Memory usage per processor = 3.35976 Mbytes
Step Temp Press CPU Pxx Pyy Pzz Pxy Pxz Pyz KinEng PotEng TotEng Volume Lx Ly Lz Atoms 
     116            0 7.3361535e-07            0 6.7487459e-08 8.9258655e-07 1.240772e-06 -1.1314638e-12 -3.3524854e-13   0.31653428            0   -856.09309   -856.09309    4244.6675    16.191282    16.191282    16.191282      255 
     117            0 7.3290892e-07 0.0026729107 7.2885882e-08 8.9051646e-07 1.2353244e-06 6.0344737e-12 1.0350799e-11   0.31502006            0   -856.09309   -856.09309    4244.6675    16.191282    16.191282    16.191282      255 
     118            0 7.3427888e-07 0.0053870678 7.6520898e-08 8.9185036e-07 1.2344654e-06 -1.2110854e-11 -4.1906068e-12   0.31442624            0   -856.09309   -856.09309    4244.6675    16.191282    16.191282    16.191282      255 
     119            0 7.3537002e-07 0.0080559254 7.9701611e-08 8.9272858e-07 1.2336799e-06 -4.5258553e-12 2.8077065e-12   0.31419945            0   -856.09309   -856.09309    4244.6675    16.191282    16.191282    16.191282      255 
     120            0 7.3637713e-07  0.010731936 8.1356649e-08 8.9400194e-07 1.2337728e-06 -2.7238944e-12 1.4373781e-11   0.31411066            0   -856.09309   -856.09309    4244.6675    16.191282    16.191282    16.191282      255 
     121            0 7.3680297e-07  0.013421059 8.2678827e-08 8.9447797e-07 1.2332521e-06 -1.395472e-11 -2.9753308e-12   0.31406782            0   -856.09309   -856.09309    4244.6675    16.191282    16.191282    16.191282      255 
     122            0 7.3716252e-07  0.016088963 8.3439087e-08 8.9494846e-07   1.2331e-06 -1.6762427e-12 3.3524854e-13   0.31404617            0   -856.09309   -856.09309    4244.6675    16.191282    16.191282    16.191282      255 
     123            0 7.3686338e-07  0.018779039 8.3069811e-08 8.9488708e-07 1.2326332e-06 -4.944916e-12 5.4896949e-12   0.31403341            0   -856.09309   -856.09309    4244.6675    16.191282    16.191282    16.191282      255 
     124            0 7.3681254e-07  0.021463871 8.2912579e-08 8.9496587e-07 1.2325592e-06 -5.0287281e-12 1.5756681e-11    0.3140269            0   -856.09309   -856.09309    4244.6675    16.191282    16.191282    16.191282      255 
     125            0 7.3704049e-07  0.024142981 8.3227001e-08 8.9517304e-07 1.2327214e-06 -5.0706342e-12 -2.3886459e-12   0.31402395            0   -856.09309   -856.09309    4244.6675    16.191282    16.191282    16.191282      255 
     126            0 7.3680534e-07  0.026831865 8.2982227e-08 8.9491561e-07 1.2325182e-06 -3.2686733e-12 -1.6175742e-11    0.3140228            0   -856.09309   -856.09309    4244.6675    16.191282    16.191282    16.191282      255 
     127            0 7.368443e-07  0.029511929 8.2880982e-08 8.9497237e-07 1.2326796e-06 1.8019609e-12 -1.3829002e-12   0.31402225            0   -856.09309   -856.09309    4244.6675    16.191282    16.191282    16.191282      255 
     128            0 7.3699309e-07  0.032181025 8.2965297e-08 8.9513466e-07 1.2328793e-06 -2.9334247e-12 -2.9334247e-13   0.31402217            0   -856.09309   -856.09309    4244.6675    16.191282    16.191282    16.191282      255 
     129            0 7.3696307e-07  0.034878969 8.2911029e-08 8.9509057e-07 1.2328876e-06 -2.6819883e-12 3.7715461e-13   0.31402215            0   -856.09309   -856.09309    4244.6675    16.191282    16.191282    16.191282      255 
     130            0 7.3693995e-07  0.037436008 8.2887645e-08 8.9507245e-07 1.2328598e-06 -1.4499499e-11 1.001555e-11   0.31402214            0   -856.09309   -856.09309    4244.6675    16.191282    16.191282    16.191282      255 
     131            0 7.3694049e-07  0.039447069 8.2886053e-08 8.950689e-07 1.2328665e-06 -1.1063202e-11 -4.1067946e-12   0.31402214            0   -856.09309   -856.09309    4244.6675    16.191282    16.191282    16.191282      255 
     132            0 7.3694613e-07  0.041465044 8.2891962e-08 8.950468e-07 1.2328996e-06 2.3048337e-12 1.1440356e-11   0.31402214            0   -856.09309   -856.09309    4244.6675    16.191282    16.191282    16.191282      255 
     133            0 7.3693852e-07   0.04347086 8.2895649e-08 8.9501002e-07 1.2329099e-06 1.3619472e-11 3.7715461e-12   0.31402214            0   -856.09309   -856.09309    4244.6675    16.191282    16.191282    16.191282      255 
     134            0 7.3693267e-07  0.045484066 8.2885592e-08 8.9501373e-07 1.2328987e-06 8.8002742e-13 -1.6762427e-13   0.31402214            0   -856.09309   -856.09309    4244.6675    16.191282    16.191282    16.191282      255 
     135            0  7.36935e-07  0.048477888 8.2888609e-08 8.9503039e-07 1.232886e-06 -1.4206157e-11 1.3870908e-11   0.31402214            0   -856.09309   -856.09309    4244.6675    16.191282    16.191282    16.191282      255 
Loop time of 0.0484939 on 1 procs for 19 steps with 255 atoms

90.7% CPU use with 1 MPI tasks x no OpenMP threads

Minimization stats:
  Stopping criterion = force tolerance
  Energy initial, next-to-last, final = 
        -856.093087043     -856.093087043     -856.093087043
  Force two-norm initial, final = 4.31647e-06 9.36548e-11
  Force max component initial, final = 1.45819e-06 1.44829e-11
  Final line search alpha, max atom move = 1 1.44829e-11
  Iterations, force evaluations = 19 38

MPI task timing breakdown:
Section |  min time  |  avg time  |  max time  |%varavg| %total
---------------------------------------------------------------
Pair    | 0.046948   | 0.046948   | 0.046948   |   0.0 | 96.81
Neigh   | 0          | 0          | 0          |   0.0 |  0.00
Comm    | 0.00048614 | 0.00048614 | 0.00048614 |   0.0 |  1.00
Output  | 0.00056911 | 0.00056911 | 0.00056911 |   0.0 |  1.17
Modify  | 0          | 0          | 0          |   0.0 |  0.00
Other   |            | 0.0004904  |            |       |  1.01

Nlocal:    255 ave 255 max 255 min
Histogram: 1 0 0 0 0 0 0 0 0 0
Nghost:    1424 ave 1424 max 1424 min
Histogram: 1 0 0 0 0 0 0 0 0 0
Neighs:    17018 ave 17018 max 17018 min
Histogram: 1 0 0 0 0 0 0 0 0 0

Total # of neighbors = 17018
Ave neighs/atom = 66.7373
Neighbor list builds = 0
Dangerous builds = 0
Reading restart file ...
  restart file = 13 Jan 2016, LAMMPS = 13 Jan 2016
  triclinic box = (0.00435913 0.00435913 0.00435913) to (16.1956 16.1956 16.1956) with tilt (0 0 0)
  1 by 1 by 1 MPI processor grid
  255 atoms
Changing box ...
  triclinic box = (0.00435913 0.00435913 0.00435913) to (16.1956 16.1956 16.1956) with tilt (0 0 1.61913e-05)
Neighbor list info ...
  1 neighbor list requests
  update every 1 steps, delay 0 steps, check yes
  max neighbors/atom: 2000, page size: 100000
  master list distance cutoff = 7.72488
  ghost atom cutoff = 7.72488
Setting up cg style minimization ...
  Unit style: metal
Memory usage per processor = 3.35976 Mbytes
Step Temp Press CPU Pxx Pyy Pzz Pxy Pxz Pyz KinEng PotEng TotEng Volume Lx Ly Lz Atoms 
     116            0 7.3361897e-07            0 6.7481215e-08 8.9259343e-07 1.2407823e-06 -7.9202468e-12 -1.5421433e-11  -0.31653428            0   -856.09309   -856.09309    4244.6675    16.191282    16.191282    16.191282      255 
     117            0 7.3291941e-07 0.0019948483 7.2909685e-08 8.905317e-07 1.2353169e-06 4.6096674e-12 4.4839492e-12  -0.31502006            0   -856.09309   -856.09309    4244.6675    16.191282    16.191282    16.191282      255 
     118            0 7.342789e-07 0.0040080547 7.6514738e-08 8.9186058e-07 1.2344614e-06 3.7715461e-12 -3.1429551e-12  -0.31442624            0   -856.09309   -856.09309    4244.6675    16.191282    16.191282    16.191282      255 
     119            0 7.3535612e-07 0.0060138702 7.969302e-08 8.9272187e-07 1.2336535e-06 -4.7772917e-12 1.1901323e-11  -0.31419945            0   -856.09309   -856.09309    4244.6675    16.191282    16.191282    16.191282      255 
[...]
     119            0 7.3537788e-07 0.0059859753 8.9271876e-07 7.9731406e-08 1.2336835e-06 -1.3493754e-11  -0.31419945 -2.9439012e-12            0   -856.09309   -856.09309    4244.6675    16.191282    16.191282    16.191282      255 
     120            0 7.3639753e-07 0.0079810619 8.9402501e-07 8.137712e-08 1.2337905e-06 1.022508e-11  -0.31411066 8.3550222e-12            0   -856.09309   -856.09309    4244.6675    16.191282    16.191282    16.191282      255 
     121            0 7.3682162e-07 0.0099840164 8.9450316e-07 8.2712038e-08 1.2332497e-06 -9.5964895e-12  -0.31406782 -8.4807404e-12            0   -856.09309   -856.09309    4244.6675    16.191282    16.191282    16.191282      255 
     122            0 7.3717846e-07  0.011977911 8.9497691e-07 8.3428941e-08 1.2331295e-06 -1.1105108e-11  -0.31404617 -1.115749e-12            0   -856.09309   -856.09309    4244.6675    16.191282    16.191282    16.191282      255 
     123            0 7.3687876e-07  0.013977051 8.9490688e-07 8.3081361e-08 1.232648e-06 -7.1659376e-12  -0.31403341 -3.0067603e-12            0   -856.09309   -856.09309    4244.6675    16.191282    16.191282    16.191282      255 
     124            0 7.3683944e-07  0.015970945 8.9501571e-07 8.2935507e-08 1.2325671e-06 5.7411313e-12   -0.3140269 -7.2497497e-12            0   -856.09309   -856.09309    4244.6675    16.191282    16.191282    16.191282      255 
     125            0 7.3701916e-07  0.017970085 8.9514298e-07 8.3209845e-08 1.2327047e-06 -1.5421433e-11  -0.31402395 5.2173054e-12            0   -856.09309   -856.09309    4244.6675    16.191282    16.191282    16.191282      255 
     126            0 7.3680255e-07  0.019964933 8.9488304e-07 8.2999294e-08 1.2325253e-06 -3.6458279e-12   -0.3140228 1.0067933e-11            0   -856.09309   -856.09309    4244.6675    16.191282    16.191282    16.191282      255 
     127            0 7.368299e-07  0.022083044 8.9496115e-07 8.2861155e-08 1.2326674e-06 2.7658005e-12  -0.31402225 1.7757696e-11            0   -856.09309   -856.09309    4244.6675    16.191282    16.191282    16.191282      255 
     128            0 7.3696149e-07  0.024759054 8.9508762e-07 8.2951887e-08 1.2328449e-06 -1.0811765e-11  -0.31402217 1.2383243e-11            0   -856.09309   -856.09309    4244.6675    16.191282    16.191282    16.191282      255 
     129            0 7.3691044e-07  0.027431965 8.950362e-07 8.2862575e-08 1.2328325e-06 -3.5620157e-12  -0.31402215 3.5986836e-12            0   -856.09309   -856.09309    4244.6675    16.191282    16.191282    16.191282      255 
     130            0 7.3693805e-07  0.030098915 8.9505447e-07 8.2907048e-08 1.2328526e-06 -2.9334247e-12  -0.31402214 -5.6573191e-12            0   -856.09309   -856.09309    4244.6675    16.191282    16.191282    16.191282      255 
     131            0 7.3696956e-07  0.032774925 8.9507295e-07 8.2921977e-08 1.2329137e-06 -1.7600548e-12  -0.31402214 -1.633289e-11            0   -856.09309   -856.09309    4244.6675    16.191282    16.191282    16.191282      255 
     132            0 7.369293e-07  0.035458088 8.9502912e-07 8.2874372e-08 1.2328844e-06 -7.8783407e-12  -0.31402214 5.1596846e-12            0   -856.09309   -856.09309    4244.6675    16.191282    16.191282    16.191282      255 
     133            0 7.3693885e-07  0.038126945 8.9503289e-07 8.2889919e-08 1.2328937e-06 -2.0953034e-12  -0.31402214 1.3331368e-11            0   -856.09309   -856.09309    4244.6675    16.191282    16.191282    16.191282      255 
     134            0 7.3690842e-07  0.040786982 8.9500712e-07 8.2850988e-08 1.2328672e-06 -4.9030099e-12  -0.31402214 -1.2383243e-11            0   -856.09309   -856.09309    4244.6675    16.191282    16.191282    16.191282      255 
     135            0 7.3694176e-07  0.044748068 8.9504718e-07 8.2869453e-08 1.2329087e-06 2.5143641e-13  -0.31402214 -8.1193006e-13            0   -856.09309   -856.09309    4244.6675    16.191282    16.191282    16.191282      255 
Loop time of 0.0447719 on 1 procs for 19 steps with 255 atoms

98.3% CPU use with 1 MPI tasks x no OpenMP threads

Minimization stats:
  Stopping criterion = force tolerance
  Energy initial, next-to-last, final = 
        -856.093087043     -856.093087043     -856.093087043
  Force two-norm initial, final = 4.31647e-06 9.36673e-11
  Force max component initial, final = 1.45819e-06 1.45003e-11
  Final line search alpha, max atom move = 1 1.45003e-11
  Iterations, force evaluations = 19 38

MPI task timing breakdown:
Section |  min time  |  avg time  |  max time  |%varavg| %total
---------------------------------------------------------------
Pair    | 0.043406   | 0.043406   | 0.043406   |   0.0 | 96.95
Neigh   | 0          | 0          | 0          |   0.0 |  0.00
Comm    | 0.00045753 | 0.00045753 | 0.00045753 |   0.0 |  1.02
Output  | 0.00048876 | 0.00048876 | 0.00048876 |   0.0 |  1.09
Modify  | 0          | 0          | 0          |   0.0 |  0.00
Other   |            | 0.0004201  |            |       |  0.94

Nlocal:    255 ave 255 max 255 min
Histogram: 1 0 0 0 0 0 0 0 0 0
Nghost:    1424 ave 1424 max 1424 min
Histogram: 1 0 0 0 0 0 0 0 0 0
Neighs:    17018 ave 17018 max 17018 min
Histogram: 1 0 0 0 0 0 0 0 0 0

Total # of neighbors = 17018
Ave neighs/atom = 66.7373
Neighbor list builds = 0
Dangerous builds = 0
Reading restart file ...
  restart file = 13 Jan 2016, LAMMPS = 13 Jan 2016
  triclinic box = (0.00435913 0.00435913 0.00435913) to (16.1956 16.1956 16.1956) with tilt (0 0 0)
  1 by 1 by 1 MPI processor grid
  255 atoms
Changing box ...
  triclinic box = (0.00435913 0.00435913 0.00435913) to (16.1956 16.1956 16.1956) with tilt (-1.61913e-05 0 0)
Neighbor list info ...
  1 neighbor list requests
  update every 1 steps, delay 0 steps, check yes
  max neighbors/atom: 2000, page size: 100000
  master list distance cutoff = 7.72488
  ghost atom cutoff = 7.72488
Setting up cg style minimization ...
  Unit style: metal
Memory usage per processor = 3.35976 Mbytes
Step Temp Press CPU Pxx Pyy Pzz Pxy Pxz Pyz KinEng PotEng TotEng Volume Lx Ly Lz Atoms 
     116            0 7.3363153e-07            0 8.9261227e-07 1.2420712e-06 6.6211105e-08   0.31653428 -8.5907438e-12 -2.8862804e-12            0   -856.09309   -856.09309    4244.6675    16.191282    16.191282    16.191282      255 
     117            0 7.3292182e-07 0.0019919872 8.9052895e-07 1.2379504e-06 7.0286103e-08   0.31502006 -2.9753308e-12 1.6620994e-11            0   -856.09309   -856.09309    4244.6675    16.191282    16.191282    16.191282      255 
     118            0 7.3427858e-07 0.0039920807 8.9185608e-07 1.2387522e-06 7.2227486e-08   0.31442624 2.8077065e-12 -5.8825642e-12            0   -856.09309   -856.09309    4244.6675    16.191282    16.191282    16.191282      255 
     119            0 7.3536076e-07 0.0059981346 8.9272923e-07 1.2395021e-06 7.3850963e-08   0.31419945 5.3639766e-12 7.1397463e-12            0   -856.09309   -856.09309    4244.6675    16.191282    16.191282    16.191282      255 
     120            0 7.3639986e-07  0.007997036 8.9401721e-07 1.2408127e-06 7.4369619e-08   0.31411066 -5.3639766e-12 -4.6306205e-12            0   -856.09309   -856.09309    4244.6675    16.191282    16.191282    16.191282      255 
     121            0 7.3680754e-07  0.010004997 8.9449511e-07 1.2412668e-06 7.4660651e-08   0.31406782 -8.4650256e-12 -7.6478573e-13            0   -856.09309   -856.09309    4244.6675    16.191282    16.191282    16.191282      255 
     122            0 7.3716667e-07  0.012003183 8.9496764e-07 1.2417719e-06 7.4760461e-08   0.31404617 -3.6039218e-12 -2.8810421e-12            0   -856.09309   -856.09309    4244.6675    16.191282    16.191282    16.191282      255 
     123            0 7.3684594e-07  0.014006138 8.9488216e-07 1.2416896e-06 7.3966064e-08   0.31403341 -4.7772917e-12 6.6944943e-12            0   -856.09309   -856.09309    4244.6675    16.191282    16.191282    16.191282      255 
     124            0 7.3682979e-07  0.016005039 8.9501232e-07 1.2418165e-06 7.3660584e-08    0.3140269 -7.0821254e-12 2.8129448e-12            0   -856.09309   -856.09309    4244.6675    16.191282    16.191282    16.191282      255 
     125            0 7.370234e-07  0.018009186 8.9514478e-07 1.2419461e-06 7.3979343e-08   0.31402395 -4.4001371e-12 -5.5892218e-12            0   -856.09309   -856.09309    4244.6675    16.191282    16.191282    16.191282      255 
     126            0 7.3681602e-07  0.020008087 8.9490323e-07 1.2417043e-06 7.3840508e-08    0.3140228 5.0706342e-12 4.6096674e-13            0   -856.09309   -856.09309    4244.6675    16.191282    16.191282    16.191282      255 
     127            0 7.3684392e-07  0.022017002 8.9497711e-07 1.2417519e-06 7.3802808e-08   0.31402225 -1.9695852e-12 2.6400823e-12            0   -856.09309   -856.09309    4244.6675    16.191282    16.191282    16.191282      255 
     128            0 7.3695373e-07  0.024016142 8.950859e-07 1.2418606e-06 7.3914661e-08   0.31402217 -1.257182e-13 -1.1545122e-11            0   -856.09309   -856.09309    4244.6675    16.191282    16.191282    16.191282      255 
     129            0 7.3695581e-07   0.02602911 8.9509047e-07 1.2418827e-06 7.3894273e-08   0.31402215 -5.3639766e-12 -7.8416729e-12            0   -856.09309   -856.09309    4244.6675    16.191282    16.191282    16.191282      255 
     130            0 7.3696676e-07  0.028028011 8.950955e-07 1.2418658e-06 7.3939034e-08   0.31402214 2.1497813e-11 -5.3954062e-12            0   -856.09309   -856.09309    4244.6675    16.191282    16.191282    16.191282      255 
     131            0 7.3694192e-07  0.030030966 8.9505644e-07 1.2418365e-06 7.3932853e-08   0.31402214 -6.9145011e-12 -1.7757696e-12            0   -856.09309   -856.09309    4244.6675    16.191282    16.191282    16.191282      255 
     132            0 7.3692696e-07  0.032030106 8.9502024e-07 1.2418077e-06  7.39529e-08   0.31402214 2.472458e-12 1.1126061e-11            0   -856.09309   -856.09309    4244.6675    16.191282    16.191282    16.191282      255 
     133            0 7.369467e-07  0.034038067 8.9504915e-07 1.241821e-06 7.396994e-08   0.31402214  1.86482e-11 5.7620843e-14            0   -856.09309   -856.09309    4244.6675    16.191282    16.191282    16.191282      255 
     134            0 7.3692217e-07  0.036036015 8.9502987e-07 1.2417858e-06 7.3950825e-08   0.31402214 -2.3467398e-12 -1.1649887e-11            0   -856.09309   -856.09309    4244.6675    16.191282    16.191282    16.191282      255 
     135            0 7.3693222e-07  0.039021015 8.9502225e-07 1.2418066e-06 7.3967808e-08   0.31402214 4.6515735e-12 -1.2446102e-11            0   -856.09309   -856.09309    4244.6675    16.191282    16.191282    16.191282      255 
Loop time of 0.0390382 on 1 procs for 19 steps with 255 atoms

102.5% CPU use with 1 MPI tasks x no OpenMP threads

Minimization stats:
  Stopping criterion = force tolerance
  Energy initial, next-to-last, final = 
        -856.093087043     -856.093087043     -856.093087043
  Force two-norm initial, final = 4.31647e-06 9.36572e-11
  Force max component initial, final = 1.45819e-06 1.44487e-11
  Final line search alpha, max atom move = 1 1.44487e-11
  Iterations, force evaluations = 19 38

MPI task timing breakdown:
Section |  min time  |  avg time  |  max time  |%varavg| %total
---------------------------------------------------------------
Pair    | 0.037943   | 0.037943   | 0.037943   |   0.0 | 97.19
Neigh   | 0          | 0          | 0          |   0.0 |  0.00
Comm    | 0.00036144 | 0.00036144 | 0.00036144 |   0.0 |  0.93
Output  | 0.00042105 | 0.00042105 | 0.00042105 |   0.0 |  1.08
Modify  | 0          | 0          | 0          |   0.0 |  0.00
Other   |            | 0.0003126  |            |       |  0.80

Nlocal:    255 ave 255 max 255 min
Histogram: 1 0 0 0 0 0 0 0 0 0
Nghost:    1424 ave 1424 max 1424 min
Histogram: 1 0 0 0 0 0 0 0 0 0
Neighs:    17018 ave 17018 max 17018 min
Histogram: 1 0 0 0 0 0 0 0 0 0

Total # of neighbors = 17018
Ave neighs/atom = 66.7373
Neighbor list builds = 0
Dangerous builds = 0
Reading restart file ...
  restart file = 13 Jan 2016, LAMMPS = 13 Jan 2016
  triclinic box = (0.00435913 0.00435913 0.00435913) to (16.1956 16.1956 16.1956) with tilt (0 0 0)
  1 by 1 by 1 MPI processor grid
  255 atoms
Changing box ...
  triclinic box = (0.00435913 0.00435913 0.00435913) to (16.1956 16.1956 16.1956) with tilt (1.61913e-05 0 0)
Neighbor list info ...
  1 neighbor list requests
  update every 1 steps, delay 0 steps, check yes
  max neighbors/atom: 2000, page size: 100000
  master list distance cutoff = 7.72488
  ghost atom cutoff = 7.72488
Setting up cg style minimization ...
  Unit style: metal
Memory usage per processor = 3.35976 Mbytes
Step Temp Press CPU Pxx Pyy Pzz Pxy Pxz Pyz KinEng PotEng TotEng Volume Lx Ly Lz Atoms 
     116            0 7.3362616e-07            0 8.9261248e-07 1.2420756e-06 6.619044e-08  -0.31653428 -3.1429551e-12 -1.0041741e-11            0   -856.09309   -856.09309    4244.6675    16.191282    16.191282    16.191282      255 
     117            0 7.329248e-07 0.0019881725 8.9052619e-07 1.2379649e-06 7.0283332e-08  -0.31502006 -4.6096674e-13 1.9172026e-12            0   -856.09309   -856.09309    4244.6675    16.191282    16.191282    16.191282      255 
     118            0 7.3427329e-07 0.0039980412 8.9185495e-07 1.2387366e-06 7.2228287e-08  -0.31442624 5.6154131e-12 1.2435626e-11            0   -856.09309   -856.09309    4244.6675    16.191282    16.191282    16.191282      255 
     119            0 7.3538296e-07 0.0059971809 8.9273967e-07 1.2395204e-06 7.3888831e-08  -0.31419945 7.6269043e-12 -9.4183887e-12            0   -856.09309   -856.09309    4244.6675    16.191282    16.191282    16.191282      255 
     120            0 7.3639735e-07 0.0080010891 8.9401185e-07 1.2408201e-06 7.4360106e-08  -0.31411066 1.5924306e-12 -1.5981927e-11            0   -856.09309   -856.09309    4244.6675    16.191282    16.191282    16.191282      255 
     121            0 7.3682581e-07 0.0099999905 8.9451254e-07 1.2412953e-06 7.4669556e-08  -0.31406782 -3.2686733e-12 -3.9810764e-12            0   -856.09309   -856.09309    4244.6675    16.191282    16.191282    16.191282      255 
     122            0 7.3715908e-07  0.012009144 8.9495738e-07 1.241752e-06 7.4767868e-08  -0.31404617 -9.7641137e-12 9.7326842e-12            0   -856.09309   -856.09309    4244.6675    16.191282    16.191282    16.191282      255 
     123            0 7.3687219e-07  0.014008045 8.9490051e-07 1.2417157e-06 7.4000327e-08  -0.31403341 -4.9030099e-12 -1.4284731e-11            0   -856.09309   -856.09309    4244.6675    16.191282    16.191282    16.191282      255 
     124            0 7.3683577e-07  0.016015053 8.950075e-07 1.2418281e-06 7.3671726e-08   -0.3140269 -1.4667124e-11 -3.7453548e-12            0   -856.09309   -856.09309    4244.6675    16.191282    16.191282    16.191282      255 
     125            0 7.3701894e-07     0.018013 8.9514809e-07 1.2419436e-06 7.3965157e-08  -0.31402395 7.0402193e-12 -1.0549853e-11            0   -856.09309   -856.09309    4244.6675    16.191282    16.191282    16.191282      255 
     126            0 7.3681696e-07  0.020016193 8.9490407e-07 1.2417097e-06 7.3837066e-08   -0.3140228 -4.6096674e-13 7.9831059e-12            0   -856.09309   -856.09309    4244.6675    16.191282    16.191282    16.191282      255 
     127            0 7.3682201e-07  0.022015095 8.9496417e-07 1.2417172e-06 7.3784689e-08  -0.31402225 -9.3450531e-12 1.085891e-11            0   -856.09309   -856.09309    4244.6675    16.191282    16.191282    16.191282      255 
     128            0 7.3696853e-07  0.024018049 8.9511297e-07 1.2418764e-06 7.3916237e-08  -0.31402217 -1.0518423e-11 9.6383955e-13            0   -856.09309   -856.09309    4244.6675    16.191282    16.191282    16.191282      255 
     129            0 7.3692695e-07  0.026017189 8.9505825e-07 1.2418566e-06 7.3865971e-08  -0.31402215 -1.2278478e-11 -1.0790812e-12            0   -856.09309   -856.09309    4244.6675    16.191282    16.191282    16.191282      255 
     130            0 7.3693907e-07   0.02802515 8.9506629e-07 1.2418293e-06 7.3921633e-08  -0.31402214 9.3450531e-12 8.8107507e-12            0   -856.09309   -856.09309    4244.6675    16.191282    16.191282    16.191282      255 
     131            0 7.3695163e-07  0.030024052 8.9507073e-07 1.2418301e-06 7.3954094e-08  -0.31402214 1.2404196e-11 2.7710387e-12            0   -856.09309   -856.09309    4244.6675    16.191282    16.191282    16.191282      255 
     132            0 7.3693633e-07  0.032027006 8.9503834e-07 1.2418368e-06 7.3933801e-08  -0.31402214 -4.8191978e-12 -1.3567089e-12            0   -856.09309   -856.09309    4244.6675    16.191282    16.191282    16.191282      255 
     133            0 7.3693279e-07  0.034026146 8.9505246e-07 1.2417961e-06 7.394982e-08  -0.31402214 1.7600548e-12 6.3382927e-13            0   -856.09309   -856.09309    4244.6675    16.191282    16.191282    16.191282      255 
     134            0 7.3692724e-07  0.036028147 8.9502405e-07 1.2417835e-06 7.3974183e-08  -0.31402214 1.3829002e-12 1.2105615e-11            0   -856.09309   -856.09309    4244.6675    16.191282    16.191282    16.191282      255 
     135            0 7.3694676e-07  0.039016962 8.9502296e-07 1.2418117e-06 7.4005654e-08  -0.31402214 7.9621528e-13 7.7526225e-13            0   -856.09309   -856.09309    4244.6675    16.191282    16.191282    16.191282      255 
Loop time of 0.0390341 on 1 procs for 19 steps with 255 atoms

102.5% CPU use with 1 MPI tasks x no OpenMP threads

Minimization stats:
  Stopping criterion = force tolerance
  Energy initial, next-to-last, final = 
        -856.093087043     -856.093087043     -856.093087043
  Force two-norm initial, final = 4.31647e-06 9.36573e-11
  Force max component initial, final = 1.45819e-06 1.44754e-11
  Final line search alpha, max atom move = 1 1.44754e-11
  Iterations, force evaluations = 19 38

MPI task timing breakdown:
Section |  min time  |  avg time  |  max time  |%varavg| %total
---------------------------------------------------------------
Pair    | 0.037954   | 0.037954   | 0.037954   |   0.0 | 97.23
Neigh   | 0          | 0          | 0          |   0.0 |  0.00
Comm    | 0.00035787 | 0.00035787 | 0.00035787 |   0.0 |  0.92
Output  | 0.00041318 | 0.00041318 | 0.00041318 |   0.0 |  1.06
Modify  | 0          | 0          | 0          |   0.0 |  0.00
Other   |            | 0.0003088  |            |       |  0.79

Nlocal:    255 ave 255 max 255 min
Histogram: 1 0 0 0 0 0 0 0 0 0
Nghost:    1424 ave 1424 max 1424 min
Histogram: 1 0 0 0 0 0 0 0 0 0
Neighs:    17018 ave 17018 max 17018 min
Histogram: 1 0 0 0 0 0 0 0 0 0

Total # of neighbors = 17018
Ave neighs/atom = 66.7373
Neighbor list builds = 0
Dangerous builds = 0
Elastic Constant C11all = 116.626699511604 GPa
Elastic Constant C22all = 116.62669950933 GPa
Elastic Constant C33all = 116.626699510824 GPa
Elastic Constant C12all = 60.3714725592889 GPa
Elastic Constant C13all = 60.3714725587431 GPa
Elastic Constant C23all = 60.3714725601659 GPa
Elastic Constant C44all = 31.4022141773068 GPa
Elastic Constant C55all = 31.4022141777906 GPa
Elastic Constant C66all = 31.4022141769378 GPa
Elastic Constant C14all = 7.85869021657373e-10 GPa
Elastic Constant C15all = 2.51431596637675e-11 GPa
Elastic Constant C16all = 1.39337986847516e-10 GPa
Elastic Constant C24all = 5.54993503171839e-10 GPa
Elastic Constant C25all = 5.35611727980858e-10 GPa
Elastic Constant C26all = -1.9250650267043e-11 GPa
Elastic Constant C34all = -3.56203804616125e-11 GPa
Elastic Constant C35all = -3.98368770071389e-10 GPa
Elastic Constant C36all = -1.35893492047816e-09 GPa
Elastic Constant C45all = 6.91319158260635e-10 GPa
Elastic Constant C46all = -7.64261907105334e-10 GPa
Elastic Constant C56all = 2.16863899617278e-10 GPa
Total wall time: 0:00:01
