    2    2    1    1
  0.2044415E+02  0.3866974E-09  0.3866975E-09  0.3866975E-09  0.5000000E-15
  1.000000000000000E-004
  CAR 
 unknown system                          
    8    4    8
 
  0.0000000E+00  0.0000000E+00  0.0000000E+00  0.3703704E-01
   1       -6.067546
   2        5.693729
   3        5.693730
   4        5.693731
   5        8.280235
   6        8.280237
   7        8.280239
   8        8.938239
 
  0.3333333E+00  0.4163336E-16  0.0000000E+00  0.2962963E+00
   1       -4.716392
   2        0.460021
   3        4.720888
   4        4.720891
   5        7.441007
   6        9.215645
   7        9.215648
   8       13.497435
 
  0.3333333E+00  0.3333333E+00  0.0000000E+00  0.2222222E+00
   1       -4.197393
   2        0.754082
   3        3.340504
   4        3.340504
   5        6.474822
   6        7.730533
   7       12.879759
   8       12.879759
 
 -0.3333333E+00  0.3333333E+00  0.0000000E+00  0.4444444E+00
   1       -2.867180
   2       -0.969119
   3        1.397397
   4        3.638248
   5        7.302578
   6       11.462176
   7       12.132338
   8       12.684117
