   2   2   0   0
  0.2044415E+02  0.3866974E-09  0.3866975E-09  0.3866975E-09  0.5000000E-15
  1.000000000000000E-004
  CAR 
 unknown system                          
     15.49743992     -8.06755353  301      6.06828366      1.00000000
     -8.068  0.0000E+00  0.0000E+00
     -7.989  0.0000E+00  0.0000E+00
     -7.910  0.0000E+00  0.0000E+00
     -7.832  0.0000E+00  0.0000E+00
     -7.753  0.0000E+00  0.0000E+00
     -7.675  0.0000E+00  0.0000E+00
     -7.596  0.0000E+00  0.0000E+00
     -7.518  0.0000E+00  0.0000E+00
     -7.439  0.0000E+00  0.0000E+00
     -7.361  0.0000E+00  0.0000E+00
     -7.282  0.0000E+00  0.0000E+00
     -7.204  0.4711E-15  0.3701E-16
     -7.125  0.3539E-13  0.2817E-14
     -7.046  0.2071E-11  0.1655E-12
     -6.968  0.8933E-10  0.7182E-11
     -6.889  0.2843E-08  0.2305E-09
     -6.811  0.6678E-07  0.5476E-08
     -6.732  0.1158E-05  0.9646E-07
     -6.654  0.1484E-04  0.1262E-05
     -6.575  0.1405E-03  0.1230E-04
     -6.497  0.9833E-03  0.8953E-04
     -6.418  0.5089E-02  0.4893E-03
     -6.339  0.1948E-01  0.2020E-02
     -6.261  0.5518E-01  0.6354E-02
     -6.182  0.1157E+00  0.1544E-01
     -6.104  0.1795E+00  0.2954E-01
     -6.025  0.2063E+00  0.4575E-01
     -5.947  0.1754E+00  0.5953E-01
     -5.868  0.1105E+00  0.6820E-01
     -5.790  0.5148E-01  0.7225E-01
     -5.711  0.1776E-01  0.7364E-01
     -5.633  0.4532E-02  0.7400E-01
     -5.554  0.8556E-03  0.7406E-01
     -5.475  0.1197E-03  0.7407E-01
     -5.397  0.1767E-04  0.7407E-01
     -5.318  0.7374E-04  0.7408E-01
     -5.240  0.7326E-03  0.7414E-01
     -5.161  0.5448E-02  0.7457E-01
     -5.083  0.2996E-01  0.7692E-01
     -5.004  0.1219E+00  0.8649E-01
     -4.926  0.3668E+00  0.1153E+00
     -4.847  0.8170E+00  0.1795E+00
     -4.768  0.1347E+01  0.2853E+00
     -4.690  0.1645E+01  0.4145E+00
     -4.611  0.1494E+01  0.5318E+00
     -4.533  0.1034E+01  0.6131E+00
     -4.454  0.6380E+00  0.6632E+00
     -4.376  0.5708E+00  0.7080E+00
     -4.297  0.8217E+00  0.7726E+00
     -4.219  0.1142E+01  0.8623E+00
     -4.140  0.1229E+01  0.9588E+00
     -4.062  0.9862E+00  0.1036E+01
     -3.983  0.5861E+00  0.1082E+01
     -3.904  0.2579E+00  0.1103E+01
     -3.826  0.8397E-01  0.1109E+01
     -3.747  0.2023E-01  0.1111E+01
     -3.669  0.3605E-02  0.1111E+01
     -3.590  0.4767E-03  0.1111E+01
     -3.512  0.7379E-04  0.1111E+01
     -3.433  0.3298E-03  0.1111E+01
     -3.355  0.2860E-02  0.1111E+01
     -3.276  0.1852E-01  0.1113E+01
     -3.197  0.8872E-01  0.1120E+01
     -3.119  0.3143E+00  0.1144E+01
     -3.040  0.8242E+00  0.1209E+01
     -2.962  0.1599E+01  0.1335E+01
     -2.883  0.2298E+01  0.1515E+01
     -2.805  0.2443E+01  0.1707E+01
     -2.726  0.1924E+01  0.1858E+01
     -2.648  0.1121E+01  0.1946E+01
     -2.569  0.4837E+00  0.1984E+01
     -2.491  0.1544E+00  0.1997E+01
     -2.412  0.3648E-01  0.1999E+01
     -2.333  0.6373E-02  0.2000E+01
     -2.255  0.8233E-03  0.2000E+01
     -2.176  0.7861E-04  0.2000E+01
     -2.098  0.5546E-05  0.2000E+01
     -2.019  0.2890E-06  0.2000E+01
     -1.941  0.1115E-07  0.2000E+01
     -1.862  0.1814E-08  0.2000E+01
     -1.784  0.4636E-07  0.2000E+01
     -1.705  0.1058E-05  0.2000E+01
     -1.626  0.1785E-04  0.2000E+01
     -1.548  0.2223E-03  0.2000E+01
     -1.469  0.2046E-02  0.2000E+01
     -1.391  0.1393E-01  0.2001E+01
     -1.312  0.7007E-01  0.2007E+01
     -1.234  0.2609E+00  0.2027E+01
     -1.155  0.7185E+00  0.2084E+01
     -1.077  0.1465E+01  0.2199E+01
     -0.998  0.2210E+01  0.2372E+01
     -0.920  0.2469E+01  0.2566E+01
     -0.841  0.2042E+01  0.2727E+01
     -0.762  0.1250E+01  0.2825E+01
     -0.684  0.5667E+00  0.2869E+01
     -0.605  0.1901E+00  0.2884E+01
     -0.527  0.4717E-01  0.2888E+01
     -0.448  0.8658E-02  0.2889E+01
     -0.370  0.1175E-02  0.2889E+01
     -0.291  0.1183E-03  0.2889E+01
     -0.213  0.1578E-04  0.2889E+01
     -0.134  0.9349E-04  0.2889E+01
     -0.055  0.9080E-03  0.2889E+01
      0.023  0.6552E-02  0.2889E+01
      0.102  0.3496E-01  0.2892E+01
      0.180  0.1381E+00  0.2903E+01
      0.259  0.4040E+00  0.2935E+01
      0.337  0.8784E+00  0.3004E+01
      0.416  0.1431E+01  0.3116E+01
      0.494  0.1790E+01  0.3257E+01
      0.573  0.1825E+01  0.3400E+01
      0.651  0.1697E+01  0.3533E+01
      0.730  0.1574E+01  0.3657E+01
      0.809  0.1391E+01  0.3766E+01
      0.887  0.1043E+01  0.3848E+01
      0.966  0.6196E+00  0.3897E+01
      1.044  0.3262E+00  0.3923E+01
      1.123  0.3123E+00  0.3947E+01
      1.201  0.6634E+00  0.3999E+01
      1.280  0.1364E+01  0.4106E+01
      1.358  0.2133E+01  0.4274E+01
      1.437  0.2476E+01  0.4468E+01
      1.516  0.2128E+01  0.4635E+01
      1.594  0.1354E+01  0.4742E+01
      1.673  0.6375E+00  0.4792E+01
      1.751  0.2222E+00  0.4809E+01
      1.830  0.5731E-01  0.4814E+01
      1.908  0.1093E-01  0.4815E+01
      1.987  0.1542E-02  0.4815E+01
      2.065  0.1608E-03  0.4815E+01
      2.144  0.1239E-04  0.4815E+01
      2.222  0.7054E-06  0.4815E+01
      2.301  0.2965E-07  0.4815E+01
      2.380  0.9799E-09  0.4815E+01
      2.458  0.2444E-08  0.4815E+01
      2.537  0.7195E-07  0.4815E+01
      2.615  0.1577E-05  0.4815E+01
      2.694  0.2553E-04  0.4815E+01
      2.772  0.3053E-03  0.4815E+01
      2.851  0.2698E-02  0.4815E+01
      2.929  0.1763E-01  0.4816E+01
      3.008  0.8520E-01  0.4823E+01
      3.087  0.3049E+00  0.4847E+01
      3.165  0.8091E+00  0.4911E+01
      3.244  0.1601E+01  0.5036E+01
      3.322  0.2397E+01  0.5225E+01
      3.401  0.2832E+01  0.5447E+01
      3.479  0.2895E+01  0.5675E+01
      3.558  0.2890E+01  0.5902E+01
      3.636  0.2873E+01  0.6127E+01
      3.715  0.2553E+01  0.6328E+01
      3.793  0.1822E+01  0.6471E+01
      3.872  0.9917E+00  0.6549E+01
      3.951  0.4033E+00  0.6580E+01
      4.029  0.1218E+00  0.6590E+01
      4.108  0.2733E-01  0.6592E+01
      4.186  0.5574E-02  0.6593E+01
      4.265  0.8864E-02  0.6593E+01
      4.343  0.4780E-01  0.6597E+01
      4.422  0.2028E+00  0.6613E+01
      4.500  0.6376E+00  0.6663E+01
      4.579  0.1483E+01  0.6780E+01
      4.658  0.2553E+01  0.6980E+01
      4.736  0.3254E+01  0.7236E+01
      4.815  0.3071E+01  0.7477E+01
      4.893  0.2145E+01  0.7646E+01
      4.972  0.1109E+01  0.7733E+01
      5.050  0.4246E+00  0.7766E+01
      5.129  0.1203E+00  0.7775E+01
      5.207  0.2593E-01  0.7777E+01
      5.286  0.8639E-02  0.7778E+01
      5.364  0.2304E-01  0.7780E+01
      5.443  0.7977E-01  0.7786E+01
      5.522  0.2082E+00  0.7803E+01
      5.600  0.4025E+00  0.7834E+01
      5.679  0.5760E+00  0.7879E+01
      5.757  0.6101E+00  0.7927E+01
      5.836  0.4785E+00  0.7965E+01
      5.914  0.2780E+00  0.7987E+01
      5.993  0.1210E+00  0.7996E+01
      6.071  0.4839E-01  0.8000E+01
      6.150  0.5783E-01  0.8005E+01
      6.229  0.1712E+00  0.8018E+01
      6.307  0.4359E+00  0.8052E+01
      6.386  0.8280E+00  0.8117E+01
      6.464  0.1165E+01  0.8209E+01
      6.543  0.1213E+01  0.8304E+01
      6.621  0.9356E+00  0.8378E+01
      6.700  0.5342E+00  0.8420E+01
      6.778  0.2267E+00  0.8437E+01
      6.857  0.7869E-01  0.8444E+01
      6.935  0.6170E-01  0.8448E+01
      7.014  0.1914E+00  0.8464E+01
      7.093  0.5873E+00  0.8510E+01
      7.171  0.1378E+01  0.8618E+01
      7.250  0.2466E+01  0.8812E+01
      7.328  0.3415E+01  0.9080E+01
      7.407  0.3731E+01  0.9373E+01
      7.485  0.3321E+01  0.9634E+01
      7.564  0.2577E+01  0.9836E+01
      7.642  0.1977E+01  0.9991E+01
      7.721  0.1645E+01  0.1012E+02
      7.800  0.1365E+01  0.1023E+02
      7.878  0.9727E+00  0.1030E+02
      7.957  0.5606E+00  0.1035E+02
      8.035  0.3097E+00  0.1037E+02
      8.114  0.2899E+00  0.1040E+02
      8.192  0.4331E+00  0.1043E+02
      8.271  0.5869E+00  0.1048E+02
      8.349  0.6060E+00  0.1052E+02
      8.428  0.4650E+00  0.1056E+02
      8.506  0.2651E+00  0.1058E+02
      8.585  0.1160E+00  0.1059E+02
      8.664  0.5392E-01  0.1059E+02
      8.742  0.6688E-01  0.1060E+02
      8.821  0.1480E+00  0.1061E+02
      8.899  0.3290E+00  0.1064E+02
      8.978  0.7140E+00  0.1069E+02
      9.056  0.1440E+01  0.1081E+02
      9.135  0.2436E+01  0.1100E+02
      9.213  0.3218E+01  0.1125E+02
      9.292  0.3211E+01  0.1150E+02
      9.371  0.2388E+01  0.1169E+02
      9.449  0.1319E+01  0.1179E+02
      9.528  0.5392E+00  0.1184E+02
      9.606  0.1632E+00  0.1185E+02
      9.685  0.3656E-01  0.1185E+02
      9.763  0.6056E-02  0.1185E+02
      9.842  0.7418E-03  0.1185E+02
      9.920  0.6715E-04  0.1185E+02
      9.999  0.4491E-05  0.1185E+02
     10.077  0.2218E-06  0.1185E+02
     10.156  0.8089E-08  0.1185E+02
     10.235  0.2177E-09  0.1185E+02
     10.313  0.4324E-11  0.1185E+02
     10.392  0.2728E-12  0.1185E+02
     10.470  0.1288E-10  0.1185E+02
     10.549  0.5843E-09  0.1185E+02
     10.627  0.1956E-07  0.1185E+02
     10.706  0.4834E-06  0.1185E+02
     10.784  0.8819E-05  0.1185E+02
     10.863  0.1188E-03  0.1185E+02
     10.942  0.1183E-02  0.1185E+02
     11.020  0.8710E-02  0.1185E+02
     11.099  0.4740E-01  0.1186E+02
     11.177  0.1908E+00  0.1187E+02
     11.256  0.5684E+00  0.1192E+02
     11.334  0.1253E+01  0.1201E+02
     11.413  0.2044E+01  0.1218E+02
     11.491  0.2470E+01  0.1237E+02
     11.570  0.2209E+01  0.1254E+02
     11.648  0.1465E+01  0.1266E+02
     11.727  0.7365E+00  0.1272E+02
     11.806  0.3543E+00  0.1274E+02
     11.884  0.3999E+00  0.1277E+02
     11.963  0.8681E+00  0.1284E+02
     12.041  0.1638E+01  0.1297E+02
     12.120  0.2319E+01  0.1315E+02
     12.198  0.2436E+01  0.1335E+02
     12.277  0.1909E+01  0.1350E+02
     12.355  0.1179E+01  0.1359E+02
     12.434  0.7922E+00  0.1365E+02
     12.513  0.1028E+01  0.1373E+02
     12.591  0.1830E+01  0.1387E+02
     12.670  0.2857E+01  0.1410E+02
     12.748  0.3655E+01  0.1439E+02
     12.827  0.3920E+01  0.1469E+02
     12.905  0.3570E+01  0.1497E+02
     12.984  0.2710E+01  0.1519E+02
     13.062  0.1658E+01  0.1532E+02
     13.141  0.8176E+00  0.1538E+02
     13.219  0.4227E+00  0.1541E+02
     13.298  0.4873E+00  0.1545E+02
     13.377  0.8988E+00  0.1552E+02
     13.455  0.1406E+01  0.1563E+02
     13.534  0.1650E+01  0.1576E+02
     13.612  0.1436E+01  0.1588E+02
     13.691  0.9255E+00  0.1595E+02
     13.769  0.4415E+00  0.1598E+02
     13.848  0.1559E+00  0.1600E+02
     13.926  0.4071E-01  0.1600E+02
     14.005  0.7866E-02  0.1600E+02
     14.084  0.1124E-02  0.1600E+02
     14.162  0.1187E-03  0.1600E+02
     14.241  0.9266E-05  0.1600E+02
     14.319  0.5342E-06  0.1600E+02
     14.398  0.2274E-07  0.1600E+02
     14.476  0.7146E-09  0.1600E+02
     14.555  0.1657E-10  0.1600E+02
     14.633  0.2831E-12  0.1600E+02
     14.712  0.3350E-14  0.1600E+02
     14.790  0.0000E+00  0.1600E+02
     14.869  0.0000E+00  0.1600E+02
     14.948  0.0000E+00  0.1600E+02
     15.026  0.0000E+00  0.1600E+02
     15.105  0.0000E+00  0.1600E+02
     15.183  0.0000E+00  0.1600E+02
     15.262  0.0000E+00  0.1600E+02
     15.340  0.0000E+00  0.1600E+02
     15.419  0.0000E+00  0.1600E+02
     15.497  0.0000E+00  0.1600E+02
