 running on   16 total cores
 distrk:  each k-point on   16 cores,    1 groups
 distr:  one band on    4 cores,    4 groups
 using from now: INCAR     
 vasp.5.3.3 18Dez12 (build Jan 30 2013 10:57:47) complex                        
  
 POSCAR found type information on POSCAR  Si
 POSCAR found :  1 types and       2 ions

 ----------------------------------------------------------------------------- 
|                                                                             |
|  ADVICE TO THIS USER RUNNING 'VASP/VAMP'   (HEAR YOUR MASTER'S VOICE ...):  |
|                                                                             |
|      You have switched on vdW-DFT.                                          |
|      This routine was written and supplied by Jiri Klimes.                  |
|      We recommed that you carefully read and cite the following             |
|      publication                                                            |
|      J. Klimes, D.R. Bowler, A. Michelides                                  |
|        J. Phys.: Cond Matt. 22 022201 (2010)                                |
|      J. Klimes, D.R. Bowler, A. Michelides                                  |
|        Phys. Rev. B. 83, 195131 (2011)                                      |
|      and references therein.                                                |
|                                                                             |
 ----------------------------------------------------------------------------- 


 ----------------------------------------------------------------------------- 
|                                                                             |
|  ADVICE TO THIS USER RUNNING 'VASP/VAMP'   (HEAR YOUR MASTER'S VOICE ...):  |
|                                                                             |
|      You enforced a specific xc-type in the INCAR file,                     |
|      a different type was found on the POTCAR file                          |
|          I HOPE YOU KNOW, WHAT YOU ARE  DOING                               |
|                                                                             |
 ----------------------------------------------------------------------------- 

 LDA part: xc-table for Pade appr. of Perdew
 POSCAR, INCAR and KPOINTS ok, starting setup
 WARNING: small aliasing (wrap around) errors must be expected
 FFT: planning ...
 WAVECAR not read
 entering main loop
       N       E                     dE             d eps       ncg     rms          rms(c)
Total vdW correction in eV:      1.0792472
DAV:   1     0.146866129645E+02    0.14687E+02   -0.35380E+03    64   0.897E+02
DAV:   2    -0.753515232116E+01   -0.22222E+02   -0.20664E+02   104   0.925E+01
DAV:   3    -0.787359357085E+01   -0.33844E+00   -0.33844E+00    72   0.141E+01
DAV:   4    -0.787517923003E+01   -0.15857E-02   -0.15857E-02    96   0.122E+00
DAV:   5    -0.787518306941E+01   -0.38394E-05   -0.38396E-05    96   0.366E-02    0.400E+00
Total vdW correction in eV:      1.1365176
DAV:   6    -0.778919143418E+01    0.85992E-01   -0.11268E-01    72   0.198E+00    0.247E+00
Total vdW correction in eV:      1.2497880
DAV:   7    -0.776736882393E+01    0.21823E-01   -0.26793E-01    80   0.303E+00    0.214E-01
Total vdW correction in eV:      1.2451854
DAV:   8    -0.774848023428E+01    0.18889E-01   -0.76920E-03    80   0.619E-01    0.108E-01
Total vdW correction in eV:      1.2526743
DAV:   9    -0.775039209861E+01   -0.19119E-02   -0.91630E-04    96   0.202E-01    0.773E-02
Total vdW correction in eV:      1.2526065
DAV:  10    -0.774972296057E+01    0.66914E-03   -0.50150E-05    72   0.587E-02    0.312E-02
Total vdW correction in eV:      1.2525750
DAV:  11    -0.774963240981E+01    0.90551E-04   -0.12616E-06   104   0.100E-02    0.139E-03
Total vdW correction in eV:      1.2526058
DAV:  12    -0.774963581273E+01   -0.34029E-05   -0.84383E-08    64   0.277E-03    0.353E-04
Total vdW correction in eV:      1.2526002
DAV:  13    -0.774963934622E+01   -0.35335E-05   -0.36326E-09    80   0.586E-04    0.105E-04
Total vdW correction in eV:      1.2526010
DAV:  14    -0.774963878275E+01    0.56347E-06   -0.15962E-10    48   0.111E-04    0.141E-05
Total vdW correction in eV:      1.2526007
DAV:  15    -0.774963822883E+01    0.55392E-06   -0.26451E-11    56   0.382E-05    0.803E-06
Total vdW correction in eV:      1.2526009
DAV:  16    -0.774963839596E+01   -0.16714E-06   -0.94055E-12    40   0.132E-05    0.219E-06
Total vdW correction in eV:      1.2526008
DAV:  17    -0.774963839464E+01    0.13237E-08   -0.37761E-12    56   0.671E-06
Total vdW correction in eV:      1.2526008
Total vdW correction in eV:      1.2526008
   1 F= -.77496384E+01 E0= -.77492492E+01  d E =-.774964E+01
 curvature:   0.00 expect dE= 0.000E+00 dE for cont linesearch  0.000E+00
 trial: gam= 0.00000 g(F)=  0.271E-44 g(S)=  0.000E+00 ort = 0.000E+00 (trialstep = 0.100E+01)
 search vector abs. value=  0.100E-09
 reached required accuracy - stopping structural energy minimisation
