LAMMPS data file via write_data, version 13 Jan 2016, timestep = 56

576 atoms
1 atom types

-6.7166547924997463e-11 1.6199999870067156e+01 xlo xhi
-1.0072877959191722e-10 2.4299999805100722e+01 ylo yhi
-6.0075375106418810e-10 2.4299999804600748e+01 zlo zhi
0.0000000000000000e+00 0.0000000000000000e+00 0.0000000000000000e+00 xy xz yz

Masses

1 26.982

Atoms # charge

1 1 0.0000000000000000e+00 5.7813858239739802e-11 2.4256394458951277e-11 1.3437288938520305e-11 0 0 0
2 1 0.0000000000000000e+00 5.8099176147735686e-11 2.3870116361280768e-11 4.0499999675470439e+00 0 0 0
3 1 0.0000000000000000e+00 5.7780834797417306e-11 2.4361787390495732e-11 8.0999999350808434e+00 0 0 0
4 1 0.0000000000000000e+00 5.7815932748283820e-11 2.4261844233426434e-11 1.2149999902615319e+01 0 0 0
5 1 0.0000000000000000e+00 5.7844562808662211e-11 2.4159093867085534e-11 1.6199999870150446e+01 0 0 0
6 1 0.0000000000000000e+00 5.7525837893705258e-11 2.4647186594434417e-11 2.0249999837682264e+01 0 0 0
7 1 0.0000000000000000e+00 5.7814723708352639e-11 4.0499999675578247e+00 1.6667962802080546e-11 0 0 0
8 1 0.0000000000000000e+00 5.7208143942978851e-11 4.0499999675576861e+00 4.0499999675499980e+00 0 0 0
9 1 0.0000000000000000e+00 5.7895865912788635e-11 4.0499999675576737e+00 8.0999999350824314e+00 0 0 0
10 1 0.0000000000000000e+00 5.7813113242032012e-11 4.0499999675578247e+00 1.2149999902617310e+01 0 0 0
11 1 0.0000000000000000e+00 5.7728858277549679e-11 4.0499999675579783e+00 1.6199999870152045e+01 0 0 0
12 1 0.0000000000000000e+00 5.8418624432758211e-11 4.0499999675579614e+00 2.0249999837685223e+01 0 0 0
13 1 0.0000000000000000e+00 5.7813551587246723e-11 8.0999999350914074e+00 1.9630415520433143e-11 0 0 0
14 1 0.0000000000000000e+00 5.8220080524520927e-11 8.0999999350916454e+00 4.0499999675531706e+00 0 0 0
15 1 0.0000000000000000e+00 5.8516281256710256e-11 8.0999999350913008e+00 8.0999999350856537e+00 0 0 0
16 1 0.0000000000000000e+00 5.7815061103615577e-11 8.0999999350914109e+00 1.2149999902619578e+01 0 0 0
17 1 0.0000000000000000e+00 5.7111700943320269e-11 8.0999999350915122e+00 1.6199999870155256e+01 0 0 0
18 1 0.0000000000000000e+00 5.7407002467615062e-11 8.0999999350911693e+00 2.0249999837688396e+01 0 0 0
19 1 0.0000000000000000e+00 5.7813770041589566e-11 1.2149999902624980e+01 1.9553221741570952e-11 0 0 1
20 1 0.0000000000000000e+00 5.7442800291963309e-11 1.2149999902624565e+01 4.0499999675537879e+00 0 0 0
21 1 0.0000000000000000e+00 5.8281888731425431e-11 1.2149999902625115e+01 8.0999999350866698e+00 0 0 0
22 1 0.0000000000000000e+00 5.7814378070274679e-11 1.2149999902624980e+01 1.2149999902620420e+01 0 0 0
23 1 0.0000000000000000e+00 5.7343956509249326e-11 1.2149999902624851e+01 1.6199999870156283e+01 0 0 0
24 1 0.0000000000000000e+00 5.8185363307375443e-11 1.2149999902625401e+01 2.0249999837689010e+01 0 0 0
25 1 0.0000000000000000e+00 5.7813232631434004e-11 1.6199999870158560e+01 1.9993962224075990e-11 0 0 0
26 1 0.0000000000000000e+00 5.7125835474951838e-11 1.6199999870158280e+01 4.0499999675512255e+00 0 0 0
27 1 0.0000000000000000e+00 5.7979912930282140e-11 1.6199999870158742e+01 8.0999999350833924e+00 0 0 0
28 1 0.0000000000000000e+00 5.7813151008346080e-11 1.6199999870158564e+01 1.2149999902618658e+01 0 0 0
29 1 0.0000000000000000e+00 5.7645506684701304e-11 1.6199999870158383e+01 1.6199999870153000e+01 0 0 0
30 1 0.0000000000000000e+00 5.8505080604777702e-11 1.6199999870158845e+01 2.0249999837686449e+01 0 0 0
31 1 0.0000000000000000e+00 5.7814267863469058e-11 2.0249999837692130e+01 1.4868285740012405e-11 1 0 1
32 1 0.0000000000000000e+00 5.8799659199631843e-11 2.0249999837693125e+01 4.0499999675481444e+00 1 0 0
33 1 0.0000000000000000e+00 5.8096441051244904e-11 2.0249999837691991e+01 8.0999999350812431e+00 1 0 0
34 1 0.0000000000000000e+00 5.7816184473703196e-11 2.0249999837692137e+01 1.2149999902616342e+01 1 0 0
35 1 0.0000000000000000e+00 5.7528100254215901e-11 2.0249999837692286e+01 1.6199999870150858e+01 1 0 0
36 1 0.0000000000000000e+00 5.6825651065174920e-11 2.0249999837691139e+01 2.0249999837683365e+01 1 0 0
37 1 0.0000000000000000e+00 4.0499999675913871e+00 2.4255037454948962e-11 1.2139139112469548e-11 0 0 0
38 1 0.0000000000000000e+00 4.0499999675912193e+00 2.3093113304926602e-11 4.0499999675463068e+00 0 0 0
39 1 0.0000000000000000e+00 4.0499999675912886e+00 2.4376417763803382e-11 8.0999999350803567e+00 0 0 0
40 1 0.0000000000000000e+00 4.0499999675913871e+00 2.4257366029611522e-11 1.2149999902615070e+01 0 0 0
41 1 0.0000000000000000e+00 4.0499999675914937e+00 2.4140112243984166e-11 1.6199999870149963e+01 0 0 0
42 1 0.0000000000000000e+00 4.0499999675915550e+00 2.5423921228636931e-11 2.0249999837681525e+01 0 0 0
43 1 0.0000000000000000e+00 4.0499999675913871e+00 4.0499999675578247e+00 1.7531223843359986e-11 0 0 1
44 1 0.0000000000000000e+00 4.0499999675914973e+00 4.0499999675578469e+00 4.0499999675497111e+00 0 0 0
45 1 0.0000000000000000e+00 4.0499999675916154e+00 4.0499999675579756e+00 8.0999999350813603e+00 0 0 0
46 1 0.0000000000000000e+00 4.0499999675913863e+00 4.0499999675578247e+00 1.2149999902617768e+01 0 0 0
47 1 0.0000000000000000e+00 4.0499999675911624e+00 4.0499999675576692e+00 1.6199999870150972e+01 0 0 0
48 1 0.0000000000000000e+00 4.0499999675912788e+00 4.0499999675578069e+00 2.0249999837684932e+01 0 0 0
49 1 0.0000000000000000e+00 4.0499999675913880e+00 8.0999999350914056e+00 1.9933323332264896e-11 0 0 0
50 1 0.0000000000000000e+00 4.0499999675906313e+00 8.0999999350913399e+00 4.0499999675521705e+00 0 0 0
51 1 0.0000000000000000e+00 4.0499999675918072e+00 8.0999999350917307e+00 8.0999999350860854e+00 0 0 0
52 1 0.0000000000000000e+00 4.0499999675913880e+00 8.0999999350914020e+00 1.2149999902620795e+01 0 0 0
53 1 0.0000000000000000e+00 4.0499999675909644e+00 8.0999999350910823e+00 1.6199999870155693e+01 0 0 0
54 1 0.0000000000000000e+00 4.0499999675921456e+00 8.0999999350914731e+00 2.0249999837687390e+01 0 0 0
55 1 0.0000000000000000e+00 4.0499999675913871e+00 1.2149999902624980e+01 2.2071226715026222e-11 0 0 1
56 1 0.0000000000000000e+00 4.0499999675906180e+00 1.2149999902624451e+01 4.0499999675532132e+00 0 0 0
57 1 0.0000000000000000e+00 4.0499999675918961e+00 1.2149999902624803e+01 8.0999999350856378e+00 0 0 0
58 1 0.0000000000000000e+00 4.0499999675913889e+00 1.2149999902624980e+01 1.2149999902621637e+01 0 0 0
59 1 0.0000000000000000e+00 4.0499999675908755e+00 1.2149999902625151e+01 1.6199999870155242e+01 0 0 0
60 1 0.0000000000000000e+00 4.0499999675921527e+00 1.2149999902625504e+01 2.0249999837688431e+01 0 0 0
61 1 0.0000000000000000e+00 4.0499999675913880e+00 1.6199999870158557e+01 2.0261606213554407e-11 0 0 1
62 1 0.0000000000000000e+00 4.0499999675915888e+00 1.6199999870159360e+01 4.0499999675514244e+00 0 0 0
63 1 0.0000000000000000e+00 4.0499999675914884e+00 1.6199999870158290e+01 8.0999999350825149e+00 0 0 0
64 1 0.0000000000000000e+00 4.0499999675913880e+00 1.6199999870158560e+01 1.2149999902619298e+01 0 0 0
65 1 0.0000000000000000e+00 4.0499999675912930e+00 1.6199999870158830e+01 1.6199999870152126e+01 0 0 0
66 1 0.0000000000000000e+00 4.0499999675911846e+00 1.6199999870157757e+01 2.0249999837686644e+01 0 0 0
67 1 0.0000000000000000e+00 4.0499999675913889e+00 2.0249999837692137e+01 1.1028306907442313e-11 0 0 0
68 1 0.0000000000000000e+00 4.0499999675915230e+00 2.0249999837693071e+01 4.0499999675468557e+00 0 0 0
69 1 0.0000000000000000e+00 4.0499999675912486e+00 2.0249999837691981e+01 8.0999999350818630e+00 0 0 0
70 1 0.0000000000000000e+00 4.0499999675913854e+00 2.0249999837692126e+01 1.2149999902615964e+01 0 0 0
71 1 0.0000000000000000e+00 4.0499999675915257e+00 2.0249999837692283e+01 1.6199999870151473e+01 0 0 0
72 1 0.0000000000000000e+00 4.0499999675912530e+00 2.0249999837691188e+01 2.0249999837682076e+01 0 0 0
73 1 0.0000000000000000e+00 8.0999999351249770e+00 2.4257438844956100e-11 1.3006714569048400e-11 0 0 0
74 1 0.0000000000000000e+00 8.0999999351250320e+00 2.3998679394520305e-11 4.0499999675468983e+00 0 0 0
75 1 0.0000000000000000e+00 8.0999999351248277e+00 2.4544864026217338e-11 8.0999999350804224e+00 0 0 0
76 1 0.0000000000000000e+00 8.0999999351249770e+00 2.4255647429251126e-11 1.2149999902614736e+01 0 0 0
77 1 0.0000000000000000e+00 8.0999999351251315e+00 2.3970103431128678e-11 1.6199999870150030e+01 0 0 0
78 1 0.0000000000000000e+00 8.0999999351249166e+00 2.4520648539359767e-11 2.0249999837682118e+01 0 0 0
79 1 0.0000000000000000e+00 8.0999999351249787e+00 4.0499999675578264e+00 1.5218096132854938e-11 0 0 0
80 1 0.0000000000000000e+00 8.0999999351258491e+00 4.0499999675573557e+00 4.0499999675487590e+00 0 0 0
81 1 0.0000000000000000e+00 8.0999999351247887e+00 4.0499999675581080e+00 8.0999999350830016e+00 0 0 0
82 1 0.0000000000000000e+00 8.0999999351249770e+00 4.0499999675578264e+00 1.2149999902617576e+01 0 0 0
83 1 0.0000000000000000e+00 8.0999999351251581e+00 4.0499999675575458e+00 1.6199999870152610e+01 0 0 0
84 1 0.0000000000000000e+00 8.0999999351241119e+00 4.0499999675582989e+00 2.0249999837683980e+01 0 0 0
85 1 0.0000000000000000e+00 8.0999999351249787e+00 8.0999999350914109e+00 2.2345441827636419e-11 0 0 1
86 1 0.0000000000000000e+00 8.0999999351247851e+00 8.0999999350907039e+00 4.0499999675532594e+00 0 0 0
87 1 0.0000000000000000e+00 8.0999999351243144e+00 8.0999999350915619e+00 8.0999999350848295e+00 0 0 0
88 1 0.0000000000000000e+00 8.0999999351249752e+00 8.0999999350914056e+00 1.2149999902621174e+01 0 0 0
89 1 0.0000000000000000e+00 8.0999999351256360e+00 8.0999999350912564e+00 1.6199999870154436e+01 0 0 0
90 1 0.0000000000000000e+00 8.0999999351251635e+00 8.0999999350921144e+00 2.0249999837688478e+01 0 0 0
91 1 0.0000000000000000e+00 8.0999999351249770e+00 1.2149999902624980e+01 2.2607672108961646e-11 0 0 1
92 1 0.0000000000000000e+00 8.0999999351256076e+00 1.2149999902625744e+01 4.0499999675538438e+00 0 0 0
93 1 0.0000000000000000e+00 8.0999999351244067e+00 1.2149999902624824e+01 8.0999999350850942e+00 0 0 0
94 1 0.0000000000000000e+00 8.0999999351249787e+00 1.2149999902624986e+01 1.2149999902621699e+01 0 0 0
95 1 0.0000000000000000e+00 8.0999999351255525e+00 1.2149999902625137e+01 1.6199999870154706e+01 0 0 0
96 1 0.0000000000000000e+00 8.0999999351243392e+00 1.2149999902624220e+01 2.0249999837689060e+01 0 0 0
97 1 0.0000000000000000e+00 8.0999999351249752e+00 1.6199999870158560e+01 1.6890991762770271e-11 0 0 0
98 1 0.0000000000000000e+00 8.0999999351260108e+00 1.6199999870159054e+01 4.0499999675507148e+00 0 0 0
99 1 0.0000000000000000e+00 8.0999999351246288e+00 1.6199999870158273e+01 8.0999999350845115e+00 0 0 0
100 1 0.0000000000000000e+00 8.0999999351249805e+00 1.6199999870158557e+01 1.2149999902618834e+01 0 0 0
101 1 0.0000000000000000e+00 8.0999999351253216e+00 1.6199999870158852e+01 1.6199999870154119e+01 0 0 0
102 1 0.0000000000000000e+00 8.0999999351239360e+00 1.6199999870158067e+01 2.0249999837685944e+01 0 0 0
103 1 0.0000000000000000e+00 8.0999999351249787e+00 2.0249999837692137e+01 1.2987136063255819e-11 0 0 0
104 1 0.0000000000000000e+00 8.0999999351243712e+00 2.0249999837692318e+01 4.0499999675475538e+00 0 0 0
105 1 0.0000000000000000e+00 8.0999999351245773e+00 2.0249999837691856e+01 8.0999999350809890e+00 0 0 0
106 1 0.0000000000000000e+00 8.0999999351249770e+00 2.0249999837692130e+01 1.2149999902615386e+01 0 0 0
107 1 0.0000000000000000e+00 8.0999999351253766e+00 2.0249999837692407e+01 1.6199999870150602e+01 0 0 0
108 1 0.0000000000000000e+00 8.0999999351255756e+00 2.0249999837691949e+01 2.0249999837682779e+01 0 0 0
109 1 0.0000000000000000e+00 1.2149999902658552e+01 2.4257911359415383e-11 1.3834292763790054e-11 0 0 0
110 1 0.0000000000000000e+00 1.2149999902658376e+01 2.5172676315067779e-11 4.0499999675471701e+00 0 0 0
111 1 0.0000000000000000e+00 1.2149999902658838e+01 2.4112116164603903e-11 8.0999999350807332e+00 0 0 0
112 1 0.0000000000000000e+00 1.2149999902658553e+01 2.4257227401909790e-11 1.2149999902615168e+01 0 0 0
113 1 0.0000000000000000e+00 1.2149999902658267e+01 2.4412162186178921e-11 1.6199999870150343e+01 0 0 0
114 1 0.0000000000000000e+00 1.2149999902658729e+01 2.3342363729109027e-11 2.0249999837682388e+01 0 0 0
115 1 0.0000000000000000e+00 1.2149999902658553e+01 4.0499999675578264e+00 1.4493031692047442e-11 0 0 0
116 1 0.0000000000000000e+00 1.2149999902658186e+01 4.0499999675573513e+00 4.0499999675499518e+00 0 0 0
117 1 0.0000000000000000e+00 1.2149999902658431e+01 4.0499999675578691e+00 8.0999999350837264e+00 0 0 0
118 1 0.0000000000000000e+00 1.2149999902658553e+01 4.0499999675578264e+00 1.2149999902617223e+01 0 0 0
119 1 0.0000000000000000e+00 1.2149999902658672e+01 4.0499999675577820e+00 1.6199999870153334e+01 0 0 0
120 1 0.0000000000000000e+00 1.2149999902658923e+01 4.0499999675582981e+00 2.0249999837685177e+01 0 0 0
121 1 0.0000000000000000e+00 1.2149999902658553e+01 8.0999999350914056e+00 2.2368242835377044e-11 0 0 0
122 1 0.0000000000000000e+00 1.2149999902659099e+01 8.0999999350907661e+00 4.0499999675538234e+00 0 0 0
123 1 0.0000000000000000e+00 1.2149999902658092e+01 8.0999999350916134e+00 8.0999999350849130e+00 0 0 0
124 1 0.0000000000000000e+00 1.2149999902658552e+01 8.0999999350914074e+00 1.2149999902619673e+01 0 0 0
125 1 0.0000000000000000e+00 1.2149999902659012e+01 8.0999999350911978e+00 1.6199999870154521e+01 0 0 0
126 1 0.0000000000000000e+00 1.2149999902658006e+01 8.0999999350920504e+00 2.0249999837689039e+01 0 0 0
127 1 0.0000000000000000e+00 1.2149999902658553e+01 1.2149999902624975e+01 2.0413834942062881e-11 0 0 0
128 1 0.0000000000000000e+00 1.2149999902659063e+01 1.2149999902626094e+01 4.0499999675539815e+00 0 0 0
129 1 0.0000000000000000e+00 1.2149999902658145e+01 1.2149999902624646e+01 8.0999999350866467e+00 0 0 0
130 1 0.0000000000000000e+00 1.2149999902658553e+01 1.2149999902624980e+01 1.2149999902620197e+01 0 0 0
131 1 0.0000000000000000e+00 1.2149999902658957e+01 1.2149999902625314e+01 1.6199999870156255e+01 0 0 0
132 1 0.0000000000000000e+00 1.2149999902658049e+01 1.2149999902623867e+01 2.0249999837689206e+01 0 0 0
133 1 0.0000000000000000e+00 1.2149999902658553e+01 1.6199999870158557e+01 1.6765110347695204e-11 0 0 0
134 1 0.0000000000000000e+00 1.2149999902658001e+01 1.6199999870157811e+01 4.0499999675514324e+00 0 0 0
135 1 0.0000000000000000e+00 1.2149999902658637e+01 1.6199999870158660e+01 8.0999999350850374e+00 0 0 0
136 1 0.0000000000000000e+00 1.2149999902658552e+01 1.6199999870158557e+01 1.2149999902618303e+01 0 0 0
137 1 0.0000000000000000e+00 1.2149999902658477e+01 1.6199999870158468e+01 1.6199999870154649e+01 0 0 0
138 1 0.0000000000000000e+00 1.2149999902659099e+01 1.6199999870159310e+01 2.0249999837686659e+01 0 0 0
139 1 0.0000000000000000e+00 1.2149999902658555e+01 2.0249999837692137e+01 1.6369561178161123e-11 0 0 1
140 1 0.0000000000000000e+00 1.2149999902658031e+01 2.0249999837691963e+01 4.0499999675483638e+00 0 0 0
141 1 0.0000000000000000e+00 1.2149999902658811e+01 2.0249999837692275e+01 8.0999999350802039e+00 0 0 0
142 1 0.0000000000000000e+00 1.2149999902658552e+01 2.0249999837692137e+01 1.2149999902615942e+01 0 0 0
143 1 0.0000000000000000e+00 1.2149999902658301e+01 2.0249999837691984e+01 1.6199999870149806e+01 0 0 0
144 1 0.0000000000000000e+00 1.2149999902659072e+01 2.0249999837692297e+01 2.0249999837683589e+01 0 0 0
145 1 0.0000000000000000e+00 5.7570559053628181e-11 2.0249999837910422e+00 2.0249999837817945e+00 1 0 0
146 1 0.0000000000000000e+00 5.7536743137158711e-11 2.0249999837905368e+00 6.0749999513143678e+00 1 0 0
147 1 0.0000000000000000e+00 5.8117577092308399e-11 2.0249999837912727e+00 1.0124999918848756e+01 1 0 0
148 1 0.0000000000000000e+00 5.7508948221035110e-11 2.0249999837908925e+00 1.4174999886383835e+01 1 0 0
149 1 0.0000000000000000e+00 5.8089848388457205e-11 2.0249999837916270e+00 1.8224999853917069e+01 1 0 0
150 1 0.0000000000000000e+00 5.8055300577278485e-11 2.0249999837911230e+00 2.2274999821450177e+01 1 0 0
151 1 0.0000000000000000e+00 5.7540045685940062e-11 6.0749999513245854e+00 2.0249999837855692e+00 0 0 0
152 1 0.0000000000000000e+00 5.7832646882307158e-11 6.0749999513248500e+00 6.0749999513178752e+00 0 0 0
153 1 0.0000000000000000e+00 5.8320796500317912e-11 6.0749999513243482e+00 1.0124999918850952e+01 0 0 0
154 1 0.0000000000000000e+00 5.7307432239011109e-11 6.0749999513249833e+00 1.4174999886386034e+01 0 0 0
155 1 0.0000000000000000e+00 5.7794258735412824e-11 6.0749999513244806e+00 1.8224999853920583e+01 0 0 0
156 1 0.0000000000000000e+00 5.8088167298995830e-11 6.0749999513247435e+00 2.2274999821453953e+01 0 0 0
157 1 0.0000000000000000e+00 5.7647336582295604e-11 1.0124999918858357e+01 2.0249999837861354e+00 0 0 0
158 1 0.0000000000000000e+00 5.8260822851054955e-11 1.0124999918858139e+01 6.0749999513209385e+00 0 0 0
159 1 0.0000000000000000e+00 5.8600545530411649e-11 1.0124999918858441e+01 1.0124999918853026e+01 0 0 0
160 1 0.0000000000000000e+00 5.7027462881115494e-11 1.0124999918858032e+01 1.4174999886388106e+01 0 0 0
161 1 0.0000000000000000e+00 5.7364873696979513e-11 1.0124999918858334e+01 1.8224999853923649e+01 0 0 0
162 1 0.0000000000000000e+00 5.7979260530858011e-11 1.0124999918858116e+01 2.2274999821454525e+01 0 0 0
163 1 0.0000000000000000e+00 5.7150296847812856e-11 1.4174999886391429e+01 2.0249999837865293e+00 0 0 0
164 1 0.0000000000000000e+00 5.7423322777664701e-11 1.4174999886391809e+01 6.0749999513190973e+00 0 0 0
165 1 0.0000000000000000e+00 5.8579248200020038e-11 1.4174999886391804e+01 1.0124999918852186e+01 0 0 0
166 1 0.0000000000000000e+00 5.7048238360239267e-11 1.4174999886391836e+01 1.4174999886387267e+01 0 0 0
167 1 0.0000000000000000e+00 5.8203853403985186e-11 1.4174999886391831e+01 1.8224999853921808e+01 0 0 0
168 1 0.0000000000000000e+00 5.8478469590060620e-11 1.4174999886392206e+01 2.2274999821454916e+01 0 0 0
169 1 0.0000000000000000e+00 5.7766042598816222e-11 1.8224999853925649e+01 2.0249999837841268e+00 0 0 0
170 1 0.0000000000000000e+00 5.7869812354185592e-11 1.8224999853925556e+01 6.0749999513151893e+00 0 0 0
171 1 0.0000000000000000e+00 5.8275746599159984e-11 1.8224999853925734e+01 1.0124999918849872e+01 0 0 0
172 1 0.0000000000000000e+00 5.7351845025765254e-11 1.8224999853925041e+01 1.4174999886384953e+01 0 0 0
173 1 0.0000000000000000e+00 5.7756972462642310e-11 1.8224999853925219e+01 1.8224999853917897e+01 0 0 0
174 1 0.0000000000000000e+00 5.7860192860950741e-11 1.8224999853925119e+01 2.2274999821452518e+01 0 0 0
175 1 0.0000000000000000e+00 5.8264180821678320e-11 2.2274999821459090e+01 2.0249999837799817e+00 1 0 0
176 1 0.0000000000000000e+00 5.8070968461720834e-11 2.2274999821459268e+01 6.0749999513136475e+00 1 0 0
177 1 0.0000000000000000e+00 5.7919111498000562e-11 2.2274999821458564e+01 1.0124999918848193e+01 1 0 0
178 1 0.0000000000000000e+00 5.7709648295397122e-11 2.2274999821459375e+01 1.4174999886383274e+01 1 0 0
179 1 0.0000000000000000e+00 5.7555035994305427e-11 2.2274999821458668e+01 1.8224999853916358e+01 1 0 0
180 1 0.0000000000000000e+00 5.7365121262630968e-11 2.2274999821458835e+01 2.2274999821448372e+01 1 0 0
181 1 0.0000000000000000e+00 4.0499999675914991e+00 2.0249999837904999e+00 2.0249999837816777e+00 0 0 0
182 1 0.0000000000000000e+00 4.0499999675915763e+00 2.0249999837906487e+00 6.0749999513139565e+00 0 0 0
183 1 0.0000000000000000e+00 4.0499999675911980e+00 2.0249999837919170e+00 1.0124999918848307e+01 0 0 0
184 1 0.0000000000000000e+00 4.0499999675915763e+00 2.0249999837902468e+00 1.4174999886383382e+01 0 0 0
185 1 0.0000000000000000e+00 4.0499999675912006e+00 2.0249999837915147e+00 1.8224999853916653e+01 0 0 0
186 1 0.0000000000000000e+00 4.0499999675912797e+00 2.0249999837916648e+00 2.2274999821450063e+01 0 0 0
187 1 0.0000000000000000e+00 4.0499999675912601e+00 6.0749999513247355e+00 2.0249999837852468e+00 0 0 0
188 1 0.0000000000000000e+00 4.0499999675917389e+00 6.0749999513249309e+00 6.0749999513171735e+00 0 0 0
189 1 0.0000000000000000e+00 4.0499999675918321e+00 6.0749999513247177e+00 1.0124999918851794e+01 0 0 0
190 1 0.0000000000000000e+00 4.0499999675909395e+00 6.0749999513246138e+00 1.4174999886386876e+01 0 0 0
191 1 0.0000000000000000e+00 4.0499999675910363e+00 6.0749999513243980e+00 1.8224999853919879e+01 0 0 0
192 1 0.0000000000000000e+00 4.0499999675915159e+00 6.0749999513245951e+00 2.2274999821453637e+01 0 0 0
193 1 0.0000000000000000e+00 4.0499999675906544e+00 1.0124999918857855e+01 2.0249999837866470e+00 0 0 0
194 1 0.0000000000000000e+00 4.0499999675912166e+00 1.0124999918858022e+01 6.0749999513193451e+00 0 0 0
195 1 0.0000000000000000e+00 4.0499999675919884e+00 1.0124999918858469e+01 1.0124999918854478e+01 0 0 0
196 1 0.0000000000000000e+00 4.0499999675907867e+00 1.0124999918858009e+01 1.4174999886389561e+01 0 0 0
197 1 0.0000000000000000e+00 4.0499999675915559e+00 1.0124999918858453e+01 1.8224999853922053e+01 0 0 0
198 1 0.0000000000000000e+00 4.0499999675921199e+00 1.0124999918858620e+01 2.2274999821455030e+01 0 0 0
199 1 0.0000000000000000e+00 4.0499999675910283e+00 1.4174999886391877e+01 2.0249999837878545e+00 0 0 0
200 1 0.0000000000000000e+00 4.0499999675916287e+00 1.4174999886391845e+01 6.0749999513176416e+00 0 0 0
201 1 0.0000000000000000e+00 4.0499999675917167e+00 1.4174999886391555e+01 1.0124999918852742e+01 0 0 0
202 1 0.0000000000000000e+00 4.0499999675910612e+00 1.4174999886392076e+01 1.4174999886387829e+01 0 0 0
203 1 0.0000000000000000e+00 4.0499999675911464e+00 1.4174999886391799e+01 1.8224999853920348e+01 0 0 0
204 1 0.0000000000000000e+00 4.0499999675917442e+00 1.4174999886391758e+01 2.2274999821456241e+01 0 0 0
205 1 0.0000000000000000e+00 4.0499999675915435e+00 1.8224999853926409e+01 2.0249999837823780e+00 0 0 0
206 1 0.0000000000000000e+00 4.0499999675916172e+00 1.8224999853925791e+01 6.0749999513154052e+00 0 0 0
207 1 0.0000000000000000e+00 4.0499999675910034e+00 1.8224999853924693e+01 1.0124999918849943e+01 0 0 0
208 1 0.0000000000000000e+00 4.0499999675917708e+00 1.8224999853926082e+01 1.4174999886385020e+01 0 0 0
209 1 0.0000000000000000e+00 4.0499999675911562e+00 1.8224999853924984e+01 1.8224999853918117e+01 0 0 0
210 1 0.0000000000000000e+00 4.0499999675912353e+00 1.8224999853924366e+01 2.2274999821450759e+01 0 0 0
211 1 0.0000000000000000e+00 4.0499999675914413e+00 2.2274999821458774e+01 2.0249999837776200e+00 0 0 0
212 1 0.0000000000000000e+00 4.0499999675913774e+00 2.2274999821458920e+01 6.0749999513140223e+00 0 0 0
213 1 0.0000000000000000e+00 4.0499999675908214e+00 2.2274999821458799e+01 1.0124999918847859e+01 0 0 0
214 1 0.0000000000000000e+00 4.0499999675919547e+00 2.2274999821459126e+01 1.4174999886382940e+01 0 0 0
215 1 0.0000000000000000e+00 4.0499999675913987e+00 2.2274999821459016e+01 1.8224999853916728e+01 0 0 0
216 1 0.0000000000000000e+00 4.0499999675913330e+00 2.2274999821459158e+01 2.2274999821446006e+01 0 0 0
217 1 0.0000000000000000e+00 8.0999999351253233e+00 2.0249999837909796e+00 2.0249999837805781e+00 0 0 0
218 1 0.0000000000000000e+00 8.0999999351250640e+00 2.0249999837909951e+00 6.0749999513145188e+00 0 0 0
219 1 0.0000000000000000e+00 8.0999999351248615e+00 2.0249999837913388e+00 1.0124999918848486e+01 0 0 0
220 1 0.0000000000000000e+00 8.0999999351250906e+00 2.0249999837908268e+00 1.4174999886383565e+01 0 0 0
221 1 0.0000000000000000e+00 8.0999999351248864e+00 2.0249999837911656e+00 1.8224999853917225e+01 0 0 0
222 1 0.0000000000000000e+00 8.0999999351246235e+00 2.0249999837911852e+00 2.2274999821448965e+01 0 0 0
223 1 0.0000000000000000e+00 8.0999999351250924e+00 6.0749999513239450e+00 2.0249999837849835e+00 0 0 0
224 1 0.0000000000000000e+00 8.0999999351248455e+00 6.0749999513245845e+00 6.0749999513173814e+00 0 0 0
225 1 0.0000000000000000e+00 8.0999999351246661e+00 6.0749999513254380e+00 1.0124999918852051e+01 0 0 0
226 1 0.0000000000000000e+00 8.0999999351252843e+00 6.0749999513238881e+00 1.4174999886387132e+01 0 0 0
227 1 0.0000000000000000e+00 8.0999999351251102e+00 6.0749999513247461e+00 1.8224999853920096e+01 0 0 0
228 1 0.0000000000000000e+00 8.0999999351248562e+00 6.0749999513253830e+00 2.2274999821453370e+01 0 0 0
229 1 0.0000000000000000e+00 8.0999999351249858e+00 1.0124999918858100e+01 2.0249999837888994e+00 0 0 0
230 1 0.0000000000000000e+00 8.0999999351244121e+00 1.0124999918858267e+01 6.0749999513186763e+00 0 0 0
231 1 0.0000000000000000e+00 8.0999999351243961e+00 1.0124999918858189e+01 1.0124999918853968e+01 0 0 0
232 1 0.0000000000000000e+00 8.0999999351255614e+00 1.0124999918858284e+01 1.4174999886389045e+01 0 0 0
233 1 0.0000000000000000e+00 8.0999999351255418e+00 1.0124999918858212e+01 1.8224999853921386e+01 0 0 0
234 1 0.0000000000000000e+00 8.0999999351249681e+00 1.0124999918858375e+01 2.2274999821457296e+01 0 0 0
235 1 0.0000000000000000e+00 8.0999999351257461e+00 1.4174999886392673e+01 2.0249999837862447e+00 0 0 0
236 1 0.0000000000000000e+00 8.0999999351251777e+00 1.4174999886391877e+01 6.0749999513185466e+00 0 0 0
237 1 0.0000000000000000e+00 8.0999999351244014e+00 1.4174999886391030e+01 1.0124999918853010e+01 0 0 0
238 1 0.0000000000000000e+00 8.0999999351255578e+00 1.4174999886392611e+01 1.4174999886388095e+01 0 0 0
239 1 0.0000000000000000e+00 8.0999999351247709e+00 1.4174999886391763e+01 1.8224999853921258e+01 0 0 0
240 1 0.0000000000000000e+00 8.0999999351242042e+00 1.4174999886390967e+01 2.2274999821454635e+01 0 0 0
241 1 0.0000000000000000e+00 8.0999999351251954e+00 1.8224999853925404e+01 2.0249999837818566e+00 0 0 0
242 1 0.0000000000000000e+00 8.0999999351247336e+00 1.8224999853925432e+01 6.0749999513158315e+00 0 0 0
243 1 0.0000000000000000e+00 8.0999999351248633e+00 1.8224999853925173e+01 1.0124999918849607e+01 0 0 0
244 1 0.0000000000000000e+00 8.0999999351250853e+00 1.8224999853925599e+01 1.4174999886384683e+01 0 0 0
245 1 0.0000000000000000e+00 8.0999999351252185e+00 1.8224999853925347e+01 1.8224999853918543e+01 0 0 0
246 1 0.0000000000000000e+00 8.0999999351247514e+00 1.8224999853925368e+01 2.2274999821450244e+01 0 0 0
247 1 0.0000000000000000e+00 8.0999999351247016e+00 2.2274999821459055e+01 2.0249999837798023e+00 0 0 0
248 1 0.0000000000000000e+00 8.0999999351245382e+00 2.2274999821459001e+01 6.0749999513138500e+00 0 0 0
249 1 0.0000000000000000e+00 8.0999999351252168e+00 2.2274999821458987e+01 1.0124999918847001e+01 0 0 0
250 1 0.0000000000000000e+00 8.0999999351247354e+00 2.2274999821458945e+01 1.4174999886382077e+01 0 0 0
251 1 0.0000000000000000e+00 8.0999999351254210e+00 2.2274999821458923e+01 1.8224999853916561e+01 0 0 0
252 1 0.0000000000000000e+00 8.0999999351252470e+00 2.2274999821458881e+01 2.2274999821448191e+01 0 0 0
253 1 0.0000000000000000e+00 1.2149999902658340e+01 2.0249999837912860e+00 2.0249999837804764e+00 0 0 0
254 1 0.0000000000000000e+00 1.2149999902658550e+01 2.0249999837909587e+00 6.0749999513152133e+00 0 0 0
255 1 0.0000000000000000e+00 1.2149999902658546e+01 2.0249999837913752e+00 1.0124999918848850e+01 0 0 0
256 1 0.0000000000000000e+00 1.2149999902658552e+01 2.0249999837907890e+00 1.4174999886383929e+01 0 0 0
257 1 0.0000000000000000e+00 1.2149999902658552e+01 2.0249999837912038e+00 1.8224999853917918e+01 0 0 0
258 1 0.0000000000000000e+00 1.2149999902658772e+01 2.0249999837908783e+00 2.2274999821448866e+01 0 0 0
259 1 0.0000000000000000e+00 1.2149999902658843e+01 6.0749999513238180e+00 2.0249999837856421e+00 0 0 0
260 1 0.0000000000000000e+00 1.2149999902658323e+01 6.0749999513242203e+00 6.0749999513182029e+00 0 0 0
261 1 0.0000000000000000e+00 1.2149999902657912e+01 6.0749999513246866e+00 1.0124999918851154e+01 0 0 0
262 1 0.0000000000000000e+00 1.2149999902659202e+01 6.0749999513246449e+00 1.4174999886386237e+01 0 0 0
263 1 0.0000000000000000e+00 1.2149999902658786e+01 6.0749999513251103e+00 1.8224999853920909e+01 0 0 0
264 1 0.0000000000000000e+00 1.2149999902658264e+01 6.0749999513255108e+00 2.2274999821454035e+01 0 0 0
265 1 0.0000000000000000e+00 1.2149999902659445e+01 1.0124999918858601e+01 2.0249999837888319e+00 0 0 0
266 1 0.0000000000000000e+00 1.2149999902658841e+01 1.0124999918858386e+01 6.0749999513197031e+00 0 0 0
267 1 0.0000000000000000e+00 1.2149999902657745e+01 1.0124999918858160e+01 1.0124999918852696e+01 0 0 0
268 1 0.0000000000000000e+00 1.2149999902659360e+01 1.0124999918858313e+01 1.4174999886387777e+01 0 0 0
269 1 0.0000000000000000e+00 1.2149999902658264e+01 1.0124999918858082e+01 1.8224999853922416e+01 0 0 0
270 1 0.0000000000000000e+00 1.2149999902657662e+01 1.0124999918857871e+01 2.2274999821457218e+01 0 0 0
271 1 0.0000000000000000e+00 1.2149999902658807e+01 1.4174999886392200e+01 2.0249999837852566e+00 0 0 0
272 1 0.0000000000000000e+00 1.2149999902658500e+01 1.4174999886392127e+01 6.0749999513201196e+00 0 0 0
273 1 0.0000000000000000e+00 1.2149999902658042e+01 1.4174999886391653e+01 1.0124999918852399e+01 0 0 0
274 1 0.0000000000000000e+00 1.2149999902659072e+01 1.4174999886391987e+01 1.4174999886387486e+01 0 0 0
275 1 0.0000000000000000e+00 1.2149999902658605e+01 1.4174999886391513e+01 1.8224999853922832e+01 0 0 0
276 1 0.0000000000000000e+00 1.2149999902658294e+01 1.4174999886391435e+01 2.2274999821453640e+01 0 0 0
277 1 0.0000000000000000e+00 1.2149999902658230e+01 1.8224999853924881e+01 2.0249999837833874e+00 0 0 0
278 1 0.0000000000000000e+00 1.2149999902658509e+01 1.8224999853925119e+01 6.0749999513158990e+00 0 0 0
279 1 0.0000000000000000e+00 1.2149999902658585e+01 1.8224999853925546e+01 1.0124999918849445e+01 0 0 0
280 1 0.0000000000000000e+00 1.2149999902658523e+01 1.8224999853925240e+01 1.4174999886384532e+01 0 0 0
281 1 0.0000000000000000e+00 1.2149999902658598e+01 1.8224999853925659e+01 1.8224999853918604e+01 0 0 0
282 1 0.0000000000000000e+00 1.2149999902658879e+01 1.8224999853925890e+01 2.2274999821451779e+01 0 0 0
283 1 0.0000000000000000e+00 1.2149999902658324e+01 2.2274999821459371e+01 2.0249999837814827e+00 0 0 0
284 1 0.0000000000000000e+00 1.2149999902658745e+01 2.2274999821459350e+01 6.0749999513132469e+00 0 0 0
285 1 0.0000000000000000e+00 1.2149999902658777e+01 2.2274999821458742e+01 1.0124999918847449e+01 0 0 0