datafile (written by JARVIS-FF) 

576 	 atoms 
1  atom types
0.0 16.199999870  xlo xhi
0.0 24.299999805  ylo yhi
0.0 24.299999804  zlo zhi
0E-9 0E-9 0E-9  xy xz yz


Atoms 

     1   1 0.000000 0E-9 0E-9 0E-9
     2   1 0.000000 0E-9 0E-9 4.049999968
     3   1 0.000000 0E-9 0E-9 8.099999935
     4   1 0.000000 0E-9 0E-9 12.149999903
     5   1 0.000000 0E-9 0E-9 16.199999870
     6   1 0.000000 0E-9 0E-9 20.249999838
     7   1 0.000000 0E-9 4.049999968 -0E-9
     8   1 0.000000 0E-9 4.049999968 4.049999968
     9   1 0.000000 0E-9 4.049999968 8.099999935
    10   1 0.000000 0E-9 4.049999968 12.149999903
    11   1 0.000000 0E-9 4.049999968 16.199999870
    12   1 0.000000 0E-9 4.049999968 20.249999838
    13   1 0.000000 0E-9 8.099999935 -0E-9
    14   1 0.000000 0E-9 8.099999935 4.049999968
    15   1 0.000000 0E-9 8.099999935 8.099999935
    16   1 0.000000 0E-9 8.099999935 12.149999903
    17   1 0.000000 0E-9 8.099999935 16.199999870
    18   1 0.000000 0E-9 8.099999935 20.249999838
    19   1 0.000000 0E-9 12.149999903 24.299999805
    20   1 0.000000 0E-9 12.149999903 4.049999968
    21   1 0.000000 0E-9 12.149999903 8.099999935
    22   1 0.000000 0E-9 12.149999903 12.149999903
    23   1 0.000000 0E-9 12.149999903 16.199999870
    24   1 0.000000 0E-9 12.149999903 20.249999838
    25   1 0.000000 0E-9 16.199999870 -0E-9
    26   1 0.000000 0E-9 16.199999870 4.049999968
    27   1 0.000000 0E-9 16.199999870 8.099999935
    28   1 0.000000 0E-9 16.199999870 12.149999903
    29   1 0.000000 0E-9 16.199999870 16.199999870
    30   1 0.000000 0E-9 16.199999870 20.249999838
    31   1 0.000000 16.199999870 20.249999838 24.299999805
    32   1 0.000000 16.199999870 20.249999838 4.049999968
    33   1 0.000000 16.199999870 20.249999838 8.099999935
    34   1 0.000000 16.199999870 20.249999838 12.149999903
    35   1 0.000000 16.199999870 20.249999838 16.199999870
    36   1 0.000000 16.199999870 20.249999838 20.249999838
    37   1 0.000000 4.049999968 0E-9 0E-9
    38   1 0.000000 4.049999968 0E-9 4.049999968
    39   1 0.000000 4.049999968 0E-9 8.099999935
    40   1 0.000000 4.049999968 0E-9 12.149999903
    41   1 0.000000 4.049999968 0E-9 16.199999870
    42   1 0.000000 4.049999968 0E-9 20.249999838
    43   1 0.000000 4.049999968 4.049999968 24.299999805
    44   1 0.000000 4.049999968 4.049999968 4.049999968
    45   1 0.000000 4.049999968 4.049999968 8.099999935
    46   1 0.000000 4.049999968 4.049999968 12.149999903
    47   1 0.000000 4.049999968 4.049999968 16.199999870
    48   1 0.000000 4.049999968 4.049999968 20.249999838
    49   1 0.000000 4.049999968 8.099999935 0E-9
    50   1 0.000000 4.049999968 8.099999935 4.049999968
    51   1 0.000000 4.049999968 8.099999935 8.099999935
    52   1 0.000000 4.049999968 8.099999935 12.149999903
    53   1 0.000000 4.049999968 8.099999935 16.199999870
    54   1 0.000000 4.049999968 8.099999935 20.249999838
    55   1 0.000000 4.049999968 12.149999903 24.299999805
    56   1 0.000000 4.049999968 12.149999903 4.049999968
    57   1 0.000000 4.049999968 12.149999903 8.099999935
    58   1 0.000000 4.049999968 12.149999903 12.149999903
    59   1 0.000000 4.049999968 12.149999903 16.199999870
    60   1 0.000000 4.049999968 12.149999903 20.249999838
    61   1 0.000000 4.049999968 16.199999870 24.299999805
    62   1 0.000000 4.049999968 16.199999870 4.049999968
    63   1 0.000000 4.049999968 16.199999870 8.099999935
    64   1 0.000000 4.049999968 16.199999870 12.149999903
    65   1 0.000000 4.049999968 16.199999870 16.199999870
    66   1 0.000000 4.049999968 16.199999870 20.249999838
    67   1 0.000000 4.049999968 20.249999838 -0E-9
    68   1 0.000000 4.049999968 20.249999838 4.049999968
    69   1 0.000000 4.049999968 20.249999838 8.099999935
    70   1 0.000000 4.049999968 20.249999838 12.149999903
    71   1 0.000000 4.049999968 20.249999838 16.199999870
    72   1 0.000000 4.049999968 20.249999838 20.249999838
    73   1 0.000000 8.099999935 0E-9 0E-9
    74   1 0.000000 8.099999935 0E-9 4.049999968
    75   1 0.000000 8.099999935 0E-9 8.099999935
    76   1 0.000000 8.099999935 0E-9 12.149999903
    77   1 0.000000 8.099999935 0E-9 16.199999870
    78   1 0.000000 8.099999935 0E-9 20.249999838
    79   1 0.000000 8.099999935 4.049999968 0E-9
    80   1 0.000000 8.099999935 4.049999968 4.049999968
    81   1 0.000000 8.099999935 4.049999968 8.099999935
    82   1 0.000000 8.099999935 4.049999968 12.149999903
    83   1 0.000000 8.099999935 4.049999968 16.199999870
    84   1 0.000000 8.099999935 4.049999968 20.249999838
    85   1 0.000000 8.099999935 8.099999935 24.299999805
    86   1 0.000000 8.099999935 8.099999935 4.049999968
    87   1 0.000000 8.099999935 8.099999935 8.099999935
    88   1 0.000000 8.099999935 8.099999935 12.149999903
    89   1 0.000000 8.099999935 8.099999935 16.199999870
    90   1 0.000000 8.099999935 8.099999935 20.249999838
    91   1 0.000000 8.099999935 12.149999903 24.299999805
    92   1 0.000000 8.099999935 12.149999903 4.049999968
    93   1 0.000000 8.099999935 12.149999903 8.099999935
    94   1 0.000000 8.099999935 12.149999903 12.149999903
    95   1 0.000000 8.099999935 12.149999903 16.199999870
    96   1 0.000000 8.099999935 12.149999903 20.249999838
    97   1 0.000000 8.099999935 16.199999870 0E-9
    98   1 0.000000 8.099999935 16.199999870 4.049999968
    99   1 0.000000 8.099999935 16.199999870 8.099999935
   100   1 0.000000 8.099999935 16.199999870 12.149999903
   101   1 0.000000 8.099999935 16.199999870 16.199999870
   102   1 0.000000 8.099999935 16.199999870 20.249999838
   103   1 0.000000 8.099999935 20.249999838 -0E-9
   104   1 0.000000 8.099999935 20.249999838 4.049999968
   105   1 0.000000 8.099999935 20.249999838 8.099999935
   106   1 0.000000 8.099999935 20.249999838 12.149999903
   107   1 0.000000 8.099999935 20.249999838 16.199999870
   108   1 0.000000 8.099999935 20.249999838 20.249999838
   109   1 0.000000 12.149999903 0E-9 0E-9
   110   1 0.000000 12.149999903 0E-9 4.049999968
   111   1 0.000000 12.149999903 0E-9 8.099999935
   112   1 0.000000 12.149999903 0E-9 12.149999903
   113   1 0.000000 12.149999903 0E-9 16.199999870
   114   1 0.000000 12.149999903 0E-9 20.249999838
   115   1 0.000000 12.149999903 4.049999968 0E-9
   116   1 0.000000 12.149999903 4.049999968 4.049999968
   117   1 0.000000 12.149999903 4.049999968 8.099999935
   118   1 0.000000 12.149999903 4.049999968 12.149999903
   119   1 0.000000 12.149999903 4.049999968 16.199999870
   120   1 0.000000 12.149999903 4.049999968 20.249999838
   121   1 0.000000 12.149999903 8.099999935 0E-9
   122   1 0.000000 12.149999903 8.099999935 4.049999968
   123   1 0.000000 12.149999903 8.099999935 8.099999935
   124   1 0.000000 12.149999903 8.099999935 12.149999903
   125   1 0.000000 12.149999903 8.099999935 16.199999870
   126   1 0.000000 12.149999903 8.099999935 20.249999838
   127   1 0.000000 12.149999903 12.149999903 0E-9
   128   1 0.000000 12.149999903 12.149999903 4.049999968
   129   1 0.000000 12.149999903 12.149999903 8.099999935
   130   1 0.000000 12.149999903 12.149999903 12.149999903
   131   1 0.000000 12.149999903 12.149999903 16.199999870
   132   1 0.000000 12.149999903 12.149999903 20.249999838
   133   1 0.000000 12.149999903 16.199999870 0E-9
   134   1 0.000000 12.149999903 16.199999870 4.049999968
   135   1 0.000000 12.149999903 16.199999870 8.099999935
   136   1 0.000000 12.149999903 16.199999870 12.149999903
   137   1 0.000000 12.149999903 16.199999870 16.199999870
   138   1 0.000000 12.149999903 16.199999870 20.249999838
   139   1 0.000000 12.149999903 20.249999838 24.299999805
   140   1 0.000000 12.149999903 20.249999838 4.049999968
   141   1 0.000000 12.149999903 20.249999838 8.099999935
   142   1 0.000000 12.149999903 20.249999838 12.149999903
   143   1 0.000000 12.149999903 20.249999838 16.199999870
   144   1 0.000000 12.149999903 20.249999838 20.249999838
   145   1 0.000000 16.199999870 2.024999984 2.024999984
   146   1 0.000000 16.199999870 2.024999984 6.074999951
   147   1 0.000000 16.199999870 2.024999984 10.124999919
   148   1 0.000000 16.199999870 2.024999984 14.174999886
   149   1 0.000000 16.199999870 2.024999984 18.224999854
   150   1 0.000000 16.199999870 2.024999984 22.274999821
   151   1 0.000000 0E-9 6.074999951 2.024999984
   152   1 0.000000 0E-9 6.074999951 6.074999951
   153   1 0.000000 0E-9 6.074999951 10.124999919
   154   1 0.000000 0E-9 6.074999951 14.174999886
   155   1 0.000000 0E-9 6.074999951 18.224999854
   156   1 0.000000 0E-9 6.074999951 22.274999821
   157   1 0.000000 0E-9 10.124999919 2.024999984
   158   1 0.000000 0E-9 10.124999919 6.074999951
   159   1 0.000000 0E-9 10.124999919 10.124999919
   160   1 0.000000 0E-9 10.124999919 14.174999886
   161   1 0.000000 0E-9 10.124999919 18.224999854
   162   1 0.000000 0E-9 10.124999919 22.274999821
   163   1 0.000000 0E-9 14.174999886 2.024999984
   164   1 0.000000 0E-9 14.174999886 6.074999951
   165   1 0.000000 0E-9 14.174999886 10.124999919
   166   1 0.000000 0E-9 14.174999886 14.174999886
   167   1 0.000000 0E-9 14.174999886 18.224999854
   168   1 0.000000 0E-9 14.174999886 22.274999821
   169   1 0.000000 0E-9 18.224999854 2.024999984
   170   1 0.000000 0E-9 18.224999854 6.074999951
   171   1 0.000000 0E-9 18.224999854 10.124999919
   172   1 0.000000 0E-9 18.224999854 14.174999886
   173   1 0.000000 0E-9 18.224999854 18.224999854
   174   1 0.000000 0E-9 18.224999854 22.274999821
   175   1 0.000000 16.199999870 22.274999821 2.024999984
   176   1 0.000000 16.199999870 22.274999821 6.074999951
   177   1 0.000000 16.199999870 22.274999821 10.124999919
   178   1 0.000000 16.199999870 22.274999821 14.174999886
   179   1 0.000000 16.199999870 22.274999821 18.224999854
   180   1 0.000000 16.199999870 22.274999821 22.274999821
   181   1 0.000000 4.049999968 2.024999984 2.024999984
   182   1 0.000000 4.049999968 2.024999984 6.074999951
   183   1 0.000000 4.049999968 2.024999984 10.124999919
   184   1 0.000000 4.049999968 2.024999984 14.174999886
   185   1 0.000000 4.049999968 2.024999984 18.224999854
   186   1 0.000000 4.049999968 2.024999984 22.274999821
   187   1 0.000000 4.049999968 6.074999951 2.024999984
   188   1 0.000000 4.049999968 6.074999951 6.074999951
   189   1 0.000000 4.049999968 6.074999951 10.124999919
   190   1 0.000000 4.049999968 6.074999951 14.174999886
   191   1 0.000000 4.049999968 6.074999951 18.224999854
   192   1 0.000000 4.049999968 6.074999951 22.274999821
   193   1 0.000000 4.049999968 10.124999919 2.024999984
   194   1 0.000000 4.049999968 10.124999919 6.074999951
   195   1 0.000000 4.049999968 10.124999919 10.124999919
   196   1 0.000000 4.049999968 10.124999919 14.174999886
   197   1 0.000000 4.049999968 10.124999919 18.224999854
   198   1 0.000000 4.049999968 10.124999919 22.274999821
   199   1 0.000000 4.049999968 14.174999886 2.024999984
   200   1 0.000000 4.049999968 14.174999886 6.074999951
   201   1 0.000000 4.049999968 14.174999886 10.124999919
   202   1 0.000000 4.049999968 14.174999886 14.174999886
   203   1 0.000000 4.049999968 14.174999886 18.224999854
   204   1 0.000000 4.049999968 14.174999886 22.274999821
   205   1 0.000000 4.049999968 18.224999854 2.024999984
   206   1 0.000000 4.049999968 18.224999854 6.074999951
   207   1 0.000000 4.049999968 18.224999854 10.124999919
   208   1 0.000000 4.049999968 18.224999854 14.174999886
   209   1 0.000000 4.049999968 18.224999854 18.224999854
   210   1 0.000000 4.049999968 18.224999854 22.274999821
   211   1 0.000000 4.049999968 22.274999821 2.024999984
   212   1 0.000000 4.049999968 22.274999821 6.074999951
   213   1 0.000000 4.049999968 22.274999821 10.124999919
   214   1 0.000000 4.049999968 22.274999821 14.174999886
   215   1 0.000000 4.049999968 22.274999821 18.224999854
   216   1 0.000000 4.049999968 22.274999821 22.274999821
   217   1 0.000000 8.099999935 2.024999984 2.024999984
   218   1 0.000000 8.099999935 2.024999984 6.074999951
   219   1 0.000000 8.099999935 2.024999984 10.124999919
   220   1 0.000000 8.099999935 2.024999984 14.174999886
   221   1 0.000000 8.099999935 2.024999984 18.224999854
   222   1 0.000000 8.099999935 2.024999984 22.274999821
   223   1 0.000000 8.099999935 6.074999951 2.024999984
   224   1 0.000000 8.099999935 6.074999951 6.074999951
   225   1 0.000000 8.099999935 6.074999951 10.124999919
   226   1 0.000000 8.099999935 6.074999951 14.174999886
   227   1 0.000000 8.099999935 6.074999951 18.224999854
   228   1 0.000000 8.099999935 6.074999951 22.274999821
   229   1 0.000000 8.099999935 10.124999919 2.024999984
   230   1 0.000000 8.099999935 10.124999919 6.074999951
   231   1 0.000000 8.099999935 10.124999919 10.124999919
   232   1 0.000000 8.099999935 10.124999919 14.174999886
   233   1 0.000000 8.099999935 10.124999919 18.224999854
   234   1 0.000000 8.099999935 10.124999919 22.274999821
   235   1 0.000000 8.099999935 14.174999886 2.024999984
   236   1 0.000000 8.099999935 14.174999886 6.074999951
   237   1 0.000000 8.099999935 14.174999886 10.124999919
   238   1 0.000000 8.099999935 14.174999886 14.174999886
   239   1 0.000000 8.099999935 14.174999886 18.224999854
   240   1 0.000000 8.099999935 14.174999886 22.274999821
   241   1 0.000000 8.099999935 18.224999854 2.024999984
   242   1 0.000000 8.099999935 18.224999854 6.074999951
   243   1 0.000000 8.099999935 18.224999854 10.124999919
   244   1 0.000000 8.099999935 18.224999854 14.174999886
   245   1 0.000000 8.099999935 18.224999854 18.224999854
   246   1 0.000000 8.099999935 18.224999854 22.274999821
   247   1 0.000000 8.099999935 22.274999821 2.024999984
   248   1 0.000000 8.099999935 22.274999821 6.074999951
   249   1 0.000000 8.099999935 22.274999821 10.124999919
   250   1 0.000000 8.099999935 22.274999821 14.174999886
   251   1 0.000000 8.099999935 22.274999821 18.224999854
   252   1 0.000000 8.099999935 22.274999821 22.274999821
   253   1 0.000000 12.149999903 2.024999984 2.024999984
   254   1 0.000000 12.149999903 2.024999984 6.074999951
   255   1 0.000000 12.149999903 2.024999984 10.124999919
   256   1 0.000000 12.149999903 2.024999984 14.174999886
   257   1 0.000000 12.149999903 2.024999984 18.224999854
   258   1 0.000000 12.149999903 2.024999984 22.274999821
   259   1 0.000000 12.149999903 6.074999951 2.024999984
   260   1 0.000000 12.149999903 6.074999951 6.074999951
   261   1 0.000000 12.149999903 6.074999951 10.124999919
   262   1 0.000000 12.149999903 6.074999951 14.174999886
   263   1 0.000000 12.149999903 6.074999951 18.224999854
   264   1 0.000000 12.149999903 6.074999951 22.274999821
   265   1 0.000000 12.149999903 10.124999919 2.024999984
   266   1 0.000000 12.149999903 10.124999919 6.074999951
   267   1 0.000000 12.149999903 10.124999919 10.124999919
   268   1 0.000000 12.149999903 10.124999919 14.174999886
   269   1 0.000000 12.149999903 10.124999919 18.224999854
   270   1 0.000000 12.149999903 10.124999919 22.274999821
   271   1 0.000000 12.149999903 14.174999886 2.024999984
   272   1 0.000000 12.149999903 14.174999886 6.074999951
   273   1 0.000000 12.149999903 14.174999886 10.124999919
   274   1 0.000000 12.149999903 14.174999886 14.174999886
   275   1 0.000000 12.149999903 14.174999886 18.224999854
   276   1 0.000000 12.149999903 14.174999886 22.274999821
   277   1 0.000000 12.149999903 18.224999854 2.024999984
   278   1 0.000000 12.149999903 18.224999854 6.074999951
   279   1 0.000000 12.149999903 18.224999854 10.124999919
   280   1 0.000000 12.149999903 18.224999854 14.174999886
   281   1 0.000000 12.149999903 18.224999854 18.224999854
   282   1 0.000000 12.149999903 18.224999854 22.274999821
   283   1 0.000000 12.149999903 22.274999821 2.024999984
   284   1 0.000000 12.149999903 22.274999821 6.074999951
   285   1 0.000000 12.149999903 22.274999821 10.124999919
   286   1 0.000000 12.149999903 22.274999821 14.174999886
   287   1 0.000000 12.149999903 22.274999821 18.224999854
   288   1 0.000000 12.149999903 22.274999821 22.274999821
   289   1 0.000000 2.024999984 0E-9 2.024999984
   290   1 0.000000 2.024999984 0E-9 6.074999951
   291   1 0.000000 2.024999984 0E-9 10.124999919
   292   1 0.000000 2.024999984 0E-9 14.174999886
   293   1 0.000000 2.024999984 0E-9 18.224999854
   294   1 0.000000 2.024999984 0E-9 22.274999821
   295   1 0.000000 2.024999984 4.049999968 2.024999984
   296   1 0.000000 2.024999984 4.049999968 6.074999951
   297   1 0.000000 2.024999984 4.049999968 10.124999919
   298   1 0.000000 2.024999984 4.049999968 14.174999886
   299   1 0.000000 2.024999984 4.049999968 18.224999854
   300   1 0.000000 2.024999984 4.049999968 22.274999821
   301   1 0.000000 2.024999984 8.099999935 2.024999984
   302   1 0.000000 2.024999984 8.099999935 6.074999951
   303   1 0.000000 2.024999984 8.099999935 10.124999919
   304   1 0.000000 2.024999984 8.099999935 14.174999886
   305   1 0.000000 2.024999984 8.099999935 18.224999854
   306   1 0.000000 2.024999984 8.099999935 22.274999821
   307   1 0.000000 2.024999984 12.149999903 2.024999984
   308   1 0.000000 2.024999984 12.149999903 6.074999951
   309   1 0.000000 2.024999984 12.149999903 10.124999919
   310   1 0.000000 2.024999984 12.149999903 14.174999886
   311   1 0.000000 2.024999984 12.149999903 18.224999854
   312   1 0.000000 2.024999984 12.149999903 22.274999821
   313   1 0.000000 2.024999984 16.199999870 2.024999984
   314   1 0.000000 2.024999984 16.199999870 6.074999951
   315   1 0.000000 2.024999984 16.199999870 10.124999919
   316   1 0.000000 2.024999984 16.199999870 14.174999886
   317   1 0.000000 2.024999984 16.199999870 18.224999854
   318   1 0.000000 2.024999984 16.199999870 22.274999821
   319   1 0.000000 2.024999984 20.249999838 2.024999984
   320   1 0.000000 2.024999984 20.249999838 6.074999951
   321   1 0.000000 2.024999984 20.249999838 10.124999919
   322   1 0.000000 2.024999984 20.249999838 14.174999886
   323   1 0.000000 2.024999984 20.249999838 18.224999854
   324   1 0.000000 2.024999984 20.249999838 22.274999821
   325   1 0.000000 6.074999951 0E-9 2.024999984
   326   1 0.000000 6.074999951 0E-9 6.074999951
   327   1 0.000000 6.074999951 0E-9 10.124999919
   328   1 0.000000 6.074999951 0E-9 14.174999886
   329   1 0.000000 6.074999951 0E-9 18.224999854
   330   1 0.000000 6.074999951 0E-9 22.274999821
   331   1 0.000000 6.074999951 4.049999968 2.024999984
   332   1 0.000000 6.074999951 4.049999968 6.074999951
   333   1 0.000000 6.074999951 4.049999968 10.124999919
   334   1 0.000000 6.074999951 4.049999968 14.174999886
   335   1 0.000000 6.074999951 4.049999968 18.224999854
   336   1 0.000000 6.074999951 4.049999968 22.274999821
   337   1 0.000000 6.074999951 8.099999935 2.024999984
   338   1 0.000000 6.074999951 8.099999935 6.074999951
   339   1 0.000000 6.074999951 8.099999935 10.124999919
   340   1 0.000000 6.074999951 8.099999935 14.174999886
   341   1 0.000000 6.074999951 8.099999935 18.224999854
   342   1 0.000000 6.074999951 8.099999935 22.274999821
   343   1 0.000000 6.074999951 12.149999903 2.024999984
   344   1 0.000000 6.074999951 12.149999903 6.074999951
   345   1 0.000000 6.074999951 12.149999903 10.124999919
   346   1 0.000000 6.074999951 12.149999903 14.174999886
   347   1 0.000000 6.074999951 12.149999903 18.224999854
   348   1 0.000000 6.074999951 12.149999903 22.274999821
   349   1 0.000000 6.074999951 16.199999870 2.024999984
   350   1 0.000000 6.074999951 16.199999870 6.074999951
   351   1 0.000000 6.074999951 16.199999870 10.124999919
   352   1 0.000000 6.074999951 16.199999870 14.174999886
   353   1 0.000000 6.074999951 16.199999870 18.224999854
   354   1 0.000000 6.074999951 16.199999870 22.274999821
   355   1 0.000000 6.074999951 20.249999838 2.024999984
   356   1 0.000000 6.074999951 20.249999838 6.074999951
   357   1 0.000000 6.074999951 20.249999838 10.124999919
   358   1 0.000000 6.074999951 20.249999838 14.174999886
   359   1 0.000000 6.074999951 20.249999838 18.224999854
   360   1 0.000000 6.074999951 20.249999838 22.274999821
   361   1 0.000000 10.124999919 0E-9 2.024999984
   362   1 0.000000 10.124999919 0E-9 6.074999951
   363   1 0.000000 10.124999919 0E-9 10.124999919
   364   1 0.000000 10.124999919 0E-9 14.174999886
   365   1 0.000000 10.124999919 0E-9 18.224999854
   366   1 0.000000 10.124999919 0E-9 22.274999821
   367   1 0.000000 10.124999919 4.049999968 2.024999984
   368   1 0.000000 10.124999919 4.049999968 6.074999951
   369   1 0.000000 10.124999919 4.049999968 10.124999919
   370   1 0.000000 10.124999919 4.049999968 14.174999886
   371   1 0.000000 10.124999919 4.049999968 18.224999854
   372   1 0.000000 10.124999919 4.049999968 22.274999821
   373   1 0.000000 10.124999919 8.099999935 2.024999984
   374   1 0.000000 10.124999919 8.099999935 6.074999951
   375   1 0.000000 10.124999919 8.099999935 10.124999919
   376   1 0.000000 10.124999919 8.099999935 14.174999886
   377   1 0.000000 10.124999919 8.099999935 18.224999854
   378   1 0.000000 10.124999919 8.099999935 22.274999821
   379   1 0.000000 10.124999919 12.149999903 2.024999984
   380   1 0.000000 10.124999919 12.149999903 6.074999951
   381   1 0.000000 10.124999919 12.149999903 10.124999919
   382   1 0.000000 10.124999919 12.149999903 14.174999886
   383   1 0.000000 10.124999919 12.149999903 18.224999854
   384   1 0.000000 10.124999919 12.149999903 22.274999821
   385   1 0.000000 10.124999919 16.199999870 2.024999984
   386   1 0.000000 10.124999919 16.199999870 6.074999951
   387   1 0.000000 10.124999919 16.199999870 10.124999919
   388   1 0.000000 10.124999919 16.199999870 14.174999886
   389   1 0.000000 10.124999919 16.199999870 18.224999854
   390   1 0.000000 10.124999919 16.199999870 22.274999821
   391   1 0.000000 10.124999919 20.249999838 2.024999984
   392   1 0.000000 10.124999919 20.249999838 6.074999951
   393   1 0.000000 10.124999919 20.249999838 10.124999919
   394   1 0.000000 10.124999919 20.249999838 14.174999886
   395   1 0.000000 10.124999919 20.249999838 18.224999854
   396   1 0.000000 10.124999919 20.249999838 22.274999821
   397   1 0.000000 14.174999886 0E-9 2.024999984
   398   1 0.000000 14.174999886 0E-9 6.074999951
   399   1 0.000000 14.174999886 0E-9 10.124999919
   400   1 0.000000 14.174999886 0E-9 14.174999886
   401   1 0.000000 14.174999886 0E-9 18.224999854
   402   1 0.000000 14.174999886 0E-9 22.274999821
   403   1 0.000000 14.174999886 4.049999968 2.024999984
   404   1 0.000000 14.174999886 4.049999968 6.074999951
   405   1 0.000000 14.174999886 4.049999968 10.124999919
   406   1 0.000000 14.174999886 4.049999968 14.174999886
   407   1 0.000000 14.174999886 4.049999968 18.224999854
   408   1 0.000000 14.174999886 4.049999968 22.274999821
   409   1 0.000000 14.174999886 8.099999935 2.024999984
   410   1 0.000000 14.174999886 8.099999935 6.074999951
   411   1 0.000000 14.174999886 8.099999935 10.124999919
   412   1 0.000000 14.174999886 8.099999935 14.174999886
   413   1 0.000000 14.174999886 8.099999935 18.224999854
   414   1 0.000000 14.174999886 8.099999935 22.274999821
   415   1 0.000000 14.174999886 12.149999903 2.024999984
   416   1 0.000000 14.174999886 12.149999903 6.074999951
   417   1 0.000000 14.174999886 12.149999903 10.124999919
   418   1 0.000000 14.174999886 12.149999903 14.174999886
   419   1 0.000000 14.174999886 12.149999903 18.224999854
   420   1 0.000000 14.174999886 12.149999903 22.274999821
   421   1 0.000000 14.174999886 16.199999870 2.024999984
   422   1 0.000000 14.174999886 16.199999870 6.074999951
   423   1 0.000000 14.174999886 16.199999870 10.124999919
   424   1 0.000000 14.174999886 16.199999870 14.174999886
   425   1 0.000000 14.174999886 16.199999870 18.224999854
   426   1 0.000000 14.174999886 16.199999870 22.274999821
   427   1 0.000000 14.174999886 20.249999838 2.024999984
   428   1 0.000000 14.174999886 20.249999838 6.074999951
   429   1 0.000000 14.174999886 20.249999838 10.124999919
   430   1 0.000000 14.174999886 20.249999838 14.174999886
   431   1 0.000000 14.174999886 20.249999838 18.224999854
   432   1 0.000000 14.174999886 20.249999838 22.274999821
   433   1 0.000000 2.024999984 2.024999984 24.299999805
   434   1 0.000000 2.024999984 2.024999984 4.049999968
   435   1 0.000000 2.024999984 2.024999984 8.099999935
   436   1 0.000000 2.024999984 2.024999984 12.149999903
   437   1 0.000000 2.024999984 2.024999984 16.199999870
   438   1 0.000000 2.024999984 2.024999984 20.249999838
   439   1 0.000000 2.024999984 6.074999951 24.299999805
   440   1 0.000000 2.024999984 6.074999951 4.049999968
   441   1 0.000000 2.024999984 6.074999951 8.099999935
   442   1 0.000000 2.024999984 6.074999951 12.149999903
   443   1 0.000000 2.024999984 6.074999951 16.199999870
   444   1 0.000000 2.024999984 6.074999951 20.249999838
   445   1 0.000000 2.024999984 10.124999919 -0E-9
   446   1 0.000000 2.024999984 10.124999919 4.049999968
   447   1 0.000000 2.024999984 10.124999919 8.099999935
   448   1 0.000000 2.024999984 10.124999919 12.149999903
   449   1 0.000000 2.024999984 10.124999919 16.199999870
   450   1 0.000000 2.024999984 10.124999919 20.249999838
   451   1 0.000000 2.024999984 14.174999886 24.299999805
   452   1 0.000000 2.024999984 14.174999886 4.049999968
   453   1 0.000000 2.024999984 14.174999886 8.099999935
   454   1 0.000000 2.024999984 14.174999886 12.149999903
   455   1 0.000000 2.024999984 14.174999886 16.199999870
   456   1 0.000000 2.024999984 14.174999886 20.249999838
   457   1 0.000000 2.024999984 18.224999854 24.299999805
   458   1 0.000000 2.024999984 18.224999854 4.049999968
   459   1 0.000000 2.024999984 18.224999854 8.099999935
   460   1 0.000000 2.024999984 18.224999854 12.149999903
   461   1 0.000000 2.024999984 18.224999854 16.199999870
   462   1 0.000000 2.024999984 18.224999854 20.249999838
   463   1 0.000000 2.024999984 22.274999821 -0E-9
   464   1 0.000000 2.024999984 22.274999821 4.049999968
   465   1 0.000000 2.024999984 22.274999821 8.099999935
   466   1 0.000000 2.024999984 22.274999821 12.149999903
   467   1 0.000000 2.024999984 22.274999821 16.199999870
   468   1 0.000000 2.024999984 22.274999821 20.249999838
   469   1 0.000000 6.074999951 2.024999984 0E-9
   470   1 0.000000 6.074999951 2.024999984 4.049999968
   471   1 0.000000 6.074999951 2.024999984 8.099999935
   472   1 0.000000 6.074999951 2.024999984 12.149999903
   473   1 0.000000 6.074999951 2.024999984 16.199999870
   474   1 0.000000 6.074999951 2.024999984 20.249999838
   475   1 0.000000 6.074999951 6.074999951 24.299999805
   476   1 0.000000 6.074999951 6.074999951 4.049999968
   477   1 0.000000 6.074999951 6.074999951 8.099999935
   478   1 0.000000 6.074999951 6.074999951 12.149999903
   479   1 0.000000 6.074999951 6.074999951 16.199999870
   480   1 0.000000 6.074999951 6.074999951 20.249999838
   481   1 0.000000 6.074999951 10.124999919 24.299999805
   482   1 0.000000 6.074999951 10.124999919 4.049999968
   483   1 0.000000 6.074999951 10.124999919 8.099999935
   484   1 0.000000 6.074999951 10.124999919 12.149999903
   485   1 0.000000 6.074999951 10.124999919 16.199999870
   486   1 0.000000 6.074999951 10.124999919 20.249999838
   487   1 0.000000 6.074999951 14.174999886 24.299999805
   488   1 0.000000 6.074999951 14.174999886 4.049999968
   489   1 0.000000 6.074999951 14.174999886 8.099999935
   490   1 0.000000 6.074999951 14.174999886 12.149999903
   491   1 0.000000 6.074999951 14.174999886 16.199999870
   492   1 0.000000 6.074999951 14.174999886 20.249999838
   493   1 0.000000 6.074999951 18.224999854 -0E-9
   494   1 0.000000 6.074999951 18.224999854 4.049999968
   495   1 0.000000 6.074999951 18.224999854 8.099999935
   496   1 0.000000 6.074999951 18.224999854 12.149999903
   497   1 0.000000 6.074999951 18.224999854 16.199999870
   498   1 0.000000 6.074999951 18.224999854 20.249999838
   499   1 0.000000 6.074999951 22.274999821 -0E-9
   500   1 0.000000 6.074999951 22.274999821 4.049999968
   501   1 0.000000 6.074999951 22.274999821 8.099999935
   502   1 0.000000 6.074999951 22.274999821 12.149999903
   503   1 0.000000 6.074999951 22.274999821 16.199999870
   504   1 0.000000 6.074999951 22.274999821 20.249999838
   505   1 0.000000 10.124999919 2.024999984 0E-9
   506   1 0.000000 10.124999919 2.024999984 4.049999968
   507   1 0.000000 10.124999919 2.024999984 8.099999935
   508   1 0.000000 10.124999919 2.024999984 12.149999903
   509   1 0.000000 10.124999919 2.024999984 16.199999870
   510   1 0.000000 10.124999919 2.024999984 20.249999838
   511   1 0.000000 10.124999919 6.074999951 24.299999805
   512   1 0.000000 10.124999919 6.074999951 4.049999968
   513   1 0.000000 10.124999919 6.074999951 8.099999935
   514   1 0.000000 10.124999919 6.074999951 12.149999903
   515   1 0.000000 10.124999919 6.074999951 16.199999870
   516   1 0.000000 10.124999919 6.074999951 20.249999838
   517   1 0.000000 10.124999919 10.124999919 24.299999805
   518   1 0.000000 10.124999919 10.124999919 4.049999968
   519   1 0.000000 10.124999919 10.124999919 8.099999935
   520   1 0.000000 10.124999919 10.124999919 12.149999903
   521   1 0.000000 10.124999919 10.124999919 16.199999870
   522   1 0.000000 10.124999919 10.124999919 20.249999838
   523   1 0.000000 10.124999919 14.174999886 24.299999805
   524   1 0.000000 10.124999919 14.174999886 4.049999968
   525   1 0.000000 10.124999919 14.174999886 8.099999935
   526   1 0.000000 10.124999919 14.174999886 12.149999903
   527   1 0.000000 10.124999919 14.174999886 16.199999870
   528   1 0.000000 10.124999919 14.174999886 20.249999838
   529   1 0.000000 10.124999919 18.224999854 -0E-9
   530   1 0.000000 10.124999919 18.224999854 4.049999968
   531   1 0.000000 10.124999919 18.224999854 8.099999935
   532   1 0.000000 10.124999919 18.224999854 12.149999903
   533   1 0.000000 10.124999919 18.224999854 16.199999870