datafile (written by JARVIS-FF) 

864 	 atoms 
1  atom types
0.0 25.614448842  xlo xhi
0.0 25.486054806  ylo yhi
0.0 47.623716494  zlo zhi
2.561444884 0E-9 0E-9  xy xz yz


Atoms 

     1   1 0.000000 24.831785127 3.153577489 16.892172945
     2   1 0.000000 26.112507570 15.896604892 16.892172945
     3   1 0.000000 12.024560706 3.153577489 16.892172945
     4   1 0.000000 13.305283148 15.896604892 16.892172945
     5   1 0.000000 4.340226054 0.064358724 13.228810137
     6   1 0.000000 5.620948496 12.807386127 13.228810137
     7   1 0.000000 17.147450475 0.064358724 13.228810137
     8   1 0.000000 18.428172917 12.807386127 13.228810137
     9   1 0.000000 4.340226054 3.925882180 14.449931073
    10   1 0.000000 5.620948496 16.668909583 14.449931073
    11   1 0.000000 17.147450475 3.925882180 14.449931073
    12   1 0.000000 18.428172917 16.668909583 14.449931073
    13   1 0.000000 23.551062685 21.302737729 13.228810137
    14   1 0.000000 22.270340243 8.559710326 13.228810137
    15   1 0.000000 10.743838264 21.302737729 13.228810137
    16   1 0.000000 9.463115822 8.559710326 13.228810137
    17   1 0.000000 23.551062685 25.164261185 14.449931073
    18   1 0.000000 22.270340243 12.421233782 14.449931073
    19   1 0.000000 10.743838264 25.164261185 14.449931073
    20   1 0.000000 9.463115822 12.421233782 14.449931073
    21   1 0.000000 20.989617801 3.539729834 15.671052009
    22   1 0.000000 22.270340243 16.282757237 15.671052009
    23   1 0.000000 8.182393380 3.539729834 15.671052009
    24   1 0.000000 9.463115822 16.282757237 15.671052009
    25   1 0.000000 27.393230012 20.916585384 14.449931073
    26   1 0.000000 26.112507570 8.173557981 14.449931073
    27   1 0.000000 14.586005591 20.916585384 14.449931073
    28   1 0.000000 13.305283148 8.173557981 14.449931073
    29   1 0.000000 27.393230012 24.778108839 15.671052009
    30   1 0.000000 26.112507570 12.035081436 15.671052009
    31   1 0.000000 14.586005591 24.778108839 15.671052009
    32   1 0.000000 13.305283148 12.035081436 15.671052009
    33   1 0.000000 5.620948496 20.530433038 15.671052009
    34   1 0.000000 4.340226054 7.787405635 15.671052009
    35   1 0.000000 18.428172917 20.530433038 15.671052009
    36   1 0.000000 17.147450475 7.787405635 15.671052009
    37   1 0.000000 2.419142391 6.049720080 14.449931073
    38   1 0.000000 3.699864833 18.792747483 14.449931073
    39   1 0.000000 15.226366812 6.049720080 14.449931073
    40   1 0.000000 16.507089254 18.792747483 14.449931073
    41   1 0.000000 6.261309717 1.802044279 14.449931073
    42   1 0.000000 7.542032159 14.545071682 14.449931073
    43   1 0.000000 19.068534138 1.802044279 14.449931073
    44   1 0.000000 20.349256580 14.545071682 14.449931073
    45   1 0.000000 6.261309717 5.663567735 15.671052009
    46   1 0.000000 7.542032159 18.406595138 15.671052009
    47   1 0.000000 19.068534138 5.663567735 15.671052009
    48   1 0.000000 20.349256580 18.406595138 15.671052009
    49   1 0.000000 25.472146348 23.040423284 14.449931073
    50   1 0.000000 24.191423906 10.297395881 14.449931073
    51   1 0.000000 12.664921927 23.040423284 14.449931073
    52   1 0.000000 11.384199485 10.297395881 14.449931073
    53   1 0.000000 22.910701464 1.415891934 15.671052009
    54   1 0.000000 24.191423906 14.158919337 15.671052009
    55   1 0.000000 10.103477043 1.415891934 15.671052009
    56   1 0.000000 11.384199485 14.158919337 15.671052009
    57   1 0.000000 24.191423906 6.435872426 13.228810137
    58   1 0.000000 25.472146348 19.178899829 13.228810137
    59   1 0.000000 11.384199485 6.435872426 13.228810137
    60   1 0.000000 12.664921927 19.178899829 13.228810137
    61   1 0.000000 3.699864833 22.654270939 15.671052009
    62   1 0.000000 2.419142391 9.911243536 15.671052009
    63   1 0.000000 16.507089254 22.654270939 15.671052009
    64   1 0.000000 15.226366812 9.911243536 15.671052009
    65   1 0.000000 2.419142391 2.188196625 13.228810137
    66   1 0.000000 3.699864833 14.931224028 13.228810137
    67   1 0.000000 15.226366812 2.188196625 13.228810137
    68   1 0.000000 16.507089254 14.931224028 13.228810137
    69   1 0.000000 8.822754601 23.426575630 13.228810137
    70   1 0.000000 7.542032159 10.683548227 13.228810137
    71   1 0.000000 21.629979022 23.426575630 13.228810137
    72   1 0.000000 20.349256580 10.683548227 13.228810137
    73   1 0.000000 25.472146348 5.663567735 15.671052009
    74   1 0.000000 26.752868791 18.406595138 15.671052009
    75   1 0.000000 12.664921927 5.663567735 15.671052009
    76   1 0.000000 13.945644370 18.406595138 15.671052009
    77   1 0.000000 3.699864833 1.415891934 15.671052009
    78   1 0.000000 4.980587275 14.158919337 15.671052009
    79   1 0.000000 16.507089254 1.415891934 15.671052009
    80   1 0.000000 17.787811696 14.158919337 15.671052009
    81   1 0.000000 3.699864833 5.277415389 16.892172945
    82   1 0.000000 4.980587275 18.020442792 16.892172945
    83   1 0.000000 16.507089254 5.277415389 16.892172945
    84   1 0.000000 17.787811696 18.020442792 16.892172945
    85   1 0.000000 22.910701464 22.654270939 15.671052009
    86   1 0.000000 21.629979022 9.911243536 15.671052009
    87   1 0.000000 10.103477043 22.654270939 15.671052009
    88   1 0.000000 8.822754601 9.911243536 15.671052009
    89   1 0.000000 21.629979022 2.188196625 13.228810137
    90   1 0.000000 22.910701464 14.931224028 13.228810137
    91   1 0.000000 8.822754601 2.188196625 13.228810137
    92   1 0.000000 10.103477043 14.931224028 13.228810137
    93   1 0.000000 21.629979022 6.049720080 14.449931073
    94   1 0.000000 22.910701464 18.792747483 14.449931073
    95   1 0.000000 8.822754601 6.049720080 14.449931073
    96   1 0.000000 10.103477043 18.792747483 14.449931073
    97   1 0.000000 2.419142391 23.426575630 13.228810137
    98   1 0.000000 1.138419949 10.683548227 13.228810137
    99   1 0.000000 15.226366812 23.426575630 13.228810137
   100   1 0.000000 13.945644370 10.683548227 13.228810137
   101   1 0.000000 25.472146348 1.802044279 14.449931073
   102   1 0.000000 26.752868791 14.545071682 14.449931073
   103   1 0.000000 12.664921927 1.802044279 14.449931073
   104   1 0.000000 13.945644370 14.545071682 14.449931073
   105   1 0.000000 6.261309717 23.040423284 14.449931073
   106   1 0.000000 4.980587275 10.297395881 14.449931073
   107   1 0.000000 19.068534138 23.040423284 14.449931073
   108   1 0.000000 17.787811696 10.297395881 14.449931073
   109   1 0.000000 1.778781170 3.539729834 15.671052009
   110   1 0.000000 3.059503612 16.282757237 15.671052009
   111   1 0.000000 14.586005591 3.539729834 15.671052009
   112   1 0.000000 15.866728033 16.282757237 15.671052009
   113   1 0.000000 8.182393380 24.778108839 15.671052009
   114   1 0.000000 6.901670938 12.035081436 15.671052009
   115   1 0.000000 20.989617801 24.778108839 15.671052009
   116   1 0.000000 19.708895359 12.035081436 15.671052009
   117   1 0.000000 6.901670938 4.312034525 13.228810137
   118   1 0.000000 8.182393380 17.055061928 13.228810137
   119   1 0.000000 19.708895359 4.312034525 13.228810137
   120   1 0.000000 20.989617801 17.055061928 13.228810137
   121   1 0.000000 24.831785127 20.530433038 15.671052009
   122   1 0.000000 23.551062685 7.787405635 15.671052009
   123   1 0.000000 12.024560706 20.530433038 15.671052009
   124   1 0.000000 10.743838264 7.787405635 15.671052009
   125   1 0.000000 23.551062685 0.064358724 13.228810137
   126   1 0.000000 24.831785127 12.807386127 13.228810137
   127   1 0.000000 10.743838264 0.064358724 13.228810137
   128   1 0.000000 12.024560706 12.807386127 13.228810137
   129   1 0.000000 23.551062685 3.925882180 14.449931073
   130   1 0.000000 24.831785127 16.668909583 14.449931073
   131   1 0.000000 10.743838264 3.925882180 14.449931073
   132   1 0.000000 12.024560706 16.668909583 14.449931073
   133   1 0.000000 4.340226054 21.302737729 13.228810137
   134   1 0.000000 3.059503612 8.559710326 13.228810137
   135   1 0.000000 17.147450475 21.302737729 13.228810137
   136   1 0.000000 15.866728033 8.559710326 13.228810137
   137   1 0.000000 4.340226054 25.164261185 14.449931073
   138   1 0.000000 3.059503612 12.421233782 14.449931073
   139   1 0.000000 17.147450475 25.164261185 14.449931073
   140   1 0.000000 15.866728033 12.421233782 14.449931073
   141   1 0.000000 8.182393380 20.916585384 14.449931073
   142   1 0.000000 6.901670938 8.173557981 14.449931073
   143   1 0.000000 20.989617801 20.916585384 14.449931073
   144   1 0.000000 19.708895359 8.173557981 14.449931073
   145   1 0.000000 23.551062685 1.995120452 20.555535752
   146   1 0.000000 24.831785127 14.738147855 20.555535752
   147   1 0.000000 10.743838264 1.995120452 20.555535752
   148   1 0.000000 12.024560706 14.738147855 20.555535752
   149   1 0.000000 5.620948496 24.391956494 16.892172945
   150   1 0.000000 4.340226054 11.648929091 16.892172945
   151   1 0.000000 18.428172917 24.391956494 16.892172945
   152   1 0.000000 17.147450475 11.648929091 16.892172945
   153   1 0.000000 3.059503612 2.767425143 18.113293880
   154   1 0.000000 4.340226054 15.510452546 18.113293880
   155   1 0.000000 15.866728033 2.767425143 18.113293880
   156   1 0.000000 17.147450475 15.510452546 18.113293880
   157   1 0.000000 22.270340243 20.144280693 16.892172945
   158   1 0.000000 20.989617801 7.401253290 16.892172945
   159   1 0.000000 9.463115822 20.144280693 16.892172945
   160   1 0.000000 8.182393380 7.401253290 16.892172945
   161   1 0.000000 22.270340243 24.005804148 18.113293880
   162   1 0.000000 20.989617801 11.262776745 18.113293880
   163   1 0.000000 9.463115822 24.005804148 18.113293880
   164   1 0.000000 8.182393380 11.262776745 18.113293880
   165   1 0.000000 19.708895359 2.381272798 19.334414816
   166   1 0.000000 20.989617801 15.124300201 19.334414816
   167   1 0.000000 6.901670938 2.381272798 19.334414816
   168   1 0.000000 8.182393380 15.124300201 19.334414816
   169   1 0.000000 26.112507570 19.758128347 18.113293880
   170   1 0.000000 24.831785127 7.015100944 18.113293880
   171   1 0.000000 13.305283148 19.758128347 18.113293880
   172   1 0.000000 12.024560706 7.015100944 18.113293880
   173   1 0.000000 26.112507570 23.619651803 19.334414816
   174   1 0.000000 24.831785127 10.876624400 19.334414816
   175   1 0.000000 13.305283148 23.619651803 19.334414816
   176   1 0.000000 12.024560706 10.876624400 19.334414816
   177   1 0.000000 4.340226054 19.371976002 19.334414816
   178   1 0.000000 3.059503612 6.628948599 19.334414816
   179   1 0.000000 17.147450475 19.371976002 19.334414816
   180   1 0.000000 15.866728033 6.628948599 19.334414816
   181   1 0.000000 1.138419949 4.891263044 18.113293880
   182   1 0.000000 2.419142391 17.634290447 18.113293880
   183   1 0.000000 13.945644370 4.891263044 18.113293880
   184   1 0.000000 15.226366812 17.634290447 18.113293880
   185   1 0.000000 4.980587275 0.643587243 18.113293880
   186   1 0.000000 6.261309717 13.386614646 18.113293880
   187   1 0.000000 17.787811696 0.643587243 18.113293880
   188   1 0.000000 19.068534138 13.386614646 18.113293880
   189   1 0.000000 4.980587275 4.505110698 19.334414816
   190   1 0.000000 6.261309717 17.248138101 19.334414816
   191   1 0.000000 17.787811696 4.505110698 19.334414816
   192   1 0.000000 19.068534138 17.248138101 19.334414816
   193   1 0.000000 24.191423906 21.881966248 18.113293880
   194   1 0.000000 22.910701464 9.138938845 18.113293880
   195   1 0.000000 11.384199485 21.881966248 18.113293880
   196   1 0.000000 10.103477043 9.138938845 18.113293880
   197   1 0.000000 21.629979022 0.257434897 19.334414816
   198   1 0.000000 22.910701464 13.000462300 19.334414816
   199   1 0.000000 8.822754601 0.257434897 19.334414816
   200   1 0.000000 10.103477043 13.000462300 19.334414816
   201   1 0.000000 22.910701464 5.277415389 16.892172945
   202   1 0.000000 24.191423906 18.020442792 16.892172945
   203   1 0.000000 10.103477043 5.277415389 16.892172945
   204   1 0.000000 11.384199485 18.020442792 16.892172945
   205   1 0.000000 2.419142391 21.495813902 19.334414816
   206   1 0.000000 1.138419949 8.752786499 19.334414816
   207   1 0.000000 15.226366812 21.495813902 19.334414816
   208   1 0.000000 13.945644370 8.752786499 19.334414816
   209   1 0.000000 1.138419949 1.029739588 16.892172945
   210   1 0.000000 2.419142391 13.772766991 16.892172945
   211   1 0.000000 13.945644370 1.029739588 16.892172945
   212   1 0.000000 15.226366812 13.772766991 16.892172945
   213   1 0.000000 7.542032159 22.268118593 16.892172945
   214   1 0.000000 6.261309717 9.525091190 16.892172945
   215   1 0.000000 20.349256580 22.268118593 16.892172945
   216   1 0.000000 19.068534138 9.525091190 16.892172945
   217   1 0.000000 24.191423906 4.505110698 19.334414816
   218   1 0.000000 25.472146348 17.248138101 19.334414816
   219   1 0.000000 11.384199485 4.505110698 19.334414816
   220   1 0.000000 12.664921927 17.248138101 19.334414816
   221   1 0.000000 2.419142391 0.257434897 19.334414816
   222   1 0.000000 3.699864833 13.000462300 19.334414816
   223   1 0.000000 15.226366812 0.257434897 19.334414816
   224   1 0.000000 16.507089254 13.000462300 19.334414816
   225   1 0.000000 2.419142391 4.118958353 20.555535752
   226   1 0.000000 3.699864833 16.861985756 20.555535752
   227   1 0.000000 15.226366812 4.118958353 20.555535752
   228   1 0.000000 16.507089254 16.861985756 20.555535752
   229   1 0.000000 21.629979022 21.495813902 19.334414816
   230   1 0.000000 20.349256580 8.752786499 19.334414816
   231   1 0.000000 8.822754601 21.495813902 19.334414816
   232   1 0.000000 7.542032159 8.752786499 19.334414816
   233   1 0.000000 20.349256580 1.029739588 16.892172945
   234   1 0.000000 21.629979022 13.772766991 16.892172945
   235   1 0.000000 7.542032159 1.029739588 16.892172945
   236   1 0.000000 8.822754601 13.772766991 16.892172945
   237   1 0.000000 20.349256580 4.891263044 18.113293880
   238   1 0.000000 21.629979022 17.634290447 18.113293880
   239   1 0.000000 7.542032159 4.891263044 18.113293880
   240   1 0.000000 8.822754601 17.634290447 18.113293880
   241   1 0.000000 26.752868791 22.268118593 16.892172945
   242   1 0.000000 25.472146348 9.525091190 16.892172945
   243   1 0.000000 13.945644370 22.268118593 16.892172945
   244   1 0.000000 12.664921927 9.525091190 16.892172945
   245   1 0.000000 24.191423906 0.643587243 18.113293880
   246   1 0.000000 25.472146348 13.386614646 18.113293880
   247   1 0.000000 11.384199485 0.643587243 18.113293880
   248   1 0.000000 12.664921927 13.386614646 18.113293880
   249   1 0.000000 4.980587275 21.881966248 18.113293880
   250   1 0.000000 3.699864833 9.138938845 18.113293880
   251   1 0.000000 17.787811696 21.881966248 18.113293880
   252   1 0.000000 16.507089254 9.138938845 18.113293880
   253   1 0.000000 0.498058727 2.381272798 19.334414816
   254   1 0.000000 1.778781170 15.124300201 19.334414816
   255   1 0.000000 13.305283148 2.381272798 19.334414816
   256   1 0.000000 14.586005591 15.124300201 19.334414816
   257   1 0.000000 6.901670938 23.619651803 19.334414816
   258   1 0.000000 5.620948496 10.876624400 19.334414816
   259   1 0.000000 19.708895359 23.619651803 19.334414816
   260   1 0.000000 18.428172917 10.876624400 19.334414816
   261   1 0.000000 5.620948496 3.153577489 16.892172945
   262   1 0.000000 6.901670938 15.896604892 16.892172945
   263   1 0.000000 18.428172917 3.153577489 16.892172945
   264   1 0.000000 19.708895359 15.896604892 16.892172945
   265   1 0.000000 23.551062685 19.371976002 19.334414816
   266   1 0.000000 22.270340243 6.628948599 19.334414816
   267   1 0.000000 10.743838264 19.371976002 19.334414816
   268   1 0.000000 9.463115822 6.628948599 19.334414816
   269   1 0.000000 24.831785127 24.391956494 16.892172945
   270   1 0.000000 23.551062685 11.648929091 16.892172945
   271   1 0.000000 12.024560706 24.391956494 16.892172945
   272   1 0.000000 10.743838264 11.648929091 16.892172945
   273   1 0.000000 22.270340243 2.767425143 18.113293880
   274   1 0.000000 23.551062685 15.510452546 18.113293880
   275   1 0.000000 9.463115822 2.767425143 18.113293880
   276   1 0.000000 10.743838264 15.510452546 18.113293880
   277   1 0.000000 3.059503612 20.144280693 16.892172945
   278   1 0.000000 1.778781170 7.401253290 16.892172945
   279   1 0.000000 15.866728033 20.144280693 16.892172945
   280   1 0.000000 14.586005591 7.401253290 16.892172945
   281   1 0.000000 3.059503612 24.005804148 18.113293880
   282   1 0.000000 1.778781170 11.262776745 18.113293880
   283   1 0.000000 15.866728033 24.005804148 18.113293880
   284   1 0.000000 14.586005591 11.262776745 18.113293880
   285   1 0.000000 6.901670938 19.758128347 18.113293880
   286   1 0.000000 5.620948496 7.015100944 18.113293880
   287   1 0.000000 19.708895359 19.758128347 18.113293880
   288   1 0.000000 18.428172917 7.015100944 18.113293880
   289   1 0.000000 22.270340243 0.836663415 24.218898559
   290   1 0.000000 23.551062685 13.579690818 24.218898559
   291   1 0.000000 9.463115822 0.836663415 24.218898559
   292   1 0.000000 10.743838264 13.579690818 24.218898559
   293   1 0.000000 4.340226054 23.233499457 20.555535752
   294   1 0.000000 3.059503612 10.490472054 20.555535752
   295   1 0.000000 17.147450475 23.233499457 20.555535752
   296   1 0.000000 15.866728033 10.490472054 20.555535752
   297   1 0.000000 1.778781170 1.608968106 21.776656688
   298   1 0.000000 3.059503612 14.351995510 21.776656688
   299   1 0.000000 14.586005591 1.608968106 21.776656688
   300   1 0.000000 15.866728033 14.351995510 21.776656688
   301   1 0.000000 20.989617801 18.985823656 20.555535752
   302   1 0.000000 19.708895359 6.242796253 20.555535752
   303   1 0.000000 8.182393380 18.985823656 20.555535752
   304   1 0.000000 6.901670938 6.242796253 20.555535752
   305   1 0.000000 20.989617801 22.847347112 21.776656688
   306   1 0.000000 19.708895359 10.104319709 21.776656688
   307   1 0.000000 8.182393380 22.847347112 21.776656688
   308   1 0.000000 6.901670938 10.104319709 21.776656688
   309   1 0.000000 18.428172917 1.222815761 22.997777623
   310   1 0.000000 19.708895359 13.965843164 22.997777623
   311   1 0.000000 5.620948496 1.222815761 22.997777623
   312   1 0.000000 6.901670938 13.965843164 22.997777623
   313   1 0.000000 24.831785127 18.599671311 21.776656688
   314   1 0.000000 23.551062685 5.856643907 21.776656688
   315   1 0.000000 12.024560706 18.599671311 21.776656688
   316   1 0.000000 10.743838264 5.856643907 21.776656688
   317   1 0.000000 24.831785127 22.461194766 22.997777623
   318   1 0.000000 23.551062685 9.718167363 22.997777623
   319   1 0.000000 12.024560706 22.461194766 22.997777623
   320   1 0.000000 10.743838264 9.718167363 22.997777623
   321   1 0.000000 3.059503612 18.213518965 22.997777623
   322   1 0.000000 1.778781170 5.470491562 22.997777623
   323   1 0.000000 15.866728033 18.213518965 22.997777623
   324   1 0.000000 14.586005591 5.470491562 22.997777623
   325   1 0.000000 25.472146348 3.732806007 21.776656688
   326   1 0.000000 26.752868791 16.475833410 21.776656688
   327   1 0.000000 12.664921927 3.732806007 21.776656688
   328   1 0.000000 13.945644370 16.475833410 21.776656688
   329   1 0.000000 6.261309717 24.971185012 21.776656688
   330   1 0.000000 4.980587275 12.228157609 21.776656688
   331   1 0.000000 19.068534138 24.971185012 21.776656688
   332   1 0.000000 17.787811696 12.228157609 21.776656688
   333   1 0.000000 3.699864833 3.346653661 22.997777623
   334   1 0.000000 4.980587275 16.089681065 22.997777623
   335   1 0.000000 16.507089254 3.346653661 22.997777623
   336   1 0.000000 17.787811696 16.089681065 22.997777623
   337   1 0.000000 22.910701464 20.723509211 21.776656688
   338   1 0.000000 21.629979022 7.980481808 21.776656688
   339   1 0.000000 10.103477043 20.723509211 21.776656688
   340   1 0.000000 8.822754601 7.980481808 21.776656688
   341   1 0.000000 22.910701464 24.585032667 22.997777623
   342   1 0.000000 21.629979022 11.842005264 22.997777623
   343   1 0.000000 10.103477043 24.585032667 22.997777623
   344   1 0.000000 8.822754601 11.842005264 22.997777623
   345   1 0.000000 21.629979022 4.118958353 20.555535752
   346   1 0.000000 22.910701464 16.861985756 20.555535752
   347   1 0.000000 8.822754601 4.118958353 20.555535752
   348   1 0.000000 10.103477043 16.861985756 20.555535752
   349   1 0.000000 26.752868791 20.337356866 22.997777623
   350   1 0.000000 25.472146348 7.594329462 22.997777623
   351   1 0.000000 13.945644370 20.337356866 22.997777623
   352   1 0.000000 12.664921927 7.594329462 22.997777623
   353   1 0.000000 28.033591233 25.357337358 20.555535752
   354   1 0.000000 26.752868791 12.614309955 20.555535752
   355   1 0.000000 15.226366812 25.357337358 20.555535752
   356   1 0.000000 13.945644370 12.614309955 20.555535752
   357   1 0.000000 6.261309717 21.109661557 20.555535752
   358   1 0.000000 4.980587275 8.366634154 20.555535752
   359   1 0.000000 19.068534138 21.109661557 20.555535752
   360   1 0.000000 17.787811696 8.366634154 20.555535752
   361   1 0.000000 22.910701464 3.346653661 22.997777623
   362   1 0.000000 24.191423906 16.089681065 22.997777623
   363   1 0.000000 10.103477043 3.346653661 22.997777623
   364   1 0.000000 11.384199485 16.089681065 22.997777623
   365   1 0.000000 3.699864833 24.585032667 22.997777623
   366   1 0.000000 2.419142391 11.842005264 22.997777623
   367   1 0.000000 16.507089254 24.585032667 22.997777623
   368   1 0.000000 15.226366812 11.842005264 22.997777623
   369   1 0.000000 1.138419949 2.960501316 24.218898559
   370   1 0.000000 2.419142391 15.703528719 24.218898559
   371   1 0.000000 13.945644370 2.960501316 24.218898559
   372   1 0.000000 15.226366812 15.703528719 24.218898559
   373   1 0.000000 20.349256580 20.337356866 22.997777623
   374   1 0.000000 19.068534138 7.594329462 22.997777623
   375   1 0.000000 7.542032159 20.337356866 22.997777623
   376   1 0.000000 6.261309717 7.594329462 22.997777623
   377   1 0.000000 21.629979022 25.357337358 20.555535752
   378   1 0.000000 20.349256580 12.614309955 20.555535752
   379   1 0.000000 8.822754601 25.357337358 20.555535752
   380   1 0.000000 7.542032159 12.614309955 20.555535752
   381   1 0.000000 19.068534138 3.732806007 21.776656688
   382   1 0.000000 20.349256580 16.475833410 21.776656688
   383   1 0.000000 6.261309717 3.732806007 21.776656688
   384   1 0.000000 7.542032159 16.475833410 21.776656688
   385   1 0.000000 25.472146348 21.109661557 20.555535752
   386   1 0.000000 24.191423906 8.366634154 20.555535752
   387   1 0.000000 12.664921927 21.109661557 20.555535752
   388   1 0.000000 11.384199485 8.366634154 20.555535752
   389   1 0.000000 25.472146348 24.971185012 21.776656688
   390   1 0.000000 24.191423906 12.228157609 21.776656688
   391   1 0.000000 12.664921927 24.971185012 21.776656688
   392   1 0.000000 11.384199485 12.228157609 21.776656688
   393   1 0.000000 3.699864833 20.723509211 21.776656688
   394   1 0.000000 2.419142391 7.980481808 21.776656688
   395   1 0.000000 16.507089254 20.723509211 21.776656688
   396   1 0.000000 15.226366812 7.980481808 21.776656688
   397   1 0.000000 24.831785127 1.222815761 22.997777623
   398   1 0.000000 26.112507570 13.965843164 22.997777623
   399   1 0.000000 12.024560706 1.222815761 22.997777623
   400   1 0.000000 13.305283148 13.965843164 22.997777623
   401   1 0.000000 5.620948496 22.461194766 22.997777623
   402   1 0.000000 4.340226054 9.718167363 22.997777623
   403   1 0.000000 18.428172917 22.461194766 22.997777623
   404   1 0.000000 17.147450475 9.718167363 22.997777623
   405   1 0.000000 4.340226054 1.995120452 20.555535752
   406   1 0.000000 5.620948496 14.738147855 20.555535752
   407   1 0.000000 17.147450475 1.995120452 20.555535752
   408   1 0.000000 18.428172917 14.738147855 20.555535752
   409   1 0.000000 22.270340243 18.213518965 22.997777623
   410   1 0.000000 20.989617801 5.470491562 22.997777623
   411   1 0.000000 9.463115822 18.213518965 22.997777623
   412   1 0.000000 8.182393380 5.470491562 22.997777623
   413   1 0.000000 23.551062685 23.233499457 20.555535752
   414   1 0.000000 22.270340243 10.490472054 20.555535752
   415   1 0.000000 10.743838264 23.233499457 20.555535752
   416   1 0.000000 9.463115822 10.490472054 20.555535752
   417   1 0.000000 20.989617801 1.608968106 21.776656688
   418   1 0.000000 22.270340243 14.351995510 21.776656688
   419   1 0.000000 8.182393380 1.608968106 21.776656688
   420   1 0.000000 9.463115822 14.351995510 21.776656688
   421   1 0.000000 27.393230012 18.985823656 20.555535752
   422   1 0.000000 26.112507570 6.242796253 20.555535752
   423   1 0.000000 14.586005591 18.985823656 20.555535752
   424   1 0.000000 13.305283148 6.242796253 20.555535752
   425   1 0.000000 27.393230012 22.847347112 21.776656688
   426   1 0.000000 26.112507570 10.104319709 21.776656688
   427   1 0.000000 14.586005591 22.847347112 21.776656688
   428   1 0.000000 13.305283148 10.104319709 21.776656688
   429   1 0.000000 5.620948496 18.599671311 21.776656688
   430   1 0.000000 4.340226054 5.856643907 21.776656688
   431   1 0.000000 18.428172917 18.599671311 21.776656688
   432   1 0.000000 17.147450475 5.856643907 21.776656688
   433   1 0.000000 23.551062685 25.164261185 27.882261366
   434   1 0.000000 22.270340243 12.421233782 27.882261366
   435   1 0.000000 10.743838264 25.164261185 27.882261366
   436   1 0.000000 9.463115822 12.421233782 27.882261366
   437   1 0.000000 3.059503612 22.075042421 24.218898559
   438   1 0.000000 1.778781170 9.332015017 24.218898559
   439   1 0.000000 15.866728033 22.075042421 24.218898559
   440   1 0.000000 14.586005591 9.332015017 24.218898559
   441   1 0.000000 0.498058727 0.450511070 25.440019495
   442   1 0.000000 1.778781170 13.193538473 25.440019495
   443   1 0.000000 13.305283148 0.450511070 25.440019495
   444   1 0.000000 14.586005591 13.193538473 25.440019495
   445   1 0.000000 19.708895359 17.827366620 24.218898559
   446   1 0.000000 18.428172917 5.084339216 24.218898559
   447   1 0.000000 6.901670938 17.827366620 24.218898559
   448   1 0.000000 5.620948496 5.084339216 24.218898559
   449   1 0.000000 19.708895359 21.688890075 25.440019495
   450   1 0.000000 18.428172917 8.945862672 25.440019495
   451   1 0.000000 6.901670938 21.688890075 25.440019495
   452   1 0.000000 5.620948496 8.945862672 25.440019495
   453   1 0.000000 17.147450475 0.064358724 26.661140431
   454   1 0.000000 18.428172917 12.807386127 26.661140431
   455   1 0.000000 4.340226054 0.064358724 26.661140431
   456   1 0.000000 5.620948496 12.807386127 26.661140431
   457   1 0.000000 23.551062685 17.441214274 25.440019495
   458   1 0.000000 22.270340243 4.698186871 25.440019495
   459   1 0.000000 10.743838264 17.441214274 25.440019495
   460   1 0.000000 9.463115822 4.698186871 25.440019495
   461   1 0.000000 23.551062685 21.302737729 26.661140431
   462   1 0.000000 22.270340243 8.559710326 26.661140431
   463   1 0.000000 10.743838264 21.302737729 26.661140431
   464   1 0.000000 9.463115822 8.559710326 26.661140431
   465   1 0.000000 1.778781170 17.055061928 26.661140431
   466   1 0.000000 0.498058727 4.312034525 26.661140431
   467   1 0.000000 14.586005591 17.055061928 26.661140431
   468   1 0.000000 13.305283148 4.312034525 26.661140431
   469   1 0.000000 24.191423906 2.574348970 25.440019495
   470   1 0.000000 25.472146348 15.317376373 25.440019495
   471   1 0.000000 11.384199485 2.574348970 25.440019495
   472   1 0.000000 12.664921927 15.317376373 25.440019495
   473   1 0.000000 4.980587275 23.812727976 25.440019495
   474   1 0.000000 3.699864833 11.069700572 25.440019495
   475   1 0.000000 17.787811696 23.812727976 25.440019495
   476   1 0.000000 16.507089254 11.069700572 25.440019495
   477   1 0.000000 2.419142391 2.188196625 26.661140431
   478   1 0.000000 3.699864833 14.931224028 26.661140431
   479   1 0.000000 15.226366812 2.188196625 26.661140431
   480   1 0.000000 16.507089254 14.931224028 26.661140431
   481   1 0.000000 21.629979022 19.565052174 25.440019495
   482   1 0.000000 20.349256580 6.822024771 25.440019495
   483   1 0.000000 8.822754601 19.565052174 25.440019495
   484   1 0.000000 7.542032159 6.822024771 25.440019495
   485   1 0.000000 21.629979022 23.426575630 26.661140431
   486   1 0.000000 20.349256580 10.683548227 26.661140431
   487   1 0.000000 8.822754601 23.426575630 26.661140431
   488   1 0.000000 7.542032159 10.683548227 26.661140431
   489   1 0.000000 20.349256580 2.960501316 24.218898559
   490   1 0.000000 21.629979022 15.703528719 24.218898559
   491   1 0.000000 7.542032159 2.960501316 24.218898559
   492   1 0.000000 8.822754601 15.703528719 24.218898559
   493   1 0.000000 25.472146348 19.178899829 26.661140431
   494   1 0.000000 24.191423906 6.435872426 26.661140431
   495   1 0.000000 12.664921927 19.178899829 26.661140431
   496   1 0.000000 11.384199485 6.435872426 26.661140431
   497   1 0.000000 26.752868791 24.198880321 24.218898559
   498   1 0.000000 25.472146348 11.455852918 24.218898559
   499   1 0.000000 13.945644370 24.198880321 24.218898559
   500   1 0.000000 12.664921927 11.455852918 24.218898559
   501   1 0.000000 4.980587275 19.951204520 24.218898559
   502   1 0.000000 3.699864833 7.208177117 24.218898559
   503   1 0.000000 17.787811696 19.951204520 24.218898559
   504   1 0.000000 16.507089254 7.208177117 24.218898559
   505   1 0.000000 21.629979022 2.188196625 26.661140431
   506   1 0.000000 22.910701464 14.931224028 26.661140431
   507   1 0.000000 8.822754601 2.188196625 26.661140431
   508   1 0.000000 10.103477043 14.931224028 26.661140431
   509   1 0.000000 2.419142391 23.426575630 26.661140431
   510   1 0.000000 1.138419949 10.683548227 26.661140431
   511   1 0.000000 15.226366812 23.426575630 26.661140431