LAMMPS (13 Jan 2016)
include /users/knc6/inelast.mod
# Compute elastic constant tensor for a crystal
#
# Written by Aidan Thompson (Sandia, athomps@sandia.gov)
#
#  This script uses the following three include files.
#
#   init.mod      (must be modified for different crystal structures)
# 	       	  Define units, deformation parameters and initial
#		  configuration of the atoms and simulation cell.
#
#
#   potential.mod    (must be modified for different pair styles)
# 		     Define pair style and other attributes
#		     not stored in restart file
#
#
#   displace.mod    (displace.mod should not need to be modified)
# 		    Perform positive and negative box displacements
# 		    in direction ${dir} and size ${up}.
# 		    It uses the resultant changes
#		    in stress to compute one
# 		    row of the elastic stiffness tensor
#
#		    Inputs variables:
#		    	   dir = the Voigt deformation component
#		    		    (1,2,3,4,5,6)
#		    Global constants:
#       	    	   up = the deformation magnitude (strain units)
#       		   cfac = conversion from LAMMPS pressure units to
#               	   output units for elastic constants
#
#
#  To run this on a different system, it should only be necessary to
#  modify the files init.mod and potential.mod. In order to calculate
#  the elastic constants correctly, care must be taken to specify
#  the correct units in init.mod (units, cfac and cunits). It is also
#  important to verify that the minimization of energy w.r.t atom
#  positions in the deformed cell is fully converged.
#  One indication of this is that the elastic constants are insensitive
#  to the choice of the variable ${up} in init.mod. Another is to check
#  the final max and two-norm forces reported in the log file. If you know
#  that minimization is not required, you can set maxiter = 0.0 in
#  init.mod.
#
#  There are two alternate versions of displace.mod provided.
#  They are displace_restart.mod and displace_reverse.mod.
#  The former resets the box using a restart file while
#  the latter reverses the deformation. Copy whichever
#  one you like best to displace.mod.
#

include init.mod
variable dump_file string "None"
variable up  equal 1.0e-6
variable cfac  equal 1.0e-4
variable cunits  string GPa
variable etol  equal 0
variable ftol  equal 1.0e-10
variable maxiter equal 1000
variable maxeval equal 10000
variable dmax equal 1.0e-2
variable data_file string "data"
units metal
atom_style charge
boundary p p p
atom_modify sort 0 0.0

read_data data
  triclinic box = (0 0 0) to (25.6144 25.4861 47.6237) with tilt (2.56144 0 0)
  1 by 1 by 1 MPI processor grid
  reading atoms ...
  864 atoms

### interactions
mass 1 26.98154
include potential.mod
pair_style eam/alloy
pair_coeff * * /users/knc6/Software/jarvis/jarvis/lammps/examples/Al03.eam.alloy  Al
neighbor 1.0 nsq
neigh_modify once no every 1 delay 0 check yes
min_style  cg
min_modify           dmax ${dmax} line quadratic
min_modify           dmax 0.01 line quadratic
thermo          1
thermo_style custom step temp press cpu pxx pyy pzz pxy pxz pyz ke pe etotal vol lx ly lz atoms
thermo_modify norm no
#fix 3 all nph aniso 0.0 0.0 1.0
#fix langevin all langevin 0.0 0.0 1.0 12233

#fix 3 all box/relax tri 0.0 vmax 0.001
fix            3 all box/relax aniso 0.0 vmax 0.001
#fix 3 all box/relax  aniso 0.0
#dump            2a all cfg 100 *.cfg mass type xs ys zs  vx vy vz fx fy fz
#dump_modify     2a element  Mo S

#fix 1a all qeq/comb 1 0.0001 file fq.out
#fix             2 all qeq/reax 1 0.0 10.0 1e-6 /scratch/lfs/kamal/JARVIS/All2/ReaxFF/param.qeq
minimize ${etol} ${ftol} ${maxiter} ${maxeval}
minimize 0 ${ftol} ${maxiter} ${maxeval}
minimize 0 1e-10 ${maxiter} ${maxeval}
minimize 0 1e-10 1000 ${maxeval}
minimize 0 1e-10 1000 10000
Neighbor list info ...
  1 neighbor list requests
  update every 1 steps, delay 0 steps, check yes
  max neighbors/atom: 2000, page size: 100000
  master list distance cutoff = 7.72488
  ghost atom cutoff = 7.72488
Memory usage per processor = 3.37354 Mbytes
Step Temp Press CPU Pxx Pyy Pzz Pxy Pxz Pyz KinEng PotEng TotEng Volume Lx Ly Lz Atoms 
       0            0   -11821.366            0   -12791.966   -12526.667   -10145.466   -782.81073   -104.42408   -95.379515            0   -2826.8812   -2826.8812    31089.298    25.614449    25.486055    47.623716      864 
       1            0   -10903.271 0.0030751228   -11840.326   -11576.133   -9293.3548   -798.36031   -101.28767   -92.280948            0   -2827.4984   -2827.4984    31003.186    25.588834    25.461097    47.585946      864 
       2            0    -9975.657 0.0061540604   -10877.398   -10614.892   -8434.6815    -813.9191   -98.294734   -89.278093            0   -2828.0629   -2828.0629    30917.541     25.56322     25.43618    47.548574      864 
       3            0   -9038.9333 0.0092430115    -9903.435   -9643.2823   -7570.0827   -829.48509   -95.474227   -86.390742            0   -2828.5745   -2828.5745    30832.408    25.537605    25.411311    47.511661      864 
       4            0   -8093.6933  0.012336016   -8918.8394   -8661.8065   -6700.4339   -845.06463   -92.860162    -83.64474            0   -2829.0331   -2829.0331    30747.843    25.511991    25.386496    47.475281      864 
       5            0   -7140.9674  0.015419006   -7924.3858    -7671.383   -5827.1333   -860.65371    -90.49592   -81.067052            0   -2829.4385   -2829.4385     30663.92    25.486377    25.361746    47.439535      864 
       6            0   -6182.0543  0.018505096   -6921.0441   -6673.1527   -4951.9661   -876.24904   -88.439177   -78.702729            0   -2829.7907   -2829.7907     30580.74    25.460762    25.337077    47.404555      864 
       7            0   -5218.6086  0.021597147   -5910.0205   -5668.5763   -4077.2288   -891.87496   -86.760125    -76.59444            0   -2830.0899   -2830.0899    30498.443    25.435148    25.312508    47.370528      864 
       8            0   -4253.2343  0.024688005   -4893.2626   -4659.9695   -3206.4709    -907.5642   -85.560374    -74.80815            0   -2830.3364   -2830.3364    30417.236    25.409533    25.288067    47.337729      864 
       9            0   -3290.1657   0.02778101   -3873.9885   -3651.0922   -2345.4164   -923.29017   -84.997523   -73.465331            0   -2830.5308   -2830.5308    30337.443    25.383919    25.263802    47.306585      864 
      10            0    -2336.393   0.03088522   -2857.4995   -2648.1805   -1503.4991   -939.15552   -85.315946   -72.720102            0   -2830.6741   -2830.6741    30259.613    25.358304    25.239789     47.27782      864 
      11            0   -1405.4222   0.04257822   -1854.0465   -1663.2788   -698.94117   -955.25957   -86.994296   -72.897521            0   -2830.7685   -2830.7685    30184.807     25.33269    25.216178    47.252831      864 
      12            0   -528.94958  0.045691013   -887.73489   -724.69141     25.57757   -971.90207   -91.088342   -74.699512            0   -2830.8179   -2830.8179    30115.548    25.307075    25.193324    47.234936      864 
      13            0    177.42116   0.04880619    -46.64283     64.32904    514.57727   -990.14178   -101.38293   -80.657291            0   -2830.8333   -2830.8333    30061.104    25.281461     25.17253    47.236303      864 
      14            0    32.160713  0.051925182   -30.929023   0.37072401    127.04044   -1002.0339   -119.82369   -92.551745            0    -2830.842    -2830.842    30074.586    25.270881    25.168987    47.283927      864 
      15            0   -231.93166  0.055050135   -157.38667   -198.19963   -340.20868   -1010.7767   -135.96659   -102.80967            0   -2830.8503   -2830.8503    30097.489    25.264605    25.169062     47.33155      864 
      16            0    409.24774  0.061272144    589.41448    507.94617    130.38258   -1024.9679   -143.35966   -106.58789            0   -2830.8611   -2830.8611    30048.479    25.243133    25.151181    47.328296      864 
      17            0    1041.7265  0.064418077    1383.5178    1233.8926    507.76903   -1040.1527   -154.91683   -112.37459            0   -2830.9061   -2830.9061    30002.759    25.217518    25.131419    47.341482      864 
      18            0    -65.36177  0.067572117    243.79828    91.039502   -530.92309   -1022.7439    -154.0603   -112.29444            0   -2831.0109   -2831.0109    30091.456    25.241926    25.156035    47.389106      864 
      19            0   -15.631167   0.07071805    114.03425    50.719094   -211.64684   -1006.8116   -133.83402   -99.776198            0    -2831.028    -2831.028    30085.336    25.255996    25.162195    47.341482      864 
      20            0    38.048705  0.073852062   -10.858901    13.472767    111.53225   -991.54498   -113.67514   -87.038453            0   -2831.0362   -2831.0362    30078.978     25.26991    25.168344    47.293859      864 
      21            0   -705.93336  0.076989174    -710.1918   -721.32846   -686.27983   -986.29602   -121.63385   -92.487804            0   -2831.0557   -2831.0557    30139.538    25.281071    25.182524    47.341482      864 
      22            0   -531.62841  0.080132008   -329.65212   -440.04532   -825.18777   -1000.0471   -139.04149   -102.12995            0   -2831.1549   -2831.1549    30130.766    25.260365    25.170511    47.389106      864 
      23            0     107.7133  0.086374044    266.52352    189.36898   -132.75259   -1001.9823   -130.72039   -96.367559            0   -2831.1656   -2831.1656    30079.387    25.251367    25.158578    47.347604      864 
      24            0    21.577394  0.089513063   -25.901815   -1.7340382    92.368034   -983.05536   -108.37863   -82.586526            0   -2831.1741   -2831.1741    30083.741    25.270371    25.168611     47.29998      864 
      25            0    -491.8824  0.092658043   -449.65584   -481.53684   -544.45452   -984.16274   -119.97066   -89.933867            0   -2831.1961   -2831.1961     30126.39    25.273106    25.176216    47.347604      864 
      26            0    255.50929  0.095803022    427.47961    342.86077   -3.8125016   -999.90939   -128.19635    -93.73631            0   -2831.2383   -2831.2383    30069.727    25.247492    25.155239    47.345946      864 
      27            0   -332.18537  0.098947048   -323.55136   -331.57401   -341.43075   -971.44063    -107.9319   -80.886463            0   -2831.3817   -2831.3817    30117.977    25.273106    25.173841    47.338848      864 
      28            0    460.03782   0.10209012    418.08831    450.24871    511.77644    -970.5657   -94.793838   -71.281752            0   -2831.4446   -2831.4446    30056.327    25.261746    25.158919    47.291225      864 
      29            0    1009.9315   0.10523319    860.59334    955.46847    1213.7327   -958.72903   -73.485838   -55.983157            0   -2831.5532   -2831.5532    30015.393    25.260092    25.151628    47.243601      864 
      30            0    394.10269   0.10837221    90.192163    248.32603    843.78988   -927.20273    -50.33114   -39.670234            0   -2831.7723   -2831.7723    30067.597    25.285707    25.171167    47.241129      864 
      31            0   -129.84361   0.11151099   -341.46981   -238.65346    190.59243   -929.42217   -63.958474   -48.896491            0   -2831.7826   -2831.7826    30110.192    25.288458      25.1787    47.288753      864 
      32            0     129.7951   0.11466408    155.11731    144.79856     89.46943   -951.52039   -88.379846   -63.950207            0   -2831.7904   -2831.7904    30092.646    25.263363    25.163682    47.336377      864 
      33            0   -168.91201   0.12092805   -74.216041   -124.77014   -307.74985   -954.42222   -97.676072   -69.991979            0    -2831.793    -2831.793    30117.373    25.263454    25.167304    47.368285      864 
      34            0   -50.572776    0.1240921    248.42102    98.057195   -498.19654   -970.99732   -117.94862    -81.93497            0   -2831.8206   -2831.8206    30111.752    25.244043    25.156663    47.415909      864 
      35            0    90.436087    0.1272552    225.55771    160.74227   -114.99172   -957.03493   -98.397332   -69.727447            0   -2831.8425   -2831.8425    30098.748    25.255057    25.160103    47.368285      864 
      36            0   -217.57674   0.13351202   -199.80866   -212.37831   -240.54325   -943.94068   -87.131415   -63.002641            0   -2831.8466   -2831.8466    30121.765    25.271021    25.171408    47.353286      864 
      37            0    28.014133   0.13666105    -96.87993   -34.985364    215.90769     -933.885    -69.50612   -51.558472            0   -2831.8523   -2831.8523    30100.613    25.278154    25.171951    47.305662      864 
      38            0    327.55236   0.13981605    438.33971    387.79159    156.52577   -954.09862   -92.087015   -64.945474            0   -2831.8876   -2831.8876    30080.987    25.252539    25.156253    47.352299      864 
      39            0    -474.3863   0.14608502    -364.1983    -428.6036     -630.357   -945.44007   -96.007095   -68.083186            0   -2831.9034   -2831.9034    30145.288    25.268471    25.173336    47.391418      864 
      40            0   -1295.7537   0.15235901   -1224.4735   -1282.1621   -1380.6255   -930.92842   -94.407482    -67.61871            0   -2831.9206   -2831.9206    30212.401     25.28828    25.192422    47.423765      864 
      41            0   -1205.4559   0.15551805   -1283.7015   -1252.0382    -1080.628   -898.43812   -63.136939   -45.570889            0    -2832.234    -2832.234    30212.662    25.300006    25.195625    47.396167      864 
      42            0    -129.5551   0.15868115   -159.72175    -135.1438    -93.79975   -912.72947   -61.319567   -43.035746            0   -2832.2706   -2832.2706    30127.011    25.274392     25.17079    47.356379      864 
      43            0    115.33786   0.16496015    106.36189    119.16329    120.48841   -916.77512   -61.831876   -42.698355            0    -2832.272    -2832.272    30107.825    25.267747    25.165201     47.34918      864 
      44            0    61.635713   0.16813016     308.7242    65.033385   -188.85044   -936.72585   -84.481866   -47.942608            0   -2832.3069   -2832.3069    30115.637    25.247235    25.166868    47.396803      864 
      45            0   -252.46139   0.17129707   -234.03005   -258.82773   -264.52639   -912.40244   -64.167519   -42.897786            0   -2832.3219   -2832.3219    30138.907     25.27285    25.173446     47.37297      864 
      46            0    169.51582   0.17445207    14.325452     178.5702    315.65181   -899.96467    -44.88246   -36.388945            0   -2832.3332   -2832.3332    30104.278    25.279254     25.16345    47.325346      864 
      47            0    257.84212   0.17761207   -156.91322    259.91447    670.52511   -875.57573    -18.03728   -26.671089            0   -2832.3593   -2832.3593    30096.216    25.299623    25.161776    47.277722      864 
      48            0   -404.07022   0.18076015   -710.64302   -431.07082   -70.496829   -877.04023   -30.660758   -30.513486            0   -2832.3889   -2832.3889    30150.439    25.303802    25.177585    47.325346      864 
      49            0   -172.33894   0.18392015   -232.26887   -189.56808   -95.179881   -899.70348   -51.087183   -35.321625            0   -2832.4195   -2832.4195    30134.836    25.278187    25.172706    47.357961      864 
      50            0    89.708128   0.19020414    59.812502    86.266802    123.04508   -904.67341    -52.44904   -35.476429            0   -2832.4212   -2832.4212    30114.372    25.270448    25.166427    47.352109      864 
      51            0     21.58114   0.19338012    209.93215     57.02945   -202.21818   -922.24244   -74.179681   -44.356637            0    -2832.433    -2832.433    30122.577    25.253388     25.16498    47.399733      864 
      52            0   -270.67129   0.19654822    -315.8993   -283.25895   -212.85561   -897.70355   -51.658134   -35.365763            0   -2832.4526   -2832.4526    30143.967    25.279002    25.174335    47.367719      864 
      53            0    306.04143   0.19970417     150.7727    290.46708    476.88453   -892.52086   -36.263642   -27.574548            0   -2832.4652   -2832.4652    30097.563    25.276906    25.162964    47.320095      864 
      54            0    689.57125   0.20285511      378.088    651.14918    1039.4766   -880.53828   -16.061883   -17.069462            0    -2832.485    -2832.485     30066.91     25.28256    25.157034    47.272471      864 
      55            0   -80.599289   0.20601606   -510.18927   -174.25929    442.65068   -859.51814   -6.1355902   -12.003949            0   -2832.5451   -2832.5451    30128.342    25.308175    25.176688    47.284175      864 
      56            0   -32.734794   0.20918202   -219.31512   -76.199323    197.31006   -879.62722   -29.475957   -22.094709            0   -2832.5713   -2832.5713    30127.447    25.286612    25.172055    47.331798      864 
      57            0    163.05372   0.21547222     209.9508    176.65715    102.55322    -901.3961   -51.925387   -31.840752            0   -2832.5756   -2832.5756    30114.487     25.26298    25.163889    47.371063      864 
      58            0   -110.15307     0.221771   -0.6219407   -90.260523   -239.57676   -904.22685   -59.905007   -35.784546            0   -2832.5775   -2832.5775     30136.96    25.263075    25.168887    47.396822      864 
      59            0   -98.814821   0.22495222   -23.536068    34.909248   -307.81764   -881.00066   -46.329646   -32.797135            0   -2832.8471   -2832.8471    30146.169    25.266782    25.159374    47.422272      864 
      60            0     238.6841   0.23124814    256.36535    258.75419    200.93277   -880.01665    -34.10002   -18.637583            0   -2832.8514   -2832.8514    30117.864    25.264877    25.162162     47.37607      864 
      61            0     38.73358   0.23754907   -44.747634   -112.86124    273.80962   -870.96996   -19.403893   -1.8412573            0   -2832.8554   -2832.8554    30131.616    25.277215    25.180326    47.340391      864 
      62            0   -411.07128   0.24072814   -453.65368   -460.55826   -319.00191   -868.14044   -29.866451   -14.748553            0   -2832.8649   -2832.8649    30169.179    25.282857     25.18076    47.388015      864 
      63            0   -0.1121799   0.24390101    73.693725    159.99634    -234.0266   -878.82236   -44.432986   -32.761492            0    -2832.884    -2832.884    30139.849    25.265121    25.155274    47.423177      864 
      64            0     190.8745   0.24708009    204.60186    184.15541    183.86624   -876.14528   -30.539048   -14.309288            0   -2832.8995   -2832.8995     30123.11     25.26629    25.165412    47.375553      864 
      65            0   -248.46206   0.25339007   -278.63669   -319.77997   -146.96953   -868.42722   -27.011636   -10.283946            0   -2832.9045   -2832.9045    30157.421    25.278664    25.179453    47.379863      864 
      66            0   -677.61595   0.25968719   -780.90309   -845.83402   -406.11073   -857.69475   -18.897904   -2.1034808            0     -2832.91     -2832.91    30191.027    25.293418    25.196087    47.373695      864 
      67            0   -495.21296   0.26286817   -702.86109   -798.12224    15.344436   -848.85011 -0.023255542    16.165405            0   -2832.9536   -2832.9536     30176.08    25.298687    25.203706    47.326071      864 
      68            0    181.07886   0.26916718    60.294908   -2.3451638    485.28683   -861.42085   -7.3206802    8.3594147            0   -2832.9666   -2832.9666    30123.827    25.277927     25.18028    47.326908      864 
      69            0    54.956386   0.27235007    29.285826     19.95565    115.62768   -866.41518   -22.758639   -8.2980332            0   -2832.9739   -2832.9739    30136.022    25.272553    25.170502    47.374532      864 
      70            0   -207.98773   0.27864814   -210.04482   -206.83314   -207.08523   -865.37661   -28.170634     -13.9187            0    -2832.976    -2832.976    30157.649    25.275812     25.17271    47.398261      864 
      71            0   -25.840314   0.28182912    113.33742     164.3473   -355.20566   -876.57468   -46.197465   -32.502937            0   -2832.9871   -2832.9871    30146.677    25.260487    25.153544    47.445884      864 
      72            0    234.30696   0.28501511    291.78514    300.13762    110.99812   -871.67764   -31.071977   -16.607136            0   -2833.0079   -2833.0079    30124.698    25.262215    25.158739    47.398261      864 
      73            0   -238.61454   0.29131413   -251.33278   -259.42403   -205.08682   -861.61078   -24.504269   -10.135552            0   -2833.0141   -2833.0141    30161.238    25.277443    25.175208    47.396139      864 
      74            0   -526.54237    0.2976191   -666.61216   -705.50306   -207.51188   -848.45114   -8.0419476    5.8957244            0   -2833.0197   -2833.0197    30182.392     25.29392    25.194069    47.362999      864 
      75            0   -156.79887   0.30079508   -374.23863   -434.04247     337.8845   -845.56615    6.8994363     20.37261            0   -2833.0359   -2833.0359    30151.955    25.293058    25.194854    47.315376      864 
      76            0     294.2788   0.30709505    230.73215     212.8972    439.20703   -860.50119   -11.435875     2.142128            0   -2833.0464   -2833.0464    30119.051    25.271256    25.169722    47.351751      864 
      77            0   -4.4878744   0.31027818    13.566177    23.298473   -50.328274   -863.36111   -25.448851    -11.92939            0   -2833.0514   -2833.0514    30144.579    25.270382    25.166616    47.399375      864 
      78            0   -367.92391   0.31346011   -462.84868   -558.85707   -82.065977   -850.08716   -7.5267853    9.5225317            0   -2833.0796   -2833.0796    30172.067    25.287083    25.192102    47.363296      864 
      79            0    652.68158   0.31976509    577.45084    474.31666    906.27724   -859.19255   0.10294292    17.191422            0   -2833.1055   -2833.1055    30092.398    25.265312    25.170879    47.318804      864 
      80            0    1538.6997   0.32295108    1511.5594    1461.0611    1643.4785   -864.26111    3.4213218    17.494261            0   -2833.1431   -2833.1431    30027.206    25.244378    25.145393    47.303341      864 
      81            0     1031.213   0.32613301    1020.2828    1042.5114    1030.8448   -852.81122  -0.09121161    9.7497702            0   -2833.2666   -2833.2666    30071.429    25.253415    25.148096    47.350965      864 
      82            0   -9.4118174   0.33244801   -48.445093   -32.047657    52.257298   -840.98607   -4.3077452    5.8503231            0   -2833.2931   -2833.2931    30153.385    25.276233    25.171276    47.393469      864 
      83            0   -9.6079388   0.33563519    127.60276    68.111572   -224.53815   -854.83633   -24.398163    -7.503371            0   -2833.2993   -2833.2993    30156.296    25.261398    25.163204    47.441092      864 
      84            0     34.90499   0.33881903    -6.364847    15.076155    96.003662   -837.96514    -1.405057    8.0585212            0   -2833.3357   -2833.3357    30151.557    25.275732    25.170248    47.393469      864 
      85            0   -436.27357   0.34200811   -380.58609   -420.85971    -507.3749   -840.65698   -14.855602  -0.54764042            0    -2833.345    -2833.345      30191.1    25.276893    25.176803    47.441092      864 
      86            0    -575.3068   0.34520721   -362.94171   -489.36935   -873.60933    -850.9786   -32.083234   -10.836225            0   -2833.3602   -2833.3602    30205.454    25.266422     25.17394    47.488716      864 
      87            0    362.28122   0.35154104    623.56545    492.65451   -29.376298   -861.81389    -30.26256   -8.4308575            0   -2833.3821   -2833.3821    30132.017    25.244056    25.151937    47.456711      864 
      88            0    638.85049   0.35473299    754.84382    710.48557    451.22209   -849.92672   -10.312204    4.1360477            0   -2833.4081   -2833.4081    30109.219    25.251003    25.151232    47.409087      864 
      89            0   -152.17339   0.35792422   -155.31036   -153.29249   -147.91733   -832.22699     -1.75735    8.5654318            0   -2833.4289   -2833.4289    30170.854    25.276618    25.172635    47.417643      864 
      90            0   -224.72278    0.3611052   -430.17937    -332.8453    88.856343    -813.1015    22.610339    24.637362            0   -2833.4509   -2833.4509    30175.001    25.295337    25.182757     47.37002      864 
      91            0    540.67691     0.367419    404.05842    479.61326    738.35905   -824.41014     21.70369    25.341542            0   -2833.4656   -2833.4656    30115.824      25.2744    25.163876    47.351787      864 
      92            0    1077.1052   0.37061214    1122.7207    1113.5292    995.06558   -840.84091    7.1063094    17.472862            0    -2833.486    -2833.486    30077.608    25.248785    25.145718     47.37386      864 
      93            0    622.38216   0.37380505    765.12434    696.38267    405.63947   -842.53085   -5.6013323    9.4424744            0   -2833.5316   -2833.5316    30115.993    25.249628    25.151684    47.421484      864 
      94            0   -36.706366   0.38013005    47.714636   -2.2899211   -155.54381   -831.82857   -3.6599065    9.6967322            0   -2833.5426   -2833.5426     30167.58    25.267434    25.167791    47.438859      864 
      95            0    10.669656    0.3864491   -82.582744   -26.814365    141.40608    -817.1961     16.73126     21.65781            0   -2833.5465   -2833.5465     30161.64    25.281573    25.172574    47.393986      864 
      96            0    52.249979    0.3896451     26.25958   -49.838451    180.32881   -807.46517    26.449557    37.262965            0   -2833.7598   -2833.7598    30167.793    25.275995     25.17788    47.404124      864 
      97            0   -182.58249   0.39597607   -185.96815   -164.84337   -196.93596   -805.40351     17.90366    24.068194            0    -2833.763    -2833.763    30188.018    25.278866    25.172445    47.440756      864 
      98            0    5.7890654   0.40229702    45.744478    168.55828   -196.93556   -808.80993    10.058788    11.329565            0   -2833.7662   -2833.7662    30174.889    25.271643    25.156619    47.463518      864 
      99            0    404.10315   0.40549517    438.90283    408.23987    365.16676   -812.62005    20.941878    29.963188            0   -2833.7815   -2833.7815    30142.384    25.264159    25.162211    47.415894      864 
     100            0   -206.95362   0.40869212   -226.02599   -362.98541   -31.849471   -803.14481    28.154647    41.960386            0   -2833.7977   -2833.7977     30189.94    25.280672    25.187697    47.411663      864 
     101            0   -457.80134   0.41188502   -633.84931   -843.58032    104.02563   -782.51388    56.591965    70.534046            0    -2833.879    -2833.879    30211.287    25.299365    25.212208    47.364039      864 
     102            0     326.7214   0.41508317    197.20472    59.256908    723.70256   -789.40748    56.819976    67.227542            0   -2833.9246   -2833.9246     30151.68    25.280145    25.186722    47.354397      864 
     103            0     204.7584   0.41828513    140.68813    107.94487    365.64221   -789.45499    44.071827    49.966245            0   -2833.9546   -2833.9546      30164.5    25.277315    25.174934    47.402021      864 
     104            0   -80.497958   0.42462611   -130.83714   -151.03506    40.378321   -787.51818    39.279317    44.876535            0   -2833.9568   -2833.9568      30187.7    25.281814    25.178365    47.423573      864 
     105            0    6.4293879   0.43096209    46.038062    67.334798   -94.084696   -794.26035    26.357392    31.132721            0   -2833.9596   -2833.9596    30182.925    25.272584    25.165737    47.457189      864 
     106            0    86.150835   0.43417311    261.09723   -12.503008    9.8582882   -792.91258    32.409309    53.027084            0   -2834.1464   -2834.1464    30185.804    25.260426     25.17853    47.460434      864 
     107            0   -265.33409   0.44052505   -276.58589   -276.02106   -243.39532   -771.69896    44.590826    47.792458            0   -2834.1523   -2834.1523    30213.271     25.28338    25.177674    47.462107      864 
     108            0    -310.1062   0.44686508   -590.23831   -162.98742   -177.09287   -744.57743    64.558249    41.178612            0    -2834.158    -2834.158    30216.226    25.307611    25.164706    47.445738      864 
     109            0     156.3145   0.45322013   -149.15747    348.19071    269.91024   -745.63978    69.760054    41.841637            0   -2834.1639   -2834.1639     30179.26     25.30055    25.151812    47.425219      864 
     110            0     203.1859   0.45642209      184.669    220.77592    204.11276   -773.13191    49.784438    50.508428            0   -2834.1746   -2834.1746     30177.02    25.274936    25.166153    47.442705      864 
     111            0   -47.252993   0.46276903   -60.766837    -47.52679   -33.465351   -771.46339    47.828592    49.972893            0   -2834.1761   -2834.1761    30196.977    25.279422     25.17258    47.453537      864 
     112            0   -226.28489   0.46599007    96.069855   -349.24987   -425.67467   -799.09001    19.319431    51.199315            0   -2834.1898   -2834.1898    30214.693    25.254218    25.187208    47.501161      864 
     113            0    575.38518   0.47236109    873.87657     514.2803    337.99866   -801.41647    27.589789    54.080117            0   -2834.2065   -2834.2065    30152.038    25.240936    25.166262    47.467078      864 
     114            0    1044.3386   0.47555399    1037.7396    1132.3757    962.90048   -772.18364    59.902414    56.143581            0   -2834.2468   -2834.2468    30116.085    25.258204    25.144296    47.419455      864 
     115            0    380.90474   0.47874999    227.82036     482.7057    432.18815   -751.26269    69.323994    54.954937            0   -2834.2907   -2834.2907    30168.624    25.283819    25.155803    47.432352      864 
     116            0   -38.876062   0.48509502   -161.29506    19.938765    24.728104   -750.66909    64.257806    54.555915            0   -2834.2948   -2834.2948    30202.098    25.289447     25.16767    47.452027      864 
     117            0    2.7747479   0.49146414    86.527391    -42.47506   -35.728088   -770.48402    48.589697    58.511297            0   -2834.2953   -2834.2953    30199.853     25.27087    25.176044    47.467586      864 
     118            0    87.620184   0.49466515    138.32867    322.97795   -198.44607   -751.71327    51.293459    42.294563            0   -2834.4331   -2834.4331      30203.3    25.273348    25.151215     47.51521      864 
     119            0   -277.59109   0.49787116   -283.43686   -260.06222    -289.2742   -745.45198    62.875171    61.778261            0   -2834.4452   -2834.4452    30230.515    25.285215    25.176701    47.487585      864 
     120            0   -52.388785   0.50108719   -87.679939   -216.68862    147.20221   -746.81428    75.801805    81.947691            0   -2834.4535   -2834.4535    30210.918    25.283162    25.187683    47.439961      864 
     121            0    292.11326   0.50744605    290.91946    260.35589    325.06443   -750.56981    70.576913    71.917714            0   -2834.4581   -2834.4581    30185.149    25.273659     25.16978    47.451047      864 
     122            0    199.26252    0.5106492    232.12682    378.66003    -12.99928   -748.97847    58.471575    50.847139            0   -2834.4651   -2834.4651    30195.393    25.272859    25.153873     47.49867      864 
     123            0   -122.63249   0.51701307   -107.63046   -3.5486751   -256.71834   -745.26827    59.772454    54.361025            0   -2834.4677   -2834.4677    30220.506    25.280648    25.165196    47.502145      864 
     124            0   -40.639231   0.52337599   -47.785385   -128.40065    54.268339   -746.81263    71.112297    75.041789            0   -2834.4702   -2834.4702    30211.827    25.280721    25.181081    47.458409      864 
     125            0    183.01193     0.529742    180.67914    134.44678    233.90988   -748.55547    71.249741     73.31489            0   -2834.4717   -2834.4717    30194.423    25.275972     25.17339    47.454474      864 
     126            0    85.085024   0.53294206    68.810664    292.30302   -105.85861    -741.6865    62.303401    49.666912            0   -2834.4825   -2834.4825     30205.28    25.279459    25.153725    47.502097      864 
     127            0   -304.34812   0.53930306   -315.81619   -225.74297    -371.4852   -739.96817    63.689495    58.509907            0   -2834.4864   -2834.4864    30235.637    25.286611     25.17222    47.501463      864 
     128            0   -281.56314   0.54251909   -246.11898   -506.48462   -92.085828   -747.65299    72.101518    85.858713            0   -2834.4936   -2834.4936    30231.955    25.281871    25.197706    47.456533      864 
     129            0    130.67702   0.54889607    172.64463   -51.457199    270.84363   -751.26974     73.70406    85.504744            0   -2834.4981   -2834.4981    30199.428    25.273279    25.185937    47.443749      864 
     130            0    127.18696   0.55209517    94.462649    245.86621    41.232023   -739.81499     69.33767    60.076581            0   -2834.5057   -2834.5057    30202.136    25.280114    25.160451    47.483225      864 
     131            0   -102.99091   0.55844808   -138.91652    1.6522951    -171.7085   -737.54746    68.171042    59.584685            0    -2834.507    -2834.507     30220.51    25.284912     25.16612    47.492396      864 
     132            0   -125.67581   0.56482911   -106.47534   -164.80402   -105.74808   -743.91879    68.492086    71.295815            0     -2834.51     -2834.51    30221.678    25.280497    25.178863    47.478485      864 
     133            0    67.904861   0.57118917     90.46155    37.640671     75.61236   -745.80353     69.63545    72.089555            0   -2834.5109   -2834.5109    30206.289    25.276422    25.174324    47.470518      864 
     134            0    329.10153   0.57439804    176.16643    537.53518    273.60298    -728.0672    80.649195    57.960017            0   -2834.5207   -2834.5207    30186.715    25.286665    25.148838    47.468595      864 
     135            0   -299.72178   0.57761216   -602.08755    39.277264   -336.35506   -705.47409    85.239548    45.711623            0   -2834.5352   -2834.5352    30238.073     25.31228     25.14978    47.499459      864 
     136            0   -969.40478   0.58082414   -1169.0078   -736.07029   -1003.1363   -695.23015    84.384415    56.216347            0   -2834.6689   -2834.6689    30301.806    25.317952    25.172715    47.545551      864 
     137            0   -139.25678   0.58402514   -230.60688     42.21866   -229.38212   -709.55635    86.655038    67.457171            0   -2834.7285   -2834.7285    30237.428    25.292337    25.161338    47.514062      864 
     138            0    96.238093   0.59039712    54.161897    205.48929    29.063095   -717.05829    86.985476    74.875162            0   -2834.7297   -2834.7297    30218.276    25.283392    25.162967     47.49769      864 
     139            0   -8.5503639   0.59678507    17.563096   -59.916674    16.702486   -724.38305    85.785555    86.967647            0   -2834.7301   -2834.7301     30225.84    25.279436    25.178745     47.48724      864 
     140            0    163.39041   0.59999204    -5.882813     59.14974     436.9043   -704.17322    113.41437    103.13417            0   -2834.7848   -2834.7848    30213.422    25.293302    25.179855    47.439616      864 
     141            0   -279.26823   0.60320711   -366.32032   -328.47005   -143.01431   -705.13834    99.279822    91.903198            0   -2834.7965   -2834.7965    30251.014    25.295135    25.184075     47.48724      864 
     142            0   -186.77793   0.60642314   -97.750464   -116.49567   -346.08765   -718.28172    78.641612    76.879338            0   -2834.8095   -2834.8095    30247.406    25.278408    25.172489    47.534864      864 
     143            0    98.512707   0.61280608    170.73828    156.56059   -31.760742   -719.43323    83.621013    81.150116            0   -2834.8117   -2834.8117    30224.194    25.274267    25.167943    47.514747      864 
     144            0    65.609741    0.6191752    16.330155      24.5753    155.92377   -709.88445    99.715234    94.073692            0   -2834.8142   -2834.8142    30224.753    25.285247    25.176781    47.478322      864 
     145            0   -110.97372   0.62555313     -158.825   -151.18786   -22.908279   -708.26674    97.869314    92.387169            0    -2834.815    -2834.815    30239.036    25.288608    25.180178    47.488038      864 
     146            0   -70.831471   0.62877107    32.804605    20.264369   -265.56339   -719.26171      78.1564     76.10526            0   -2834.8199   -2834.8199    30239.107    25.275004     25.16855    47.535662      864 
     147            0    341.16293     0.635149    427.48444     415.9665    180.03785   -720.98226    84.948123    82.223169            0   -2834.8243   -2834.8243    30206.085    25.268496    25.161931    47.508474      864 
     148            0    359.44381   0.63836503    302.03883    301.29865    474.99393   -709.14097    106.29504    100.43076            0   -2834.8404   -2834.8404    30202.954    25.280448    25.172662     47.46085      864 
     149            0   -68.270785   0.64474607   -131.89415   -131.53932    58.621111   -704.56984      102.997    97.239886            0   -2834.8449   -2834.8449    30237.249    25.289393     25.18146    47.481341      864 
     150            0   -97.846209   0.65112019   -49.443721   -46.845287   -197.24962   -712.02728    86.942815    82.875698            0   -2834.8475   -2834.8475    30242.082     25.28049    25.172545    47.522478      864 
     151            0    93.613209   0.65750408    154.64656    156.09586   -29.902799   -714.57075    87.130834    83.193816            0   -2834.8485   -2834.8485    30226.991    25.275682    25.167869    47.516626      864 
     152            0    123.54687   0.66072106    56.951042    45.006444    268.68311   -705.18366    106.65105    101.22168            0   -2834.8555   -2834.8555    30222.425    25.285969    25.179065    47.469002      864 
     153            0   -186.03362   0.66709399    -255.3821   -262.21757   -40.501179   -701.73833    103.94452    98.375341            0   -2834.8579   -2834.8579    30247.505    25.292332    25.184949    47.485346      864 
     154            0   -370.23439   0.67031622   -346.18097   -326.78576   -437.73643   -705.38212     88.52074     83.08932            0   -2834.8654   -2834.8654    30265.178    25.288131    25.178598     47.53297      864 
     155            0     141.5833   0.67669606    230.67428     256.9162   -62.840582   -714.02666    84.424114    79.264704            0   -2834.8726   -2834.8726    30225.719    25.272647    25.162672    47.530147      864 
     156            0    635.07591   0.67991114    686.49072    650.41691    568.32011   -713.59444     99.31627    96.184849            0   -2834.8937   -2834.8937    30186.838    25.266453    25.161675    47.482523      864 
     157            0   -56.634475   0.68313503    -103.8604   -182.64002    116.59699   -698.08172     110.4725    108.00775            0   -2834.9298   -2834.9298    30241.857    25.288563    25.187161    47.479384      864 
     158            0    12.640956   0.68635011    17.827527    117.13688    -97.04154   -696.95351    98.192713    86.799435            0   -2834.9564   -2834.9564     30240.93      25.2832    25.166488    47.527008      864 
     159            0   -298.99965     0.689574   -201.62687   -415.43777   -279.93431   -698.62632    99.945615    105.96172            0   -2835.0146   -2835.0146    30269.423    25.281823    25.191974    47.526249      864 
     160            0    472.27945   0.69281006    639.31231    204.18342    573.34263   -704.50466    114.41773    131.51788            0   -2835.0904   -2835.0904    30213.166    25.261652    25.190475    47.478625      864 
     161            0    877.38368   0.69603801    1054.1808    471.33433    1106.6359   -697.93525     134.9707    157.74232            0   -2835.1815   -2835.1815    30189.122    25.254283    25.195193    47.445796      864 
     162            0    378.88826    0.6992712    485.00242   -83.950117    735.61249   -675.13363    151.59304    170.46366            0    -2835.294    -2835.294    30237.317    25.271344    25.210744    47.460166      864 
     163            0   -195.65434   0.70251417   -155.73689   -492.47511    61.248985   -661.18173    144.87095    151.06633            0   -2835.3054   -2835.3054    30284.569    25.288403    25.207814     47.50779      864 
     164            0   -14.547679   0.70574522   -16.632765   -55.620139    28.609867   -654.96844    139.96724    129.92533            0   -2835.3126   -2835.3126    30272.118    25.288732    25.182328    47.535699      864 
     165            0    70.309991   0.71213603    72.212007    85.836612    52.881353   -655.10101    138.02021    125.19937            0   -2835.3132   -2835.3132    30265.937    25.286788    25.175864    47.541849      864 
     166            0   -34.240481   0.71852922   -35.597009    38.121636   -105.24607   -652.86273    134.78793    118.79228            0    -2835.314    -2835.314    30275.011    25.289176    25.173057    47.556914      864 
     167            0    45.221765     0.721766    334.19009    74.393378   -272.91817   -668.32347    112.00455    117.61912            0   -2835.3931   -2835.3931    30279.379     25.26395    25.176616    47.604538      864 
     168            0   -168.09437   0.72499609   -126.53535    -172.7366   -205.01117   -644.16796    137.56031    127.47438            0   -2835.4095   -2835.4095    30294.556    25.289564    25.183392    47.567358      864 
     169            0    146.68847    0.7313931    112.89778    149.03418    178.13347   -640.08062    148.70709    132.72787            0   -2835.4129   -2835.4129    30268.652    25.289972     25.17659    47.538757      864 
     170            0    276.93382     0.737782    158.22548    277.60534    394.97063   -633.63402    159.23158    137.32229            0   -2835.4143   -2835.4143    30257.591      25.2948    25.174115    47.516986      864 
     171            0   -94.510128   0.74418211   -406.00337   -127.46936    249.94234   -613.10629    176.99174    143.96211            0   -2835.4209   -2835.4209     30286.26    25.318944    25.184021    47.497962      864 
     172            0   -332.09268   0.74740911   -456.84885   -378.69553   -160.73368   -620.92859     158.6335     138.5093            0   -2835.4661   -2835.4661    30311.785    25.308212    25.190677    47.545586      864 
     173            0    178.77926   0.75381899    138.01016    166.56001    231.76762    -631.6182    154.46835    137.81761            0   -2835.4729   -2835.4729    30272.124    25.291021    25.177973    47.539628      864 
     174            0     384.4223   0.76023602    523.30023    423.64817     206.3185   -646.78732    136.23481    129.14983            0   -2835.4761   -2835.4761    30258.902    25.271754    25.169994    47.570165      864 
     175            0   -23.947168   0.76347518    234.48555    34.759565   -341.08661   -652.01832    118.88717    119.42709            0   -2835.4834   -2835.4834    30294.386    25.269525    25.176529    47.617789      864 
     176            0   -230.41106   0.76671314   -221.20027   -223.87239   -246.16051   -628.61173    145.37523    131.17955            0   -2835.4944   -2835.4944    30308.422    25.295139    25.184703    47.576163      864 
     177            0    67.960752   0.77311611    28.101826    72.079771    103.70066   -626.96919    154.06857    136.32589            0   -2835.4972   -2835.4972    30283.854    25.293573    25.179054    47.551208      864 
     178            0    283.50174   0.77951813    149.61379    210.71708    490.17435    -621.3498    170.33839    149.85046            0   -2835.5002   -2835.5002    30265.493    25.297546    25.181383    47.510519      864 
     179            0   -178.07253    0.7859242    -449.0607   -402.71826    317.56138   -605.90873    187.45381    165.60462            0   -2835.5091   -2835.5091    30301.782    25.318719    25.203427    47.486135      864 
     180            0   -200.38309   0.78917003    -328.0006   -465.79426    192.64558   -606.61242    180.42914    169.00131            0   -2835.5859   -2835.5859    30313.898     25.30831    25.208774    47.514581      864 
     181            0    195.38874    0.7955842    136.14591    64.071935    385.94838   -613.51467    171.68985    157.77252            0   -2835.5918   -2835.5918     30283.99    25.294748    25.189631    47.529248      864 
     182            0    -1.761107   0.80200219   -4.7122812    4.4922628   -5.0633027   -613.93696    157.09686    140.05815            0   -2835.5954   -2835.5954    30302.026    25.293847    25.181792    47.574053      864 
     183            0    53.230381   0.80843902    186.35293    -20.29271   -6.3690788   -626.78173    147.10198    143.69031            0   -2835.5975   -2835.5975    30298.708     25.28104     25.18781    47.581571      864 
     184            0   -281.98812    0.8148582   -256.93646   -317.76549    -271.2624   -613.26404    152.96087    140.21299            0   -2835.6014   -2835.6014    30325.683    25.297046    25.191021    47.587731      864 
     185            0   -448.34584   0.81809402   -676.02407   -349.72672   -319.28674   -586.22273    171.34782    134.21378            0   -2835.6083   -2835.6083    30339.303    25.322661    25.182529    47.576985      864 
     186            0    162.36159   0.82452512   -184.10994      373.277     297.9177   -578.18741    185.91871    133.96058            0   -2835.6197   -2835.6197    30291.003    25.321223    25.161144    47.544314      864 
     187            0    346.06248   0.82775021    257.21336    410.95089    370.02319   -601.80865    168.55123    141.52462            0   -2835.6384   -2835.6384    30279.649    25.295609    25.170734    47.556492      864 
     188            0   -117.62863   0.83417106   -152.25868   -116.42721    -84.19999   -602.89729    160.36735     140.8541            0   -2835.6435   -2835.6435    30317.423    25.299988    25.185267    47.580106      864 
     189            0   -263.89986   0.84061718   -108.52298   -364.64355   -318.53304   -618.62988    143.37076    142.51327            0   -2835.6448   -2835.6448    30331.048    25.286413    25.197231    47.604432      864 
     190            0    88.254851   0.84705901    383.78068   -50.451247   -68.564887    -633.4431    134.36633    145.14635            0   -2835.6481   -2835.6481    30304.395    25.267604    25.193911    47.604274      864 
     191            0    316.00594   0.85029602    271.23076    399.99222    276.79484   -599.75219    163.55872    138.12919            0   -2835.6704   -2835.6704    30287.309    25.293219    25.170352     47.57374      864 
     192            0   -153.51763   0.85671306   -279.09219   -70.189245   -111.27144   -587.87156    166.60063    136.02401            0   -2835.6765   -2835.6765     30325.11    25.309521    25.179439    47.585255      864 
     193            0   -631.68003   0.86313605   -747.06722   -691.35127    -456.6216   -583.89359       167.03    144.84311            0    -2835.683    -2835.683    30365.299    25.318419    25.201402    47.590063      864 
     194            0   -309.06665   0.86638713   -245.93351   -720.96613    39.699681   -598.87361    171.08769    177.89661            0   -2835.7285   -2835.7285      30345.8    25.297817    25.226888    47.550146      864 
     195            0    180.34741   0.87283802    232.49385   -58.689777    367.23816   -599.38375    170.00953    167.01775            0   -2835.7367   -2835.7367    30307.773    25.289385     25.20235    47.552649      864 
     196            0   0.57394427   0.87926602    -10.22364    6.1016147    5.8438583   -587.93057     162.8019    142.92102            0   -2835.7421   -2835.7421    30324.325    25.298513    25.184789    47.594617      864 
     197            0   0.57394427    1.0005131    -10.22364    6.1016147    5.8438583   -587.93057     162.8019    142.92102            0   -2835.7421   -2835.7421    30324.325    25.298513    25.184789    47.594617      864 
Loop time of 1.00053 on 1 procs for 197 steps with 864 atoms

99.9% CPU use with 1 MPI tasks x no OpenMP threads

Minimization stats:
  Stopping criterion = linesearch alpha is zero
  Energy initial, next-to-last, final = 
        -2826.88119351     -2835.74212064     -2835.74212064
  Force two-norm initial, final = 399.361 0.613615
  Force max component initial, final = 248.221 0.195919
  Final line search alpha, max atom move = 2.08298e-08 4.08095e-09
  Iterations, force evaluations = 197 311

MPI task timing breakdown:
Section |  min time  |  avg time  |  max time  |%varavg| %total
---------------------------------------------------------------
Pair    | 0.95969    | 0.95969    | 0.95969    |   0.0 | 95.92
Neigh   | 0.008522   | 0.008522   | 0.008522   |   0.0 |  0.85
Comm    | 0.0033591  | 0.0033591  | 0.0033591  |   0.0 |  0.34
Output  | 0.0060463  | 0.0060463  | 0.0060463  |   0.0 |  0.60
Modify  | 0          | 0          | 0          |   0.0 |  0.00
Other   |            | 0.02291    |            |       |  2.29

Nlocal:    864 ave 864 max 864 min
Histogram: 1 0 0 0 0 0 0 0 0 0
Nghost:    1378 ave 1378 max 1378 min
Histogram: 1 0 0 0 0 0 0 0 0 0
Neighs:    49736 ave 49736 max 49736 min
Histogram: 1 0 0 0 0 0 0 0 0 0

Total # of neighbors = 49736
Ave neighs/atom = 57.5648
Neighbor list builds = 1
Dangerous builds = 0
#minimize ${etol} ${ftol} ${maxiter} ${maxeval}
#minimize ${etol} ${ftol} ${maxiter} ${maxeval}

variable tmp equal pxx
variable pxx0 equal ${tmp}
variable pxx0 equal -10.2236401824064
variable tmp equal pyy
variable pyy0 equal ${tmp}
variable pyy0 equal 6.10161472781206
variable tmp equal pzz
variable pzz0 equal ${tmp}
variable pzz0 equal 5.84385827249204
variable tmp equal pyz
variable pyz0 equal ${tmp}
variable pyz0 equal 142.921015316272
variable tmp equal pxz
variable pxz0 equal ${tmp}
variable pxz0 equal 162.801904548086
variable tmp equal pxy
variable pxy0 equal ${tmp}
variable pxy0 equal -587.930570572108

variable tmp equal lx
variable lx0 equal ${tmp}
variable lx0 equal 25.2985126503298
variable tmp equal ly
variable ly0 equal ${tmp}
variable ly0 equal 25.1847893778307
variable tmp equal lz
variable lz0 equal ${tmp}
variable lz0 equal 47.5946170345485

# These formulas define the derivatives w.r.t. strain components
# Constants uses $, variables use v_
variable d1 equal -(v_pxx1-${pxx0})/(v_delta/v_len0)*${cfac}
variable d1 equal -(v_pxx1--10.2236401824064)/(v_delta/v_len0)*${cfac}
variable d1 equal -(v_pxx1--10.2236401824064)/(v_delta/v_len0)*0.0001
variable d2 equal -(v_pyy1-${pyy0})/(v_delta/v_len0)*${cfac}
variable d2 equal -(v_pyy1-6.10161472781206)/(v_delta/v_len0)*${cfac}
variable d2 equal -(v_pyy1-6.10161472781206)/(v_delta/v_len0)*0.0001
variable d3 equal -(v_pzz1-${pzz0})/(v_delta/v_len0)*${cfac}
variable d3 equal -(v_pzz1-5.84385827249204)/(v_delta/v_len0)*${cfac}
variable d3 equal -(v_pzz1-5.84385827249204)/(v_delta/v_len0)*0.0001
variable d4 equal -(v_pyz1-${pyz0})/(v_delta/v_len0)*${cfac}
variable d4 equal -(v_pyz1-142.921015316272)/(v_delta/v_len0)*${cfac}
variable d4 equal -(v_pyz1-142.921015316272)/(v_delta/v_len0)*0.0001
variable d5 equal -(v_pxz1-${pxz0})/(v_delta/v_len0)*${cfac}
variable d5 equal -(v_pxz1-162.801904548086)/(v_delta/v_len0)*${cfac}
variable d5 equal -(v_pxz1-162.801904548086)/(v_delta/v_len0)*0.0001
variable d6 equal -(v_pxy1-${pxy0})/(v_delta/v_len0)*${cfac}
variable d6 equal -(v_pxy1--587.930570572108)/(v_delta/v_len0)*${cfac}
variable d6 equal -(v_pxy1--587.930570572108)/(v_delta/v_len0)*0.0001

# Write restart
unfix 3
minimize ${etol} ${ftol} ${maxiter} ${maxeval}
minimize 0 ${ftol} ${maxiter} ${maxeval}
minimize 0 1e-10 ${maxiter} ${maxeval}
minimize 0 1e-10 1000 ${maxeval}
minimize 0 1e-10 1000 10000
Memory usage per processor = 3.37354 Mbytes
Step Temp Press CPU Pxx Pyy Pzz Pxy Pxz Pyz KinEng PotEng TotEng Volume Lx Ly Lz Atoms 
     197            0   0.57394427            0    -10.22364    6.1016147    5.8438583   -587.93057     162.8019    142.92102            0   -2835.7421   -2835.7421    30324.325    25.298513    25.184789    47.594617      864 
     198            0    101.44751 0.0031850338    87.470456    98.886982     117.9851   -581.30763    159.17272    139.64925            0   -2835.7853   -2835.7853    30324.325    25.298513    25.184789    47.594617      864 
     199            0    191.30026 0.0063800812    176.77721    183.52736    213.59621   -575.12161    151.54573    132.72201            0   -2835.8194   -2835.8194    30324.325    25.298513    25.184789    47.594617      864 
     200            0    267.22736 0.0095698833    256.55465    258.58673    286.54069   -570.49298    135.96342    119.19438            0    -2835.846    -2835.846    30324.325    25.298513    25.184789    47.594617      864 
     201            0    319.56343   0.01276803    317.89273    316.02359    324.77398    -566.2719    111.06179    96.927387            0   -2835.8662   -2835.8662    30324.325    25.298513    25.184789    47.594617      864 
     202            0    310.24504  0.015973091    329.61656    323.56272    277.55584   -570.83499    68.211746    63.288156            0   -2835.8746   -2835.8746    30324.325    25.298513    25.184789    47.594617      864 
     203            0    303.38458  0.019179106    331.68261    326.38734    252.08379   -565.38217    47.819996    42.008999            0    -2835.883    -2835.883    30324.325    25.298513    25.184789    47.594617      864 
     204            0    281.90397  0.025537014    322.40395    315.89607    207.41188   -565.95111    25.382098    24.333854            0   -2835.8847   -2835.8847    30324.325    25.298513    25.184789    47.594617      864 
     205            0    255.70946  0.031903982    306.40593    299.60038    161.12207   -566.60896    8.5603977    9.9103075            0   -2835.8854   -2835.8854    30324.325    25.298513    25.184789    47.594617      864 
     206            0    250.40631  0.038271904    299.92082     293.9611    157.33701   -565.80723    12.047942    12.217259            0   -2835.8857   -2835.8857    30324.325    25.298513    25.184789    47.594617      864 
     207            0    205.03292  0.044631004    258.42259    253.61497     103.0612   -567.06754    16.915937    17.847723            0   -2835.8864   -2835.8864    30324.325    25.298513    25.184789    47.594617      864 
     208            0    194.54603  0.050995111    250.02766    245.01301     88.59744    -566.7275    17.511175    18.240911            0   -2835.8865   -2835.8865    30324.325    25.298513    25.184789    47.594617      864 
     209            0    172.14063  0.057353973    233.26874    228.03229    55.120876   -565.66793    18.014948    18.816264            0   -2835.8867   -2835.8867    30324.325    25.298513    25.184789    47.594617      864 
     210            0     160.8705  0.063718081    224.96831    219.71488    37.928321   -566.19142    17.828885    19.053118            0   -2835.8868   -2835.8868    30324.325    25.298513    25.184789    47.594617      864 
     211            0    155.74786  0.070080996    220.69129    215.65487    30.897413   -566.49855    17.242974    18.357099            0   -2835.8869   -2835.8869    30324.325    25.298513    25.184789    47.594617      864 
     212            0    140.32999  0.076445103    208.14014    204.05378    8.7960346   -567.02088    14.006256    14.922823            0   -2835.8869   -2835.8869    30324.325    25.298513    25.184789    47.594617      864 
     213            0    135.83278  0.082807064    204.64575    200.67918    2.1734047   -567.18105    12.441084    13.474645            0   -2835.8869   -2835.8869    30324.325    25.298513    25.184789    47.594617      864 
     214            0    134.28429   0.08916688    203.64909    199.72404  -0.52028007   -567.23013    11.224565    12.054394            0    -2835.887    -2835.887    30324.325    25.298513    25.184789    47.594617      864 
     215            0    134.19846  0.095527887     203.9073     199.8545   -1.1664288     -567.123    10.367177    11.127507            0    -2835.887    -2835.887    30324.325    25.298513    25.184789    47.594617      864 
     216            0    134.46791   0.10189295    204.38954    200.34077   -1.3265834   -567.20199    9.6481708    10.304556            0    -2835.887    -2835.887    30324.325    25.298513    25.184789    47.594617      864 
     217            0    134.44986    0.1082561    204.49347    200.48613    -1.630022   -567.22577    8.9250097     9.599669            0    -2835.887    -2835.887    30324.325    25.298513    25.184789    47.594617      864 
     218            0    133.87123   0.11462402    204.17849    200.18326   -2.7480638   -567.22947    7.8640349     8.510646            0    -2835.887    -2835.887    30324.325    25.298513    25.184789    47.594617      864 
     219            0    133.01821   0.12098002    203.61428    199.61305   -4.1726976   -567.28318    6.6735043    7.3188788            0    -2835.887    -2835.887    30324.325    25.298513    25.184789    47.594617      864 
     220            0    132.78332   0.12734389    203.45608    199.48585   -4.5919768    -567.3033    5.4692984    6.0589518            0    -2835.887    -2835.887    30324.325    25.298513    25.184789    47.594617      864 
     221            0    133.70696   0.13369989     204.2524    200.33307   -3.4645825   -567.36076    3.9707133    4.3886176            0    -2835.887    -2835.887    30324.325    25.298513    25.184789    47.594617      864 
     222            0    134.70142   0.14007592    205.04902    201.15619   -2.1009556   -567.41141    2.6415012    2.9125776            0    -2835.887    -2835.887    30324.325    25.298513    25.184789    47.594617      864 
     223            0      135.238   0.14644098    205.45186    201.66884   -1.4066926   -567.44991    1.5633826    1.7381007            0    -2835.887    -2835.887    30324.325    25.298513    25.184789    47.594617      864 
     224            0    135.33853   0.15279794    205.52745    201.77406   -1.2859296   -567.47726    1.0554865    1.1847495            0    -2835.887    -2835.887    30324.325    25.298513    25.184789    47.594617      864 
     225            0    135.47834   0.15916395    205.65685    201.88072   -1.1025618   -567.50133   0.72435597   0.78721488            0    -2835.887    -2835.887    30324.325    25.298513    25.184789    47.594617      864 
     226            0    135.59317     0.165519    205.78101    201.97607  -0.97755994    -567.5434   0.44796914   0.49885818            0    -2835.887    -2835.887    30324.325    25.298513    25.184789    47.594617      864 
     227            0    135.63837   0.17188406    205.83396    202.02285  -0.94170303   -567.56465   0.24235405   0.30812629            0    -2835.887    -2835.887    30324.325    25.298513    25.184789    47.594617      864 
     228            0    135.73967   0.17824602    205.91828    202.10842  -0.80767419   -567.58387   0.10920056    0.1811176            0    -2835.887    -2835.887    30324.325    25.298513    25.184789    47.594617      864 
     229            0    135.90673   0.18460608    206.05633    202.24267  -0.57880947   -567.60209  0.035916966   0.11534262            0    -2835.887    -2835.887    30324.325    25.298513    25.184789    47.594617      864 
     230            0    136.07059   0.19096589    206.19145    202.37839  -0.35807785   -567.60678 0.0060433707  0.083858187            0    -2835.887    -2835.887    30324.325    25.298513    25.184789    47.594617      864 
     231            0    136.17235   0.19732809    206.27359    202.45925  -0.21579289   -567.60021 0.0029304159  0.080305144            0    -2835.887    -2835.887    30324.325    25.298513    25.184789    47.594617      864 
     232            0     136.2186    0.2036891    206.31669    202.49919  -0.16008577   -567.59236 -0.0076736992  0.067613715            0    -2835.887    -2835.887    30324.325    25.298513    25.184789    47.594617      864 
     233            0     136.2393   0.21005487    206.33785    202.52218  -0.14213708   -567.58576 -0.024069228  0.047536077            0    -2835.887    -2835.887    30324.325    25.298513    25.184789    47.594617      864 
     234            0    136.25878   0.21641207    206.35121    202.53921  -0.11407203   -567.58387 -0.036379176  0.036442873            0    -2835.887    -2835.887    30324.325    25.298513    25.184789    47.594617      864 
     235            0    136.27432   0.22277808    206.36137    202.55378 -0.092183663   -567.58592 -0.044916011  0.026354505            0    -2835.887    -2835.887    30324.325    25.298513    25.184789    47.594617      864 
     236            0    136.28786   0.22913504    206.36938    202.56331 -0.069102565   -567.58596  -0.04193063  0.025726751            0    -2835.887    -2835.887    30324.325    25.298513    25.184789    47.594617      864 
     237            0    136.30218    0.2355001     206.3798    202.57357 -0.046825065   -567.58571 -0.039319295  0.026312504            0    -2835.887    -2835.887    30324.325    25.298513    25.184789    47.594617      864 
     238            0    136.31345   0.24185991    206.38807    202.58097 -0.028674273     -567.585 -0.035199373  0.027065851            0    -2835.887    -2835.887    30324.325    25.298513    25.184789    47.594617      864 
     239            0    136.32204   0.24822497    206.39398    202.58727 -0.015132886   -567.58459 -0.031764121  0.026563976            0    -2835.887    -2835.887    30324.325    25.298513    25.184789    47.594617      864 
     240            0     136.3262   0.25459003    206.39666    202.59067 -0.0087245547   -567.58413 -0.029324297  0.025848626            0    -2835.887    -2835.887    30324.325    25.298513    25.184789    47.594617      864 
     241            0    136.32701   0.26094699    206.39705    202.59139 -0.0074107368   -567.58418 -0.027307992   0.02512386            0    -2835.887    -2835.887    30324.325    25.298513    25.184789    47.594617      864 
     242            0     136.3273    0.2673111    206.39713    202.59172 -0.0069582878   -567.58435 -0.026315475  0.023723088            0    -2835.887    -2835.887    30324.325    25.298513    25.184789    47.594617      864 
     243            0    136.32771   0.27367091    206.39735    202.59207 -0.0062818725   -567.58423 -0.025470099  0.022207236            0    -2835.887    -2835.887    30324.325    25.298513    25.184789    47.594617      864 
     244            0    136.32875   0.28003502    206.39794    202.59298 -0.0046563101   -567.58433 -0.024224981  0.021026577            0    -2835.887    -2835.887    30324.325    25.298513    25.184789    47.594617      864 
     245            0    136.33022   0.28639603    206.39867     202.5943 -0.0023035114   -567.58447 -0.022682478  0.019933963            0    -2835.887    -2835.887    30324.325    25.298513    25.184789    47.594617      864 
     246            0    136.33154   0.29275703    206.39942    202.59578 -0.00056284018   -567.58451 -0.020994556  0.018083377            0    -2835.887    -2835.887    30324.325    25.298513    25.184789    47.594617      864 
     247            0    136.33282   0.29911709    206.40011    202.59714 0.0012236231   -567.58443 -0.018462286  0.015982439            0    -2835.887    -2835.887    30324.325    25.298513    25.184789    47.594617      864 
     248            0    136.33427      0.30548    206.40092    202.59854 0.0033577878   -567.58438 -0.015255543  0.013517823            0    -2835.887    -2835.887    30324.325    25.298513    25.184789    47.594617      864 
     249            0    136.33509   0.31184006     206.4014    202.59945 0.0044264561    -567.5844 -0.011478851  0.010195927            0    -2835.887    -2835.887    30324.325    25.298513    25.184789    47.594617      864 
     250            0    136.33575   0.31820393    206.40153    202.60028 0.0054421501   -567.58451 -0.0075417524 0.0064677109            0    -2835.887    -2835.887    30324.325    25.298513    25.184789    47.594617      864 
     251            0    136.33603   0.32456088    206.40138    202.60076 0.0059632208   -567.58446 -0.0048362885 0.0035658762            0    -2835.887    -2835.887    30324.325    25.298513    25.184789    47.594617      864 
     252            0    136.33604   0.33092499    206.40115    202.60094 0.0060489672   -567.58438 -0.0031460722 0.0018464562            0    -2835.887    -2835.887    30324.325    25.298513    25.184789    47.594617      864 
     253            0    136.33602   0.33728409    206.40087    202.60098 0.0062180077   -567.58425 -0.0017893442 0.0011091955            0    -2835.887    -2835.887    30324.325    25.298513    25.184789    47.594617      864 
     254            0    136.33569     0.343647    206.40051    202.60077 0.0057806284   -567.58413 -0.0010431559 0.00078836575            0    -2835.887    -2835.887    30324.325    25.298513    25.184789    47.594617      864 
     255            0    136.33525   0.35001493    206.40016    202.60043 0.0051410544   -567.58403 -0.00061483842 0.00060188076            0    -2835.887    -2835.887    30324.325    25.298513    25.184789    47.594617      864 
     256            0    136.33478   0.35637307    206.39983    202.60007 0.0044286773     -567.584 -0.00038075239 0.00048443263            0    -2835.887    -2835.887    30324.325    25.298513    25.184789    47.594617      864 
     257            0    136.33426   0.36273694    206.39945    202.59966 0.0036653288   -567.58403 -0.00017770586 0.00041870173            0    -2835.887    -2835.887    30324.325    25.298513    25.184789    47.594617      864 
     258            0    136.33377   0.36910391    206.39908    202.59925 0.0029737067   -567.58406 -9.3260975e-05 0.00035540646            0    -2835.887    -2835.887    30324.325    25.298513    25.184789    47.594617      864 
     259            0     136.3333   0.37546897    206.39872    202.59889 0.0022863112   -567.58409 -5.7503675e-05 0.00025052292            0    -2835.887    -2835.887    30324.325    25.298513    25.184789    47.594617      864 
     260            0    136.33285   0.38182688    206.39836    202.59857 0.0016135012    -567.5841 -3.1177796e-05 0.00017532871            0    -2835.887    -2835.887    30324.325    25.298513    25.184789    47.594617      864 
     261            0    136.33245   0.38819098    206.39803    202.59828 0.0010340649    -567.5841 1.3792088e-05 0.00012476544            0    -2835.887    -2835.887    30324.325    25.298513    25.184789    47.594617      864 
     262            0    136.33213   0.39455104    206.39779    202.59804 0.0005659961    -567.5841 1.9303646e-05 6.9451947e-05            0    -2835.887    -2835.887    30324.325    25.298513    25.184789    47.594617      864 
     263            0    136.33193   0.40091109    206.39763    202.59788 0.00026822039    -567.5841 2.874808e-05 4.5451186e-05            0    -2835.887    -2835.887    30324.325    25.298513    25.184789    47.594617      864 
     264            0    136.33183    0.4072721    206.39756    202.59781 0.00012464258    -567.5841 2.8558912e-05 3.435181e-05            0    -2835.887    -2835.887    30324.325    25.298513    25.184789    47.594617      864 
     265            0    136.33178   0.41363406    206.39752    202.59777 5.4418808e-05    -567.5841 2.4153674e-05 2.8774948e-05            0    -2835.887    -2835.887    30324.325    25.298513    25.184789    47.594617      864 
     266            0    136.33176   0.41999197    206.39751    202.59776 2.7307324e-05    -567.5841 2.2595707e-05 2.6025683e-05            0    -2835.887    -2835.887    30324.325    25.298513    25.184789    47.594617      864 
     267            0    136.33176   0.42635798     206.3975    202.59775 1.5095417e-05    -567.5841 2.0236052e-05 2.1543166e-05            0    -2835.887    -2835.887    30324.325    25.298513    25.184789    47.594617      864 
     268            0    136.33175   0.43271494     206.3975    202.59775 7.8594739e-06    -567.5841 1.8532441e-05 1.8325477e-05            0    -2835.887    -2835.887    30324.325    25.298513    25.184789    47.594617      864 
     269            0    136.33175   0.43908095     206.3975    202.59775 3.6133203e-06    -567.5841 1.678234e-05 1.5816339e-05            0    -2835.887    -2835.887    30324.325    25.298513    25.184789    47.594617      864 
     270            0    136.33175    0.4454391     206.3975    202.59775 2.2398272e-06    -567.5841 1.6713233e-05 1.5115227e-05            0    -2835.887    -2835.887    30324.325    25.298513    25.184789    47.594617      864 
     271            0    136.33175   0.45180488    206.39749    202.59775 8.4176212e-07    -567.5841 1.6268933e-05 1.4543454e-05            0    -2835.887    -2835.887    30324.325    25.298513    25.184789    47.594617      864 
     272            0    136.33175   0.45817208    206.39749    202.59775 -3.9929177e-07    -567.5841 1.5724601e-05 1.430492e-05            0    -2835.887    -2835.887    30324.325    25.298513    25.184789    47.594617      864 
     273            0    136.33175   0.46453094    206.39749    202.59775 -1.2033599e-06    -567.5841 1.5255994e-05 1.3930026e-05            0    -2835.887    -2835.887    30324.325    25.298513    25.184789    47.594617      864 
     274            0    136.33175   0.47089791    206.39749    202.59775 -1.4300755e-06    -567.5841 1.472525e-05 1.3418669e-05            0    -2835.887    -2835.887    30324.325    25.298513    25.184789    47.594617      864 
     275            0    136.33175   0.47725391    206.39749    202.59775 -1.2811601e-06    -567.5841 1.3829442e-05 1.2748327e-05            0    -2835.887    -2835.887    30324.325    25.298513    25.184789    47.594617      864 
     276            0    136.33175   0.48362088     206.3975    202.59775 -1.1345148e-06    -567.5841 1.280069e-05 1.1927428e-05            0    -2835.887    -2835.887    30324.325    25.298513    25.184789    47.594617      864 
     277            0    136.33175   0.48998094     206.3975    202.59775 -9.5443723e-07    -567.5841 1.1466647e-05 1.0831203e-05            0    -2835.887    -2835.887    30324.325    25.298513    25.184789    47.594617      864 
     278            0    136.33175   0.49634695     206.3975    202.59775 -8.3272777e-07    -567.5841 9.8831145e-06 9.4945186e-06            0    -2835.887    -2835.887    30324.325    25.298513    25.184789    47.594617      864 
     279            0    136.33175   0.50270891     206.3975    202.59775 -6.9697477e-07    -567.5841 8.2803096e-06 8.0680539e-06            0    -2835.887    -2835.887    30324.325    25.298513    25.184789    47.594617      864 
     280            0    136.33175   0.50907207     206.3975    202.59775 -5.6519466e-07    -567.5841 6.623609e-06 6.6112072e-06            0    -2835.887    -2835.887    30324.325    25.298513    25.184789    47.594617      864 
     281            0    136.33175   0.51543307     206.3975    202.59775 -4.5198915e-07    -567.5841 4.8740047e-06 4.9350136e-06            0    -2835.887    -2835.887    30324.325    25.298513    25.184789    47.594617      864 
     282            0    136.33175   0.52179503     206.3975    202.59775 -2.8538617e-07    -567.5841 3.4692004e-06 3.4604689e-06            0    -2835.887    -2835.887    30324.325    25.298513    25.184789    47.594617      864 
     283            0    136.33175   0.52815604     206.3975    202.59775 -8.2951018e-08    -567.5841 2.5866631e-06 2.5109292e-06            0    -2835.887    -2835.887    30324.325    25.298513    25.184789    47.594617      864 
     284            0    136.33175    0.5345211     206.3975    202.59775 9.5328142e-08    -567.5841 1.9310137e-06 1.7873031e-06            0    -2835.887    -2835.887    30324.325    25.298513    25.184789    47.594617      864 
     285            0    136.33175   0.54088211     206.3975    202.59775 1.5794946e-07    -567.5841 1.3535413e-06 1.2027173e-06            0    -2835.887    -2835.887    30324.325    25.298513    25.184789    47.594617      864 
     286            0    136.33175   0.54725003     206.3975    202.59775 1.8850785e-07    -567.5841 9.4823755e-07 8.1073522e-07            0    -2835.887    -2835.887    30324.325    25.298513    25.184789    47.594617      864 
     287            0    136.33175   0.55360889     206.3975    202.59775 1.7452407e-07    -567.5841 6.3964097e-07  5.13637e-07            0    -2835.887    -2835.887    30324.325    25.298513    25.184789    47.594617      864 
     288            0    136.33175   0.55997396     206.3975    202.59775 1.1723264e-07    -567.5841 4.1117908e-07 2.9925699e-07            0    -2835.887    -2835.887    30324.325    25.298513    25.184789    47.594617      864 
     289            0    136.33175   0.56633997     206.3975    202.59775 9.4851719e-08    -567.5841 2.6235225e-07 1.6312083e-07            0    -2835.887    -2835.887    30324.325    25.298513    25.184789    47.594617      864 
     290            0    136.33175   0.57269788     206.3975    202.59775 9.0759587e-08    -567.5841 1.7407939e-07 8.6038853e-08            0    -2835.887    -2835.887    30324.325    25.298513    25.184789    47.594617      864 
     291            0    136.33175   0.57906508     206.3975    202.59775  9.25529e-08    -567.5841 1.0034442e-07 3.4772878e-08            0    -2835.887    -2835.887    30324.325    25.298513    25.184789    47.594617      864 
     292            0    136.33175   0.58542395     206.3975    202.59775 9.750955e-08    -567.5841 6.1873882e-08 1.2697984e-08            0    -2835.887    -2835.887    30324.325    25.298513    25.184789    47.594617      864 
     293            0    136.33175   0.59178996     206.3975    202.59775 7.7189976e-08    -567.5841 3.1225334e-08 9.1070398e-09            0    -2835.887    -2835.887    30324.325    25.298513    25.184789    47.594617      864 
     294            0    136.33175   0.59815907     206.3975    202.59775 6.7483389e-08    -567.5841 1.7301649e-08 1.0683936e-08            0    -2835.887    -2835.887    30324.325    25.298513    25.184789    47.594617      864 
     295            0    136.33175   0.60452104     206.3975    202.59775 5.4156142e-08    -567.5841 3.3044696e-09 8.7602125e-09            0    -2835.887    -2835.887    30324.325    25.298513    25.184789    47.594617      864 
     296            0    136.33175   0.61403108     206.3975    202.59775 4.6106969e-08    -567.5841 4.6210419e-10 8.8084549e-09            0    -2835.887    -2835.887    30324.325    25.298513    25.184789    47.594617      864 
Loop time of 0.614049 on 1 procs for 99 steps with 864 atoms

100.3% CPU use with 1 MPI tasks x no OpenMP threads

Minimization stats:
  Stopping criterion = force tolerance
  Energy initial, next-to-last, final = 
        -2835.74212064     -2835.88697535     -2835.88697535
  Force two-norm initial, final = 0.558778 8.15424e-11
  Force max component initial, final = 0.0645607 6.60647e-12
  Final line search alpha, max atom move = 1 6.60647e-12
  Iterations, force evaluations = 99 192

MPI task timing breakdown:
Section |  min time  |  avg time  |  max time  |%varavg| %total
---------------------------------------------------------------
Pair    | 0.60479    | 0.60479    | 0.60479    |   0.0 | 98.49
Neigh   | 0          | 0          | 0          |   0.0 |  0.00
Comm    | 0.0020685  | 0.0020685  | 0.0020685  |   0.0 |  0.34
Output  | 0.0030146  | 0.0030146  | 0.0030146  |   0.0 |  0.49
Modify  | 0          | 0          | 0          |   0.0 |  0.00
Other   |            | 0.004179   |            |       |  0.68

Nlocal:    864 ave 864 max 864 min
Histogram: 1 0 0 0 0 0 0 0 0 0
Nghost:    1378 ave 1378 max 1378 min
Histogram: 1 0 0 0 0 0 0 0 0 0
Neighs:    49736 ave 49736 max 49736 min
Histogram: 1 0 0 0 0 0 0 0 0 0

Total # of neighbors = 49736
Ave neighs/atom = 57.5648
Neighbor list builds = 0
Dangerous builds = 0
#fix 1a all qeq/comb 1 0.0001 file fq.out
write_restart restart.equil
write_data data0

# uxx Perturbation

variable dir equal 1
include /users/knc6/displace.mod
# NOTE: This script should not need to be
# modified. See in.elastic for more info.
#
# Find which reference length to use

if "${dir} == 1" then    "variable len0 equal ${lx0}"
variable len0 equal ${lx0}
variable len0 equal 25.2985126503298
if "${dir} == 2" then    "variable len0 equal ${ly0}"
if "${dir} == 3" then    "variable len0 equal ${lz0}"
if "${dir} == 4" then    "variable len0 equal ${lz0}"
if "${dir} == 5" then    "variable len0 equal ${lz0}"
if "${dir} == 6" then    "variable len0 equal ${ly0}"

# Reset box and simulation parameters

clear
box tilt large
read_restart restart.equil
  triclinic box = (0.157968 0.150633 0.0145497) to (25.4565 25.3354 47.6092) with tilt (2.53117 0 0)
  1 by 1 by 1 MPI processor grid
  864 atoms
include potential.mod
pair_style eam/alloy
pair_coeff * * /users/knc6/Software/jarvis/jarvis/lammps/examples/Al03.eam.alloy  Al
neighbor 1.0 nsq
neigh_modify once no every 1 delay 0 check yes
min_style  cg
min_modify           dmax ${dmax} line quadratic
min_modify           dmax 0.01 line quadratic
thermo          1
thermo_style custom step temp press cpu pxx pyy pzz pxy pxz pyz ke pe etotal vol lx ly lz atoms
thermo_modify norm no
# Negative deformation

variable delta equal -${up}*${len0}
variable delta equal -1e-06*${len0}
variable delta equal -1e-06*25.2985126503298
if "${dir} == 1" then    "change_box all x delta 0 ${delta} remap units box"
change_box all x delta 0 ${delta} remap units box
change_box all x delta 0 -2.52985126503298e-05 remap units box
  triclinic box = (0.157968 0.150633 0.0145497) to (25.4565 25.3354 47.6092) with tilt (2.53117 0 0)
if "${dir} == 2" then    "change_box all y delta 0 ${delta} remap units box"
if "${dir} == 3" then    "change_box all z delta 0 ${delta} remap units box"
if "${dir} == 4" then    "change_box all yz delta ${delta} remap units box"
if "${dir} == 5" then    "change_box all xz delta ${delta} remap units box"
if "${dir} == 6" then    "change_box all xy delta ${delta} remap units box"

# Relax atoms positions

minimize ${etol} ${ftol} ${maxiter} ${maxeval}
minimize 0 ${ftol} ${maxiter} ${maxeval}
minimize 0 1e-10 ${maxiter} ${maxeval}
minimize 0 1e-10 1000 ${maxeval}
minimize 0 1e-10 1000 10000
Neighbor list info ...
  1 neighbor list requests
  update every 1 steps, delay 0 steps, check yes
  max neighbors/atom: 2000, page size: 100000
  master list distance cutoff = 7.72488
  ghost atom cutoff = 7.72488
Memory usage per processor = 3.37482 Mbytes
Step Temp Press CPU Pxx Pyy Pzz Pxy Pxz Pyz KinEng PotEng TotEng Volume Lx Ly Lz Atoms 
[...]
     307            0    136.33711  0.070222139    206.40306    202.60881 -0.0005382962   -567.74284 -0.0023030888 -0.0012818335            0    -2835.887    -2835.887    30324.325    25.298513    25.184789    47.594617      864 
     308            0    136.33736  0.076605082    206.40323    202.60899 -0.00013129272   -567.74283 -0.0020187197 -0.0011002254            0    -2835.887    -2835.887    30324.325    25.298513    25.184789    47.594617      864 
     309            0    136.33775  0.082993031    206.40351    202.60929 0.00044940854   -567.74282 -0.0016061057 -0.00086540107            0    -2835.887    -2835.887    30324.325    25.298513    25.184789    47.594617      864 
     310            0      136.338  0.089373112    206.40369    202.60948 0.00083357833   -567.74281 -0.0012356331 -0.00065136251            0    -2835.887    -2835.887    30324.325    25.298513    25.184789    47.594617      864 
     311            0    136.33811  0.095762014    206.40373    202.60957  0.001018372    -567.7428 -0.00092986178 -0.00050295443            0    -2835.887    -2835.887    30324.325    25.298513    25.184789    47.594617      864 
     312            0    136.33813   0.10214114    206.40373    202.60958  0.001086762   -567.74279 -0.00069292772 -0.00036748849            0    -2835.887    -2835.887    30324.325    25.298513    25.184789    47.594617      864 
     313            0    136.33812   0.10853505     206.4037    202.60954 0.0011054122   -567.74278 -0.00049168573 -0.00024782603            0    -2835.887    -2835.887    30324.325    25.298513    25.184789    47.594617      864 
     314            0    136.33806   0.11491513    206.40365    202.60949 0.0010395415   -567.74278 -0.0003486898 -0.00015892994            0    -2835.887    -2835.887    30324.325    25.298513    25.184789    47.594617      864 
     315            0      136.338   0.12130213     206.4036    202.60944 0.00095685877   -567.74278 -0.00025122613 -9.8837416e-05            0    -2835.887    -2835.887    30324.325    25.298513    25.184789    47.594617      864 
     316            0    136.33792   0.12769008    206.40354    202.60938 0.00085429825   -567.74278 -0.00019108649 -6.0010699e-05            0    -2835.887    -2835.887    30324.325    25.298513    25.184789    47.594617      864 
     317            0    136.33782    0.1340692    206.40345     202.6093 0.00069488682   -567.74278 -0.00014521555 -3.8022927e-05            0    -2835.887    -2835.887    30324.325    25.298513    25.184789    47.594617      864 
     318            0    136.33772   0.14045811    206.40337    202.60923  0.000547548   -567.74278 -0.00010681408 -2.2192724e-05            0    -2835.887    -2835.887    30324.325    25.298513    25.184789    47.594617      864 
     319            0    136.33761   0.14684701    206.40329    202.60914 0.0003990002   -567.74278 -7.36493e-05 -1.1942634e-05            0    -2835.887    -2835.887    30324.325    25.298513    25.184789    47.594617      864 
     320            0    136.33749     0.153234    206.40319    202.60905 0.00022960972   -567.74278 -4.5342146e-05 -3.6060439e-06            0    -2835.887    -2835.887    30324.325    25.298513    25.184789    47.594617      864 
     321            0     136.3374   0.15961599    206.40312    202.60898 0.00010775682   -567.74278 -2.405275e-05 7.7352234e-06            0    -2835.887    -2835.887    30324.325    25.298513    25.184789    47.594617      864 
     322            0    136.33737   0.16600204    206.40309    202.60895 5.5011684e-05   -567.74278 -1.2797839e-05 1.3216038e-05            0    -2835.887    -2835.887    30324.325    25.298513    25.184789    47.594617      864 
     323            0    136.33735   0.17238522    206.40308    202.60894 3.3047548e-05   -567.74278 -8.7199508e-06 1.5450247e-05            0    -2835.887    -2835.887    30324.325    25.298513    25.184789    47.594617      864 
     324            0    136.33734   0.17876911    206.40308    202.60893 2.1069976e-05   -567.74278 -7.5017961e-06 1.6911661e-05            0    -2835.887    -2835.887    30324.325    25.298513    25.184789    47.594617      864 
     325            0    136.33734   0.18515515    206.40307    202.60893 1.3939106e-05   -567.74278 -7.5358136e-06 1.7117482e-05            0    -2835.887    -2835.887    30324.325    25.298513    25.184789    47.594617      864 
     326            0    136.33733   0.19154215    206.40307    202.60892 8.4489347e-06   -567.74278 -8.2401857e-06 1.6769286e-05            0    -2835.887    -2835.887    30324.325    25.298513    25.184789    47.594617      864 
     327            0    136.33733   0.19792223    206.40307    202.60892 4.7176072e-06   -567.74278 -8.4641946e-06 1.5883356e-05            0    -2835.887    -2835.887    30324.325    25.298513    25.184789    47.594617      864 
     328            0    136.33733   0.20430923    206.40307    202.60892 2.3434064e-06   -567.74278 -8.1922209e-06 1.5112346e-05            0    -2835.887    -2835.887    30324.325    25.298513    25.184789    47.594617      864 
     329            0    136.33733   0.21069121    206.40307    202.60892 9.6418591e-07   -567.74278 -7.8490334e-06 1.4517502e-05            0    -2835.887    -2835.887    30324.325    25.298513    25.184789    47.594617      864 
     330            0    136.33733   0.21707702    206.40307    202.60892 -1.0607699e-07   -567.74278 -7.6272328e-06 1.3717499e-05            0    -2835.887    -2835.887    30324.325    25.298513    25.184789    47.594617      864 
     331            0    136.33733    0.2234652    206.40307    202.60892 -5.3665959e-07   -567.74278 -7.2780575e-06 1.3111521e-05            0    -2835.887    -2835.887    30324.325    25.298513    25.184789    47.594617      864 
     332            0    136.33733   0.22984505    206.40307    202.60892 -3.4753649e-07   -567.74278 -6.7390338e-06 1.2358748e-05            0    -2835.887    -2835.887    30324.325    25.298513    25.184789    47.594617      864 
     333            0    136.33733     0.236233    206.40307    202.60892 -1.8260312e-07   -567.74278 -6.2177278e-06 1.1524264e-05            0    -2835.887    -2835.887    30324.325    25.298513    25.184789    47.594617      864 
     334            0    136.33733   0.24261403    206.40307    202.60892 -6.4155479e-07   -567.74278 -5.6184658e-06 1.0246856e-05            0    -2835.887    -2835.887    30324.325    25.298513    25.184789    47.594617      864 
     335            0    136.33733   0.24900007    206.40307    202.60892 -1.284865e-06   -567.74278 -4.8757245e-06 8.6756292e-06            0    -2835.887    -2835.887    30324.325    25.298513    25.184789    47.594617      864 
     336            0    136.33733   0.25538111    206.40307    202.60892 -1.721653e-06   -567.74278 -3.8281517e-06 6.7105182e-06            0    -2835.887    -2835.887    30324.325    25.298513    25.184789    47.594617      864 
     337            0    136.33733     0.261765    206.40306    202.60892 -1.9370421e-06   -567.74278 -2.7780276e-06 4.9949279e-06            0    -2835.887    -2835.887    30324.325    25.298513    25.184789    47.594617      864 
     338            0    136.33733   0.26814818    206.40306    202.60892 -1.8571107e-06   -567.74278 -1.7571155e-06 3.5872178e-06            0    -2835.887    -2835.887    30324.325    25.298513    25.184789    47.594617      864 
     339            0    136.33733   0.27453208    206.40306    202.60892 -1.3792897e-06   -567.74278 -1.0548661e-06 2.5000299e-06            0    -2835.887    -2835.887    30324.325    25.298513    25.184789    47.594617      864 
     340            0    136.33733   0.28091311    206.40306    202.60892 -9.5495151e-07   -567.74278 -6.7794759e-07 1.7238034e-06            0    -2835.887    -2835.887    30324.325    25.298513    25.184789    47.594617      864 
     341            0    136.33733   0.28729916    206.40307    202.60892 -7.0482694e-07   -567.74278 -4.3814052e-07 1.1919385e-06            0    -2835.887    -2835.887    30324.325    25.298513    25.184789    47.594617      864 
     342            0    136.33733     0.293679    206.40307    202.60892 -5.7627975e-07   -567.74278 -3.0975669e-07 8.3163657e-07            0    -2835.887    -2835.887    30324.325    25.298513    25.184789    47.594617      864 
     343            0    136.33733   0.30006719    206.40307    202.60892 -5.6916408e-07   -567.74278 -2.7920056e-07 5.2416486e-07            0    -2835.887    -2835.887    30324.325    25.298513    25.184789    47.594617      864 
     344            0    136.33733   0.30644822    206.40307    202.60892 -5.5530356e-07   -567.74278 -2.4813124e-07 3.0046915e-07            0    -2835.887    -2835.887    30324.325    25.298513    25.184789    47.594617      864 
     345            0    136.33733   0.31283522    206.40307    202.60892 -3.8672484e-07   -567.74278 -1.85459e-07 1.7751412e-07            0    -2835.887    -2835.887    30324.325    25.298513    25.184789    47.594617      864 
     346            0    136.33733   0.31922412    206.40307    202.60892 -1.8857903e-07   -567.74278 -1.2939289e-07 1.0369674e-07            0    -2835.887    -2835.887    30324.325    25.298513    25.184789    47.594617      864 
     347            0    136.33733   0.32560611    206.40307    202.60892 -9.2300142e-08   -567.74278 -9.1044898e-08 5.9267919e-08            0    -2835.887    -2835.887    30324.325    25.298513    25.184789    47.594617      864 
     348            0    136.33733   0.33199501    206.40307    202.60892 -4.6707149e-08   -567.74278 -6.1482494e-08 3.5466996e-08            0    -2835.887    -2835.887    30324.325    25.298513    25.184789    47.594617      864 
     349            0    136.33733   0.33837414    206.40307    202.60892 -2.8629131e-08   -567.74278 -3.6883523e-08 2.2578188e-08            0    -2835.887    -2835.887    30324.325    25.298513    25.184789    47.594617      864 
     350            0    136.33733   0.34476209    206.40307    202.60892 -2.7750418e-08   -567.74278 -2.2829811e-08 1.3114462e-08            0    -2835.887    -2835.887    30324.325    25.298513    25.184789    47.594617      864 
     351            0    136.33733   0.35114408    206.40307    202.60892 -3.2322703e-08   -567.74278 -1.2310163e-08 9.3737288e-09            0    -2835.887    -2835.887    30324.325    25.298513    25.184789    47.594617      864 
     352            0    136.33733    0.3606801    206.40307    202.60892 -3.2167963e-08   -567.74278 -8.4306943e-09 4.6773406e-09            0    -2835.887    -2835.887    30324.325    25.298513    25.184789    47.594617      864 
Loop time of 0.360699 on 1 procs for 56 steps with 864 atoms

98.7% CPU use with 1 MPI tasks x no OpenMP threads

Minimization stats:
  Stopping criterion = force tolerance
  Energy initial, next-to-last, final = 
         -2835.8869646      -2835.8869646      -2835.8869646
  Force two-norm initial, final = 1.832e-05 7.05531e-11
  Force max component initial, final = 2.25844e-06 4.79335e-12
  Final line search alpha, max atom move = 1 4.79335e-12
  Iterations, force evaluations = 56 112

MPI task timing breakdown:
Section |  min time  |  avg time  |  max time  |%varavg| %total
---------------------------------------------------------------
Pair    | 0.35536    | 0.35536    | 0.35536    |   0.0 | 98.52
Neigh   | 0          | 0          | 0          |   0.0 |  0.00
Comm    | 0.0012176  | 0.0012176  | 0.0012176  |   0.0 |  0.34
Output  | 0.001683   | 0.001683   | 0.001683   |   0.0 |  0.47
Modify  | 0          | 0          | 0          |   0.0 |  0.00
Other   |            | 0.002439   |            |       |  0.68

Nlocal:    864 ave 864 max 864 min
Histogram: 1 0 0 0 0 0 0 0 0 0
Nghost:    1378 ave 1378 max 1378 min
Histogram: 1 0 0 0 0 0 0 0 0 0
Neighs:    49740 ave 49740 max 49740 min
Histogram: 1 0 0 0 0 0 0 0 0 0

Total # of neighbors = 49740
Ave neighs/atom = 57.5694
Neighbor list builds = 0
Dangerous builds = 0

# Obtain new stress tensor

variable tmp equal pe
variable e1 equal ${tmp}
variable e1 equal -2835.88696460281
variable tmp equal press
variable p1 equal ${tmp}
variable p1 equal 136.337328922867
variable tmp equal pxx
variable pxx1 equal ${tmp}
variable pxx1 equal 206.403065523733
variable tmp equal pyy
variable pyy1 equal ${tmp}
variable pyy1 equal 202.608921277038
variable tmp equal pzz
variable pzz1 equal ${tmp}
variable pzz1 equal -3.21679628464079e-08
variable tmp equal pxy
variable pxy1 equal ${tmp}
variable pxy1 equal -567.742775114014
variable tmp equal pxz
variable pxz1 equal ${tmp}
variable pxz1 equal -8.43069430561005e-09
variable tmp equal pyz
variable pyz1 equal ${tmp}
variable pyz1 equal 4.67734062080358e-09

# Compute elastic constant from pressure tensor

variable C1pos equal ${d1}
variable C1pos equal -21662.6705706139
variable C2pos equal ${d2}
variable C2pos equal -19650.7306549226
variable C3pos equal ${d3}
variable C3pos equal 584.385830466
variable C4pos equal ${d4}
variable C4pos equal 14292.1015311595
variable C5pos equal ${d5}
variable C5pos equal 16280.1904556517
variable C6pos equal ${d6}
variable C6pos equal -2018.7795458094

# Combine positive and negative

variable C1${dir} equal 0.5*(${C1neg}+${C1pos})
variable C16 equal 0.5*(${C1neg}+${C1pos})
variable C16 equal 0.5*(21661.5569799655+${C1pos})
variable C16 equal 0.5*(21661.5569799655+-21662.6705706139)
variable C2${dir} equal 0.5*(${C2neg}+${C2pos})
variable C26 equal 0.5*(${C2neg}+${C2pos})
variable C26 equal 0.5*(19648.4960526169+${C2pos})
variable C26 equal 0.5*(19648.4960526169+-19650.7306549226)
variable C3${dir} equal 0.5*(${C3neg}+${C3pos})
variable C36 equal 0.5*(${C3neg}+${C3pos})
variable C36 equal 0.5*(-584.385824033326+${C3pos})
variable C36 equal 0.5*(-584.385824033326+584.385830466)
variable C4${dir} equal 0.5*(${C4neg}+${C4pos})
variable C46 equal 0.5*(${C4neg}+${C4pos})
variable C46 equal 0.5*(-14292.1015320971+${C4pos})
variable C46 equal 0.5*(-14292.1015320971+14292.1015311595)
variable C5${dir} equal 0.5*(${C5neg}+${C5pos})
variable C56 equal 0.5*(${C5neg}+${C5pos})
variable C56 equal 0.5*(-16280.1904539654+${C5pos})
variable C56 equal 0.5*(-16280.1904539654+16280.1904556517)
variable C6${dir} equal 0.5*(${C6neg}+${C6pos})
variable C66 equal 0.5*(${C6neg}+${C6pos})
variable C66 equal 0.5*(2050.513988168+${C6pos})
variable C66 equal 0.5*(2050.513988168+-2018.7795458094)

# Delete dir to make sure it is not reused

variable dir delete

# Output final values

variable C11all equal ${C11}
variable C11all equal 42.5618854527002
variable C22all equal ${C22}
variable C22all equal 42.6607926718989
variable C33all equal ${C33}
variable C33all equal 1.75532477442175e-10

variable C12all equal 0.5*(${C12}+${C21})
variable C12all equal 0.5*(15.1455235706508+${C21})
variable C12all equal 0.5*(15.1455235706508+15.2574373450498)
variable C13all equal 0.5*(${C13}+${C31})
variable C13all equal 0.5*(0.020639478449084+${C31})
variable C13all equal 0.5*(0.020639478449084+-3.37458004651126e-07)
variable C23all equal 0.5*(${C23}+${C32})
variable C23all equal 0.5*(0.0202615085490834+${C32})
variable C23all equal 0.5*(0.0202615085490834+3.62139758181002e-08)

variable C44all equal ${C44}
variable C44all equal 8.99490260053426e-10
variable C55all equal ${C55}
variable C55all equal 1.00044417195022e-10
variable C66all equal ${C66}
variable C66all equal 15.8672211793001

variable C14all equal 0.5*(${C14}+${C41})
variable C14all equal 0.5*(-9.64009814197198e-08+${C41})
variable C14all equal 0.5*(-9.64009814197198e-08+-7.4580020736903e-07)
variable C15all equal 0.5*(${C15}+${C51})
variable C15all equal 0.5*(-2.78505467576906e-08+${C51})
variable C15all equal 0.5*(-2.78505467576906e-08+4.28749444836285e-07)
variable C16all equal 0.5*(${C16}+${C61})
variable C16all equal 0.5*(-0.556795324200721+${C61})
variable C16all equal 0.5*(-0.556795324200721+-2.26503031110008)

variable C24all equal 0.5*(${C24}+${C42})
variable C24all equal 0.5*(-5.18100932822563e-07+${C42})
variable C24all equal 0.5*(-5.18100932822563e-07+6.15200406173244e-07)
variable C25all equal 0.5*(${C25}+${C52})
variable C25all equal 0.5*(1.59048795467243e-07+${C52})
variable C25all equal 0.5*(1.59048795467243e-07+-7.70000042393804e-07)
variable C26all equal 0.5*(${C26}+${C62})
variable C26all equal 0.5*(-1.1173011528499+${C62})
variable C26all equal 0.5*(-1.1173011528499+-1.11730348474998)

variable C34all equal 0.5*(${C34}+${C43})
variable C34all equal 0.5*(-1.79129051502969e-06+${C43})
variable C34all equal 0.5*(-1.79129051502969e-06+-1.02470494312001e-05)
variable C35all equal 0.5*(${C35}+${C53})
variable C35all equal 0.5*(-1.37598476612766e-07+${C53})
variable C35all equal 0.5*(-1.37598476612766e-07+7.7757495091646e-06)
variable C36all equal 0.5*(${C36}+${C63})
variable C36all equal 0.5*(3.21633700650636e-06+${C63})
variable C36all equal 0.5*(3.21633700650636e-06+-0.0567585047000421)

variable C45all equal 0.5*(${C45}+${C54})
variable C45all equal 0.5*(-7.73299689171836e-07+${C54})
variable C45all equal 0.5*(-7.73299689171836e-07+-1.24525013234233e-06)
variable C46all equal 0.5*(${C46}+${C64})
variable C46all equal 0.5*(-4.68799953523558e-07+${C64})
variable C46all equal 0.5*(-4.68799953523558e-07+-2.23205006477656e-07)
variable C56all equal 0.5*(${C56}+${C65})
variable C56all equal 0.5*(8.43149791762698e-07+${C65})
variable C56all equal 0.5*(8.43149791762698e-07+-1.51550011651125e-07)

# For Stillinger-Weber silicon, the analytical results
# are known to be (E. R. Cowley, 1988):
#               C11 = 151.4 GPa
#               C12 = 76.4 GPa
#               C44 = 56.4 GPa

print "Elastic Constant C11all = ${C11all} ${cunits}"
Elastic Constant C11all = 42.5618854527002 GPa
print "Elastic Constant C22all = ${C22all} ${cunits}"
Elastic Constant C22all = 42.6607926718989 GPa
print "Elastic Constant C33all = ${C33all} ${cunits}"
Elastic Constant C33all = 1.75532477442175e-10 GPa

print "Elastic Constant C12all = ${C12all} ${cunits}"
Elastic Constant C12all = 15.2014804578503 GPa
print "Elastic Constant C13all = ${C13all} ${cunits}"
Elastic Constant C13all = 0.0103195704955397 GPa
print "Elastic Constant C23all = ${C23all} ${cunits}"
Elastic Constant C23all = 0.0101307723815296 GPa

print "Elastic Constant C44all = ${C44all} ${cunits}"
Elastic Constant C44all = 8.99490260053426e-10 GPa
print "Elastic Constant C55all = ${C55all} ${cunits}"
Elastic Constant C55all = 1.00044417195022e-10 GPa
print "Elastic Constant C66all = ${C66all} ${cunits}"
Elastic Constant C66all = 15.8672211793001 GPa

print "Elastic Constant C14all = ${C14all} ${cunits}"
Elastic Constant C14all = -4.21100594394375e-07 GPa
print "Elastic Constant C15all = ${C15all} ${cunits}"
Elastic Constant C15all = 2.00449449039297e-07 GPa
print "Elastic Constant C16all = ${C16all} ${cunits}"
Elastic Constant C16all = -1.4109128176504 GPa

print "Elastic Constant C24all = ${C24all} ${cunits}"
Elastic Constant C24all = 4.85497366753405e-08 GPa
print "Elastic Constant C25all = ${C25all} ${cunits}"
Elastic Constant C25all = -3.0547562346328e-07 GPa
print "Elastic Constant C26all = ${C26all} ${cunits}"
Elastic Constant C26all = -1.11730231879994 GPa

print "Elastic Constant C34all = ${C34all} ${cunits}"
Elastic Constant C34all = -6.0191699731149e-06 GPa
print "Elastic Constant C35all = ${C35all} ${cunits}"
Elastic Constant C35all = 3.81907551627592e-06 GPa
print "Elastic Constant C36all = ${C36all} ${cunits}"
Elastic Constant C36all = -0.0283776441815178 GPa

print "Elastic Constant C45all = ${C45all} ${cunits}"
Elastic Constant C45all = -1.00927491075708e-06 GPa
print "Elastic Constant C46all = ${C46all} ${cunits}"
Elastic Constant C46all = -3.46002480000607e-07 GPa
print "Elastic Constant C56all = ${C56all} ${cunits}"
Elastic Constant C56all = 3.45799890055787e-07 GPa

Total wall time: 0:00:06
