   2   2   1   0
  0.2072484E+02  0.3884592E-09  0.3884592E-09  0.3884592E-09  0.5000000E-15
   1.0000000000000000E-004
  CAR 
 unknown system                          
     62.18951369     -9.37593805 5000      5.90572336      1.00000000
     -9.376  0.0000E+00  0.0000E+00  0.0000E+00  0.0000E+00
     -9.362  0.0000E+00  0.0000E+00  0.0000E+00  0.0000E+00
     -9.347  0.0000E+00  0.0000E+00  0.0000E+00  0.0000E+00
     -9.333  0.0000E+00  0.0000E+00  0.0000E+00  0.0000E+00
     -9.319  0.0000E+00  0.0000E+00  0.0000E+00  0.0000E+00
     -9.304  0.0000E+00  0.0000E+00  0.0000E+00  0.0000E+00
     -9.290  0.0000E+00  0.0000E+00  0.0000E+00  0.0000E+00
     -9.276  0.0000E+00  0.0000E+00  0.0000E+00  0.0000E+00
     -9.261  0.0000E+00  0.0000E+00  0.0000E+00  0.0000E+00
     -9.247  0.0000E+00  0.0000E+00  0.0000E+00  0.0000E+00
     -9.233  0.0000E+00  0.0000E+00  0.0000E+00  0.0000E+00
     -9.218  0.0000E+00  0.0000E+00  0.0000E+00  0.0000E+00
     -9.204  0.0000E+00  0.0000E+00  0.0000E+00  0.0000E+00
     -9.190  0.0000E+00  0.0000E+00  0.0000E+00  0.0000E+00
     -9.176  0.0000E+00  0.0000E+00  0.0000E+00  0.0000E+00
     -9.161  0.0000E+00  0.0000E+00  0.0000E+00  0.0000E+00
     -9.147  0.0000E+00  0.0000E+00  0.0000E+00  0.0000E+00
     -9.133  0.0000E+00  0.0000E+00  0.0000E+00  0.0000E+00
     -9.118  0.0000E+00  0.0000E+00  0.0000E+00  0.0000E+00
     -9.104  0.0000E+00  0.0000E+00  0.0000E+00  0.0000E+00
     -9.090  0.0000E+00  0.0000E+00  0.0000E+00  0.0000E+00
     -9.075  0.0000E+00  0.0000E+00  0.0000E+00  0.0000E+00
     -9.061  0.0000E+00  0.0000E+00  0.0000E+00  0.0000E+00
     -9.047  0.0000E+00  0.0000E+00  0.0000E+00  0.0000E+00
     -9.032  0.0000E+00  0.0000E+00  0.0000E+00  0.0000E+00
     -9.018  0.0000E+00  0.0000E+00  0.0000E+00  0.0000E+00
     -9.004  0.0000E+00  0.0000E+00  0.0000E+00  0.0000E+00
     -8.989  0.0000E+00  0.0000E+00  0.0000E+00  0.0000E+00
     -8.975  0.0000E+00  0.0000E+00  0.0000E+00  0.0000E+00
     -8.961  0.0000E+00  0.0000E+00  0.0000E+00  0.0000E+00
     -8.946  0.0000E+00  0.0000E+00  0.0000E+00  0.0000E+00
     -8.932  0.0000E+00  0.0000E+00  0.0000E+00  0.0000E+00
     -8.918  0.0000E+00  0.0000E+00  0.0000E+00  0.0000E+00
     -8.904  0.0000E+00  0.0000E+00  0.0000E+00  0.0000E+00
     -8.889  0.0000E+00  0.0000E+00  0.0000E+00  0.0000E+00
     -8.875  0.0000E+00  0.0000E+00  0.0000E+00  0.0000E+00
     -8.861  0.0000E+00  0.0000E+00  0.0000E+00  0.0000E+00
     -8.846  0.0000E+00  0.0000E+00  0.0000E+00  0.0000E+00
     -8.832  0.0000E+00  0.0000E+00  0.0000E+00  0.0000E+00
     -8.818  0.0000E+00  0.0000E+00  0.0000E+00  0.0000E+00
     -8.803  0.0000E+00  0.0000E+00  0.0000E+00  0.0000E+00
     -8.789  0.0000E+00  0.0000E+00  0.0000E+00  0.0000E+00
     -8.775  0.0000E+00  0.0000E+00  0.0000E+00  0.0000E+00
     -8.760  0.0000E+00  0.0000E+00  0.0000E+00  0.0000E+00
     -8.746  0.0000E+00  0.0000E+00  0.0000E+00  0.0000E+00
     -8.732  0.0000E+00  0.0000E+00  0.0000E+00  0.0000E+00
     -8.717  0.0000E+00  0.0000E+00  0.0000E+00  0.0000E+00
     -8.703  0.0000E+00  0.0000E+00  0.0000E+00  0.0000E+00
     -8.689  0.0000E+00  0.0000E+00  0.0000E+00  0.0000E+00
     -8.674  0.0000E+00  0.0000E+00  0.0000E+00  0.0000E+00
     -8.660  0.0000E+00  0.0000E+00  0.0000E+00  0.0000E+00
     -8.646  0.0000E+00  0.0000E+00  0.0000E+00  0.0000E+00
     -8.632  0.0000E+00  0.0000E+00  0.0000E+00  0.0000E+00
     -8.617  0.0000E+00  0.0000E+00  0.0000E+00  0.0000E+00
     -8.603  0.0000E+00  0.0000E+00  0.0000E+00  0.0000E+00
     -8.589  0.0000E+00  0.0000E+00  0.0000E+00  0.0000E+00
     -8.574  0.0000E+00  0.0000E+00  0.0000E+00  0.0000E+00
     -8.560  0.0000E+00  0.0000E+00  0.0000E+00  0.0000E+00
     -8.546  0.0000E+00  0.0000E+00  0.0000E+00  0.0000E+00
     -8.531  0.0000E+00  0.0000E+00  0.0000E+00  0.0000E+00
     -8.517  0.0000E+00  0.0000E+00  0.0000E+00  0.0000E+00
     -8.503  0.0000E+00  0.0000E+00  0.0000E+00  0.0000E+00
     -8.488  0.0000E+00  0.0000E+00  0.0000E+00  0.0000E+00
     -8.474  0.0000E+00  0.0000E+00  0.0000E+00  0.0000E+00
     -8.460  0.0000E+00  0.0000E+00  0.0000E+00  0.0000E+00
     -8.445  0.0000E+00  0.0000E+00  0.0000E+00  0.0000E+00
     -8.431  0.0000E+00  0.0000E+00  0.0000E+00  0.0000E+00
     -8.417  0.0000E+00  0.0000E+00  0.0000E+00  0.0000E+00
     -8.402  0.0000E+00  0.0000E+00  0.0000E+00  0.0000E+00
     -8.388  0.0000E+00  0.0000E+00  0.0000E+00  0.0000E+00
     -8.374  0.0000E+00  0.0000E+00  0.0000E+00  0.0000E+00
     -8.360  0.0000E+00  0.0000E+00  0.0000E+00  0.0000E+00
     -8.345  0.0000E+00  0.0000E+00  0.0000E+00  0.0000E+00
     -8.331  0.0000E+00  0.0000E+00  0.0000E+00  0.0000E+00
     -8.317  0.0000E+00  0.0000E+00  0.0000E+00  0.0000E+00
     -8.302  0.0000E+00  0.0000E+00  0.0000E+00  0.0000E+00
     -8.288  0.0000E+00  0.0000E+00  0.0000E+00  0.0000E+00
     -8.274  0.0000E+00  0.0000E+00  0.0000E+00  0.0000E+00
     -8.259  0.0000E+00  0.0000E+00  0.0000E+00  0.0000E+00
     -8.245  0.0000E+00  0.0000E+00  0.0000E+00  0.0000E+00
     -8.231  0.0000E+00  0.0000E+00  0.0000E+00  0.0000E+00
     -8.216  0.0000E+00  0.0000E+00  0.0000E+00  0.0000E+00
     -8.202  0.0000E+00  0.0000E+00  0.0000E+00  0.0000E+00
     -8.188  0.0000E+00  0.0000E+00  0.0000E+00  0.0000E+00
     -8.173  0.0000E+00  0.0000E+00  0.0000E+00  0.0000E+00
     -8.159  0.0000E+00  0.0000E+00  0.0000E+00  0.0000E+00
     -8.145  0.0000E+00  0.0000E+00  0.0000E+00  0.0000E+00
     -8.130  0.0000E+00  0.0000E+00  0.0000E+00  0.0000E+00
     -8.116  0.0000E+00  0.0000E+00  0.0000E+00  0.0000E+00
     -8.102  0.0000E+00  0.0000E+00  0.0000E+00  0.0000E+00
     -8.088  0.0000E+00  0.0000E+00  0.0000E+00  0.0000E+00
     -8.073  0.0000E+00  0.0000E+00  0.0000E+00  0.0000E+00
     -8.059  0.0000E+00  0.0000E+00  0.0000E+00  0.0000E+00
     -8.045  0.0000E+00  0.0000E+00  0.0000E+00  0.0000E+00
     -8.030  0.0000E+00  0.0000E+00  0.0000E+00  0.0000E+00
     -8.016  0.0000E+00  0.0000E+00  0.0000E+00  0.0000E+00
     -8.002  0.0000E+00  0.0000E+00  0.0000E+00  0.0000E+00
     -7.987  0.0000E+00  0.0000E+00  0.0000E+00  0.0000E+00
     -7.973  0.0000E+00  0.0000E+00  0.0000E+00  0.0000E+00
     -7.959  0.0000E+00  0.0000E+00  0.0000E+00  0.0000E+00
     -7.944  0.0000E+00  0.0000E+00  0.0000E+00  0.0000E+00
     -7.930  0.0000E+00  0.0000E+00  0.0000E+00  0.0000E+00
     -7.916  0.0000E+00  0.0000E+00  0.0000E+00  0.0000E+00
     -7.901  0.0000E+00  0.0000E+00  0.0000E+00  0.0000E+00
     -7.887  0.0000E+00  0.0000E+00  0.0000E+00  0.0000E+00
     -7.873  0.0000E+00  0.0000E+00  0.0000E+00  0.0000E+00
     -7.858  0.0000E+00  0.0000E+00  0.0000E+00  0.0000E+00
     -7.844  0.0000E+00  0.0000E+00  0.0000E+00  0.0000E+00
     -7.830  0.0000E+00  0.0000E+00  0.0000E+00  0.0000E+00
     -7.815  0.0000E+00  0.0000E+00  0.0000E+00  0.0000E+00
     -7.801  0.0000E+00  0.0000E+00  0.0000E+00  0.0000E+00
     -7.787  0.0000E+00  0.0000E+00  0.0000E+00  0.0000E+00
     -7.773  0.0000E+00  0.0000E+00  0.0000E+00  0.0000E+00
     -7.758  0.0000E+00  0.0000E+00  0.0000E+00  0.0000E+00
     -7.744  0.0000E+00  0.0000E+00  0.0000E+00  0.0000E+00
     -7.730  0.0000E+00  0.0000E+00  0.0000E+00  0.0000E+00
     -7.715  0.0000E+00  0.0000E+00  0.0000E+00  0.0000E+00
     -7.701  0.0000E+00  0.0000E+00  0.0000E+00  0.0000E+00
     -7.687  0.0000E+00  0.0000E+00  0.0000E+00  0.0000E+00
     -7.672  0.0000E+00  0.0000E+00  0.0000E+00  0.0000E+00
     -7.658  0.0000E+00  0.0000E+00  0.0000E+00  0.0000E+00
     -7.644  0.0000E+00  0.0000E+00  0.0000E+00  0.0000E+00
     -7.629  0.0000E+00  0.0000E+00  0.0000E+00  0.0000E+00
     -7.615  0.0000E+00  0.0000E+00  0.0000E+00  0.0000E+00
     -7.601  0.0000E+00  0.0000E+00  0.0000E+00  0.0000E+00
     -7.586  0.0000E+00  0.0000E+00  0.0000E+00  0.0000E+00
     -7.572  0.0000E+00  0.0000E+00  0.0000E+00  0.0000E+00
     -7.558  0.0000E+00  0.0000E+00  0.0000E+00  0.0000E+00
     -7.543  0.0000E+00  0.0000E+00  0.0000E+00  0.0000E+00
     -7.529  0.0000E+00  0.0000E+00  0.0000E+00  0.0000E+00
     -7.515  0.0000E+00  0.0000E+00  0.0000E+00  0.0000E+00
     -7.501  0.0000E+00  0.0000E+00  0.0000E+00  0.0000E+00
     -7.486  0.0000E+00  0.0000E+00  0.0000E+00  0.0000E+00
     -7.472  0.0000E+00  0.0000E+00  0.0000E+00  0.0000E+00
     -7.458  0.0000E+00  0.0000E+00  0.0000E+00  0.0000E+00
     -7.443  0.0000E+00  0.0000E+00  0.0000E+00  0.0000E+00
     -7.429  0.0000E+00  0.0000E+00  0.0000E+00  0.0000E+00
     -7.415  0.0000E+00  0.0000E+00  0.0000E+00  0.0000E+00
     -7.400  0.0000E+00  0.0000E+00  0.0000E+00  0.0000E+00
     -7.386  0.0000E+00  0.0000E+00  0.0000E+00  0.0000E+00
     -7.372  0.0000E+00  0.0000E+00  0.0000E+00  0.0000E+00
     -7.357  0.0000E+00  0.0000E+00  0.0000E+00  0.0000E+00
     -7.343  0.0000E+00  0.0000E+00  0.0000E+00  0.0000E+00
     -7.329  0.0000E+00  0.0000E+00  0.0000E+00  0.0000E+00
     -7.314  0.0000E+00  0.0000E+00  0.0000E+00  0.0000E+00
     -7.300  0.7093E-16  0.7093E-16  0.1015E-17  0.1015E-17
     -7.286  0.1419E-15  0.1419E-15  0.3046E-17  0.3046E-17
     -7.271  0.3547E-15  0.3547E-15  0.8124E-17  0.8124E-17
     -7.257  0.6620E-15  0.6620E-15  0.1760E-16  0.1760E-16
     -7.243  0.1560E-14  0.1560E-14  0.3994E-16  0.3994E-16
     -7.229  0.3499E-14  0.3499E-14  0.9004E-16  0.9004E-16
     -7.214  0.7732E-14  0.7732E-14  0.2007E-15  0.2007E-15
     -7.200  0.1693E-13  0.1693E-13  0.4431E-15  0.4431E-15
     -7.186  0.3686E-13  0.3686E-13  0.9708E-15  0.9708E-15
     -7.171  0.7911E-13  0.7911E-13  0.2103E-14  0.2103E-14
     -7.157  0.1683E-12  0.1683E-12  0.4513E-14  0.4513E-14
     -7.143  0.3544E-12  0.3544E-12  0.9587E-14  0.9587E-14
     -7.128  0.7384E-12  0.7384E-12  0.2016E-13  0.2016E-13
     -7.114  0.1523E-11  0.1523E-11  0.4197E-13  0.4197E-13
     -7.100  0.3111E-11  0.3111E-11  0.8650E-13  0.8650E-13
     -7.085  0.6288E-11  0.6288E-11  0.1765E-12  0.1765E-12
     -7.071  0.1258E-10  0.1258E-10  0.3567E-12  0.3567E-12
     -7.057  0.2492E-10  0.2492E-10  0.7135E-12  0.7135E-12
     -7.042  0.4887E-10  0.4887E-10  0.1413E-11  0.1413E-11
     -7.028  0.9486E-10  0.9486E-10  0.2771E-11  0.2771E-11
     -7.014  0.1823E-09  0.1823E-09  0.5381E-11  0.5381E-11
     -6.999  0.3467E-09  0.3467E-09  0.1034E-10  0.1034E-10
     -6.985  0.6528E-09  0.6528E-09  0.1969E-10  0.1969E-10
     -6.971  0.1217E-08  0.1217E-08  0.3711E-10  0.3711E-10
     -6.957  0.2245E-08  0.2245E-08  0.6924E-10  0.6924E-10
     -6.942  0.4100E-08  0.4100E-08  0.1279E-09  0.1279E-09
     -6.928  0.7413E-08  0.7413E-08  0.2341E-09  0.2341E-09
     -6.914  0.1327E-07  0.1327E-07  0.4240E-09  0.4240E-09
     -6.899  0.2351E-07  0.2351E-07  0.7606E-09  0.7606E-09
     -6.885  0.4124E-07  0.4124E-07  0.1351E-08  0.1351E-08
     -6.871  0.7161E-07  0.7161E-07  0.2376E-08  0.2376E-08
     -6.856  0.1231E-06  0.1231E-06  0.4138E-08  0.4138E-08
     -6.842  0.2094E-06  0.2094E-06  0.7137E-08  0.7137E-08
     -6.828  0.3528E-06  0.3528E-06  0.1219E-07  0.1219E-07
     -6.813  0.5884E-06  0.5884E-06  0.2061E-07  0.2061E-07
     -6.799  0.9714E-06  0.9714E-06  0.3452E-07  0.3452E-07
     -6.785  0.1588E-05  0.1588E-05  0.5725E-07  0.5725E-07
     -6.770  0.2569E-05  0.2569E-05  0.9402E-07  0.9402E-07
     -6.756  0.4115E-05  0.4115E-05  0.1529E-06  0.1529E-06
     -6.742  0.6525E-05  0.6525E-05  0.2463E-06  0.2463E-06
     -6.727  0.1024E-04  0.1024E-04  0.3930E-06  0.3930E-06
     -6.713  0.1592E-04  0.1592E-04  0.6209E-06  0.6209E-06
     -6.699  0.2450E-04  0.2450E-04  0.9716E-06  0.9716E-06
     -6.685  0.3732E-04  0.3732E-04  0.1506E-05  0.1506E-05
     -6.670  0.5628E-04  0.5628E-04  0.2311E-05  0.2311E-05
     -6.656  0.8403E-04  0.8403E-04  0.3514E-05  0.3514E-05
     -6.642  0.1242E-03  0.1242E-03  0.5293E-05  0.5293E-05
     -6.627  0.1818E-03  0.1818E-03  0.7896E-05  0.7896E-05
     -6.613  0.2635E-03  0.2635E-03  0.1167E-04  0.1167E-04
     -6.599  0.3780E-03  0.3780E-03  0.1708E-04  0.1708E-04
     -6.584  0.5369E-03  0.5369E-03  0.2477E-04  0.2477E-04
     -6.570  0.7552E-03  0.7552E-03  0.3558E-04  0.3558E-04
     -6.556  0.1052E-02  0.1052E-02  0.5063E-04  0.5063E-04
     -6.541  0.1450E-02  0.1450E-02  0.7139E-04  0.7139E-04
     -6.527  0.1980E-02  0.1980E-02  0.9973E-04  0.9973E-04
     -6.513  0.2677E-02  0.2677E-02  0.1381E-03  0.1381E-03
     -6.498  0.3583E-02  0.3583E-02  0.1893E-03  0.1893E-03
     -6.484  0.4750E-02  0.4750E-02  0.2573E-03  0.2573E-03
     -6.470  0.6234E-02  0.6234E-02  0.3466E-03  0.3466E-03
     -6.455  0.8104E-02  0.8104E-02  0.4626E-03  0.4626E-03
     -6.441  0.1043E-01  0.1043E-01  0.6120E-03  0.6120E-03
     -6.427  0.1330E-01  0.1330E-01  0.8023E-03  0.8023E-03
     -6.413  0.1679E-01  0.1679E-01  0.1043E-02  0.1043E-02
     -6.398  0.2099E-01  0.2099E-01  0.1343E-02  0.1343E-02
     -6.384  0.2600E-01  0.2600E-01  0.1715E-02  0.1715E-02
     -6.370  0.3189E-01  0.3189E-01  0.2172E-02  0.2172E-02
     -6.355  0.3875E-01  0.3875E-01  0.2727E-02  0.2727E-02
     -6.341  0.4664E-01  0.4664E-01  0.3394E-02  0.3394E-02
     -6.327  0.5560E-01  0.5560E-01  0.4190E-02  0.4190E-02
     -6.312  0.6567E-01  0.6567E-01  0.5131E-02  0.5131E-02
     -6.298  0.7685E-01  0.7685E-01  0.6231E-02  0.6231E-02
     -6.284  0.8909E-01  0.8909E-01  0.7506E-02  0.7506E-02
     -6.269  0.1024E+00  0.1024E+00  0.8971E-02  0.8971E-02
     -6.255  0.1165E+00  0.1165E+00  0.1064E-01  0.1064E-01
     -6.241  0.1315E+00  0.1315E+00  0.1252E-01  0.1252E-01
     -6.226  0.1470E+00  0.1470E+00  0.1463E-01  0.1463E-01
     -6.212  0.1629E+00  0.1629E+00  0.1696E-01  0.1696E-01
     -6.198  0.1790E+00  0.1790E+00  0.1952E-01  0.1952E-01
     -6.183  0.1951E+00  0.1951E+00  0.2231E-01  0.2231E-01
     -6.169  0.2108E+00  0.2108E+00  0.2533E-01  0.2533E-01
     -6.155  0.2258E+00  0.2258E+00  0.2856E-01  0.2856E-01
     -6.141  0.2400E+00  0.2400E+00  0.3200E-01  0.3200E-01
     -6.126  0.2531E+00  0.2531E+00  0.3562E-01  0.3562E-01
     -6.112  0.2649E+00  0.2649E+00  0.3942E-01  0.3942E-01
     -6.098  0.2751E+00  0.2751E+00  0.4336E-01  0.4336E-01
     -6.083  0.2837E+00  0.2837E+00  0.4742E-01  0.4742E-01
     -6.069  0.2906E+00  0.2906E+00  0.5158E-01  0.5158E-01
     -6.055  0.2957E+00  0.2957E+00  0.5581E-01  0.5581E-01
     -6.040  0.2989E+00  0.2989E+00  0.6009E-01  0.6009E-01
     -6.026  0.3004E+00  0.3004E+00  0.6439E-01  0.6439E-01
     -6.012  0.3002E+00  0.3002E+00  0.6869E-01  0.6869E-01
     -5.997  0.2985E+00  0.2985E+00  0.7296E-01  0.7296E-01
     -5.983  0.2954E+00  0.2954E+00  0.7719E-01  0.7719E-01
     -5.969  0.2910E+00  0.2910E+00  0.8136E-01  0.8136E-01
     -5.954  0.2856E+00  0.2856E+00  0.8544E-01  0.8544E-01
     -5.940  0.2794E+00  0.2794E+00  0.8944E-01  0.8944E-01
     -5.926  0.2725E+00  0.2725E+00  0.9334E-01  0.9334E-01
     -5.911  0.2651E+00  0.2651E+00  0.9714E-01  0.9714E-01
     -5.897  0.2575E+00  0.2575E+00  0.1008E+00  0.1008E+00
     -5.883  0.2497E+00  0.2497E+00  0.1044E+00  0.1044E+00
     -5.869  0.2420E+00  0.2420E+00  0.1079E+00  0.1079E+00
     -5.854  0.2343E+00  0.2343E+00  0.1112E+00  0.1112E+00
     -5.840  0.2269E+00  0.2269E+00  0.1145E+00  0.1145E+00
     -5.826  0.2197E+00  0.2197E+00  0.1176E+00  0.1176E+00
     -5.811  0.2129E+00  0.2129E+00  0.1207E+00  0.1207E+00
     -5.797  0.2064E+00  0.2064E+00  0.1236E+00  0.1236E+00
     -5.783  0.2003E+00  0.2003E+00  0.1265E+00  0.1265E+00
     -5.768  0.1946E+00  0.1946E+00  0.1293E+00  0.1293E+00
     -5.754  0.1893E+00  0.1893E+00  0.1320E+00  0.1320E+00
     -5.740  0.1844E+00  0.1844E+00  0.1346E+00  0.1346E+00
     -5.725  0.1799E+00  0.1799E+00  0.1372E+00  0.1372E+00
     -5.711  0.1756E+00  0.1756E+00  0.1397E+00  0.1397E+00
     -5.697  0.1717E+00  0.1717E+00  0.1422E+00  0.1422E+00
     -5.682  0.1680E+00  0.1680E+00  0.1446E+00  0.1446E+00
     -5.668  0.1646E+00  0.1646E+00  0.1469E+00  0.1469E+00
     -5.654  0.1615E+00  0.1615E+00  0.1492E+00  0.1492E+00
     -5.639  0.1585E+00  0.1585E+00  0.1515E+00  0.1515E+00
     -5.625  0.1558E+00  0.1558E+00  0.1537E+00  0.1537E+00
     -5.611  0.1532E+00  0.1532E+00  0.1559E+00  0.1559E+00
     -5.597  0.1508E+00  0.1508E+00  0.1581E+00  0.1581E+00
     -5.582  0.1485E+00  0.1485E+00  0.1602E+00  0.1602E+00
     -5.568  0.1463E+00  0.1463E+00  0.1623E+00  0.1623E+00
     -5.554  0.1443E+00  0.1443E+00  0.1644E+00  0.1644E+00
     -5.539  0.1423E+00  0.1423E+00  0.1664E+00  0.1664E+00
     -5.525  0.1405E+00  0.1405E+00  0.1684E+00  0.1684E+00
     -5.511  0.1387E+00  0.1387E+00  0.1704E+00  0.1704E+00
     -5.496  0.1370E+00  0.1370E+00  0.1724E+00  0.1724E+00
     -5.482  0.1354E+00  0.1354E+00  0.1743E+00  0.1743E+00
     -5.468  0.1339E+00  0.1339E+00  0.1762E+00  0.1762E+00
     -5.453  0.1324E+00  0.1324E+00  0.1781E+00  0.1781E+00
     -5.439  0.1309E+00  0.1309E+00  0.1800E+00  0.1800E+00
     -5.425  0.1296E+00  0.1296E+00  0.1819E+00  0.1819E+00
     -5.410  0.1283E+00  0.1283E+00  0.1837E+00  0.1837E+00
     -5.396  0.1270E+00  0.1270E+00  0.1855E+00  0.1855E+00
     -5.382  0.1257E+00  0.1257E+00  0.1873E+00  0.1873E+00
     -5.367  0.1246E+00  0.1246E+00  0.1891E+00  0.1891E+00
     -5.353  0.1234E+00  0.1234E+00  0.1909E+00  0.1909E+00
     -5.339  0.1223E+00  0.1223E+00  0.1926E+00  0.1926E+00
     -5.325  0.1212E+00  0.1212E+00  0.1943E+00  0.1943E+00
     -5.310  0.1202E+00  0.1202E+00  0.1961E+00  0.1961E+00
     -5.296  0.1192E+00  0.1192E+00  0.1978E+00  0.1978E+00
     -5.282  0.1182E+00  0.1182E+00  0.1995E+00  0.1995E+00
     -5.267  0.1173E+00  0.1173E+00  0.2011E+00  0.2011E+00
     -5.253  0.1163E+00  0.1163E+00  0.2028E+00  0.2028E+00
     -5.239  0.1155E+00  0.1155E+00  0.2045E+00  0.2045E+00
     -5.224  0.1146E+00  0.1146E+00  0.2061E+00  0.2061E+00
     -5.210  0.1137E+00  0.1137E+00  0.2077E+00  0.2077E+00
     -5.196  0.1129E+00  0.1129E+00  0.2093E+00  0.2093E+00
     -5.181  0.1121E+00  0.1121E+00  0.2110E+00  0.2110E+00
     -5.167  0.1114E+00  0.1114E+00  0.2125E+00  0.2125E+00
     -5.153  0.1106E+00  0.1106E+00  0.2141E+00  0.2141E+00
     -5.138  0.1099E+00  0.1099E+00  0.2157E+00  0.2157E+00
     -5.124  0.1092E+00  0.1092E+00  0.2173E+00  0.2173E+00
     -5.110  0.1085E+00  0.1085E+00  0.2188E+00  0.2188E+00
     -5.095  0.1078E+00  0.1078E+00  0.2204E+00  0.2204E+00
     -5.081  0.1072E+00  0.1072E+00  0.2219E+00  0.2219E+00
     -5.067  0.1065E+00  0.1065E+00  0.2234E+00  0.2234E+00
     -5.053  0.1059E+00  0.1059E+00  0.2249E+00  0.2249E+00
     -5.038  0.1053E+00  0.1053E+00  0.2264E+00  0.2264E+00
     -5.024  0.1047E+00  0.1047E+00  0.2279E+00  0.2279E+00
     -5.010  0.1041E+00  0.1041E+00  0.2294E+00  0.2294E+00
     -4.995  0.1036E+00  0.1036E+00  0.2309E+00  0.2309E+00
     -4.981  0.1030E+00  0.1030E+00  0.2324E+00  0.2324E+00
     -4.967  0.1025E+00  0.1025E+00  0.2339E+00  0.2339E+00
     -4.952  0.1020E+00  0.1020E+00  0.2353E+00  0.2353E+00
     -4.938  0.1015E+00  0.1015E+00  0.2368E+00  0.2368E+00
     -4.924  0.1010E+00  0.1010E+00  0.2382E+00  0.2382E+00
     -4.909  0.1005E+00  0.1005E+00  0.2397E+00  0.2397E+00
     -4.895  0.1000E+00  0.1000E+00  0.2411E+00  0.2411E+00
     -4.881  0.9959E-01  0.9959E-01  0.2425E+00  0.2425E+00
     -4.866  0.9915E-01  0.9915E-01  0.2439E+00  0.2439E+00
     -4.852  0.9872E-01  0.9872E-01  0.2453E+00  0.2453E+00
     -4.838  0.9831E-01  0.9831E-01  0.2468E+00  0.2468E+00
     -4.823  0.9790E-01  0.9790E-01  0.2482E+00  0.2482E+00
     -4.809  0.9751E-01  0.9751E-01  0.2496E+00  0.2496E+00
     -4.795  0.9712E-01  0.9712E-01  0.2509E+00  0.2509E+00
     -4.781  0.9675E-01  0.9675E-01  0.2523E+00  0.2523E+00
     -4.766  0.9639E-01  0.9639E-01  0.2537E+00  0.2537E+00
     -4.752  0.9603E-01  0.9603E-01  0.2551E+00  0.2551E+00
     -4.738  0.9569E-01  0.9569E-01  0.2565E+00  0.2565E+00
     -4.723  0.9537E-01  0.9537E-01  0.2578E+00  0.2578E+00
     -4.709  0.9505E-01  0.9505E-01  0.2592E+00  0.2592E+00
     -4.695  0.9474E-01  0.9474E-01  0.2605E+00  0.2605E+00
     -4.680  0.9445E-01  0.9445E-01  0.2619E+00  0.2619E+00
     -4.666  0.9417E-01  0.9417E-01  0.2632E+00  0.2632E+00
     -4.652  0.9390E-01  0.9390E-01  0.2646E+00  0.2646E+00
     -4.637  0.9364E-01  0.9364E-01  0.2659E+00  0.2659E+00
     -4.623  0.9339E-01  0.9339E-01  0.2673E+00  0.2673E+00
     -4.609  0.9316E-01  0.9316E-01  0.2686E+00  0.2686E+00
     -4.594  0.9293E-01  0.9293E-01  0.2699E+00  0.2699E+00
     -4.580  0.9271E-01  0.9271E-01  0.2712E+00  0.2712E+00
     -4.566  0.9250E-01  0.9250E-01  0.2726E+00  0.2726E+00
     -4.551  0.9231E-01  0.9231E-01  0.2739E+00  0.2739E+00
     -4.537  0.9212E-01  0.9212E-01  0.2752E+00  0.2752E+00
     -4.523  0.9195E-01  0.9195E-01  0.2765E+00  0.2765E+00
     -4.509  0.9180E-01  0.9180E-01  0.2778E+00  0.2778E+00
     -4.494  0.9166E-01  0.9166E-01  0.2792E+00  0.2792E+00
     -4.480  0.9154E-01  0.9154E-01  0.2805E+00  0.2805E+00
     -4.466  0.9144E-01  0.9144E-01  0.2818E+00  0.2818E+00
     -4.451  0.9136E-01  0.9136E-01  0.2831E+00  0.2831E+00
     -4.437  0.9131E-01  0.9131E-01  0.2844E+00  0.2844E+00
     -4.423  0.9128E-01  0.9128E-01  0.2857E+00  0.2857E+00
     -4.408  0.9128E-01  0.9128E-01  0.2870E+00  0.2870E+00
     -4.394  0.9132E-01  0.9132E-01  0.2883E+00  0.2883E+00
     -4.380  0.9139E-01  0.9139E-01  0.2896E+00  0.2896E+00
     -4.365  0.9151E-01  0.9151E-01  0.2909E+00  0.2909E+00
     -4.351  0.9169E-01  0.9169E-01  0.2922E+00  0.2922E+00
     -4.337  0.9194E-01  0.9194E-01  0.2936E+00  0.2936E+00
     -4.322  0.9228E-01  0.9228E-01  0.2949E+00  0.2949E+00
     -4.308  0.9273E-01  0.9273E-01  0.2962E+00  0.2962E+00
     -4.294  0.9332E-01  0.9332E-01  0.2975E+00  0.2975E+00
     -4.279  0.9410E-01  0.9410E-01  0.2989E+00  0.2989E+00
     -4.265  0.9509E-01  0.9509E-01  0.3002E+00  0.3002E+00
     -4.251  0.9636E-01  0.9636E-01  0.3016E+00  0.3016E+00
     -4.237  0.9796E-01  0.9796E-01  0.3030E+00  0.3030E+00
     -4.222  0.9995E-01  0.9995E-01  0.3045E+00  0.3045E+00
     -4.208  0.1024E+00  0.1024E+00  0.3059E+00  0.3059E+00
     -4.194  0.1054E+00  0.1054E+00  0.3074E+00  0.3074E+00
     -4.179  0.1090E+00  0.1090E+00  0.3090E+00  0.3090E+00
     -4.165  0.1134E+00  0.1134E+00  0.3106E+00  0.3106E+00
     -4.151  0.1185E+00  0.1185E+00  0.3123E+00  0.3123E+00
     -4.136  0.1245E+00  0.1245E+00  0.3141E+00  0.3141E+00
     -4.122  0.1315E+00  0.1315E+00  0.3160E+00  0.3160E+00
     -4.108  0.1395E+00  0.1395E+00  0.3180E+00  0.3180E+00
     -4.093  0.1486E+00  0.1486E+00  0.3201E+00  0.3201E+00
     -4.079  0.1588E+00  0.1588E+00  0.3224E+00  0.3224E+00
     -4.065  0.1701E+00  0.1701E+00  0.3248E+00  0.3248E+00
     -4.050  0.1825E+00  0.1825E+00  0.3274E+00  0.3274E+00
     -4.036  0.1960E+00  0.1960E+00  0.3302E+00  0.3302E+00
     -4.022  0.2105E+00  0.2105E+00  0.3332E+00  0.3332E+00
     -4.007  0.2258E+00  0.2258E+00  0.3365E+00  0.3365E+00
     -3.993  0.2418E+00  0.2418E+00  0.3399E+00  0.3399E+00
     -3.979  0.2582E+00  0.2582E+00  0.3436E+00  0.3436E+00
     -3.965  0.2749E+00  0.2749E+00  0.3476E+00  0.3476E+00
     -3.950  0.2915E+00  0.2915E+00  0.3517E+00  0.3517E+00
     -3.936  0.3078E+00  0.3078E+00  0.3562E+00  0.3562E+00
     -3.922  0.3235E+00  0.3235E+00  0.3608E+00  0.3608E+00
     -3.907  0.3384E+00  0.3384E+00  0.3656E+00  0.3656E+00
     -3.893  0.3520E+00  0.3520E+00  0.3707E+00  0.3707E+00
     -3.879  0.3642E+00  0.3642E+00  0.3759E+00  0.3759E+00
     -3.864  0.3748E+00  0.3748E+00  0.3812E+00  0.3812E+00
     -3.850  0.3835E+00  0.3835E+00  0.3867E+00  0.3867E+00
     -3.836  0.3903E+00  0.3903E+00  0.3923E+00  0.3923E+00
     -3.821  0.3951E+00  0.3951E+00  0.3980E+00  0.3980E+00
     -3.807  0.3978E+00  0.3978E+00  0.4037E+00  0.4037E+00
     -3.793  0.3986E+00  0.3986E+00  0.4094E+00  0.4094E+00
     -3.778  0.3975E+00  0.3975E+00  0.4151E+00  0.4151E+00
     -3.764  0.3946E+00  0.3946E+00  0.4207E+00  0.4207E+00
     -3.750  0.3902E+00  0.3902E+00  0.4263E+00  0.4263E+00
     -3.735  0.3843E+00  0.3843E+00  0.4318E+00  0.4318E+00
     -3.721  0.3773E+00  0.3773E+00  0.4372E+00  0.4372E+00
     -3.707  0.3694E+00  0.3694E+00  0.4425E+00  0.4425E+00
     -3.693  0.3607E+00  0.3607E+00  0.4477E+00  0.4477E+00
     -3.678  0.3515E+00  0.3515E+00  0.4527E+00  0.4527E+00
     -3.664  0.3420E+00  0.3420E+00  0.4576E+00  0.4576E+00
     -3.650  0.3323E+00  0.3323E+00  0.4623E+00  0.4623E+00
     -3.635  0.3227E+00  0.3227E+00  0.4670E+00  0.4670E+00
     -3.621  0.3132E+00  0.3132E+00  0.4714E+00  0.4714E+00
     -3.607  0.3040E+00  0.3040E+00  0.4758E+00  0.4758E+00
     -3.592  0.2952E+00  0.2952E+00  0.4800E+00  0.4800E+00
     -3.578  0.2867E+00  0.2867E+00  0.4841E+00  0.4841E+00
     -3.564  0.2788E+00  0.2788E+00  0.4881E+00  0.4881E+00
     -3.549  0.2713E+00  0.2713E+00  0.4920E+00  0.4920E+00
     -3.535  0.2643E+00  0.2643E+00  0.4958E+00  0.4958E+00
     -3.521  0.2578E+00  0.2578E+00  0.4995E+00  0.4995E+00
     -3.506  0.2519E+00  0.2519E+00  0.5031E+00  0.5031E+00
     -3.492  0.2464E+00  0.2464E+00  0.5066E+00  0.5066E+00
     -3.478  0.2414E+00  0.2414E+00  0.5101E+00  0.5101E+00
     -3.463  0.2368E+00  0.2368E+00  0.5135E+00  0.5135E+00
     -3.449  0.2326E+00  0.2326E+00  0.5168E+00  0.5168E+00
     -3.435  0.2287E+00  0.2287E+00  0.5201E+00  0.5201E+00
     -3.421  0.2252E+00  0.2252E+00  0.5233E+00  0.5233E+00
     -3.406  0.2220E+00  0.2220E+00  0.5265E+00  0.5265E+00
     -3.392  0.2190E+00  0.2190E+00  0.5296E+00  0.5296E+00
     -3.378  0.2162E+00  0.2162E+00  0.5327E+00  0.5327E+00
     -3.363  0.2136E+00  0.2136E+00  0.5358E+00  0.5358E+00
     -3.349  0.2112E+00  0.2112E+00  0.5388E+00  0.5388E+00
     -3.335  0.2089E+00  0.2089E+00  0.5418E+00  0.5418E+00
     -3.320  0.2067E+00  0.2067E+00  0.5447E+00  0.5447E+00
     -3.306  0.2046E+00  0.2046E+00  0.5477E+00  0.5477E+00
     -3.292  0.2026E+00  0.2026E+00  0.5506E+00  0.5506E+00
     -3.277  0.2007E+00  0.2007E+00  0.5534E+00  0.5534E+00
     -3.263  0.1989E+00  0.1989E+00  0.5563E+00  0.5563E+00
     -3.249  0.1972E+00  0.1972E+00  0.5591E+00  0.5591E+00
     -3.234  0.1956E+00  0.1956E+00  0.5619E+00  0.5619E+00
     -3.220  0.1940E+00  0.1940E+00  0.5647E+00  0.5647E+00
     -3.206  0.1926E+00  0.1926E+00  0.5674E+00  0.5674E+00
     -3.191  0.1912E+00  0.1912E+00  0.5702E+00  0.5702E+00
     -3.177  0.1900E+00  0.1900E+00  0.5729E+00  0.5729E+00
     -3.163  0.1888E+00  0.1888E+00  0.5756E+00  0.5756E+00
     -3.148  0.1878E+00  0.1878E+00  0.5783E+00  0.5783E+00
     -3.134  0.1868E+00  0.1868E+00  0.5810E+00  0.5810E+00
     -3.120  0.1860E+00  0.1860E+00  0.5836E+00  0.5836E+00
     -3.106  0.1852E+00  0.1852E+00  0.5863E+00  0.5863E+00
     -3.091  0.1844E+00  0.1844E+00  0.5889E+00  0.5889E+00
     -3.077  0.1837E+00  0.1837E+00  0.5915E+00  0.5915E+00
     -3.063  0.1831E+00  0.1831E+00  0.5942E+00  0.5942E+00
     -3.048  0.1825E+00  0.1825E+00  0.5968E+00  0.5968E+00
     -3.034  0.1819E+00  0.1819E+00  0.5994E+00  0.5994E+00
     -3.020  0.1813E+00  0.1813E+00  0.6020E+00  0.6020E+00
     -3.005  0.1808E+00  0.1808E+00  0.6046E+00  0.6046E+00
     -2.991  0.1804E+00  0.1804E+00  0.6071E+00  0.6071E+00
     -2.977  0.1800E+00  0.1800E+00  0.6097E+00  0.6097E+00
     -2.962  0.1797E+00  0.1797E+00  0.6123E+00  0.6123E+00
     -2.948  0.1795E+00  0.1795E+00  0.6149E+00  0.6149E+00
     -2.934  0.1795E+00  0.1795E+00  0.6174E+00  0.6174E+00
     -2.919  0.1797E+00  0.1797E+00  0.6200E+00  0.6200E+00
     -2.905  0.1801E+00  0.1801E+00  0.6226E+00  0.6226E+00
     -2.891  0.1809E+00  0.1809E+00  0.6252E+00  0.6252E+00
     -2.876  0.1819E+00  0.1819E+00  0.6278E+00  0.6278E+00
     -2.862  0.1833E+00  0.1833E+00  0.6304E+00  0.6304E+00
     -2.848  0.1852E+00  0.1852E+00  0.6331E+00  0.6331E+00
     -2.834  0.1875E+00  0.1875E+00  0.6357E+00  0.6357E+00
     -2.819  0.1904E+00  0.1904E+00  0.6385E+00  0.6385E+00
     -2.805  0.1939E+00  0.1939E+00  0.6412E+00  0.6412E+00
     -2.791  0.1979E+00  0.1979E+00  0.6441E+00  0.6441E+00
     -2.776  0.2027E+00  0.2027E+00  0.6470E+00  0.6470E+00
     -2.762  0.2082E+00  0.2082E+00  0.6500E+00  0.6500E+00
     -2.748  0.2144E+00  0.2144E+00  0.6530E+00  0.6530E+00
     -2.733  0.2214E+00  0.2214E+00  0.6562E+00  0.6562E+00
     -2.719  0.2291E+00  0.2291E+00  0.6595E+00  0.6595E+00
     -2.705  0.2376E+00  0.2376E+00  0.6629E+00  0.6629E+00
     -2.690  0.2469E+00  0.2469E+00  0.6664E+00  0.6664E+00
     -2.676  0.2569E+00  0.2569E+00  0.6701E+00  0.6701E+00
     -2.662  0.2674E+00  0.2674E+00  0.6739E+00  0.6739E+00
     -2.647  0.2785E+00  0.2785E+00  0.6779E+00  0.6779E+00
     -2.633  0.2900E+00  0.2900E+00  0.6821E+00  0.6821E+00
     -2.619  0.3018E+00  0.3018E+00  0.6864E+00  0.6864E+00
     -2.604  0.3136E+00  0.3136E+00  0.6909E+00  0.6909E+00
     -2.590  0.3253E+00  0.3253E+00  0.6955E+00  0.6955E+00
     -2.576  0.3368E+00  0.3368E+00  0.7003E+00  0.7003E+00
     -2.562  0.3478E+00  0.3478E+00  0.7053E+00  0.7053E+00
     -2.547  0.3582E+00  0.3582E+00  0.7104E+00  0.7104E+00
     -2.533  0.3678E+00  0.3678E+00  0.7157E+00  0.7157E+00
     -2.519  0.3765E+00  0.3765E+00  0.7211E+00  0.7211E+00
     -2.504  0.3842E+00  0.3842E+00  0.7266E+00  0.7266E+00
     -2.490  0.3910E+00  0.3910E+00  0.7322E+00  0.7322E+00
     -2.476  0.3968E+00  0.3968E+00  0.7379E+00  0.7379E+00
     -2.461  0.4016E+00  0.4016E+00  0.7436E+00  0.7436E+00
     -2.447  0.4058E+00  0.4058E+00  0.7494E+00  0.7494E+00
     -2.433  0.4093E+00  0.4093E+00  0.7553E+00  0.7553E+00
     -2.418  0.4125E+00  0.4125E+00  0.7612E+00  0.7612E+00
     -2.404  0.4157E+00  0.4157E+00  0.7672E+00  0.7672E+00
     -2.390  0.4191E+00  0.4191E+00  0.7732E+00  0.7732E+00
     -2.375  0.4232E+00  0.4232E+00  0.7792E+00  0.7792E+00
     -2.361  0.4283E+00  0.4283E+00  0.7853E+00  0.7853E+00
     -2.347  0.4348E+00  0.4348E+00  0.7916E+00  0.7916E+00
     -2.332  0.4428E+00  0.4428E+00  0.7979E+00  0.7979E+00
     -2.318  0.4529E+00  0.4529E+00  0.8044E+00  0.8044E+00
     -2.304  0.4650E+00  0.4650E+00  0.8111E+00  0.8111E+00
     -2.290  0.4796E+00  0.4796E+00  0.8179E+00  0.8179E+00