    2    2    1    2
  0.2072484E+02  0.3884592E-09  0.3884592E-09  0.3884592E-09  0.5000000E-15
   1.0000000000000000E-004
  CAR 
 unknown system                          
      8    164     48

  0.0000000E+00  0.0000000E+00  0.0000000E+00  0.6097561E-02
    1       -6.122963     -6.122963   1.000000   1.000000
    2        5.544373      5.544373   0.994693   0.994693
    3        5.544373      5.544373   0.994693   0.994693
    4        5.544373      5.544373   0.994693   0.994693
    5        8.134253      8.134253   0.000000   0.000000
    6        8.134253      8.134253   0.000000   0.000000
    7        8.134253      8.134253   0.000000   0.000000
    8        8.633553      8.633553   0.000000   0.000000
    9       13.259439     13.259439   0.000000   0.000000
   10       13.259439     13.259439   0.000000   0.000000
   11       13.359871     13.359871   0.000000   0.000000
   12       16.671314     16.671314   0.000000   0.000000
   13       16.671314     16.671314   0.000000   0.000000
   14       16.671314     16.671314   0.000000   0.000000
   15       20.749324     20.749324   0.000000   0.000000
   16       28.232300     28.232300   0.000000   0.000000
   17       28.232300     28.232300   0.000000   0.000000
   18       28.232300     28.232300   0.000000   0.000000
   19       29.349081     29.349081   0.000000   0.000000
   20       29.349081     29.349081   0.000000   0.000000
   21       30.553842     30.553842   0.000000   0.000000
   22       30.553843     30.553843   0.000000   0.000000
   23       30.553843     30.553843   0.000000   0.000000
   24       34.259407     34.259407   0.000000   0.000000
   25       34.259407     34.259407   0.000000   0.000000
   26       34.259407     34.259407   0.000000   0.000000
   27       39.725651     39.725651   0.000000   0.000000
   28       39.725651     39.725651   0.000000   0.000000
   29       39.725651     39.725651   0.000000   0.000000
   30       43.109692     43.109692   0.000000   0.000000
   31       43.430402     43.430402   0.000000   0.000000
   32       43.430402     43.430402   0.000000   0.000000
   33       45.360972     45.360972   0.000000   0.000000
   34       45.360972     45.360972   0.000000   0.000000
   35       46.658964     46.658964   0.000000   0.000000
   36       46.658964     46.658964   0.000000   0.000000
   37       46.658964     46.658964   0.000000   0.000000
   38       48.587360     48.587360   0.000000   0.000000
   39       48.587360     48.587360   0.000000   0.000000
   40       48.587360     48.587360   0.000000   0.000000
   41       49.005063     49.005063   0.000000   0.000000
   42       49.703968     49.703968   0.000000   0.000000
   43       49.703968     49.703968   0.000000   0.000000
   44       49.703968     49.703968   0.000000   0.000000
   45       49.731417     49.731417   0.000000   0.000000
   46       49.731417     49.731417   0.000000   0.000000
   47       49.731417     49.731417   0.000000   0.000000
   48       51.034070     51.034070   0.000000   0.000000

  0.2173900E-01  0.0000000E+00  0.2173900E-01  0.6097561E-02
    1       -6.114940     -6.114940   1.000000   1.000000
    2        5.486369      5.486369   0.998488   0.998488
    3        5.511054      5.511054   0.997371   0.997371
    4        5.511054      5.511054   0.997371   0.997371
    5        8.114060      8.114060   0.000000   0.000000
    6        8.177460      8.177460   0.000000   0.000000
    7        8.177460      8.177460   0.000000   0.000000
    8        8.690463      8.690463   0.000000   0.000000
    9       13.192619     13.192619   0.000000   0.000000
   10       13.268387     13.268387   0.000000   0.000000
   11       13.396072     13.396072   0.000000   0.000000
   12       16.685461     16.685461   0.000000   0.000000
   13       16.685461     16.685461   0.000000   0.000000
   14       16.718610     16.718610   0.000000   0.000000
   15       20.808011     20.808011   0.000000   0.000000
   16       28.093047     28.093047   0.000000   0.000000
   17       28.093047     28.093047   0.000000   0.000000
   18       28.242503     28.242503   0.000000   0.000000
   19       29.243083     29.243083   0.000000   0.000000
   20       29.256272     29.256272   0.000000   0.000000
   21       30.623728     30.623728   0.000000   0.000000
   22       30.649860     30.649860   0.000000   0.000000
   23       30.649860     30.649860   0.000000   0.000000
   24       34.320886     34.320886   0.000000   0.000000
   25       34.320886     34.320886   0.000000   0.000000
   26       34.370387     34.370387   0.000000   0.000000
   27       39.666633     39.666633   0.000000   0.000000
   28       39.666633     39.666633   0.000000   0.000000
   29       39.669861     39.669861   0.000000   0.000000
   30       43.149566     43.149566   0.000000   0.000000
   31       43.285927     43.285927   0.000000   0.000000
   32       43.409856     43.409856   0.000000   0.000000
   33       45.141856     45.141856   0.000000   0.000000
   34       45.349085     45.349085   0.000000   0.000000
   35       46.656050     46.656050   0.000000   0.000000
   36       46.690645     46.690645   0.000000   0.000000
   37       46.690645     46.690645   0.000000   0.000000
   38       48.376927     48.376927   0.000000   0.000000
   39       48.376927     48.376927   0.000000   0.000000
   40       48.597045     48.597045   0.000000   0.000000
   41       49.276566     49.276566   0.000000   0.000000
   42       49.354512     49.354512   0.000000   0.000000
   43       49.354512     49.354512   0.000000   0.000000
   44       49.742343     49.742343   0.000000   0.000000
   45       49.839548     49.839548   0.000000   0.000000
   46       49.890122     49.890122   0.000000   0.000000
   47       49.890122     49.890122   0.000000   0.000000
   48       51.076585     51.076585   0.000000   0.000000

  0.4347800E-01  0.0000000E+00  0.4347800E-01  0.6097561E-02
    1       -6.090841     -6.090841   1.000000   1.000000
    2        5.324262      5.324262   0.999980   0.999980
    3        5.417419      5.417419   0.999723   0.999723
    4        5.417419      5.417419   0.999723   0.999723
    5        8.055346      8.055346   0.000000   0.000000
    6        8.300733      8.300733   0.000000   0.000000
    7        8.300733      8.300733   0.000000   0.000000
    8        8.847697      8.847697   0.000000   0.000000
    9       13.008803     13.008803   0.000000   0.000000
   10       13.295222     13.295222   0.000000   0.000000
   11       13.502770     13.502770   0.000000   0.000000
   12       16.727868     16.727868   0.000000   0.000000
   13       16.727868     16.727868   0.000000   0.000000
   14       16.846976     16.846976   0.000000   0.000000
   15       20.982244     20.982244   0.000000   0.000000
   16       27.736571     27.736571   0.000000   0.000000
   17       27.736571     27.736571   0.000000   0.000000
   18       28.273283     28.273283   0.000000   0.000000
   19       28.950622     28.950622   0.000000   0.000000
   20       29.023679     29.023679   0.000000   0.000000
   21       30.787604     30.787604   0.000000   0.000000
   22       30.876363     30.876363   0.000000   0.000000
   23       30.876363     30.876363   0.000000   0.000000
   24       34.505356     34.505356   0.000000   0.000000
   25       34.505356     34.505356   0.000000   0.000000
   26       34.677210     34.677210   0.000000   0.000000
   27       39.491995     39.491995   0.000000   0.000000
   28       39.491995     39.491995   0.000000   0.000000
   29       39.508099     39.508099   0.000000   0.000000
   30       42.886029     42.886029   0.000000   0.000000
   31       43.249746     43.249746   0.000000   0.000000
   32       43.349290     43.349290   0.000000   0.000000
   33       44.631095     44.631095   0.000000   0.000000
   34       45.315795     45.315795   0.000000   0.000000
   35       46.639348     46.639348   0.000000   0.000000
   36       46.777897     46.777897   0.000000   0.000000
   37       46.777897     46.777897   0.000000   0.000000
   38       47.880561     47.880561   0.000000   0.000000
   39       47.880561     47.880561   0.000000   0.000000
   40       48.654913     48.654913   0.000000   0.000000
   41       48.807875     48.807875   0.000000   0.000000
   42       48.807875     48.807875   0.000000   0.000000
   43       49.855306     49.855306   0.000000   0.000000
   44       49.927965     49.927965   0.000000   0.000000
   45       50.133901     50.133901   0.000000   0.000000
   46       50.261576     50.261576   0.000000   0.000000
   47       50.261576     50.261576   0.000000   0.000000
   48       51.202333     51.202333   0.000000   0.000000

  0.6521700E-01  0.0000000E+00  0.6521700E-01  0.6097561E-02
    1       -6.050690     -6.050690   1.000000   1.000000
    2        5.084352      5.084352   1.000000   1.000000
    3        5.278282      5.278282   0.999995   0.999995
    4        5.278282      5.278282   0.999995   0.999995
    5        7.963124      7.963124   0.000000   0.000000
    6        8.489164      8.489164   0.000000   0.000000
    7        8.489164      8.489164   0.000000   0.000000
    8        9.073570      9.073570   0.000000   0.000000
    9       12.747301     12.747301   0.000000   0.000000
   10       13.339944     13.339944   0.000000   0.000000
   11       13.674787     13.674787   0.000000   0.000000
   12       16.798429     16.798429   0.000000   0.000000
   13       16.798429     16.798429   0.000000   0.000000
   14       17.027514     17.027514   0.000000   0.000000
   15       21.266306     21.266306   0.000000   0.000000
   16       27.260019     27.260019   0.000000   0.000000
   17       27.260019     27.260019   0.000000   0.000000
   18       28.325196     28.325196   0.000000   0.000000
   19       28.525872     28.525872   0.000000   0.000000
   20       28.715375     28.715375   0.000000   0.000000
   21       30.981354     30.981354   0.000000   0.000000
   22       31.138184     31.138184   0.000000   0.000000
   23       31.138184     31.138184   0.000000   0.000000
   24       34.810545     34.810545   0.000000   0.000000
   25       34.810545     34.810545   0.000000   0.000000
   26       35.124061     35.124061   0.000000   0.000000
   27       39.210809     39.210809   0.000000   0.000000
   28       39.210809     39.210809   0.000000   0.000000
   29       39.252660     39.252660   0.000000   0.000000
   30       42.302044     42.302044   0.000000   0.000000
   31       43.253343     43.253343   0.000000   0.000000
   32       43.300026     43.300026   0.000000   0.000000
   33       44.114392     44.114392   0.000000   0.000000
   34       45.267772     45.267772   0.000000   0.000000
   35       46.597551     46.597551   0.000000   0.000000
   36       46.883811     46.883811   0.000000   0.000000
   37       46.883811     46.883811   0.000000   0.000000
   38       47.247904     47.247904   0.000000   0.000000
   39       47.247904     47.247904   0.000000   0.000000
   40       48.375318     48.375318   0.000000   0.000000
   41       48.375318     48.375318   0.000000   0.000000
   42       48.762022     48.762022   0.000000   0.000000
   43       50.038661     50.038661   0.000000   0.000000
   44       50.540893     50.540893   0.000000   0.000000
   45       50.698926     50.698926   0.000000   0.000000
   46       50.698926     50.698926   0.000000   0.000000
   47       50.764688     50.764688   0.000000   0.000000
   48       51.406425     51.406425   0.000000   0.000000

  0.8695700E-01  0.0000000E+00  0.8695700E-01  0.6097561E-02
    1       -5.994530     -5.994530   1.000000   1.000000
    2        4.792346      4.792346   1.000000   1.000000
    3        5.109534      5.109534   1.000000   1.000000
    4        5.109534      5.109534   1.000000   1.000000
    5        7.844294      7.844294   0.000000   0.000000
    6        8.726692      8.726692   0.000000   0.000000
    7        8.726692      8.726692   0.000000   0.000000
    8        9.330642      9.330642   0.000000   0.000000
    9       12.454177     12.454177   0.000000   0.000000
   10       13.402547     13.402547   0.000000   0.000000
   11       13.904924     13.904924   0.000000   0.000000
   12       16.896947     16.896947   0.000000   0.000000
   13       16.896947     16.896947   0.000000   0.000000
   14       17.234611     17.234611   0.000000   0.000000
   15       21.650296     21.650296   0.000000   0.000000
   16       26.723805     26.723805   0.000000   0.000000
   17       26.723805     26.723805   0.000000   0.000000
   18       28.018665     28.018665   0.000000   0.000000
   19       28.365475     28.365475   0.000000   0.000000
   20       28.399273     28.399273   0.000000   0.000000
   21       31.170769     31.170769   0.000000   0.000000
   22       31.382878     31.382878   0.000000   0.000000
   23       31.382878     31.382878   0.000000   0.000000
   24       35.227263     35.227263   0.000000   0.000000
   25       35.227263     35.227263   0.000000   0.000000
   26       35.657623     35.657623   0.000000   0.000000
   27       38.834845     38.834845   0.000000   0.000000
   28       38.834845     38.834845   0.000000   0.000000
   29       38.914762     38.914762   0.000000   0.000000
   30       41.598747     41.598747   0.000000   0.000000
   31       42.961041     42.961041   0.000000   0.000000
   32       43.128115     43.128115   0.000000   0.000000
   33       44.019438     44.019438   0.000000   0.000000
   34       45.214936     45.214936   0.000000   0.000000
   35       46.494251     46.494251   0.000000   0.000000
   36       46.494251     46.494251   0.000000   0.000000
   37       46.527264     46.527264   0.000000   0.000000
   38       47.040600     47.040600   0.000000   0.000000
   39       47.040600     47.040600   0.000000   0.000000
   40       48.082226     48.082226   0.000000   0.000000
   41       48.082226     48.082226   0.000000   0.000000
   42       48.910653     48.910653   0.000000   0.000000
   43       50.286033     50.286033   0.000000   0.000000
   44       50.959810     50.959810   0.000000   0.000000
   45       51.164166     51.164166   0.000000   0.000000
   46       51.164166     51.164166   0.000000   0.000000
   47       51.682089     51.682089   0.000000   0.000000
   48       51.682185     51.682185   0.000000   0.000000

  0.1086960E+00  0.0000000E+00  0.1086960E+00  0.6097561E-02
    1       -5.922459     -5.922459   1.000000   1.000000
    2        4.467033      4.467033   1.000000   1.000000
    3        4.924046      4.924046   1.000000   1.000000
    4        4.924046      4.924046   1.000000   1.000000
    5        7.706286      7.706286   0.000000   0.000000
    6        9.000208      9.000208   0.000000   0.000000
    7        9.000208      9.000208   0.000000   0.000000
    8        9.576357      9.576357   0.000000   0.000000
    9       12.179520     12.179520   0.000000   0.000000
   10       13.483025     13.483025   0.000000   0.000000
   11       14.185272     14.185272   0.000000   0.000000
   12       17.023057     17.023057   0.000000   0.000000
   13       17.023057     17.023057   0.000000   0.000000
   14       17.453559     17.453559   0.000000   0.000000
   15       22.120664     22.120664   0.000000   0.000000
   16       26.159300     26.159300   0.000000   0.000000
   17       26.159300     26.159300   0.000000   0.000000
   18       27.463631     27.463631   0.000000   0.000000
   19       27.990098     27.990098   0.000000   0.000000
   20       28.496982     28.496982   0.000000   0.000000
   21       31.339250     31.339250   0.000000   0.000000
   22       31.594053     31.594053   0.000000   0.000000
   23       31.594053     31.594053   0.000000   0.000000
   24       35.738832     35.738832   0.000000   0.000000
   25       35.738832     35.738832   0.000000   0.000000
   26       36.238679     36.238679   0.000000   0.000000
   27       38.377847     38.377847   0.000000   0.000000
   28       38.377847     38.377847   0.000000   0.000000
   29       38.500859     38.500859   0.000000   0.000000
   30       40.821079     40.821079   0.000000   0.000000
   31       42.377202     42.377202   0.000000   0.000000
   32       42.980631     42.980631   0.000000   0.000000
   33       44.239419     44.239419   0.000000   0.000000
   34       45.169480     45.169480   0.000000   0.000000
   35       45.801909     45.801909   0.000000   0.000000
   36       45.801909     45.801909   0.000000   0.000000
   37       46.431026     46.431026   0.000000   0.000000
   38       47.024823     47.024823   0.000000   0.000000
   39       47.024823     47.024823   0.000000   0.000000
   40       47.978625     47.978625   0.000000   0.000000
   41       47.978625     47.978625   0.000000   0.000000
   42       49.093666     49.093666   0.000000   0.000000
   43       50.590418     50.590418   0.000000   0.000000
   44       51.241315     51.241315   0.000000   0.000000
   45       51.632041     51.632041   0.000000   0.000000
   46       51.632041     51.632041   0.000000   0.000000
   47       52.021853     52.021853   0.000000   0.000000
   48       52.612276     52.612276   0.000000   0.000000

  0.1304350E+00  0.0000000E+00  0.1304350E+00  0.6097561E-02
    1       -5.834525     -5.834525   1.000000   1.000000
    2        4.120580      4.120580   1.000000   1.000000
    3        4.731012      4.731012   1.000000   1.000000
    4        4.731012      4.731012   1.000000   1.000000
    5        7.556117      7.556117   0.000000   0.000000
    6        9.300254      9.300254   0.000000   0.000000
    7        9.300254      9.300254   0.000000   0.000000
    8        9.754504      9.754504   0.000000   0.000000
    9       11.985457     11.985457   0.000000   0.000000
   10       13.581348     13.581348   0.000000   0.000000
   11       14.508188     14.508188   0.000000   0.000000
   12       17.176134     17.176134   0.000000   0.000000
   13       17.176134     17.176134   0.000000   0.000000
   14       17.679087     17.679087   0.000000   0.000000
   15       22.661784     22.661784   0.000000   0.000000
   16       25.583440     25.583440   0.000000   0.000000
   17       25.583440     25.583440   0.000000   0.000000
   18       26.882309     26.882309   0.000000   0.000000
   19       27.598229     27.598229   0.000000   0.000000
   20       28.620667     28.620667   0.000000   0.000000
   21       31.477213     31.477213   0.000000   0.000000
   22       31.772675     31.772675   0.000000   0.000000
   23       31.772675     31.772675   0.000000   0.000000
   24       36.323023     36.323023   0.000000   0.000000
   25       36.323023     36.323023   0.000000   0.000000
   26       36.838569     36.838569   0.000000   0.000000
   27       37.855678     37.855678   0.000000   0.000000
   28       37.855678     37.855678   0.000000   0.000000
   29       38.015158     38.015158   0.000000   0.000000
   30       39.997602     39.997602   0.000000   0.000000
   31       41.802881     41.802881   0.000000   0.000000
   32       42.817220     42.817220   0.000000   0.000000
   33       44.537832     44.537832   0.000000   0.000000
   34       45.128966     45.128966   0.000000   0.000000
   35       45.128966     45.128966   0.000000   0.000000
   36       45.144931     45.144931   0.000000   0.000000
   37       46.313204     46.313204   0.000000   0.000000
   38       46.861319     46.861319   0.000000   0.000000
   39       46.861319     46.861319   0.000000   0.000000
   40       48.072376     48.072376   0.000000   0.000000
   41       48.072376     48.072376   0.000000   0.000000
   42       49.306041     49.306041   0.000000   0.000000
   43       50.945003     50.945003   0.000000   0.000000
   44       51.219998     51.219998   0.000000   0.000000
   45       52.001823     52.001823   0.000000   0.000000
   46       52.001823     52.001823   0.000000   0.000000
   47       52.418739     52.418739   0.000000   0.000000
   48       52.724914     52.724914   0.000000   0.000000

  0.1521740E+00  0.0000000E+00  0.1521740E+00  0.6097561E-02
    1       -5.730813     -5.730813   1.000000   1.000000
    2        3.760610      3.760610   1.000000   1.000000
    3        4.536733      4.536733   1.000000   1.000000
    4        4.536733      4.536733   1.000000   1.000000
    5        7.399866      7.399866   0.000000   0.000000
    6        9.620241      9.620241   0.000000   0.000000
    7        9.620241      9.620241   0.000000   0.000000
    8        9.799537      9.799537   0.000000   0.000000
    9       11.941887     11.941887   0.000000   0.000000
   10       13.697509     13.697509   0.000000   0.000000
   11       14.866687     14.866687   0.000000   0.000000
   12       17.355175     17.355175   0.000000   0.000000
   13       17.355175     17.355175   0.000000   0.000000
   14       17.911465     17.911465   0.000000   0.000000
   15       23.257333     23.257333   0.000000   0.000000
   16       25.006917     25.006917   0.000000   0.000000
   17       25.006917     25.006917   0.000000   0.000000
   18       26.288382     26.288382   0.000000   0.000000
   19       27.195964     27.195964   0.000000   0.000000
   20       28.773788     28.773788   0.000000   0.000000
   21       31.577203     31.577203   0.000000   0.000000
   22       31.924611     31.924611   0.000000   0.000000
   23       31.924611     31.924611   0.000000   0.000000
   24       36.921677     36.921677   0.000000   0.000000
   25       36.921677     36.921677   0.000000   0.000000
   26       37.321355     37.321355   0.000000   0.000000
   27       37.321355     37.321355   0.000000   0.000000
   28       37.434839     37.434839   0.000000   0.000000
   29       37.464119     37.464119   0.000000   0.000000
   30       39.146749     39.146749   0.000000   0.000000
   31       41.296110     41.296110   0.000000   0.000000
   32       42.643939     42.643939   0.000000   0.000000
   33       44.491347     44.491347   0.000000   0.000000
   34       44.491347     44.491347   0.000000   0.000000
   35       44.860617     44.860617   0.000000   0.000000
   36       45.156428     45.156428   0.000000   0.000000
   37       46.177926     46.177926   0.000000   0.000000
   38       46.624189     46.624189   0.000000   0.000000
   39       46.624189     46.624189   0.000000   0.000000
   40       48.254678     48.254678   0.000000   0.000000
   41       48.254678     48.254678   0.000000   0.000000
   42       49.543589     49.543589   0.000000   0.000000
   43       50.930801     50.930801   0.000000   0.000000
   44       51.343671     51.343671   0.000000   0.000000
   45       51.955669     51.955669   0.000000   0.000000
   46       51.955669     51.955669   0.000000   0.000000
   47       52.866652     52.866654   0.000000   0.000000
   48       52.944341     52.944341   0.000000   0.000000

  0.1739130E+00  0.0000000E+00  0.1739130E+00  0.6097561E-02
    1       -5.611458     -5.611458   1.000000   1.000000
    2        3.391958      3.391958   1.000000   1.000000
    3        4.345501      4.345501   1.000000   1.000000
    4        4.345501      4.345501   1.000000   1.000000
    5        7.242560      7.242560   0.000000   0.000000
    6        9.686178      9.686178   0.000000   0.000000
    7        9.955575      9.955575   0.000000   0.000000
    8        9.955575      9.955575   0.000000   0.000000
    9       12.077186     12.077186   0.000000   0.000000
   10       13.831488     13.831489   0.000000   0.000000
   11       15.254477     15.254477   0.000000   0.000000
   12       17.558454     17.558454   0.000000   0.000000
   13       17.558454     17.558454   0.000000   0.000000
   14       18.153392     18.153392   0.000000   0.000000
   15       23.890941     23.890941   0.000000   0.000000
   16       24.437142     24.437142   0.000000   0.000000
   17       24.437142     24.437142   0.000000   0.000000
   18       25.690132     25.690132   0.000000   0.000000
   19       26.788087     26.788087   0.000000   0.000000
   20       28.961285     28.961285   0.000000   0.000000
   21       31.631758     31.631758   0.000000   0.000000
   22       32.054133     32.054133   0.000000   0.000000
   23       32.054133     32.054133   0.000000   0.000000
   24       36.613434     36.613434   0.000000   0.000000
   25       36.613434     36.613434   0.000000   0.000000
   26       36.860313     36.860313   0.000000   0.000000
   27       37.694331     37.694331   0.000000   0.000000
   28       37.694331     37.694331   0.000000   0.000000
   29       38.007460     38.007460   0.000000   0.000000
   30       38.280664     38.280664   0.000000   0.000000
   31       40.871875     40.871875   0.000000   0.000000
   32       42.465753     42.465753   0.000000   0.000000
   33       43.892841     43.892841   0.000000   0.000000
   34       43.892841     43.892841   0.000000   0.000000
   35       45.185375     45.185375   0.000000   0.000000
   36       45.220202     45.220202   0.000000   0.000000
   37       46.028421     46.028421   0.000000   0.000000
   38       46.370585     46.370585   0.000000   0.000000
   39       46.370585     46.370585   0.000000   0.000000
   40       48.437096     48.437096   0.000000   0.000000
   41       48.437096     48.437096   0.000000   0.000000
   42       49.804264     49.804264   0.000000   0.000000
   43       50.520263     50.520263   0.000000   0.000000
   44       51.746870     51.746870   0.000000   0.000000
   45       51.746870     51.746870   0.000000   0.000000
   46       51.781103     51.781103   0.000000   0.000000
   47       53.360708     53.360526   0.000000   0.000000
   48       53.449391     53.449391   0.000000   0.000000

  0.1956520E+00  0.0000000E+00  0.1956520E+00  0.6097561E-02
    1       -5.476620     -5.476620   1.000000   1.000000
    2        3.017725      3.017725   1.000000   1.000000
    3        4.160291      4.160291   1.000000   1.000000
    4        4.160291      4.160291   1.000000   1.000000
    5        7.088271      7.088271   0.000000   0.000000
    6        9.456847      9.456847   0.000000   0.000000
    7       10.303012     10.303012   0.000000   0.000000
    8       10.303012     10.303012   0.000000   0.000000
    9       12.351006     12.351006   0.000000   0.000000
   10       13.983263     13.983263   0.000000   0.000000
   11       15.665766     15.665766   0.000000   0.000000
   12       17.783154     17.783154   0.000000   0.000000
   13       17.783154     17.783154   0.000000   0.000000
   14       18.408232     18.408232   0.000000   0.000000
   15       23.880868     23.880868   0.000000   0.000000
   16       23.880868     23.880868   0.000000   0.000000
   17       24.545944     24.545944   0.000000   0.000000
   18       25.093497     25.093497   0.000000   0.000000
   19       26.379104     26.379104   0.000000   0.000000
   20       29.190243     29.190243   0.000000   0.000000
   21       31.632517     31.632517   0.000000   0.000000
   22       32.160972     32.160972   0.000000   0.000000
   23       32.160972     32.160972   0.000000   0.000000
   24       35.975106     35.975106   0.000000   0.000000
   25       35.975106     35.975106   0.000000   0.000000
   26       36.222770     36.222770   0.000000   0.000000
   27       37.407788     37.407788   0.000000   0.000000
   28       38.401190     38.401190   0.000000   0.000000
   29       38.401190     38.401190   0.000000   0.000000
   30       38.537575     38.537575   0.000000   0.000000
   31       40.530706     40.530706   0.000000   0.000000
   32       42.286713     42.286713   0.000000   0.000000
   33       43.333906     43.333906   0.000000   0.000000
   34       43.333906     43.333906   0.000000   0.000000
   35       45.353478     45.353478   0.000000   0.000000
   36       45.495251     45.495251   0.000000   0.000000
   37       45.867013     45.867013   0.000000   0.000000
   38       46.121282     46.121282   0.000000   0.000000
   39       46.121282     46.121282   0.000000   0.000000
   40       48.566856     48.566856   0.000000   0.000000
   41       48.566856     48.566856   0.000000   0.000000
   42       50.068870     50.068870   0.000000   0.000000
   43       50.089196     50.089196   0.000000   0.000000
   44       51.621240     51.621240   0.000000   0.000000
   45       51.621240     51.621240   0.000000   0.000000
   46       52.252803     52.252803   0.000000   0.000000
   47       53.896301     53.896300   0.000000   0.000000
   48       54.019417     54.019430   0.000000   0.000000

  0.2173910E+00  0.0000000E+00  0.2173910E+00  0.6097561E-02
    1       -5.326426     -5.326426   1.000000   1.000000
    2        2.640021      2.640021   1.000000   1.000000
    3        3.983229      3.983229   1.000000   1.000000
    4        3.983229      3.983229   1.000000   1.000000
    5        6.940280      6.940280   0.000000   0.000000
    6        9.168451      9.168451   0.000000   0.000000
    7       10.660200     10.660200   0.000000   0.000000
    8       10.660200     10.660200   0.000000   0.000000
    9       12.707656     12.707656   0.000000   0.000000
   10       14.152805     14.152805   0.000000   0.000000
   11       16.094862     16.094862   0.000000   0.000000
   12       18.024477     18.024477   0.000000   0.000000
   13       18.024477     18.024477   0.000000   0.000000
   14       18.679242     18.679242   0.000000   0.000000
   15       23.345445     23.345445   0.000000   0.000000
   16       23.345445     23.345445   0.000000   0.000000
   17       24.502175     24.502175   0.000000   0.000000
   18       25.204649     25.204649   0.000000   0.000000
   19       25.973647     25.973647   0.000000   0.000000
   20       29.470349     29.470349   0.000000   0.000000
   21       31.569445     31.569445   0.000000   0.000000
   22       32.236469     32.236469   0.000000   0.000000