       N       E                     dE             d eps       ncg     rms          rms(c)
DAV:   1     0.151860260189E+02    0.15186E+02   -0.29675E+03 31488   0.131E+02
DAV:   2    -0.650571681704E+01   -0.21692E+02   -0.21025E+02 41984   0.356E+01
DAV:   3    -0.684494113636E+01   -0.33922E+00   -0.33809E+00 40528   0.357E+00
DAV:   4    -0.684536412128E+01   -0.42298E-03   -0.42298E-03 36704   0.142E-01
DAV:   5    -0.684536479208E+01   -0.67080E-06   -0.67086E-06 41136   0.558E-03    0.519E+00
DAV:   6    -0.725405864961E+01   -0.40869E+00   -0.83991E-02 36912   0.400E-01    0.264E+00
DAV:   7    -0.722025250364E+01    0.33806E-01   -0.80319E-02 38000   0.381E-01    0.162E+00
DAV:   8    -0.724475509134E+01   -0.24503E-01   -0.25512E-02 38416   0.224E-01    0.673E-01
DAV:   9    -0.724102475409E+01    0.37303E-02   -0.48079E-04 38944   0.384E-02    0.124E-01
DAV:  10    -0.723190940168E+01    0.91154E-02   -0.10822E-03 37152   0.418E-02    0.699E-02
DAV:  11    -0.723196758987E+01   -0.58188E-04   -0.80869E-05 37504   0.159E-02    0.324E-02
DAV:  12    -0.723233390901E+01   -0.36632E-03   -0.74459E-06 39456   0.344E-03    0.201E-02
DAV:  13    -0.723229352556E+01    0.40383E-04   -0.15729E-06 37504   0.240E-03    0.478E-03
DAV:  14    -0.723236152240E+01   -0.67997E-04   -0.66249E-07 36400   0.139E-03    0.113E-03
DAV:  15    -0.723238344185E+01   -0.21919E-04   -0.28621E-08 34816   0.267E-04    0.595E-04
DAV:  16    -0.723239009833E+01   -0.66565E-05   -0.14883E-08 30784   0.216E-04    0.221E-04
DAV:  17    -0.723239100193E+01   -0.90360E-06   -0.22834E-09 26368   0.832E-05    0.414E-05
DAV:  18    -0.723239120826E+01   -0.20632E-06   -0.50313E-11 18208   0.146E-05    0.151E-05
DAV:  19    -0.723239097291E+01    0.23534E-06   -0.50482E-12 18176   0.496E-06    0.108E-05
DAV:  20    -0.723239074272E+01    0.23019E-06   -0.15892E-12 17504   0.240E-06    0.148E-06
DAV:  21    -0.723239074843E+01   -0.57078E-08   -0.45648E-14 17632   0.596E-07
   1 F= -.72323907E+01 E0= -.72319704E+01  d E =-.723239E+01  mag=    -0.0000
