 vasp.5.4.1 24Jun15 (build Feb  9 2019 14:16:27) complex                         
 executed on           IFC91_ompi date 2020.09.26  22:40:05
 running on   16 total cores
 distrk:  each k-point on   16 cores,    1 groups
 distr:  one band on NCORES_PER_BAND=   1 cores,   16 groups


--------------------------------------------------------------------------------------------------------


 INCAR:
 POTCAR:    PAW_PBE Si 05Jan2001                  

 ----------------------------------------------------------------------------- 
|                                                                             |
|           W    W    AA    RRRRR   N    N  II  N    N   GGGG   !!!           |
|           W    W   A  A   R    R  NN   N  II  NN   N  G    G  !!!           |
|           W    W  A    A  R    R  N N  N  II  N N  N  G       !!!           |
|           W WW W  AAAAAA  RRRRR   N  N N  II  N  N N  G  GGG   !            |
|           WW  WW  A    A  R   R   N   NN  II  N   NN  G    G                |
|           W    W  A    A  R    R  N    N  II  N    N   GGGG   !!!           |
|                                                                             |
|      For optimal performance we recommend to set                            |
|        NCORE= 4 - approx SQRT( number of cores)                             |
|      NCORE specifies how many cores store one orbital (NPAR=cpu/NCORE).     |
|      This setting can  greatly improve the performance of VASP for DFT.     |
|      The default, NPAR=number of cores might be grossly inefficient         |
|      on modern multi-core architectures or massively parallel machines.     |
|      Do your own testing !!!!                                               |
|      Unfortunately you need to use the default for GW and RPA calculations. |
|      (for HF NCORE is supported but not extensively tested yet)             |
|                                                                             |
 ----------------------------------------------------------------------------- 


 ----------------------------------------------------------------------------- 
|                                                                             |
|  ADVICE TO THIS USER RUNNING 'VASP/VAMP'   (HEAR YOUR MASTER'S VOICE ...):  |
|                                                                             |
|      You have switched on vdW-DFT.                                          |
|      This routine was written and supplied by Jiri Klimes.                  |
|      We recommed that you carefully read and cite the following             |
|      publication                                                            |
|      J. Klimes, D.R. Bowler, A. Michelides                                  |
|        J. Phys.: Cond Matt. 22 022201 (2010)                                |
|      J. Klimes, D.R. Bowler, A. Michelides                                  |
|        Phys. Rev. B. 83, 195131 (2011)                                      |
|      and references therein.                                                |
|                                                                             |
 ----------------------------------------------------------------------------- 

 POTCAR:    PAW_PBE Si 05Jan2001                  
   VRHFIN =Si: s2p2                                                             
   LEXCH  = PE                                                                  
   EATOM  =   103.0669 eV,    7.5752 Ry                                         
                                                                                
   TITEL  = PAW_PBE Si 05Jan2001                                                
   LULTRA =        F    use ultrasoft PP ?                                      
   IUNSCR =        1    unscreen: 0-lin 1-nonlin 2-no                           
   RPACOR =    1.500    partial core radius                                     
   POMASS =   28.085; ZVAL   =    4.000    mass and valenz                      
   RCORE  =    1.900    outmost cutoff radius                                   
   RWIGS  =    2.480; RWIGS  =    1.312    wigner-seitz radius (au A)           
   ENMAX  =  245.345; ENMIN  =  184.009 eV                                      
   ICORE  =        2    local potential                                         
   LCOR   =        T    correct aug charges                                     
   LPAW   =        T    paw PP                                                  
   EAUG   =  322.069                                                            
   DEXC   =    0.000                                                            
   RMAX   =    1.950    core radius for proj-oper                               
   RAUG   =    1.300    factor for augmentation sphere                          
   RDEP   =    1.993    radius for radial grids                                 
   RDEPT  =    1.837    core radius for aug-charge                              
                                                                                
   Atomic configuration                                                         
    6 entries                                                                   
     n  l   j            E        occ.                                          
     1  0  0.50     -1785.8828   2.0000                                         
     2  0  0.50      -139.4969   2.0000                                         
     2  1  1.50       -95.5546   6.0000                                         
     3  0  0.50       -10.8127   2.0000                                         
     3  1  0.50        -4.0811   2.0000                                         
     3  2  1.50        -4.0817   0.0000                                         
   Description                                                                  
     l       E           TYP  RCUT    TYP  RCUT                                 
     0    -10.8127223     23  1.900                                             
     0     -7.6451159     23  1.900                                             
     1     -4.0811372     23  1.900                                             
     1      2.4879257     23  1.900                                             
     2     -4.0817478      7  1.900                                             
  local pseudopotential read in
  partial core-charges read in
  partial kinetic energy density read in
  atomic valenz-charges read in
  non local Contribution for L=           0  read in
    real space projection operators read in
  non local Contribution for L=           0  read in
    real space projection operators read in
  non local Contribution for L=           1  read in
    real space projection operators read in
  non local Contribution for L=           1  read in
    real space projection operators read in
    PAW grid and wavefunctions read in

   number of l-projection  operators is LMAX  =           4
   number of lm-projection operators is LMMAX =           8


 ----------------------------------------------------------------------------- 
|                                                                             |
|  ADVICE TO THIS USER RUNNING 'VASP/VAMP'   (HEAR YOUR MASTER'S VOICE ...):  |
|                                                                             |
|      You enforced a specific xc-type in the INCAR file,                     |
|      a different type was found on the POTCAR file                          |
|          I HOPE YOU KNOW, WHAT YOU ARE  DOING                               |
|                                                                             |
 ----------------------------------------------------------------------------- 

  PAW_PBE Si 05Jan2001                  :
 energy of atom  1       EATOM= -103.0669
 kinetic energy error for atom=    0.0006 (will be added to EATOM!!)


 POSCAR: bulk@JVASP-1002                         
  positions in direct lattice
  No initial velocities read in
 exchange correlation table for  LEXCH =       42
   RHO(1)=    0.500       N(1)  =     2000
   RHO(2)=  100.500       N(2)  =     4000



--------------------------------------------------------------------------------------------------------


 ion  position               nearest neighbor table
   1  0.750  0.750  0.750-   2 2.38   2 2.38   2 2.38   2 2.38
   2  0.500  0.500  0.500-   1 2.38   1 2.38   1 2.38   1 2.38

  LATTYP: Found a face centered cubic cell.
 ALAT       =     5.4936422752
  
  Lattice vectors:
  
 A1 = (   0.0000000000,   2.7468211376,   2.7468211376)
 A2 = (   2.7468211376,   0.0000000000,   2.7468211376)
 A3 = (   2.7468211376,   2.7468211376,   0.0000000000)


Analysis of symmetry for initial positions (statically):
=====================================================================
 Subroutine PRICEL returns:
 Original cell was already a primitive cell.
 

 Routine SETGRP: Setting up the symmetry group for a 
 face centered cubic supercell.


 Subroutine GETGRP returns: Found 48 space group operations
 (whereof 24 operations were pure point group operations)
 out of a pool of 48 trial point group operations.


The static configuration has the point symmetry T_d .
 The point group associated with its full space group is O_h .


Analysis of symmetry for dynamics (positions and initial velocities):
=====================================================================
 Subroutine PRICEL returns:
 Original cell was already a primitive cell.
 

 Routine SETGRP: Setting up the symmetry group for a 
 face centered cubic supercell.


 Subroutine GETGRP returns: Found 48 space group operations
 (whereof 24 operations were pure point group operations)
 out of a pool of 48 trial point group operations.


The dynamic configuration has the point symmetry T_d .
 The point group associated with its full space group is O_h .


Analysis of magnetic symmetry:
=====================================================================
 Subroutine PRICEL returns:
 Original cell was already a primitive cell.
 

 Subroutine MAGSYM returns: Found 48 space group operations
 (whereof 24 operations were pure point group operations)
 out of a pool of 48 trial space group operations
 (whereof 24 operations were pure point group operations)
 and found also     1 'primitive' translations


The magnetic configuration has the point symmetry T_d .
 The point group associated with its full space group is O_h .


 KPOINTS: Non SCF run along symmetry lines        
  k-points in reciprocal lattice
Space group operators:
 irot       det(A)        alpha          n_x          n_y          n_z        tau_x        tau_y        tau_z
    1     1.000000     0.000000     1.000000     0.000000     0.000000     0.000000     0.000000     0.000000
    2     1.000000   120.000000    -0.577350    -0.577350    -0.577350     0.000000     0.000000     0.000000
    3     1.000000   120.000000     0.577350     0.577350     0.577350     0.000000     0.000000     0.000000
    4    -1.000000    90.000000     0.000000     0.000000    -1.000000     0.000000     0.000000     0.000000
    5    -1.000000   180.000000     0.000000     0.707107     0.707107     0.000000     0.000000     0.000000
    6    -1.000000    90.000000     0.000000     1.000000     0.000000     0.000000     0.000000     0.000000
    7     1.000000   180.000000     0.000000     0.000000     1.000000     0.000000     0.000000     0.000000
    8     1.000000   120.000000    -0.577350     0.577350     0.577350     0.000000     0.000000     0.000000
    9     1.000000   120.000000    -0.577350     0.577350    -0.577350     0.000000     0.000000     0.000000
   10    -1.000000    90.000000     0.000000     0.000000     1.000000     0.000000     0.000000     0.000000
   11    -1.000000    90.000000    -1.000000     0.000000     0.000000     0.000000     0.000000     0.000000
   12    -1.000000   180.000000     0.707107     0.000000     0.707107     0.000000     0.000000     0.000000
   13     1.000000   120.000000     0.577350    -0.577350     0.577350     0.000000     0.000000     0.000000
   14     1.000000   120.000000    -0.577350    -0.577350     0.577350     0.000000     0.000000     0.000000
   15     1.000000   180.000000     1.000000     0.000000     0.000000     0.000000     0.000000     0.000000
   16    -1.000000    90.000000     0.000000    -1.000000     0.000000     0.000000     0.000000     0.000000
   17    -1.000000   180.000000     0.707107     0.707107     0.000000     0.000000     0.000000     0.000000
   18    -1.000000    90.000000     1.000000     0.000000     0.000000     0.000000     0.000000     0.000000
   19     1.000000   120.000000     0.577350    -0.577350    -0.577350     0.000000     0.000000     0.000000
   20     1.000000   180.000000     0.000000     1.000000     0.000000     0.000000     0.000000     0.000000
   21     1.000000   120.000000     0.577350     0.577350    -0.577350     0.000000     0.000000     0.000000
   22    -1.000000   180.000000     0.000000    -0.707107     0.707107     0.000000     0.000000     0.000000
   23    -1.000000   180.000000     0.707107    -0.707107     0.000000     0.000000     0.000000     0.000000
   24    -1.000000   180.000000     0.707107     0.000000    -0.707107     0.000000     0.000000     0.000000
   25    -1.000000     0.000000     1.000000     0.000000     0.000000     0.250000     0.250000     0.250000
   26    -1.000000   120.000000    -0.577350    -0.577350    -0.577350     0.250000     0.250000     0.250000
   27    -1.000000   120.000000     0.577350     0.577350     0.577350     0.250000     0.250000     0.250000
   28     1.000000    90.000000     0.000000     0.000000    -1.000000     0.250000     0.250000     0.250000
   29     1.000000   180.000000     0.000000     0.707107     0.707107     0.250000     0.250000     0.250000
   30     1.000000    90.000000     0.000000     1.000000     0.000000     0.250000     0.250000     0.250000
   31    -1.000000   180.000000     0.000000     0.000000     1.000000     0.250000     0.250000     0.250000
   32    -1.000000   120.000000    -0.577350     0.577350     0.577350     0.250000     0.250000     0.250000
   33    -1.000000   120.000000    -0.577350     0.577350    -0.577350     0.250000     0.250000     0.250000
   34     1.000000    90.000000     0.000000     0.000000     1.000000     0.250000     0.250000     0.250000
   35     1.000000    90.000000    -1.000000     0.000000     0.000000     0.250000     0.250000     0.250000
   36     1.000000   180.000000     0.707107     0.000000     0.707107     0.250000     0.250000     0.250000
   37    -1.000000   120.000000     0.577350    -0.577350     0.577350     0.250000     0.250000     0.250000
   38    -1.000000   120.000000    -0.577350    -0.577350     0.577350     0.250000     0.250000     0.250000
   39    -1.000000   180.000000     1.000000     0.000000     0.000000     0.250000     0.250000     0.250000
   40     1.000000    90.000000     0.000000    -1.000000     0.000000     0.250000     0.250000     0.250000
   41     1.000000   180.000000     0.707107     0.707107     0.000000     0.250000     0.250000     0.250000
   42     1.000000    90.000000     1.000000     0.000000     0.000000     0.250000     0.250000     0.250000
   43    -1.000000   120.000000     0.577350    -0.577350    -0.577350     0.250000     0.250000     0.250000
   44    -1.000000   180.000000     0.000000     1.000000     0.000000     0.250000     0.250000     0.250000
   45    -1.000000   120.000000     0.577350     0.577350    -0.577350     0.250000     0.250000     0.250000
   46     1.000000   180.000000     0.000000    -0.707107     0.707107     0.250000     0.250000     0.250000
   47     1.000000   180.000000     0.707107    -0.707107     0.000000     0.250000     0.250000     0.250000
   48     1.000000   180.000000     0.707107     0.000000    -0.707107     0.250000     0.250000     0.250000

 ----------------------------------------------------------------------------- 
|                                                                             |
|           W    W    AA    RRRRR   N    N  II  N    N   GGGG   !!!           |
|           W    W   A  A   R    R  NN   N  II  NN   N  G    G  !!!           |
|           W    W  A    A  R    R  N N  N  II  N N  N  G       !!!           |
|           W WW W  AAAAAA  RRRRR   N  N N  II  N  N N  G  GGG   !            |
|           WW  WW  A    A  R   R   N   NN  II  N   NN  G    G                |
|           W    W  A    A  R    R  N    N  II  N    N   GGGG   !!!           |
|                                                                             |
|      The number of bands has been changed from the values supplied          |
|      in the INCAR file. This is a result of running the parallel version.   |
|      The orbitals not found in the WAVECAR file will be initialized with    |
|      random numbers, which is usually adequate. For correlated              |
|      calculations, however, you should redo the groundstate calculation.    |
|      I found NBANDS    =       41  now  NBANDS  =      48                   |
|                                                                             |
 ----------------------------------------------------------------------------- 



--------------------------------------------------------------------------------------------------------




 Dimension of arrays:
   k-points           NKPTS =      164   k-points in BZ     NKDIM =      164   number of bands    NBANDS=     48
   number of dos      NEDOS =   5000   number of ions     NIONS =      2
   non local maximal  LDIM  =      4   non local SUM 2l+1 LMDIM =      8
   total plane-waves  NPLWV =  21952
   max r-space proj   IRMAX =      1   max aug-charges    IRDMAX=  17905
   dimension x,y,z NGX =    28 NGY =   28 NGZ =   28
   dimension x,y,z NGXF=    56 NGYF=   56 NGZF=   56
   support grid    NGXF=    56 NGYF=   56 NGZF=   56
   ions per type =               2
 NGX,Y,Z   is equivalent  to a cutoff of  11.98, 11.98, 11.98 a.u.
 NGXF,Y,Z  is equivalent  to a cutoff of  23.97, 23.97, 23.97 a.u.


 I would recommend the setting:
   dimension x,y,z NGX =    28 NGY =   28 NGZ =   28
 SYSTEM =  unknown system                          
 POSCAR =  bulk@JVASP-1002                         

 Startparameter for this run:
   NWRITE =      2    write-flag & timer
   PREC   = accura    normal or accurate (medium, high low for compatibility)
   ISTART =      0    job   : 0-new  1-cont  2-samecut
   ICHARG =      2    charge: 1-file 2-atom 10-const
   ISPIN  =      2    spin polarized calculation?
   LNONCOLLINEAR =      F non collinear calculations
   LSORBIT =      F    spin-orbit coupling
   INIWAV =      1    electr: 0-lowe 1-rand  2-diag
   LASPH  =      F    aspherical Exc in radial PAW
   METAGGA=      F    non-selfconsistent MetaGGA calc.

 Electronic Relaxation 1
   ENCUT  =  500.0 eV  36.75 Ry    6.06 a.u.   7.08  7.08  7.08*2*pi/ulx,y,z
   ENINI  =  500.0     initial cutoff
   ENAUG  =  322.1 eV  augmentation charge cutoff
   NELM   =    500;   NELMIN=  2; NELMDL= -5     # of ELM steps 
   EDIFF  = 0.1E-06   stopping-criterion for ELM
   LREAL  =      F    real-space projection
   NLSPLINE    = F    spline interpolate recip. space projectors
   LCOMPAT=      F    compatible to vasp.4.4
   GGA_COMPAT  = T    GGA compatible to vasp.4.4-vasp.4.6
   LMAXPAW     = -100 max onsite density
   LMAXMIX     =    2 max onsite mixed and CHGCAR
   VOSKOWN=      0    Vosko Wilk Nusair interpolation
   ROPT   =    0.00000
 Ionic relaxation
   EDIFFG = 0.1E-05   stopping-criterion for IOM
   NSW    =      1    number of steps for IOM
   NBLOCK =      1;   KBLOCK =      1    inner block; outer block 
   IBRION =      1    ionic relax: 0-MD 1-quasi-New 2-CG
   NFREE  =      0    steps in history (QN), initial steepest desc. (CG)
   ISIF   =      2    stress and relaxation
   IWAVPR =     11    prediction:  0-non 1-charg 2-wave 3-comb
   ISYM   =      2    0-nonsym 1-usesym 2-fastsym
   LCORR  =      T    Harris-Foulkes like correction to forces

   POTIM  = 0.5000    time-step for ionic-motion
   TEIN   =    0.0    initial temperature
   TEBEG  =    0.0;   TEEND  =   0.0 temperature during run
   SMASS  =  -3.00    Nose mass-parameter (am)
   estimated Nose-frequenzy (Omega)   =  0.10E-29 period in steps =****** mass=  -0.345E-27a.u.
   SCALEE = 1.0000    scale energy and forces
   NPACO  =    256;   APACO  = 16.0  distance and # of slots for P.C.
   PSTRESS=    0.0 pullay stress

  Mass of Ions in am
   POMASS =  28.09
  Ionic Valenz
   ZVAL   =   4.00
  Atomic Wigner-Seitz radii
   RWIGS  =  -1.00
  virtual crystal weights 
   VCA    =   1.00
   NELECT =       8.0000    total number of electrons
   NUPDOWN=      -1.0000    fix difference up-down

 DOS related values:
   EMIN   =  10.00;   EMAX   =-10.00  energy-range for DOS
   EFERMI =   0.00
   ISMEAR =     0;   SIGMA  =   0.20  broadening in eV -4-tet -1-fermi 0-gaus

 Electronic relaxation 2 (details)
   IALGO  =     38    algorithm
   LDIAG  =      T    sub-space diagonalisation (order eigenvalues)
   LSUBROT=      F    optimize rotation matrix (better conditioning)
   TURBO    =      0    0=normal 1=particle mesh
   IRESTART =      0    0=no restart 2=restart with 2 vectors
   NREBOOT  =      0    no. of reboots
   NMIN     =      0    reboot dimension
   EREF     =   0.00    reference energy to select bands
   IMIX   =      4    mixing-type and parameters
     AMIX     =   0.40;   BMIX     =  1.00
     AMIX_MAG =   1.60;   BMIX_MAG =  1.00
     AMIN     =   0.10
     WC   =   100.;   INIMIX=   1;  MIXPRE=   1;  MAXMIX= -45

 Intra band minimization:
   WEIMIN = 0.0010     energy-eigenvalue tresh-hold
   EBREAK =  0.52E-09  absolut break condition
   DEPER  =   0.30     relativ break condition  

   TIME   =   0.40     timestep for ELM

  volume/ion in A,a.u.               =      20.72       139.86
  Fermi-wavevector in a.u.,A,eV,Ry     =   0.946087  1.787845 12.178313  0.895081
  Thomas-Fermi vector in A             =   2.074051

 Write flags
   LWAVE  =      F    write WAVECAR
   LCHARG =      F    write CHGCAR
   LVTOT  =      F    write LOCPOT, total local potential
   LVHAR  =      F    write LOCPOT, Hartree potential only
   LELF   =      F    write electronic localiz. function (ELF)
   LORBIT =     11    0 simple, 1 ext, 2 COOP (PROOUT)


 Dipole corrections
   LMONO  =      F    monopole corrections only (constant potential shift)
   LDIPOL =      F    correct potential (dipole corrections)
   IDIPOL =      0    1-x, 2-y, 3-z, 4-all directions 
   EPSILON=  1.0000000 bulk dielectric constant

 Exchange correlation treatment:
   GGA     =    BO    GGA type
   LEXCH   =    42    internal setting for exchange type
   VOSKOWN=      0    Vosko Wilk Nusair interpolation
   LHFCALC =     F    Hartree Fock is set to
   LHFONE  =     F    Hartree Fock one center treatment
   AEXX    =    0.0000 exact exchange contribution

 vdW DFT:
   LUSE_VDW   =     T    switch on vdW DFT
   Zab_VDW    =-.8491    correlation parameter
   PARAM1     =0.1833
   PARAM2     =0.2200
   PARAM3     =0.0000

 Linear response parameters
   LEPSILON=     F    determine dielectric tensor
   LRPA    =     F    only Hartree local field effects (RPA)
   LNABLA  =     F    use nabla operator in PAW spheres
   LVEL    =     F    velocity operator in full k-point grid
   LINTERFAST=   F  fast interpolation
   KINTER  =     0    interpolate to denser k-point grid
   CSHIFT  =0.1000    complex shift for real part using Kramers Kronig
   OMEGAMAX=  -1.0    maximum frequency
   DEG_THRESHOLD= 0.2000000E-02 threshold for treating states as degnerate
   RTIME   =    0.100 relaxation time in fs

 Orbital magnetization related:
   ORBITALMAG=     F  switch on orbital magnetization
   LCHIMAG   =     F  perturbation theory with respect to B field
   DQ        =  0.001000  dq finite difference perturbation B field



--------------------------------------------------------------------------------------------------------


 quasi-Newton-method for relaxation of ions
 charge density and potential will be updated during run
 spin polarized calculation
 Variant of blocked Davidson
 Davidson routine will perform the subspace rotation
 perform sub-space diagonalisation
    after iterative eigenvector-optimisation
 modified Broyden-mixing scheme, WC =      100.0
 initial mixing is a Kerker type mixing with AMIX =  0.4000 and BMIX =      1.0000
 Hartree-type preconditioning will be used
 using additional bands           44
 reciprocal scheme for non local part
 use partial core corrections
 calculate Harris-corrections to forces   (improved forces if not selfconsistent)
 use gradient corrections 
 use of overlap-Matrix (Vanderbilt PP)
 Gauss-broadening in eV      SIGMA  =   0.20


--------------------------------------------------------------------------------------------------------


  energy-cutoff  :      500.00
  volume of cell :       41.45
      direct lattice vectors                 reciprocal lattice vectors
     0.000000000  2.746821138  2.746821138    -0.182028598  0.182028598  0.182028598
     2.746821138  0.000000000  2.746821138     0.182028598 -0.182028598  0.182028598
     2.746821138  2.746821138  0.000000000     0.182028598  0.182028598 -0.182028598

  length of vectors
     3.884591706  3.884591706  3.884591706     0.315282780  0.315282780  0.315282780



 k-points in units of 2pi/SCALE and weight: Non SCF run along symmetry lines        
   0.00000000  0.00000000  0.00000000       0.006
   0.00000000  0.00791424  0.00000000       0.006
   0.00000000  0.01582848  0.00000000       0.006
   0.00000000  0.02374272  0.00000000       0.006
   0.00000000  0.03165732  0.00000000       0.006
   0.00000000  0.03957156  0.00000000       0.006
   0.00000000  0.04748580  0.00000000       0.006
   0.00000000  0.05540004  0.00000000       0.006
   0.00000000  0.06331428  0.00000000       0.006
   0.00000000  0.07122852  0.00000000       0.006
   0.00000000  0.07914276  0.00000000       0.006
   0.00000000  0.08705700  0.00000000       0.006
   0.00000000  0.09497160  0.00000000       0.006
   0.00000000  0.10288584  0.00000000       0.006
   0.00000000  0.11080008  0.00000000       0.006
   0.00000000  0.11871432  0.00000000       0.006
   0.00000000  0.12662856  0.00000000       0.006
   0.00000000  0.13454280  0.00000000       0.006
   0.00000000  0.14245704  0.00000000       0.006
   0.00000000  0.15037128  0.00000000       0.006
   0.00000000  0.15828588  0.00000000       0.006
   0.00000000  0.16620012  0.00000000       0.006
   0.00000000  0.17411436  0.00000000       0.006
   0.00000000  0.18202860  0.00000000       0.006
   0.00000000  0.18202860  0.00000000       0.006
   0.00758440  0.18202860  0.00000000       0.006
   0.01516917  0.18202860  0.00000000       0.006
   0.02275357  0.18202860  0.00000000       0.006
   0.03033798  0.18202860  0.00000000       0.006
   0.03792275  0.18202860  0.00000000       0.006
   0.04550715  0.18202860  0.00000000       0.006
   0.05309155  0.18202860  0.00000000       0.006
   0.06067632  0.18202860 -0.00000000       0.006
   0.06826072  0.18202860  0.00000000       0.006
   0.07584513  0.18202860  0.00000000       0.006
   0.08342990  0.18202860  0.00000000       0.006
   0.09101430  0.18202860  0.00000000       0.006
   0.09101430  0.18202860  0.00000000       0.006
   0.09607069  0.17697221  0.00000000       0.006
   0.10112708  0.17191582 -0.00000000       0.006
   0.10618347  0.16685943  0.00000000       0.006
   0.11123986  0.16180304 -0.00000000       0.006
   0.11629589  0.15674701  0.00000000       0.006
   0.12135228  0.15169062  0.00000000       0.006
   0.12640867  0.14663423  0.00000000       0.006
   0.13146506  0.14157784  0.00000000       0.006
   0.13652145  0.13652145  0.00000000       0.006
   0.13652145  0.13652145  0.00000000       0.006
   0.13106059  0.13106059  0.00000000       0.006
   0.12559973  0.12559973  0.00000000       0.006
   0.12013887  0.12013887  0.00000000       0.006
   0.11467802  0.11467802  0.00000000       0.006
   0.10921716  0.10921716  0.00000000       0.006
   0.10375630  0.10375630  0.00000000       0.006
   0.09829544  0.09829544  0.00000000       0.006
   0.09283458  0.09283458  0.00000000       0.006
   0.08737373  0.08737373  0.00000000       0.006
   0.08191287  0.08191287  0.00000000       0.006
   0.07645201  0.07645201  0.00000000       0.006
   0.07099115  0.07099115  0.00000000       0.006
   0.06553030  0.06553030  0.00000000       0.006
   0.06006944  0.06006944  0.00000000       0.006
   0.05460858  0.05460858  0.00000000       0.006
   0.04914772  0.04914772  0.00000000       0.006
   0.04368686  0.04368686  0.00000000       0.006
   0.03822601  0.03822601  0.00000000       0.006
   0.03276515  0.03276515  0.00000000       0.006
   0.02730429  0.02730429  0.00000000       0.006
   0.02184343  0.02184343  0.00000000       0.006
   0.01638257  0.01638257  0.00000000       0.006
   0.01092172  0.01092172  0.00000000       0.006
   0.00546086  0.00546086  0.00000000       0.006
   0.00000000  0.00000000  0.00000000       0.006
   0.00000000  0.00000000  0.00000000       0.006
   0.00455071  0.00455071  0.00455071       0.006
   0.00910143  0.00910143  0.00910143       0.006
   0.01365214  0.01365214  0.01365214       0.006
   0.01820286  0.01820286  0.01820286       0.006
   0.02275357  0.02275357  0.02275357       0.006
   0.02730429  0.02730429  0.02730429       0.006
   0.03185500  0.03185500  0.03185500       0.006
   0.03640572  0.03640572  0.03640572       0.006
   0.04095643  0.04095643  0.04095643       0.006
   0.04550715  0.04550715  0.04550715       0.006
   0.05005786  0.05005786  0.05005786       0.006
   0.05460858  0.05460858  0.05460858       0.006
   0.05915929  0.05915929  0.05915929       0.006
   0.06371001  0.06371001  0.06371001       0.006
   0.06826072  0.06826072  0.06826072       0.006
   0.07281144  0.07281144  0.07281144       0.006
   0.07736215  0.07736215  0.07736215       0.006
   0.08191287  0.08191287  0.08191287       0.006
   0.08646358  0.08646358  0.08646358       0.006
   0.09101430  0.09101430  0.09101430       0.006
   0.09101430  0.09101430  0.09101430       0.006
   0.08798043  0.09708186  0.08798043       0.006
   0.08494674  0.10314960  0.08494674       0.006
   0.08191287  0.10921716  0.08191287       0.006
   0.07887900  0.11528472  0.07887900       0.006
   0.07584531  0.12135246  0.07584531       0.006
   0.07281144  0.12742002  0.07281144       0.006
   0.06977757  0.13348758  0.06977757       0.006
   0.06674388  0.13955532  0.06674388       0.006
   0.06371001  0.14562288  0.06371001       0.006
   0.06067614  0.15169044  0.06067614       0.006
   0.05764245  0.15775818  0.05764245       0.006
   0.05460858  0.16382574  0.05460858       0.006
   0.05157471  0.16989330  0.05157471       0.006
   0.04854102  0.17596104  0.04854102       0.006
   0.04550715  0.18202860  0.04550715       0.006
   0.04550715  0.18202860  0.04550715       0.006
   0.05056354  0.18202860  0.04045076       0.006
   0.05561993  0.18202860  0.03539437       0.006
   0.06067632  0.18202860  0.03033798       0.006
   0.06573271  0.18202860  0.02528159       0.006
   0.07078874  0.18202860  0.02022556       0.006
   0.07584513  0.18202860  0.01516917       0.006
   0.08090152  0.18202860  0.01011278       0.006
   0.08595791  0.18202860  0.00505639       0.006
   0.09101430  0.18202860  0.00000000       0.006
   0.09101430  0.18202860  0.00000000       0.006
   0.09101430  0.17667477  0.00535383       0.006
   0.09101430  0.17132095  0.01070765       0.006
   0.09101430  0.16596712  0.01606148       0.006
   0.09101430  0.16061330  0.02141530       0.006
   0.09101430  0.15525984  0.02676876       0.006
   0.09101430  0.14990601  0.03212259       0.006
   0.09101430  0.14455219  0.03747641       0.006
   0.09101430  0.13919836  0.04283024       0.006
   0.09101430  0.13384454  0.04818406       0.006
   0.09101430  0.12849071  0.05353789       0.006
   0.09101430  0.12313689  0.05889171       0.006
   0.09101430  0.11778306  0.06424554       0.006
   0.09101430  0.11242960  0.06959900       0.006
   0.09101430  0.10707577  0.07495282       0.006
   0.09101430  0.10172195  0.08030665       0.006
   0.09101430  0.09636812  0.08566047       0.006
   0.09101430  0.09101430  0.09101430       0.006
   0.09101430  0.09101430  0.09101430       0.006
   0.09404817  0.09404817  0.08494674       0.006
   0.09708186  0.09708186  0.07887900       0.006
   0.10011573  0.10011573  0.07281144       0.006
   0.10314960  0.10314960  0.06674388       0.006
   0.10618329  0.10618329  0.06067614       0.006
   0.10921716  0.10921716  0.05460858       0.006
   0.11225103  0.11225103  0.04854102       0.006
   0.11528472  0.11528472  0.04247328       0.006
   0.11831859  0.11831859  0.03640572       0.006
   0.12135246  0.12135246  0.03033816       0.006
   0.12438615  0.12438615  0.02427042       0.006
   0.12742002  0.12742002  0.01820286       0.006
   0.13045389  0.13045389  0.01213530       0.006
   0.13348758  0.13348758  0.00606756       0.006
   0.13652145  0.13652145  0.00000000       0.006
   0.04550715  0.18202860  0.04550715       0.006
   0.04045076  0.18202860  0.04045076       0.006
   0.03539437  0.18202860  0.03539437       0.006
   0.03033816  0.18202842  0.03033816       0.006
   0.02528177  0.18202842  0.02528177       0.006
   0.02022538  0.18202878  0.02022538       0.006
   0.01516899  0.18202878  0.01516899       0.006
   0.01011278  0.18202860  0.01011278       0.006
   0.00505639  0.18202860  0.00505639       0.006
   0.00000000  0.18202860  0.00000000       0.006

 k-points in reciprocal lattice and weights: Non SCF run along symmetry lines        
   0.00000000  0.00000000  0.00000000       0.006
   0.02173900  0.00000000  0.02173900       0.006
   0.04347800  0.00000000  0.04347800       0.006
   0.06521700  0.00000000  0.06521700       0.006
   0.08695700  0.00000000  0.08695700       0.006
   0.10869600  0.00000000  0.10869600       0.006
   0.13043500  0.00000000  0.13043500       0.006
   0.15217400  0.00000000  0.15217400       0.006
   0.17391300  0.00000000  0.17391300       0.006
   0.19565200  0.00000000  0.19565200       0.006
   0.21739100  0.00000000  0.21739100       0.006
   0.23913000  0.00000000  0.23913000       0.006
   0.26087000  0.00000000  0.26087000       0.006
   0.28260900  0.00000000  0.28260900       0.006
   0.30434800  0.00000000  0.30434800       0.006
   0.32608700  0.00000000  0.32608700       0.006
   0.34782600  0.00000000  0.34782600       0.006
   0.36956500  0.00000000  0.36956500       0.006
   0.39130400  0.00000000  0.39130400       0.006
   0.41304300  0.00000000  0.41304300       0.006
   0.43478300  0.00000000  0.43478300       0.006
   0.45652200  0.00000000  0.45652200       0.006
   0.47826100  0.00000000  0.47826100       0.006
   0.50000000  0.00000000  0.50000000       0.006
   0.50000000  0.00000000  0.50000000       0.006
   0.50000000  0.02083300  0.52083300       0.006
   0.50000000  0.04166700  0.54166700       0.006
   0.50000000  0.06250000  0.56250000       0.006
   0.50000000  0.08333300  0.58333300       0.006
   0.50000000  0.10416700  0.60416700       0.006
   0.50000000  0.12500000  0.62500000       0.006
   0.50000000  0.14583300  0.64583300       0.006
   0.50000000  0.16666700  0.66666700       0.006
   0.50000000  0.18750000  0.68750000       0.006
   0.50000000  0.20833300  0.70833300       0.006
   0.50000000  0.22916700  0.72916700       0.006
   0.50000000  0.25000000  0.75000000       0.006
   0.50000000  0.25000000  0.75000000       0.006
   0.48611100  0.26388900  0.75000000       0.006
   0.47222200  0.27777800  0.75000000       0.006
   0.45833300  0.29166700  0.75000000       0.006
   0.44444400  0.30555600  0.75000000       0.006
   0.43055600  0.31944400  0.75000000       0.006
   0.41666700  0.33333300  0.75000000       0.006
   0.40277800  0.34722200  0.75000000       0.006
   0.38888900  0.36111100  0.75000000       0.006
   0.37500000  0.37500000  0.75000000       0.006
   0.37500000  0.37500000  0.75000000       0.006
   0.36000000  0.36000000  0.72000000       0.006
   0.34500000  0.34500000  0.69000000       0.006
   0.33000000  0.33000000  0.66000000       0.006
   0.31500000  0.31500000  0.63000000       0.006
   0.30000000  0.30000000  0.60000000       0.006
   0.28500000  0.28500000  0.57000000       0.006
   0.27000000  0.27000000  0.54000000       0.006
   0.25500000  0.25500000  0.51000000       0.006
   0.24000000  0.24000000  0.48000000       0.006
   0.22500000  0.22500000  0.45000000       0.006
   0.21000000  0.21000000  0.42000000       0.006
   0.19500000  0.19500000  0.39000000       0.006
   0.18000000  0.18000000  0.36000000       0.006
   0.16500000  0.16500000  0.33000000       0.006
   0.15000000  0.15000000  0.30000000       0.006
   0.13500000  0.13500000  0.27000000       0.006
   0.12000000  0.12000000  0.24000000       0.006
   0.10500000  0.10500000  0.21000000       0.006
   0.09000000  0.09000000  0.18000000       0.006
   0.07500000  0.07500000  0.15000000       0.006
   0.06000000  0.06000000  0.12000000       0.006
   0.04500000  0.04500000  0.09000000       0.006
   0.03000000  0.03000000  0.06000000       0.006
   0.01500000  0.01500000  0.03000000       0.006
   0.00000000  0.00000000  0.00000000       0.006
   0.00000000  0.00000000  0.00000000       0.006
   0.02500000  0.02500000  0.02500000       0.006
   0.05000000  0.05000000  0.05000000       0.006
   0.07500000  0.07500000  0.07500000       0.006
   0.10000000  0.10000000  0.10000000       0.006
   0.12500000  0.12500000  0.12500000       0.006
   0.15000000  0.15000000  0.15000000       0.006
   0.17500000  0.17500000  0.17500000       0.006
   0.20000000  0.20000000  0.20000000       0.006
   0.22500000  0.22500000  0.22500000       0.006
   0.25000000  0.25000000  0.25000000       0.006
   0.27500000  0.27500000  0.27500000       0.006
   0.30000000  0.30000000  0.30000000       0.006
   0.32500000  0.32500000  0.32500000       0.006
   0.35000000  0.35000000  0.35000000       0.006
   0.37500000  0.37500000  0.37500000       0.006
   0.40000000  0.40000000  0.40000000       0.006
   0.42500000  0.42500000  0.42500000       0.006
   0.45000000  0.45000000  0.45000000       0.006
   0.47500000  0.47500000  0.47500000       0.006
   0.50000000  0.50000000  0.50000000       0.006
   0.50000000  0.50000000  0.50000000       0.006
   0.50833300  0.48333300  0.50833300       0.006
   0.51666700  0.46666700  0.51666700       0.006
   0.52500000  0.45000000  0.52500000       0.006
   0.53333300  0.43333300  0.53333300       0.006
   0.54166700  0.41666700  0.54166700       0.006
   0.55000000  0.40000000  0.55000000       0.006
   0.55833300  0.38333300  0.55833300       0.006
   0.56666700  0.36666700  0.56666700       0.006
   0.57500000  0.35000000  0.57500000       0.006
   0.58333300  0.33333300  0.58333300       0.006
   0.59166700  0.31666700  0.59166700       0.006
   0.60000000  0.30000000  0.60000000       0.006
   0.60833300  0.28333300  0.60833300       0.006
   0.61666700  0.26666700  0.61666700       0.006
   0.62500000  0.25000000  0.62500000       0.006
   0.62500000  0.25000000  0.62500000       0.006
   0.61111100  0.25000000  0.63888900       0.006
   0.59722200  0.25000000  0.65277800       0.006
   0.58333300  0.25000000  0.66666700       0.006
   0.56944400  0.25000000  0.68055600       0.006
   0.55555600  0.25000000  0.69444400       0.006
   0.54166700  0.25000000  0.70833300       0.006
   0.52777800  0.25000000  0.72222200       0.006
   0.51388900  0.25000000  0.73611100       0.006
   0.50000000  0.25000000  0.75000000       0.006
   0.50000000  0.25000000  0.75000000       0.006
   0.50000000  0.26470600  0.73529400       0.006
   0.50000000  0.27941200  0.72058800       0.006
   0.50000000  0.29411800  0.70588200       0.006
   0.50000000  0.30882400  0.69117600       0.006
   0.50000000  0.32352900  0.67647100       0.006
   0.50000000  0.33823500  0.66176500       0.006
   0.50000000  0.35294100  0.64705900       0.006
   0.50000000  0.36764700  0.63235300       0.006
   0.50000000  0.38235300  0.61764700       0.006
   0.50000000  0.39705900  0.60294100       0.006
   0.50000000  0.41176500  0.58823500       0.006
   0.50000000  0.42647100  0.57352900       0.006
   0.50000000  0.44117600  0.55882400       0.006
   0.50000000  0.45588200  0.54411800       0.006
   0.50000000  0.47058800  0.52941200       0.006
   0.50000000  0.48529400  0.51470600       0.006
   0.50000000  0.50000000  0.50000000       0.006
   0.50000000  0.50000000  0.50000000       0.006
   0.49166700  0.49166700  0.51666700       0.006
   0.48333300  0.48333300  0.53333300       0.006
   0.47500000  0.47500000  0.55000000       0.006
   0.46666700  0.46666700  0.56666700       0.006
   0.45833300  0.45833300  0.58333300       0.006
   0.45000000  0.45000000  0.60000000       0.006
   0.44166700  0.44166700  0.61666700       0.006
   0.43333300  0.43333300  0.63333300       0.006
   0.42500000  0.42500000  0.65000000       0.006
   0.41666700  0.41666700  0.66666700       0.006
   0.40833300  0.40833300  0.68333300       0.006
   0.40000000  0.40000000  0.70000000       0.006
   0.39166700  0.39166700  0.71666700       0.006
   0.38333300  0.38333300  0.73333300       0.006
   0.37500000  0.37500000  0.75000000       0.006
   0.62500000  0.25000000  0.62500000       0.006
   0.61111100  0.22222200  0.61111100       0.006
   0.59722200  0.19444400  0.59722200       0.006
   0.58333300  0.16666700  0.58333300       0.006
   0.56944400  0.13888900  0.56944400       0.006
   0.55555600  0.11111100  0.55555600       0.006
   0.54166700  0.08333300  0.54166700       0.006
   0.52777800  0.05555600  0.52777800       0.006
   0.51388900  0.02777800  0.51388900       0.006
   0.50000000  0.00000000  0.50000000       0.006

 position of ions in fractional coordinates (direct lattice) 
   0.75000000  0.75000000  0.75000000
   0.50000000  0.50000000  0.50000000

 position of ions in cartesian coordinates  (Angst):
   4.12023171  4.12023171  4.12023171
   2.74682114  2.74682114  2.74682114



--------------------------------------------------------------------------------------------------------


 k-point  1 :   0.0000 0.0000 0.0000  plane waves:    1067
 k-point  2 :   0.0217 0.0000 0.0217  plane waves:    1058
 k-point  3 :   0.0435 0.0000 0.0435  plane waves:    1054
 k-point  4 :   0.0652 0.0000 0.0652  plane waves:    1042
 k-point  5 :   0.0870 0.0000 0.0870  plane waves:    1034
 k-point  6 :   0.1087 0.0000 0.1087  plane waves:    1030
 k-point  7 :   0.1304 0.0000 0.1304  plane waves:    1038
 k-point  8 :   0.1522 0.0000 0.1522  plane waves:    1034
 k-point  9 :   0.1739 0.0000 0.1739  plane waves:    1042
 k-point 10 :   0.1957 0.0000 0.1957  plane waves:    1050
 k-point 11 :   0.2174 0.0000 0.2174  plane waves:    1054
 k-point 12 :   0.2391 0.0000 0.2391  plane waves:    1054
 k-point 13 :   0.2609 0.0000 0.2609  plane waves:    1046
 k-point 14 :   0.2826 0.0000 0.2826  plane waves:    1042
 k-point 15 :   0.3043 0.0000 0.3043  plane waves:    1030
 k-point 16 :   0.3261 0.0000 0.3261  plane waves:    1030
 k-point 17 :   0.3478 0.0000 0.3478  plane waves:    1034
 k-point 18 :   0.3696 0.0000 0.3696  plane waves:    1042
 k-point 19 :   0.3913 0.0000 0.3913  plane waves:    1042
 k-point 20 :   0.4130 0.0000 0.4130  plane waves:    1046
 k-point 21 :   0.4348 0.0000 0.4348  plane waves:    1054
 k-point 22 :   0.4565 0.0000 0.4565  plane waves:    1054
 k-point 23 :   0.4783 0.0000 0.4783  plane waves:    1042
 k-point 24 :   0.5000 0.0000 0.5000  plane waves:    1034
 k-point 25 :   0.5000 0.0000 0.5000  plane waves:    1034
 k-point 26 :   0.5000 0.0208 0.5208  plane waves:    1036
 k-point 27 :   0.5000 0.0417 0.5417  plane waves:    1048
 k-point 28 :   0.5000 0.0625 0.5625  plane waves:    1060
 k-point 29 :   0.5000 0.0833 0.5833  plane waves:    1054
 k-point 30 :   0.5000 0.1042 0.6042  plane waves:    1058
 k-point 31 :   0.5000 0.1250 0.6250  plane waves:    1058
 k-point 32 :   0.5000 0.1458 0.6458  plane waves:    1054
 k-point 33 :   0.5000 0.1667 0.6667  plane waves:    1064
 k-point 34 :   0.5000 0.1875 0.6875  plane waves:    1056
 k-point 35 :   0.5000 0.2083 0.7083  plane waves:    1054
 k-point 36 :   0.5000 0.2292 0.7292  plane waves:    1048
 k-point 37 :   0.5000 0.2500 0.7500  plane waves:    1048
 k-point 38 :   0.5000 0.2500 0.7500  plane waves:    1048
 k-point 39 :   0.4861 0.2639 0.7500  plane waves:    1048
 k-point 40 :   0.4722 0.2778 0.7500  plane waves:    1056
 k-point 41 :   0.4583 0.2917 0.7500  plane waves:    1054
 k-point 42 :   0.4444 0.3056 0.7500  plane waves:    1059
 k-point 43 :   0.4306 0.3194 0.7500  plane waves:    1058
 k-point 44 :   0.4167 0.3333 0.7500  plane waves:    1054
 k-point 45 :   0.4028 0.3472 0.7500  plane waves:    1055
 k-point 46 :   0.3889 0.3611 0.7500  plane waves:    1053
 k-point 47 :   0.3750 0.3750 0.7500  plane waves:    1063
 k-point 48 :   0.3750 0.3750 0.7500  plane waves:    1063
 k-point 49 :   0.3600 0.3600 0.7200  plane waves:    1059
 k-point 50 :   0.3450 0.3450 0.6900  plane waves:    1059
 k-point 51 :   0.3300 0.3300 0.6600  plane waves:    1063
 k-point 52 :   0.3150 0.3150 0.6300  plane waves:    1063
 k-point 53 :   0.3000 0.3000 0.6000  plane waves:    1059
 k-point 54 :   0.2850 0.2850 0.5700  plane waves:    1057
 k-point 55 :   0.2700 0.2700 0.5400  plane waves:    1057
 k-point 56 :   0.2550 0.2550 0.5100  plane waves:    1049
 k-point 57 :   0.2400 0.2400 0.4800  plane waves:    1055
 k-point 58 :   0.2250 0.2250 0.4500  plane waves:    1055
 k-point 59 :   0.2100 0.2100 0.4200  plane waves:    1055
 k-point 60 :   0.1950 0.1950 0.3900  plane waves:    1057
 k-point 61 :   0.1800 0.1800 0.3600  plane waves:    1061
 k-point 62 :   0.1650 0.1650 0.3300  plane waves:    1053
 k-point 63 :   0.1500 0.1500 0.3000  plane waves:    1043
 k-point 64 :   0.1350 0.1350 0.2700  plane waves:    1047
 k-point 65 :   0.1200 0.1200 0.2400  plane waves:    1043
 k-point 66 :   0.1050 0.1050 0.2100  plane waves:    1037
 k-point 67 :   0.0900 0.0900 0.1800  plane waves:    1029
 k-point 68 :   0.0750 0.0750 0.1500  plane waves:    1031
 k-point 69 :   0.0600 0.0600 0.1200  plane waves:    1027
 k-point 70 :   0.0450 0.0450 0.0900  plane waves:    1037
 k-point 71 :   0.0300 0.0300 0.0600  plane waves:    1045
 k-point 72 :   0.0150 0.0150 0.0300  plane waves:    1055
 k-point 73 :   0.0000 0.0000 0.0000  plane waves:    1067
 k-point 74 :   0.0000 0.0000 0.0000  plane waves:    1067
 k-point 75 :   0.0250 0.0250 0.0250  plane waves:    1058
 k-point 76 :   0.0500 0.0500 0.0500  plane waves:    1049
 k-point 77 :   0.0750 0.0750 0.0750  plane waves:    1040
 k-point 78 :   0.1000 0.1000 0.1000  plane waves:    1028
 k-point 79 :   0.1250 0.1250 0.1250  plane waves:    1034
 k-point 80 :   0.1500 0.1500 0.1500  plane waves:    1031
 k-point 81 :   0.1750 0.1750 0.1750  plane waves:    1043
 k-point 82 :   0.2000 0.2000 0.2000  plane waves:    1046
 k-point 83 :   0.2250 0.2250 0.2250  plane waves:    1041
 k-point 84 :   0.2500 0.2500 0.2500  plane waves:    1053
 k-point 85 :   0.2750 0.2750 0.2750  plane waves:    1053
 k-point 86 :   0.3000 0.3000 0.3000  plane waves:    1056
 k-point 87 :   0.3250 0.3250 0.3250  plane waves:    1059
 k-point 88 :   0.3500 0.3500 0.3500  plane waves:    1053
 k-point 89 :   0.3750 0.3750 0.3750  plane waves:    1050
 k-point 90 :   0.4000 0.4000 0.4000  plane waves:    1050
 k-point 91 :   0.4250 0.4250 0.4250  plane waves:    1044
 k-point 92 :   0.4500 0.4500 0.4500  plane waves:    1050
 k-point 93 :   0.4750 0.4750 0.4750  plane waves:    1056
 k-point 94 :   0.5000 0.5000 0.5000  plane waves:    1056
 k-point 95 :   0.5000 0.5000 0.5000  plane waves:    1056
 k-point 96 :   0.5083 0.4833 0.5083  plane waves:    1060
 k-point 97 :   0.5167 0.4667 0.5167  plane waves:    1060
 k-point 98 :   0.5250 0.4500 0.5250  plane waves:    1052
 k-point 99 :   0.5333 0.4333 0.5333  plane waves:    1058
 k-point ** :   0.5417 0.4167 0.5417  plane waves:    1054
 k-point ** :   0.5500 0.4000 0.5500  plane waves:    1057
 k-point ** :   0.5583 0.3833 0.5583  plane waves:    1063
 k-point ** :   0.5667 0.3667 0.5667  plane waves:    1063
 k-point ** :   0.5750 0.3500 0.5750  plane waves:    1063
 k-point ** :   0.5833 0.3333 0.5833  plane waves:    1065
 k-point ** :   0.5917 0.3167 0.5917  plane waves:    1056
 k-point ** :   0.6000 0.3000 0.6000  plane waves:    1056
 k-point ** :   0.6083 0.2833 0.6083  plane waves:    1050
 k-point ** :   0.6167 0.2667 0.6167  plane waves:    1055
 k-point ** :   0.6250 0.2500 0.6250  plane waves:    1063
 k-point ** :   0.6250 0.2500 0.6250  plane waves:    1063
 k-point ** :   0.6111 0.2500 0.6389  plane waves:    1053
 k-point ** :   0.5972 0.2500 0.6528  plane waves:    1055
 k-point ** :   0.5833 0.2500 0.6667  plane waves:    1054
 k-point ** :   0.5694 0.2500 0.6806  plane waves:    1058
 k-point ** :   0.5556 0.2500 0.6944  plane waves:    1059
 k-point ** :   0.5417 0.2500 0.7083  plane waves:    1054
 k-point ** :   0.5278 0.2500 0.7222  plane waves:    1056
 k-point ** :   0.5139 0.2500 0.7361  plane waves:    1048
 k-point ** :   0.5000 0.2500 0.7500  plane waves:    1048
 k-point ** :   0.5000 0.2500 0.7500  plane waves:    1048
 k-point ** :   0.5000 0.2647 0.7353  plane waves:    1048
 k-point ** :   0.5000 0.2794 0.7206  plane waves:    1056
 k-point ** :   0.5000 0.2941 0.7059  plane waves:    1058
 k-point ** :   0.5000 0.3088 0.6912  plane waves:    1054
 k-point ** :   0.5000 0.3235 0.6765  plane waves:    1058
 k-point ** :   0.5000 0.3382 0.6618  plane waves:    1062
 k-point ** :   0.5000 0.3529 0.6471  plane waves:    1062
 k-point ** :   0.5000 0.3676 0.6324  plane waves:    1058
 k-point ** :   0.5000 0.3824 0.6176  plane waves:    1058
 k-point ** :   0.5000 0.3971 0.6029  plane waves:    1050
 k-point ** :   0.5000 0.4118 0.5882  plane waves:    1054
 k-point ** :   0.5000 0.4265 0.5735  plane waves:    1058
 k-point ** :   0.5000 0.4412 0.5588  plane waves:    1060
 k-point ** :   0.5000 0.4559 0.5441  plane waves:    1060
 k-point ** :   0.5000 0.4706 0.5294  plane waves:    1060
 k-point ** :   0.5000 0.4853 0.5147  plane waves:    1060
 k-point ** :   0.5000 0.5000 0.5000  plane waves:    1056
 k-point ** :   0.5000 0.5000 0.5000  plane waves:    1056
 k-point ** :   0.4917 0.4917 0.5167  plane waves:    1060
 k-point ** :   0.4833 0.4833 0.5333  plane waves:    1060
 k-point ** :   0.4750 0.4750 0.5500  plane waves:    1052
 k-point ** :   0.4667 0.4667 0.5667  plane waves:    1058
 k-point ** :   0.4583 0.4583 0.5833  plane waves:    1054
 k-point ** :   0.4500 0.4500 0.6000  plane waves:    1057
 k-point ** :   0.4417 0.4417 0.6167  plane waves:    1063
 k-point ** :   0.4333 0.4333 0.6333  plane waves:    1063
 k-point ** :   0.4250 0.4250 0.6500  plane waves:    1063
 k-point ** :   0.4167 0.4167 0.6667  plane waves:    1065
 k-point ** :   0.4083 0.4083 0.6833  plane waves:    1056
 k-point ** :   0.4000 0.4000 0.7000  plane waves:    1056
 k-point ** :   0.3917 0.3917 0.7167  plane waves:    1050
 k-point ** :   0.3833 0.3833 0.7333  plane waves:    1055
 k-point ** :   0.3750 0.3750 0.7500  plane waves:    1063
 k-point ** :   0.6250 0.2500 0.6250  plane waves:    1063
 k-point ** :   0.6111 0.2222 0.6111  plane waves:    1059
 k-point ** :   0.5972 0.1944 0.5972  plane waves:    1049
 k-point ** :   0.5833 0.1667 0.5833  plane waves:    1037
 k-point ** :   0.5694 0.1389 0.5694  plane waves:    1045
 k-point ** :   0.5556 0.1111 0.5556  plane waves:    1051
 k-point ** :   0.5417 0.0833 0.5417  plane waves:    1051
 k-point ** :   0.5278 0.0556 0.5278  plane waves:    1046
 k-point ** :   0.5139 0.0278 0.5139  plane waves:    1038
 k-point ** :   0.5000 0.0000 0.5000  plane waves:    1034

 maximum and minimum number of plane-waves per node :      1067     1027

 maximum number of plane-waves:      1067
 maximum index in each direction: 
   IXMAX=    7   IYMAX=    7   IZMAX=    7
   IXMIN=   -7   IYMIN=   -7   IZMIN=   -7

 WARNING: aliasing errors must be expected set NGX to  30 to avoid them
 WARNING: aliasing errors must be expected set NGY to  30 to avoid them
 WARNING: aliasing errors must be expected set NGZ to  30 to avoid them
 aliasing errors are usually negligible using standard VASP settings
 and one can safely disregard these warnings

 serial   3D FFT for wavefunctions
 parallel 3D FFT for charge:
    minimum data exchange during FFTs selected (reduces bandwidth)


 total amount of memory used by VASP on root node    61653. kBytes
========================================================================

   base      :      30000. kBytes
   nonl-proj :      11286. kBytes
   fftplans  :        517. kBytes
   grid      :       2709. kBytes
   one-center:         12. kBytes
   wavefun   :      17129. kBytes

     INWAV:  cpu time    0.0000: real time    0.0000
 Broyden mixing: mesh for mixing (old mesh)
   NGX = 15   NGY = 15   NGZ = 15
  (NGX  = 56   NGY  = 56   NGZ  = 56)
  gives a total of   3375 points

 initial charge density was supplied:
 charge density of overlapping atoms calculated
 number of electron       8.0000000 magnetization       2.0000000
 keeping initial charge density in first step


--------------------------------------------------------------------------------------------------------


 Maximum index for augmentation-charges         1417 (set IRDMAX)


--------------------------------------------------------------------------------------------------------


 First call to EWALD:  gamma=   0.512
 Maximum number of real-space cells 3x 3x 3
 Maximum number of reciprocal cells 3x 3x 3

 FEWALD executed in parallel
    FEWALD:  cpu time    0.0000: real time    0.0009


----------------------------------------- Iteration    1(   1)  ---------------------------------------


vdW kernel read from vdw_kernel.bindat
  0.0000  0.2424  0.5071  0.7962  1.1119  1.4567  1.8333  2.2446  2.6937  3.1842
  3.7199  4.3049  4.9438  5.6415  6.4036  7.2358  8.1446  9.1372 10.2212 11.4050
 12.6979 14.1099 15.6519 17.3360 19.1751 21.1837 23.3773 25.7729 28.3892 31.2465
 34.3669 37.7748 41.4965 45.5611 50.0000

    POTLOK:  cpu time    2.1040: real time    2.1230
    SETDIJ:  cpu time    0.0080: real time    0.0075
     EDDAV:  cpu time   13.2520: real time   13.2455
       DOS:  cpu time    0.0200: real time    0.0215
    --------------------------------------------
      LOOP:  cpu time   15.3840: real time   15.3996

 eigenvalue-minimisations  : 31488
 total energy-change (2. order) : 0.1518603E+02  (-0.2967489E+03)
 number of electron       8.0000000 magnetization       2.0000000
 augmentation part        8.0000000 magnetization       2.0000000

 Free energy of the ion-electron system (eV)
  ---------------------------------------------------
  alpha Z        PSCENC =         3.24857844
  Ewald energy   TEWEN  =      -225.91568183
  -Hartree energ DENC   =       -11.53197166
  -exchange      EXHF   =         0.00000000
  -V(xc)+E(xc)   XCENC  =       -20.06771024
  PAW double counting   =       189.18569288     -152.40348104
  entropy T*S    EENTRO =        -0.01167437
  eigenvalues    EBANDS =        24.08853555
  atomic energy  EATOM  =       208.59373829
  Solvation  Ediel_sol  =         0.00000000
  ---------------------------------------------------
  free energy    TOTEN  =        15.18602602 eV

  energy without entropy =       15.19770038  energy(sigma->0) =       15.19186320


--------------------------------------------------------------------------------------------------------




----------------------------------------- Iteration    1(   2)  ---------------------------------------


     EDDAV:  cpu time   19.5560: real time   19.5553
       DOS:  cpu time    0.0280: real time    0.0262
    --------------------------------------------
      LOOP:  cpu time   19.5840: real time   19.8792

 eigenvalue-minimisations  : 41984
 total energy-change (2. order) :-0.2169174E+02  (-0.2102516E+02)
 number of electron       8.0000000 magnetization       2.0000000
 augmentation part        8.0000000 magnetization       2.0000000

 Free energy of the ion-electron system (eV)
  ---------------------------------------------------
  alpha Z        PSCENC =         3.24857844
  Ewald energy   TEWEN  =      -225.91568183
  -Hartree energ DENC   =       -11.53197166
  -exchange      EXHF   =         0.00000000
  -V(xc)+E(xc)   XCENC  =       -20.06771024
  PAW double counting   =       189.18569288     -152.40348104
  entropy T*S    EENTRO =        -0.01545964
  eigenvalues    EBANDS =         2.40057799
  atomic energy  EATOM  =       208.59373829
  Solvation  Ediel_sol  =         0.00000000
  ---------------------------------------------------
  free energy    TOTEN  =        -6.50571682 eV

  energy without entropy =       -6.49025718  energy(sigma->0) =       -6.49798700


--------------------------------------------------------------------------------------------------------




----------------------------------------- Iteration    1(   3)  ---------------------------------------


     EDDAV:  cpu time   19.0720: real time   19.0660
       DOS:  cpu time    0.0240: real time    0.0269
    --------------------------------------------
      LOOP:  cpu time   19.0960: real time   19.1781

 eigenvalue-minimisations  : 40528
 total energy-change (2. order) :-0.3392243E+00  (-0.3380909E+00)
 number of electron       8.0000000 magnetization       2.0000000
 augmentation part        8.0000000 magnetization       2.0000000

 Free energy of the ion-electron system (eV)
  ---------------------------------------------------
  alpha Z        PSCENC =         3.24857844
  Ewald energy   TEWEN  =      -225.91568183
  -Hartree energ DENC   =       -11.53197166
  -exchange      EXHF   =         0.00000000
  -V(xc)+E(xc)   XCENC  =       -20.06771024
  PAW double counting   =       189.18569288     -152.40348104
  entropy T*S    EENTRO =        -0.01529285
  eigenvalues    EBANDS =         2.06118688
  atomic energy  EATOM  =       208.59373829
  Solvation  Ediel_sol  =         0.00000000
  ---------------------------------------------------
  free energy    TOTEN  =        -6.84494114 eV

  energy without entropy =       -6.82964829  energy(sigma->0) =       -6.83729471


--------------------------------------------------------------------------------------------------------




----------------------------------------- Iteration    1(   4)  ---------------------------------------


     EDDAV:  cpu time   16.2880: real time   16.2828
       DOS:  cpu time    0.0280: real time    0.0268
    --------------------------------------------
      LOOP:  cpu time   16.3160: real time   16.4085

 eigenvalue-minimisations  : 36704
 total energy-change (2. order) :-0.4229849E-03  (-0.4229770E-03)
 number of electron       8.0000000 magnetization       2.0000000
 augmentation part        8.0000000 magnetization       2.0000000

 Free energy of the ion-electron system (eV)
  ---------------------------------------------------
  alpha Z        PSCENC =         3.24857844
  Ewald energy   TEWEN  =      -225.91568183
  -Hartree energ DENC   =       -11.53197166
  -exchange      EXHF   =         0.00000000
  -V(xc)+E(xc)   XCENC  =       -20.06771024
  PAW double counting   =       189.18569288     -152.40348104
  entropy T*S    EENTRO =        -0.01529136
  eigenvalues    EBANDS =         2.06076240
  atomic energy  EATOM  =       208.59373829
  Solvation  Ediel_sol  =         0.00000000
  ---------------------------------------------------
  free energy    TOTEN  =        -6.84536412 eV

  energy without entropy =       -6.83007276  energy(sigma->0) =       -6.83771844


--------------------------------------------------------------------------------------------------------




----------------------------------------- Iteration    1(   5)  ---------------------------------------


     EDDAV:  cpu time   20.0800: real time   20.0754
       DOS:  cpu time    0.0280: real time    0.0265
    CHARGE:  cpu time    0.2760: real time    0.2758
    MIXING:  cpu time    0.0000: real time    0.0005
    --------------------------------------------
      LOOP:  cpu time   20.3840: real time   20.4402

 eigenvalue-minimisations  : 41136
 total energy-change (2. order) :-0.6707966E-06  (-0.6708550E-06)
 number of electron       7.9999999 magnetization      -0.4254350
 augmentation part       -0.4711003 magnetization      -0.5237266

 Broyden mixing:
  rms(total) = 0.51917E+00    rms(broyden)= 0.51917E+00
  rms(prec ) = 0.10212E+01
  weight for this iteration     100.00

 Free energy of the ion-electron system (eV)
  ---------------------------------------------------
  alpha Z        PSCENC =         3.24857844
  Ewald energy   TEWEN  =      -225.91568183
  -Hartree energ DENC   =       -11.53197166
  -exchange      EXHF   =         0.00000000
  -V(xc)+E(xc)   XCENC  =       -20.06771024
  PAW double counting   =       189.18569288     -152.40348104
  entropy T*S    EENTRO =        -0.01529135
  eigenvalues    EBANDS =         2.06076173
  atomic energy  EATOM  =       208.59373829
  Solvation  Ediel_sol  =         0.00000000
  ---------------------------------------------------
  free energy    TOTEN  =        -6.84536479 eV

  energy without entropy =       -6.83007344  energy(sigma->0) =       -6.83771911


--------------------------------------------------------------------------------------------------------




----------------------------------------- Iteration    1(   6)  ---------------------------------------


    POTLOK:  cpu time    1.6400: real time    1.6378
    SETDIJ:  cpu time    0.0080: real time    0.0099
     EDDAV:  cpu time   16.0000: real time   15.9919
       DOS:  cpu time    0.0280: real time    0.0270
    CHARGE:  cpu time    0.1600: real time    0.1611
    MIXING:  cpu time    0.0000: real time    0.0006
    --------------------------------------------
      LOOP:  cpu time   17.8360: real time   18.0721

 eigenvalue-minimisations  : 36912
 total energy-change (2. order) :-0.4086939E+00  (-0.8399146E-02)
 number of electron       7.9999999 magnetization       0.4233705
 augmentation part       -0.4629927 magnetization       0.4245751

 Broyden mixing:
  rms(total) = 0.26397E+00    rms(broyden)= 0.26397E+00
  rms(prec ) = 0.62072E+00
  weight for this iteration     100.00

 eigenvalues of (default mixing * dielectric matrix)
  average eigenvalue GAMMA=   0.8506
  0.8506

 Free energy of the ion-electron system (eV)
  ---------------------------------------------------
  alpha Z        PSCENC =         3.24857844
  Ewald energy   TEWEN  =      -225.91568183
  -Hartree energ DENC   =       -13.20893067
  -exchange      EXHF   =         0.00000000
  -V(xc)+E(xc)   XCENC  =       -20.02962197
  PAW double counting   =       303.36840298     -266.71208211
  entropy T*S    EENTRO =        -0.00045323
  eigenvalues    EBANDS =         3.40199145
  atomic energy  EATOM  =       208.59373829
  Solvation  Ediel_sol  =         0.00000000
  ---------------------------------------------------
  free energy    TOTEN  =        -7.25405865 eV

  energy without entropy =       -7.25360542  energy(sigma->0) =       -7.25383204


--------------------------------------------------------------------------------------------------------




----------------------------------------- Iteration    1(   7)  ---------------------------------------


    POTLOK:  cpu time    1.7160: real time    1.7145
    SETDIJ:  cpu time    0.0080: real time    0.0075
     EDDAV:  cpu time   16.6800: real time   16.6768
       DOS:  cpu time    0.0280: real time    0.0279
    CHARGE:  cpu time    0.2680: real time    0.2675
    MIXING:  cpu time    0.0000: real time    0.0006
    --------------------------------------------
      LOOP:  cpu time   18.7000: real time   18.9993

 eigenvalue-minimisations  : 38000
 total energy-change (2. order) : 0.3380615E-01  (-0.8031922E-02)
 number of electron       7.9999999 magnetization       0.0383456
 augmentation part       -0.4561312 magnetization       0.0339251

 Broyden mixing:
  rms(total) = 0.16153E+00    rms(broyden)= 0.16153E+00
  rms(prec ) = 0.26314E+00
  weight for this iteration     100.00

 eigenvalues of (default mixing * dielectric matrix)
  average eigenvalue GAMMA=   1.1069
  1.4782  0.7356

 Free energy of the ion-electron system (eV)
  ---------------------------------------------------
  alpha Z        PSCENC =         3.24857844
  Ewald energy   TEWEN  =      -225.91568183
  -Hartree energ DENC   =       -15.08943723
  -exchange      EXHF   =         0.00000000
  -V(xc)+E(xc)   XCENC  =       -19.73234487
  PAW double counting   =       443.54450064     -406.99825560
  entropy T*S    EENTRO =        -0.00146717
  eigenvalues    EBANDS =         5.13011684
  atomic energy  EATOM  =       208.59373829
  Solvation  Ediel_sol  =         0.00000000
  ---------------------------------------------------
  free energy    TOTEN  =        -7.22025250 eV

  energy without entropy =       -7.21878533  energy(sigma->0) =       -7.21951892


--------------------------------------------------------------------------------------------------------




----------------------------------------- Iteration    1(   8)  ---------------------------------------


    POTLOK:  cpu time    1.6880: real time    1.6884
    SETDIJ:  cpu time    0.0080: real time    0.0102
     EDDAV:  cpu time   17.3680: real time   17.3617
       DOS:  cpu time    0.0280: real time    0.0281
    CHARGE:  cpu time    0.2320: real time    0.2308
    MIXING:  cpu time    0.0000: real time    0.0006
    --------------------------------------------
      LOOP:  cpu time   19.3280: real time   19.3507

 eigenvalue-minimisations  : 38416
 total energy-change (2. order) :-0.2450259E-01  (-0.2551215E-02)
 number of electron       7.9999999 magnetization      -0.0105035
 augmentation part       -0.4525263 magnetization      -0.0110765

 Broyden mixing:
  rms(total) = 0.67303E-01    rms(broyden)= 0.67303E-01
  rms(prec ) = 0.75778E-01
  weight for this iteration     100.00

 eigenvalues of (default mixing * dielectric matrix)
  average eigenvalue GAMMA=   1.3128
  2.5209  0.8184  0.5990

 Free energy of the ion-electron system (eV)
  ---------------------------------------------------
  alpha Z        PSCENC =         3.24857844
  Ewald energy   TEWEN  =      -225.91568183
  -Hartree energ DENC   =       -16.22241437
  -exchange      EXHF   =         0.00000000
  -V(xc)+E(xc)   XCENC  =       -19.55874254
  PAW double counting   =       536.23696210     -499.73316418
  entropy T*S    EENTRO =        -0.00102776
  eigenvalues    EBANDS =         6.10699677
  atomic energy  EATOM  =       208.59373829
  Solvation  Ediel_sol  =         0.00000000
  ---------------------------------------------------
  free energy    TOTEN  =        -7.24475509 eV

  energy without entropy =       -7.24372733  energy(sigma->0) =       -7.24424121


--------------------------------------------------------------------------------------------------------




----------------------------------------- Iteration    1(   9)  ---------------------------------------


    POTLOK:  cpu time    1.6440: real time    1.6406
    SETDIJ:  cpu time    0.0040: real time    0.0070
     EDDAV:  cpu time   16.2640: real time   16.2559
       DOS:  cpu time    0.0280: real time    0.0267
    CHARGE:  cpu time    0.1600: real time    0.1602
    MIXING:  cpu time    0.0000: real time    0.0006
    --------------------------------------------
      LOOP:  cpu time   18.1000: real time   18.1701

 eigenvalue-minimisations  : 38944
 total energy-change (2. order) : 0.3730337E-02  (-0.4807935E-04)
 number of electron       7.9999999 magnetization       0.0100569
 augmentation part       -0.4524555 magnetization       0.0102676

 Broyden mixing:
  rms(total) = 0.12407E-01    rms(broyden)= 0.12407E-01
  rms(prec ) = 0.28735E-01
  weight for this iteration     100.00

 eigenvalues of (default mixing * dielectric matrix)
  average eigenvalue GAMMA=   1.2726
  2.5152  1.1807  0.7938  0.6005

 Free energy of the ion-electron system (eV)
  ---------------------------------------------------
  alpha Z        PSCENC =         3.24857844
  Ewald energy   TEWEN  =      -225.91568183
  -Hartree energ DENC   =       -16.23440556
  -exchange      EXHF   =         0.00000000
  -V(xc)+E(xc)   XCENC  =       -19.55213882
  PAW double counting   =       537.66875206     -501.15296920
  entropy T*S    EENTRO =        -0.00097935
  eigenvalues    EBANDS =         6.10408122
  atomic energy  EATOM  =       208.59373829
  Solvation  Ediel_sol  =         0.00000000
  ---------------------------------------------------
  free energy    TOTEN  =        -7.24102475 eV

  energy without entropy =       -7.24004541  energy(sigma->0) =       -7.24053508


--------------------------------------------------------------------------------------------------------




----------------------------------------- Iteration    1(  10)  ---------------------------------------


    POTLOK:  cpu time    1.6400: real time    1.6414
    SETDIJ:  cpu time    0.0120: real time    0.0097
     EDDAV:  cpu time   16.5520: real time   16.5464
       DOS:  cpu time    0.0280: real time    0.0272
    CHARGE:  cpu time    0.2640: real time    0.2643
    MIXING:  cpu time    0.0000: real time    0.0007
    --------------------------------------------
      LOOP:  cpu time   18.4960: real time   18.5860

 eigenvalue-minimisations  : 37152
 total energy-change (2. order) : 0.9115352E-02  (-0.1082214E-03)
 number of electron       7.9999999 magnetization       0.0039955
 augmentation part       -0.4532408 magnetization       0.0037863

 Broyden mixing:
  rms(total) = 0.69869E-02    rms(broyden)= 0.69869E-02
  rms(prec ) = 0.11069E-01
  weight for this iteration     100.00

 eigenvalues of (default mixing * dielectric matrix)
  average eigenvalue GAMMA=   1.3395
  2.4299  2.1224  0.8401  0.6957  0.6094

 Free energy of the ion-electron system (eV)
  ---------------------------------------------------
  alpha Z        PSCENC =         3.24857844
  Ewald energy   TEWEN  =      -225.91568183
  -Hartree energ DENC   =       -16.14480014
  -exchange      EXHF   =         0.00000000
  -V(xc)+E(xc)   XCENC  =       -19.55330349
  PAW double counting   =       531.50315364     -494.95232627
  entropy T*S    EENTRO =        -0.00082333
  eigenvalues    EBANDS =         5.98955529
  atomic energy  EATOM  =       208.59373829
  Solvation  Ediel_sol  =         0.00000000
  ---------------------------------------------------
  free energy    TOTEN  =        -7.23190940 eV

  energy without entropy =       -7.23108607  energy(sigma->0) =       -7.23149774


--------------------------------------------------------------------------------------------------------




----------------------------------------- Iteration    1(  11)  ---------------------------------------


    POTLOK:  cpu time    1.6600: real time    1.6610
    SETDIJ:  cpu time    0.0080: real time    0.0095
     EDDAV:  cpu time   15.7360: real time   15.7318
       DOS:  cpu time    0.0280: real time    0.0274
    CHARGE:  cpu time    0.2640: real time    0.2645
    MIXING:  cpu time    0.0040: real time    0.0007
    --------------------------------------------
      LOOP:  cpu time   17.7000: real time   17.7771

 eigenvalue-minimisations  : 37504
 total energy-change (2. order) :-0.5818819E-04  (-0.8086882E-05)
 number of electron       7.9999999 magnetization      -0.0000626
 augmentation part       -0.4531809 magnetization      -0.0001309

 Broyden mixing:
  rms(total) = 0.32353E-02    rms(broyden)= 0.32353E-02
  rms(prec ) = 0.44495E-02
  weight for this iteration     100.00

 eigenvalues of (default mixing * dielectric matrix)
  average eigenvalue GAMMA=   1.3519
  2.4684  2.4684  1.0819  0.7970  0.6153  0.6805

 Free energy of the ion-electron system (eV)
  ---------------------------------------------------
  alpha Z        PSCENC =         3.24857844
  Ewald energy   TEWEN  =      -225.91568183
  -Hartree energ DENC   =       -16.17825211
  -exchange      EXHF   =         0.00000000
  -V(xc)+E(xc)   XCENC  =       -19.54770380
  PAW double counting   =       531.84519883     -495.29506625
  entropy T*S    EENTRO =        -0.00083335
  eigenvalues    EBANDS =         6.01805420
  atomic energy  EATOM  =       208.59373829
  Solvation  Ediel_sol  =         0.00000000
  ---------------------------------------------------
  free energy    TOTEN  =        -7.23196759 eV

  energy without entropy =       -7.23113424  energy(sigma->0) =       -7.23155092


--------------------------------------------------------------------------------------------------------




----------------------------------------- Iteration    1(  12)  ---------------------------------------


    POTLOK:  cpu time    1.6160: real time    1.6186
    SETDIJ:  cpu time    0.0080: real time    0.0069
     EDDAV:  cpu time   16.4440: real time   16.4384
       DOS:  cpu time    0.0280: real time    0.0273
    CHARGE:  cpu time    0.2320: real time    0.2316
    MIXING:  cpu time    0.0000: real time    0.0007
    --------------------------------------------
      LOOP:  cpu time   18.3280: real time   18.3368

 eigenvalue-minimisations  : 39456
 total energy-change (2. order) :-0.3663191E-03  (-0.7445872E-06)
 number of electron       7.9999999 magnetization       0.0003483
 augmentation part       -0.4531149 magnetization       0.0003456

 Broyden mixing:
  rms(total) = 0.20062E-02    rms(broyden)= 0.20062E-02
  rms(prec ) = 0.22639E-02
  weight for this iteration     100.00

 eigenvalues of (default mixing * dielectric matrix)
  average eigenvalue GAMMA=   1.3909
  2.6292  2.6292  1.2065  1.2065  0.7969  0.6245  0.6435

 Free energy of the ion-electron system (eV)
  ---------------------------------------------------
  alpha Z        PSCENC =         3.24857844
  Ewald energy   TEWEN  =      -225.91568183
  -Hartree energ DENC   =       -16.19304268
  -exchange      EXHF   =         0.00000000
  -V(xc)+E(xc)   XCENC  =       -19.54595668
  PAW double counting   =       530.44425926     -493.89580770
  entropy T*S    EENTRO =        -0.00084173
  eigenvalues    EBANDS =         6.03242072
  atomic energy  EATOM  =       208.59373829
  Solvation  Ediel_sol  =         0.00000000
  ---------------------------------------------------
  free energy    TOTEN  =        -7.23233391 eV

  energy without entropy =       -7.23149218  energy(sigma->0) =       -7.23191305


--------------------------------------------------------------------------------------------------------




----------------------------------------- Iteration    1(  13)  ---------------------------------------


    POTLOK:  cpu time    1.6360: real time    1.6340
    SETDIJ:  cpu time    0.0080: real time    0.0095
     EDDAV:  cpu time   16.0240: real time   16.0189
       DOS:  cpu time    0.0280: real time    0.0268
    CHARGE:  cpu time    0.2640: real time    0.2642
    MIXING:  cpu time    0.0000: real time    0.0008
    --------------------------------------------
      LOOP:  cpu time   17.9600: real time   18.0247

 eigenvalue-minimisations  : 37504
 total energy-change (2. order) : 0.4038345E-04  (-0.1572943E-06)
 number of electron       7.9999999 magnetization       0.0000446
 augmentation part       -0.4531024 magnetization       0.0000319

 Broyden mixing:
  rms(total) = 0.47792E-03    rms(broyden)= 0.47792E-03
  rms(prec ) = 0.74523E-03
  weight for this iteration     100.00

 eigenvalues of (default mixing * dielectric matrix)
  average eigenvalue GAMMA=   1.3998
  2.6823  2.6823  1.9557  1.0917  0.8028  0.7295  0.6271  0.6271

 Free energy of the ion-electron system (eV)
  ---------------------------------------------------
  alpha Z        PSCENC =         3.24857844
  Ewald energy   TEWEN  =      -225.91568183
  -Hartree energ DENC   =       -16.19419491
  -exchange      EXHF   =         0.00000000
  -V(xc)+E(xc)   XCENC  =       -19.54605443
  PAW double counting   =       527.34841237     -490.79994543
  entropy T*S    EENTRO =        -0.00083919
  eigenvalues    EBANDS =         6.03369317
  atomic energy  EATOM  =       208.59373829
  Solvation  Ediel_sol  =         0.00000000
  ---------------------------------------------------
  free energy    TOTEN  =        -7.23229353 eV

  energy without entropy =       -7.23145434  energy(sigma->0) =       -7.23187393


--------------------------------------------------------------------------------------------------------




----------------------------------------- Iteration    1(  14)  ---------------------------------------


    POTLOK:  cpu time    1.6480: real time    1.6472
    SETDIJ:  cpu time    0.0080: real time    0.0068
     EDDAV:  cpu time   16.0440: real time   16.0477
       DOS:  cpu time    0.0280: real time    0.0272
    CHARGE:  cpu time    0.2040: real time    0.2056
    MIXING:  cpu time    0.0000: real time    0.0008
    --------------------------------------------
      LOOP:  cpu time   17.9320: real time   17.9979

 eigenvalue-minimisations  : 36400
 total energy-change (2. order) :-0.6799684E-04  (-0.6624902E-07)
 number of electron       7.9999999 magnetization      -0.0000544
 augmentation part       -0.4530883 magnetization      -0.0000548

 Broyden mixing:
  rms(total) = 0.11316E-03    rms(broyden)= 0.11316E-03
  rms(prec ) = 0.17048E-03
  weight for this iteration     100.00

 eigenvalues of (default mixing * dielectric matrix)
  average eigenvalue GAMMA=   1.3361
  2.8241  2.4788  2.0517  0.9765  0.9765  0.7968  0.6768  0.6221  0.6221

 Free energy of the ion-electron system (eV)
  ---------------------------------------------------
  alpha Z        PSCENC =         3.24857844
  Ewald energy   TEWEN  =      -225.91568183
  -Hartree energ DENC   =       -16.19718285
  -exchange      EXHF   =         0.00000000
  -V(xc)+E(xc)   XCENC  =       -19.54569546
  PAW double counting   =       527.10637294     -490.55821501
  entropy T*S    EENTRO =        -0.00084063
  eigenvalues    EBANDS =         6.03656460
  atomic energy  EATOM  =       208.59373829
  Solvation  Ediel_sol  =         0.00000000
  ---------------------------------------------------
  free energy    TOTEN  =        -7.23236152 eV

  energy without entropy =       -7.23152089  energy(sigma->0) =       -7.23194121


--------------------------------------------------------------------------------------------------------




----------------------------------------- Iteration    1(  15)  ---------------------------------------


    POTLOK:  cpu time    1.6400: real time    1.6374
    SETDIJ:  cpu time    0.0080: real time    0.0096
     EDDAV:  cpu time   16.8800: real time   16.8735
       DOS:  cpu time    0.0280: real time    0.0281
    CHARGE:  cpu time    0.2560: real time    0.2549
    MIXING:  cpu time    0.0000: real time    0.0009
    --------------------------------------------
      LOOP:  cpu time   18.8120: real time   19.0914

 eigenvalue-minimisations  : 34816
 total energy-change (2. order) :-0.2191945E-04  (-0.2862057E-08)
 number of electron       7.9999999 magnetization       0.0000033
 augmentation part       -0.4530849 magnetization       0.0000043

 Broyden mixing:
  rms(total) = 0.59474E-04    rms(broyden)= 0.59474E-04
  rms(prec ) = 0.10106E-03
  weight for this iteration     100.00

 eigenvalues of (default mixing * dielectric matrix)
  average eigenvalue GAMMA=   1.3193
  2.8404  2.4563  1.9653  1.3178  1.0352  0.8710  0.7940  0.6688  0.6221  0.6221

[...]

 k-point   159 :       0.5694    0.1389    0.5694
  band No.  band energies     occupation 
      1      -2.1951      1.00000
      2      -1.9252      1.00000
      3       2.0580      1.00000
      4       2.9338      1.00000
      5       6.4906      0.00002
      6       7.6540      0.00000
      7      14.2652      0.00000
      8      14.6376      0.00000
      9      14.8753      0.00000
     10      15.2096      0.00000
     11      18.9508      0.00000
     12      19.0712      0.00000
     13      19.2087      0.00000
     14      19.9424      0.00000
     15      22.4759      0.00000
     16      22.8846      0.00000
     17      24.9644      0.00000
     18      25.5533      0.00000
     19      25.7771      0.00000
     20      26.6227      0.00000
     21      26.9460      0.00000
     22      28.0515      0.00000
     23      29.0561      0.00000
     24      30.2051      0.00000
     25      34.3180      0.00000
     26      35.9610      0.00000
     27      36.1241      0.00000
     28      37.3887      0.00000
     29      39.1471      0.00000
     30      39.4382      0.00000
     31      40.2407      0.00000
     32      40.8784      0.00000
     33      41.8012      0.00000
     34      43.4408      0.00000
     35      43.4612      0.00000
     36      45.0450      0.00000
     37      45.3967      0.00000
     38      47.5495      0.00000
     39      47.6460      0.00000
     40      47.8570      0.00000
     41      49.8564      0.00000
     42      51.4567      0.00000
     43      52.0097      0.00000
     44      53.3583      0.00000
     45      54.6959      0.00000
     46      56.9401      0.00000
     47      57.3323      0.00000
     48      57.6663      0.00000

 k-point   160 :       0.5556    0.1111    0.5556
  band No.  band energies     occupation 
      1      -2.1577      1.00000
      2      -1.9893      1.00000
      3       2.2657      1.00000
      4       2.8873      1.00000
      5       6.4368      0.00009
      6       7.2381      0.00000
      7      14.5944      0.00000
      8      14.8779      0.00000
      9      15.2590      0.00000
     10      15.5197      0.00000
     11      18.7216      0.00000
     12      18.7731      0.00000
     13      18.8441      0.00000
     14      19.4711      0.00000
     15      22.8809      0.00000
     16      23.2435      0.00000
     17      24.9299      0.00000
     18      25.3449      0.00000
     19      25.6369      0.00000
     20      26.4752      0.00000
     21      26.8441      0.00000
     22      27.6780      0.00000
     23      29.2955      0.00000
     24      30.3063      0.00000
     25      34.3216      0.00000
     26      35.5666      0.00000
     27      36.6706      0.00000
     28      38.2266      0.00000
     29      39.1019      0.00000
     30      39.3503      0.00000
     31      40.3714      0.00000
     32      40.6760      0.00000
     33      42.5265      0.00000
     34      43.3705      0.00000
     35      43.6800      0.00000
     36      44.3860      0.00000
     37      45.4255      0.00000
     38      46.7434      0.00000
     39      47.4883      0.00000
     40      47.6882      0.00000
     41      49.7516      0.00000
     42      51.1867      0.00000
     43      51.9307      0.00000
     44      53.3841      0.00000
     45      54.8479      0.00000
     46      56.4802      0.00000
     47      57.6449      0.00000
     48      57.8304      0.00000

 k-point   161 :       0.5417    0.0833    0.5417
  band No.  band energies     occupation 
      1      -2.1320      1.00000
      2      -2.0391      1.00000
      3       2.4669      1.00000
      4       2.8510      1.00000
      5       6.3948      0.00027
      6       6.8779      0.00000
      7      14.9009      0.00000
      8      15.0914      0.00000
      9      15.6342      0.00000
     10      15.8171      0.00000
     11      18.4852      0.00000
     12      18.5085      0.00000
     13      18.5167      0.00000
     14      19.0242      0.00000
     15      23.2848      0.00000
     16      23.5839      0.00000
     17      24.9136      0.00000
     18      25.1824      0.00000
     19      25.5290      0.00000
     20      26.1837      0.00000
     21      26.7337      0.00000
     22      27.2894      0.00000
     23      29.6955      0.00000
     24      30.4085      0.00000
     25      34.3238      0.00000
     26      35.1410      0.00000
     27      37.2560      0.00000
     28      38.9003      0.00000
     29      39.2028      0.00000
     30      39.2833      0.00000
     31      40.4148      0.00000
     32      40.4846      0.00000
     33      43.0249      0.00000
     34      43.5608      0.00000
     35      43.7871      0.00000
     36      43.9434      0.00000
     37      45.4257      0.00000
     38      45.9323      0.00000
     39      47.1482      0.00000
     40      47.6151      0.00000
     41      49.6903      0.00000
     42      50.4851      0.00000
     43      52.4233      0.00000
     44      53.4220      0.00000
     45      54.9172      0.00000
     46      55.9961      0.00000
     47      57.8426      0.00000
     48      57.9155      0.00000

 k-point   162 :       0.5278    0.0556    0.5278
  band No.  band energies     occupation 
      1      -2.1154      1.00000
      2      -2.0748      1.00000
      3       2.6403      1.00000
      4       2.8249      1.00000
      5       6.3646      0.00059
      6       6.5926      0.00000
      7      15.1638      0.00000
      8      15.2638      0.00000
      9      15.9805      0.00000
     10      16.0836      0.00000
     11      18.2241      0.00000
     12      18.2254      0.00000
     13      18.3504      0.00000
     14      18.6253      0.00000
     15      23.6719      0.00000
     16      23.8757      0.00000
     17      24.9216      0.00000
     18      25.0663      0.00000
     19      25.4526      0.00000
     20      25.8448      0.00000
     21      26.6400      0.00000
     22      26.9336      0.00000
     23      30.1128      0.00000
     24      30.4888      0.00000
     25      34.3250      0.00000
     26      34.7411      0.00000
     27      37.8646      0.00000
     28      38.9703      0.00000
     29      39.2360      0.00000
     30      39.8471      0.00000
     31      40.0683      0.00000
     32      40.5726      0.00000
     33      43.0439      0.00000
     34      43.3614      0.00000
     35      44.1432      0.00000
     36      44.2605      0.00000
     37      45.1820      0.00000
     38      45.4113      0.00000
     39      46.8587      0.00000
     40      47.3491      0.00000
     41      49.6599      0.00000
     42      49.9857      0.00000
     43      52.9011      0.00000
     44      53.4591      0.00000
     45      54.9361      0.00000
     46      55.5230      0.00000
     47      57.9284      0.00000
     48      57.9480      0.00000

 k-point   163 :       0.5139    0.0278    0.5139
  band No.  band energies     occupation 
      1      -2.1062      1.00000
      2      -2.0961      1.00000
      3       2.7605      1.00000
      4       2.8092      1.00000
      5       6.3465      0.00091
      6       6.4059      0.00020
      7      15.3496      0.00000
      8      15.3780      0.00000
      9      16.2519      0.00000
     10      16.2840      0.00000
     11      18.0251      0.00000
     12      18.0289      0.00000
     13      18.2398      0.00000
     14      18.3219      0.00000
     15      23.9990      0.00000
     16      24.0759      0.00000
     17      24.9524      0.00000
     18      24.9966      0.00000
     19      25.4070      0.00000
     20      25.5352      0.00000
     21      26.5816      0.00000
     22      26.6662      0.00000
     23      30.4330      0.00000
     24      30.5389      0.00000
     25      34.3256      0.00000
     26      34.4407      0.00000
     27      38.4731      0.00000
     28      38.9612      0.00000
     29      39.2079      0.00000
     30      39.6261      0.00000
     31      40.4158      0.00000
     32      40.6287      0.00000
     33      43.0102      0.00000
     34      43.0884      0.00000
     35      44.3013      0.00000
     36      44.5978      0.00000
     37      44.9853      0.00000
     38      45.3961      0.00000
     39      46.6547      0.00000
     40      46.9002      0.00000
     41      49.6478      0.00000
     42      49.7214      0.00000
     43      53.3087      0.00000
     44      53.4859      0.00000
     45      54.9344      0.00000
     46      55.1178      0.00000
     47      57.9524      0.00000
     48      57.9552      0.00000

 k-point   164 :       0.5000    0.0000    0.5000
  band No.  band energies     occupation 
      1      -2.1033      1.00000
      2      -2.1033      1.00000
      3       2.8039      1.00000
      4       2.8039      1.00000
      5       6.3404      0.00106
      6       6.3404      0.00106
      7      15.4183      0.00000
      8      15.4183      0.00000
      9      16.3623      0.00000
     10      16.3623      0.00000
     11      17.9519      0.00000
     12      17.9519      0.00000
     13      18.2007      0.00000
     14      18.2007      0.00000
     15      24.1464      0.00000
     16      24.1464      0.00000
     17      24.9733      0.00000
     18      24.9733      0.00000
     19      25.3918      0.00000
     20      25.3918      0.00000
     21      26.5621      0.00000
     22      26.5621      0.00000
     23      30.5557      0.00000
     24      30.5557      0.00000
     25      34.3258      0.00000
     26      34.3258      0.00000
     27      38.9567      0.00000
     28      38.9567      0.00000
     29      39.1985      0.00000
     30      39.1985      0.00000
     31      40.6479      0.00000
     32      40.6479      0.00000
     33      42.9966      0.00000
     34      42.9966      0.00000
     35      44.3614      0.00000
     36      44.3614      0.00000
     37      45.3899      0.00000
     38      45.3899      0.00000
     39      46.5793      0.00000
     40      46.5793      0.00000
     41      49.6448      0.00000
     42      49.6448      0.00000
     43      53.4955      0.00000
     44      53.4955      0.00000
     45      54.9316      0.00000
     46      54.9316      0.00000
     47      57.9557      0.00000
     48      57.9557      0.00000


--------------------------------------------------------------------------------------------------------


 soft charge-density along one line, spin component           1
         0         1         2         3         4         5         6         7         8         9
 total charge-density along one line

 soft charge-density along one line, spin component           2
         0         1         2         3         4         5         6         7         8         9
 total charge-density along one line

 pseudopotential strength for first ion, spin component:           1
 18.533  25.852  -0.000  -0.000  -0.000  -0.000  -0.000  -0.000
 25.852  36.067  -0.000  -0.000  -0.000  -0.000  -0.000  -0.000
 -0.000  -0.000   4.199  -0.000  -0.000   7.816  -0.000  -0.000
 -0.000  -0.000  -0.000   4.199  -0.000  -0.000   7.816  -0.000
 -0.000  -0.000  -0.000  -0.000   4.199  -0.000  -0.000   7.816
 -0.000  -0.000   7.816  -0.000  -0.000  14.561  -0.000  -0.000
 -0.000  -0.000  -0.000   7.816  -0.000  -0.000  14.561  -0.000
 -0.000  -0.000  -0.000  -0.000   7.816  -0.000  -0.000  14.561
 pseudopotential strength for first ion, spin component:           2
 18.533  25.852  -0.000  -0.000  -0.000  -0.000  -0.000  -0.000
 25.852  36.067  -0.000  -0.000  -0.000  -0.000  -0.000  -0.000
 -0.000  -0.000   4.199  -0.000  -0.000   7.816  -0.000  -0.000
 -0.000  -0.000  -0.000   4.199  -0.000  -0.000   7.816  -0.000
 -0.000  -0.000  -0.000  -0.000   4.199  -0.000  -0.000   7.816
 -0.000  -0.000   7.816  -0.000  -0.000  14.561  -0.000  -0.000
 -0.000  -0.000  -0.000   7.816  -0.000  -0.000  14.561  -0.000
 -0.000  -0.000  -0.000  -0.000   7.816  -0.000  -0.000  14.561
 total augmentation occupancy for first ion, spin component:           1
  3.277  -0.969  -0.000   0.000  -0.000   0.000   0.000   0.000
 -0.969   0.443   0.000   0.000   0.000  -0.000   0.000   0.000
 -0.000   0.000   2.210  -0.000   0.000  -0.379   0.000   0.000
  0.000   0.000  -0.000   2.210   0.000  -0.000  -0.379  -0.000
 -0.000   0.000   0.000  -0.000   2.210   0.000   0.000  -0.379
  0.000  -0.000  -0.379   0.000  -0.000   0.080  -0.000   0.000
  0.000   0.000   0.000  -0.379  -0.000  -0.000   0.080   0.000
  0.000   0.000  -0.000  -0.000  -0.379   0.000   0.000   0.080
 total augmentation occupancy for first ion, spin component:           2
  0.000  -0.000   0.000   0.000   0.000   0.000   0.000   0.000
 -0.000   0.000   0.000   0.000   0.000   0.000   0.000   0.000
  0.000   0.000   0.000   0.000   0.000  -0.000   0.000   0.000
  0.000   0.000   0.000   0.000   0.000   0.000  -0.000   0.000
  0.000   0.000   0.000   0.000   0.000   0.000   0.000  -0.000
  0.000   0.000  -0.000   0.000   0.000   0.000   0.000   0.000
  0.000   0.000   0.000  -0.000   0.000   0.000   0.000   0.000
  0.000   0.000   0.000   0.000  -0.000   0.000   0.000   0.000


------------------------ aborting loop because EDIFF is reached ----------------------------------------





 total charge     

# of ion     s       p       d       tot
----------------------------------------
  1        0.698   0.944   0.000   1.642
  2        0.698   0.944   0.000   1.642
------------------------------------------------
tot        1.397   1.887   0.000   3.284



 magnetization (x)

# of ion     s       p       d       tot
----------------------------------------
  1       -0.000   0.000   0.000  -0.000
  2       -0.000   0.000   0.000  -0.000
------------------------------------------------
tot       -0.000   0.000   0.000  -0.000

    CHARGE:  cpu time    0.2640: real time    0.2632
    FORLOC:  cpu time    0.0000: real time    0.0005
    FORNL :  cpu time    0.4960: real time    0.4944
    STRESS:  cpu time    2.4560: real time    2.4539
    FORCOR:  cpu time    1.6200: real time    1.6231
    FORHAR:  cpu time    0.0040: real time    0.0040
    MIXING:  cpu time    0.0040: real time    0.0011
    OFIELD:  cpu time    0.0000: real time    0.0000

  FORCE on cell =-STRESS in cart. coord.  units (eV):
  Direction    XX          YY          ZZ          XY          YZ          ZX
  --------------------------------------------------------------------------------------
  Alpha Z     3.24858     3.24858     3.24858
  Ewald     -75.30526   -75.30526   -75.30526     0.00000    -0.00000    -0.00000
  Hartree     5.39931     5.39931     5.39931     0.00000     0.00000     0.00000
  E(xc)     -25.40221   -25.40221   -25.40221    -0.00000    -0.00000    -0.00000
  Local     -30.07020   -30.07020   -30.07020     0.00001     0.00001     0.00001
  n-local    78.50895    74.56245    76.46856    -1.88198    -0.76321    -1.32953
  augment   -11.60212   -11.60212   -11.60212    -0.00001    -0.00001    -0.00001
  Kinetic    58.10179    56.41815    58.86156    -2.23378    -1.35293    -2.17415
  Fock        0.00000     0.00000     0.00000     0.00000     0.00000     0.00000
  -------------------------------------------------------------------------------------
  Total       0.57525     0.57525     0.57525    -0.00000    -0.00000     0.00000
  in kB      22.23558    22.23558    22.23558    -0.00000    -0.00000     0.00000
  external pressure =       22.24 kB  Pullay stress =        0.00 kB


 VOLUME and BASIS-vectors are now :
 -----------------------------------------------------------------------------
  energy-cutoff  :      500.00
  volume of cell :       41.45
      direct lattice vectors                 reciprocal lattice vectors
     0.000000000  2.746821138  2.746821138    -0.182028598  0.182028598  0.182028598
     2.746821138  0.000000000  2.746821138     0.182028598 -0.182028598  0.182028598
     2.746821138  2.746821138  0.000000000     0.182028598  0.182028598 -0.182028598

  length of vectors
     3.884591706  3.884591706  3.884591706     0.315282780  0.315282780  0.315282780


 FORCES acting on ions
    electron-ion (+dipol)            ewald-force                    non-local-force                 convergence-correction
 -----------------------------------------------------------------------------------------------
   0.101E-07 0.101E-07 0.109E-07   -.313E-14 -.268E-14 -.153E-14   0.416E-16 0.902E-16 0.520E-16   -.344E-12 -.342E-12 -.343E-12
   -.101E-07 -.101E-07 -.109E-07   0.307E-14 0.301E-14 0.222E-14   -.451E-16 -.971E-16 -.590E-16   0.347E-12 0.346E-12 0.345E-12
 -----------------------------------------------------------------------------------------------
   0.400E-14 0.687E-13 -.124E-12   -.615E-16 0.330E-15 0.690E-15   -.347E-17 -.694E-17 -.694E-17   0.335E-14 0.376E-14 0.257E-14


 POSITION                                       TOTAL-FORCE (eV/Angst)
 -----------------------------------------------------------------------------------
      4.12023      4.12023      4.12023        -0.000000     -0.000000      0.000000
      2.74682      2.74682      2.74682         0.000000      0.000000     -0.000000
 -----------------------------------------------------------------------------------
    total drift:                                0.000000      0.000000     -0.000000


--------------------------------------------------------------------------------------------------------



  FREE ENERGIE OF THE ION-ELECTRON SYSTEM (eV)
  ---------------------------------------------------
  free  energy   TOTEN  =        -7.23239075 eV

  energy  without entropy=       -7.23155000  energy(sigma->0) =       -7.23197038



--------------------------------------------------------------------------------------------------------


    POTLOK:  cpu time    1.6360: real time    1.6377


--------------------------------------------------------------------------------------------------------


 Quasi-Newton relaxation of ions (Broydens 2nd method)
  g(Force)  = 0.634E-50   g(Stress)= 0.000E+00

 Reset! Starting new Quasi-Newton update for ions 


--------------------------------------------------------------------------------------------------------


  
 reached required accuracy - stopping structural energy minimisation
     LOOP+:  cpu time  353.0880: real time  356.8998
    4ORBIT:  cpu time    0.0000: real time    0.0000



 total charge     

# of ion     s       p       d       tot
----------------------------------------
  1        0.698   0.944   0.000   1.642
  2        0.698   0.944   0.000   1.642
------------------------------------------------
tot        1.397   1.887   0.000   3.284



 magnetization (x)

# of ion     s       p       d       tot
----------------------------------------
  1       -0.000   0.000   0.000  -0.000
  2       -0.000   0.000   0.000  -0.000
------------------------------------------------
tot       -0.000   0.000   0.000  -0.000


 total amount of memory used by VASP on root node    61653. kBytes
========================================================================

   base      :      30000. kBytes
   nonl-proj :      11286. kBytes
   fftplans  :        517. kBytes
   grid      :       2709. kBytes
   one-center:         12. kBytes
   wavefun   :      17129. kBytes

  
  
 General timing and accounting informations for this job:
 ========================================================
  
                  Total CPU time used (sec):      356.736
                            User time (sec):      349.192
                          System time (sec):        7.544
                         Elapsed time (sec):      362.228
  
                   Maximum memory used (kb):      148584.
                   Average memory used (kb):           0.
  
                          Minor page faults:      5948135
                          Major page faults:            5
                 Voluntary context switches:         1367
