   2   2   0   0
  0.2044415E+02  0.3866974E-09  0.3866975E-09  0.3866975E-09  0.5000000E-15
  1.000000000000000E-004
  CAR 
 unknown system                          
     16.21983757     -8.13373867  301      5.93352521      1.00000000
     -8.134  0.0000E+00  0.0000E+00
     -8.053  0.0000E+00  0.0000E+00
     -7.971  0.0000E+00  0.0000E+00
     -7.890  0.0000E+00  0.0000E+00
     -7.809  0.0000E+00  0.0000E+00
     -7.728  0.0000E+00  0.0000E+00
     -7.647  0.0000E+00  0.0000E+00
     -7.565  0.0000E+00  0.0000E+00
     -7.484  0.0000E+00  0.0000E+00
     -7.403  0.0000E+00  0.0000E+00
     -7.322  0.0000E+00  0.0000E+00
     -7.241  0.4923E-15  0.3997E-16
     -7.160  0.3941E-13  0.3239E-14
     -7.078  0.2317E-11  0.1913E-12
     -6.997  0.9840E-10  0.8180E-11
     -6.916  0.3022E-08  0.2535E-09
     -6.835  0.6713E-07  0.5703E-08
     -6.754  0.1079E-05  0.9330E-07
     -6.673  0.1256E-04  0.1113E-05
     -6.591  0.1058E-03  0.9705E-05
     -6.510  0.6465E-03  0.6219E-04
     -6.429  0.2863E-02  0.2946E-03
     -6.348  0.9193E-02  0.1041E-02
     -6.267  0.2142E-01  0.2779E-02
     -6.185  0.3625E-01  0.5722E-02
     -6.104  0.4491E-01  0.9367E-02
     -6.023  0.4295E-01  0.1285E-01
     -5.942  0.4215E-01  0.1628E-01
     -5.861  0.7074E-01  0.2202E-01
     -5.780  0.1572E+00  0.3478E-01
     -5.698  0.2991E+00  0.5906E-01
     -5.617  0.4433E+00  0.9505E-01
     -5.536  0.5182E+00  0.1371E+00
     -5.455  0.4895E+00  0.1768E+00
     -5.374  0.3770E+00  0.2075E+00
     -5.292  0.2340E+00  0.2264E+00
     -5.211  0.1175E+00  0.2360E+00
     -5.130  0.6486E-01  0.2412E+00
     -5.049  0.9395E-01  0.2489E+00
     -4.968  0.2126E+00  0.2661E+00
     -4.887  0.3888E+00  0.2977E+00
     -4.805  0.5221E+00  0.3401E+00
     -4.724  0.5191E+00  0.3822E+00
     -4.643  0.4214E+00  0.4164E+00
     -4.562  0.4066E+00  0.4494E+00
     -4.481  0.6314E+00  0.5007E+00
     -4.400  0.1051E+01  0.5860E+00
     -4.318  0.1381E+01  0.6981E+00
     -4.237  0.1340E+01  0.8069E+00
     -4.156  0.9499E+00  0.8840E+00
     -4.075  0.4913E+00  0.9239E+00
     -3.994  0.1860E+00  0.9390E+00
     -3.912  0.5622E-01  0.9435E+00
     -3.831  0.3969E-01  0.9467E+00
     -3.750  0.1215E+00  0.9566E+00
     -3.669  0.3546E+00  0.9854E+00
     -3.588  0.7598E+00  0.1047E+01
     -3.507  0.1183E+01  0.1143E+01
     -3.425  0.1348E+01  0.1253E+01
     -3.344  0.1162E+01  0.1347E+01
     -3.263  0.8735E+00  0.1418E+01
     -3.182  0.8004E+00  0.1483E+01
     -3.101  0.9622E+00  0.1561E+01
     -3.019  0.1086E+01  0.1649E+01
     -2.938  0.9464E+00  0.1726E+01
     -2.857  0.6059E+00  0.1775E+01
     -2.776  0.2829E+00  0.1798E+01
     -2.695  0.1010E+00  0.1806E+01
     -2.614  0.5017E-01  0.1810E+01
     -2.532  0.9546E-01  0.1818E+01
     -2.451  0.2261E+00  0.1836E+01
     -2.370  0.4042E+00  0.1869E+01
     -2.289  0.5256E+00  0.1912E+01
     -2.208  0.4965E+00  0.1952E+01
     -2.127  0.3426E+00  0.1980E+01
     -2.045  0.1838E+00  0.1995E+01
     -1.964  0.1188E+00  0.2005E+01
     -1.883  0.1786E+00  0.2019E+01
     -1.802  0.3349E+00  0.2046E+01
     -1.721  0.4917E+00  0.2086E+01
     -1.639  0.5278E+00  0.2129E+01
     -1.558  0.4115E+00  0.2162E+01
     -1.477  0.2333E+00  0.2181E+01
     -1.396  0.9953E-01  0.2189E+01
     -1.315  0.5186E-01  0.2194E+01
     -1.234  0.1076E+00  0.2202E+01
     -1.152  0.3266E+00  0.2229E+01
     -1.071  0.7786E+00  0.2292E+01
     -0.990  0.1397E+01  0.2406E+01
     -0.909  0.1899E+01  0.2560E+01
     -0.828  0.1973E+01  0.2720E+01
     -0.746  0.1609E+01  0.2851E+01
     -0.665  0.1125E+01  0.2942E+01
     -0.584  0.8251E+00  0.3009E+01
     -0.503  0.7191E+00  0.3067E+01
     -0.422  0.6251E+00  0.3118E+01
     -0.341  0.4448E+00  0.3154E+01
     -0.259  0.2392E+00  0.3173E+01
     -0.178  0.9512E-01  0.3181E+01
     -0.097  0.2868E-01  0.3184E+01
     -0.016  0.1275E-01  0.3185E+01
      0.065  0.3614E-01  0.3187E+01
      0.146  0.1319E+00  0.3198E+01
      0.228  0.3576E+00  0.3227E+01
      0.309  0.7041E+00  0.3284E+01
      0.390  0.1006E+01  0.3366E+01
      0.471  0.1043E+01  0.3451E+01
      0.552  0.7851E+00  0.3514E+01
      0.634  0.4288E+00  0.3549E+01
      0.715  0.1703E+00  0.3563E+01
      0.796  0.5214E-01  0.3567E+01
      0.877  0.2734E-01  0.3570E+01
      0.958  0.6612E-01  0.3575E+01
      1.039  0.1764E+00  0.3589E+01
      1.121  0.3490E+00  0.3618E+01
      1.202  0.5021E+00  0.3658E+01
      1.283  0.5285E+00  0.3701E+01
      1.364  0.4265E+00  0.3736E+01
      1.445  0.3399E+00  0.3763E+01
      1.527  0.4470E+00  0.3800E+01
      1.608  0.8122E+00  0.3866E+01
      1.689  0.1284E+01  0.3970E+01
      1.770  0.1546E+01  0.4095E+01
      1.851  0.1389E+01  0.4208E+01
      1.932  0.9432E+00  0.4285E+01
      2.014  0.5511E+00  0.4329E+01
      2.095  0.4584E+00  0.4367E+01
      2.176  0.6693E+00  0.4421E+01
      2.257  0.9715E+00  0.4500E+01
      2.338  0.1097E+01  0.4589E+01
      2.419  0.9925E+00  0.4669E+01
      2.501  0.9220E+00  0.4744E+01
      2.582  0.1173E+01  0.4840E+01
      2.663  0.1685E+01  0.4976E+01
      2.744  0.2081E+01  0.5145E+01
      2.825  0.2143E+01  0.5319E+01
      2.907  0.2107E+01  0.5490E+01
      2.988  0.2259E+01  0.5674E+01
      3.069  0.2436E+01  0.5871E+01
      3.150  0.2232E+01  0.6053E+01
      3.231  0.1590E+01  0.6182E+01
      3.312  0.8668E+00  0.6252E+01
      3.394  0.4138E+00  0.6286E+01
      3.475  0.3377E+00  0.6313E+01
      3.556  0.5700E+00  0.6359E+01
      3.637  0.9409E+00  0.6436E+01
      3.718  0.1235E+01  0.6536E+01
      3.800  0.1357E+01  0.6646E+01
      3.881  0.1396E+01  0.6759E+01
      3.962  0.1414E+01  0.6874E+01
      4.043  0.1350E+01  0.6984E+01
      4.124  0.1168E+01  0.7079E+01
      4.205  0.9333E+00  0.7154E+01
      4.287  0.7315E+00  0.7214E+01
      4.368  0.6428E+00  0.7266E+01
      4.449  0.6976E+00  0.7323E+01
      4.530  0.8060E+00  0.7388E+01
      4.611  0.8445E+00  0.7457E+01
      4.692  0.8110E+00  0.7522E+01
      4.774  0.7831E+00  0.7586E+01
      4.855  0.7906E+00  0.7650E+01
      4.936  0.8232E+00  0.7717E+01
      5.017  0.8557E+00  0.7786E+01
      5.098  0.8106E+00  0.7852E+01
      5.180  0.6288E+00  0.7903E+01
      5.261  0.3751E+00  0.7934E+01
      5.342  0.1758E+00  0.7948E+01
      5.423  0.8982E-01  0.7955E+01
      5.504  0.9121E-01  0.7963E+01
      5.585  0.1223E+00  0.7973E+01
      5.667  0.1330E+00  0.7983E+01
      5.748  0.1065E+00  0.7992E+01
      5.829  0.6239E-01  0.7997E+01
      5.910  0.2953E-01  0.8000E+01
      5.991  0.2360E-01  0.8001E+01
      6.073  0.5308E-01  0.8006E+01
      6.154  0.1226E+00  0.8016E+01
      6.235  0.2118E+00  0.8033E+01
      6.316  0.2682E+00  0.8055E+01
      6.397  0.2572E+00  0.8076E+01
      6.478  0.2195E+00  0.8093E+01
      6.560  0.2437E+00  0.8113E+01
      6.641  0.3671E+00  0.8143E+01
      6.722  0.5181E+00  0.8185E+01
      6.803  0.5874E+00  0.8233E+01
      6.884  0.5657E+00  0.8279E+01
      6.965  0.5551E+00  0.8324E+01
      7.047  0.6318E+00  0.8375E+01
      7.128  0.7666E+00  0.8437E+01
      7.209  0.8968E+00  0.8510E+01
      7.290  0.1021E+01  0.8593E+01
      7.371  0.1176E+01  0.8688E+01
      7.453  0.1329E+01  0.8796E+01
      7.534  0.1407E+01  0.8911E+01
      7.615  0.1442E+01  0.9028E+01
      7.696  0.1508E+01  0.9150E+01
      7.777  0.1512E+01  0.9273E+01
      7.858  0.1293E+01  0.9378E+01
      7.940  0.8788E+00  0.9449E+01
      8.021  0.4791E+00  0.9488E+01
      8.102  0.2468E+00  0.9508E+01
      8.183  0.1790E+00  0.9522E+01
      8.264  0.2026E+00  0.9539E+01
      8.346  0.2800E+00  0.9562E+01
      8.427  0.4106E+00  0.9595E+01
      8.508  0.5584E+00  0.9640E+01
      8.589  0.6585E+00  0.9694E+01
      8.670  0.7257E+00  0.9753E+01
      8.751  0.8790E+00  0.9824E+01
      8.833  0.1235E+01  0.9924E+01
      8.914  0.1803E+01  0.1007E+02
      8.995  0.2393E+01  0.1026E+02
      9.076  0.2630E+01  0.1048E+02
      9.157  0.2310E+01  0.1067E+02
      9.238  0.1724E+01  0.1081E+02
      9.320  0.1380E+01  0.1092E+02
      9.401  0.1447E+01  0.1104E+02
      9.482  0.1704E+01  0.1117E+02
      9.563  0.1918E+01  0.1133E+02
      9.644  0.2048E+01  0.1150E+02
      9.726  0.2097E+01  0.1167E+02
      9.807  0.2048E+01  0.1183E+02
      9.888  0.1974E+01  0.1199E+02
      9.969  0.1998E+01  0.1215E+02
     10.050  0.2114E+01  0.1233E+02
     10.131  0.2188E+01  0.1250E+02
     10.213  0.2161E+01  0.1268E+02
     10.294  0.2180E+01  0.1286E+02
     10.375  0.2421E+01  0.1305E+02
     10.456  0.2745E+01  0.1328E+02
     10.537  0.2707E+01  0.1350E+02
     10.619  0.2099E+01  0.1367E+02
     10.700  0.1247E+01  0.1377E+02
     10.781  0.6361E+00  0.1382E+02
     10.862  0.4826E+00  0.1386E+02
     10.943  0.6956E+00  0.1391E+02
     11.024  0.1011E+01  0.1400E+02
     11.106  0.1161E+01  0.1409E+02
     11.187  0.1085E+01  0.1418E+02
     11.268  0.9325E+00  0.1425E+02
     11.349  0.8297E+00  0.1432E+02
     11.430  0.7576E+00  0.1438E+02
     11.511  0.6580E+00  0.1444E+02
     11.593  0.5124E+00  0.1448E+02
     11.674  0.3380E+00  0.1451E+02
     11.755  0.1781E+00  0.1452E+02
     11.836  0.7164E-01  0.1453E+02
     11.917  0.2143E-01  0.1453E+02
     11.999  0.4702E-02  0.1453E+02
     12.080  0.7517E-03  0.1453E+02
     12.161  0.8727E-04  0.1453E+02
     12.242  0.7346E-05  0.1453E+02
     12.323  0.4630E-06  0.1453E+02
     12.404  0.4122E-06  0.1453E+02
     12.486  0.7341E-05  0.1453E+02
     12.567  0.9941E-04  0.1453E+02
     12.648  0.9753E-03  0.1453E+02
     12.729  0.6940E-02  0.1453E+02
     12.810  0.3587E-01  0.1453E+02
     12.892  0.1352E+00  0.1454E+02
     12.973  0.3741E+00  0.1457E+02
     13.054  0.7718E+00  0.1464E+02
     13.135  0.1224E+01  0.1473E+02
     13.216  0.1574E+01  0.1486E+02
     13.297  0.1749E+01  0.1500E+02
     13.379  0.1751E+01  0.1515E+02
     13.460  0.1590E+01  0.1528E+02
     13.541  0.1322E+01  0.1538E+02
     13.622  0.1051E+01  0.1547E+02
     13.703  0.8150E+00  0.1553E+02
     13.784  0.6118E+00  0.1558E+02
     13.866  0.4949E+00  0.1562E+02
     13.947  0.5327E+00  0.1567E+02
     14.028  0.6891E+00  0.1572E+02
     14.109  0.8360E+00  0.1579E+02
     14.190  0.8648E+00  0.1586E+02
     14.272  0.7440E+00  0.1592E+02
     14.353  0.5174E+00  0.1596E+02
     14.434  0.2807E+00  0.1599E+02
     14.515  0.1152E+00  0.1600E+02
     14.596  0.3509E-01  0.1600E+02
     14.677  0.7838E-02  0.1600E+02
     14.759  0.1276E-02  0.1600E+02
     14.840  0.1510E-03  0.1600E+02
     14.921  0.1296E-04  0.1600E+02
     15.002  0.8060E-06  0.1600E+02
     15.083  0.3627E-07  0.1600E+02
     15.165  0.1181E-08  0.1600E+02
     15.246  0.2780E-10  0.1600E+02
     15.327  0.4732E-12  0.1600E+02
     15.408  0.5777E-14  0.1600E+02
     15.489  0.0000E+00  0.1600E+02
     15.570  0.0000E+00  0.1600E+02
     15.652  0.0000E+00  0.1600E+02
     15.733  0.0000E+00  0.1600E+02
     15.814  0.0000E+00  0.1600E+02
     15.895  0.0000E+00  0.1600E+02
     15.976  0.0000E+00  0.1600E+02
     16.057  0.0000E+00  0.1600E+02
     16.139  0.0000E+00  0.1600E+02
     16.220  0.0000E+00  0.1600E+02
