    2    2    1    1
  0.2044415E+02  0.3866974E-09  0.3866975E-09  0.3866975E-09  0.5000000E-15
  1.000000000000000E-004
  CAR 
 unknown system                          
    8   10    8
 
  0.0000000E+00  0.0000000E+00  0.0000000E+00  0.8000000E-02
   1       -6.133739
   2        5.610444
   3        5.610445
   4        5.610446
   5        8.227076
   6        8.227078
   7        8.227080
   8        8.841237
 
  0.2000000E+00  0.1387779E-16  0.0000000E+00  0.6400000E-01
   1       -5.626642
   2        2.669124
   3        5.054466
   4        5.054468
   5        7.832643
   6        9.006355
   7        9.006358
   8       11.535936
 
  0.4000000E+00  0.2775558E-16  0.0000000E+00  0.6400000E-01
   1       -4.295950
   2       -0.522768
   3        4.520078
   4        4.520080
   5        7.231088
   6        9.085727
   7        9.085730
   8       13.477912
 
  0.2000000E+00  0.2000000E+00  0.0000000E+00  0.4800000E-01
   1       -5.451927
   2        3.014993
   3        4.179948
   4        4.179948
   5        7.149339
   6        9.527327
   7       10.485043
   8       10.485043
 
  0.4000000E+00  0.2000000E+00  0.0000000E+00  0.1920000E+00
   1       -4.335165
   2        0.399203
   3        3.071105
   4        3.683243
   5        7.456557
   6        9.732571
   7       10.510306
   8       11.045576
 
 -0.4000000E+00  0.2000000E+00  0.0000000E+00  0.1920000E+00
   1       -3.475930
   2       -0.954565
   3        2.283632
   4        3.954710
   5        7.731500
   6       10.193524
   7       10.440426
   8       13.143622
 
 -0.2000000E+00  0.2000000E+00  0.0000000E+00  0.9600000E-01
   1       -4.812609
   2        1.212373
   3        2.717265
   4        4.793552
   5        8.526619
   6        9.634020
   7        9.901162
   8       11.327310
 
  0.4000000E+00  0.4000000E+00  0.0000000E+00  0.4800000E-01
   1       -3.476144
   2       -0.470363
   3        3.003411
   4        3.003411
   5        6.292357
   6        7.023413
   7       14.035581
   8       14.035581
 
 -0.4000000E+00  0.4000000E+00  0.0000000E+00  0.9600000E-01
   1       -2.303523
   2       -1.702494
   3        1.685834
   4        3.118323
   5        6.737868
   6        8.806384
   7       13.660820
   8       14.219838
 
 -0.4000000E+00  0.4000000E+00  0.2000000E+00  0.1920000E+00
   1       -3.050546
   2       -0.846456
   3        1.766057
   4        2.726403
   5        9.038157
   6        9.428439
   7       10.041143
   8       13.354321
