Automatically generated mesh
      10
Reciprocal lattice
    0.00000000000000    0.00000000000000    0.00000000000000             1
    0.20000000000000    0.00000000000000    0.00000000000000             8
    0.40000000000000    0.00000000000000    0.00000000000000             8
    0.20000000000000    0.20000000000000    0.00000000000000             6
    0.40000000000000    0.20000000000000    0.00000000000000            24
   -0.40000000000000    0.20000000000000    0.00000000000000            24
   -0.20000000000000    0.20000000000000    0.00000000000000            12
    0.40000000000000    0.40000000000000    0.00000000000000             6
   -0.40000000000000    0.40000000000000    0.00000000000000            12
   -0.40000000000000    0.40000000000000    0.20000000000000            24
