   2   2   0   0
  0.2072484E+02  0.3884592E-09  0.3884592E-09  0.3884592E-09  0.5000000E-15
   1.0000000000000000E-004
  CAR 
 unknown system                          
     30.16621598     -8.19186261  301      5.80795716      1.00000000
     -8.192  0.0000E+00  0.0000E+00
     -8.064  0.0000E+00  0.0000E+00
     -7.936  0.0000E+00  0.0000E+00
     -7.808  0.0000E+00  0.0000E+00
     -7.680  0.0000E+00  0.0000E+00
     -7.553  0.0000E+00  0.0000E+00
     -7.425  0.0000E+00  0.0000E+00
     -7.297  0.1835E-16  0.2347E-17
     -7.169  0.1878E-13  0.2403E-14
     -7.041  0.8411E-11  0.1078E-11
     -6.913  0.1772E-08  0.2277E-09
     -6.785  0.1776E-06  0.2293E-07
     -6.658  0.8552E-05  0.1116E-05
     -6.530  0.2007E-03  0.2678E-04
     -6.402  0.2353E-02  0.3276E-03
     -6.274  0.1442E-01  0.2172E-02
     -6.146  0.4983E-01  0.8543E-02
     -6.018  0.1076E+00  0.2230E-01
     -5.890  0.1673E+00  0.4370E-01
     -5.763  0.2181E+00  0.7158E-01
     -5.635  0.2564E+00  0.1044E+00
     -5.507  0.2922E+00  0.1417E+00
     -5.379  0.3316E+00  0.1841E+00
     -5.251  0.3512E+00  0.2290E+00
     -5.123  0.3833E+00  0.2780E+00
     -4.995  0.4325E+00  0.3333E+00
     -4.867  0.4427E+00  0.3899E+00
     -4.740  0.4613E+00  0.4489E+00
     -4.612  0.5241E+00  0.5159E+00
     -4.484  0.5659E+00  0.5883E+00
     -4.356  0.5680E+00  0.6609E+00
     -4.228  0.6121E+00  0.7392E+00
     -4.100  0.7274E+00  0.8322E+00
     -3.972  0.8077E+00  0.9355E+00
     -3.845  0.8084E+00  0.1039E+01
     -3.717  0.8356E+00  0.1146E+01
     -3.589  0.8678E+00  0.1257E+01
     -3.461  0.7968E+00  0.1358E+01
     -3.333  0.7059E+00  0.1449E+01
     -3.205  0.6820E+00  0.1536E+01
     -3.077  0.6660E+00  0.1621E+01
     -2.950  0.6063E+00  0.1699E+01
     -2.822  0.5173E+00  0.1765E+01
     -2.694  0.4736E+00  0.1825E+01
     -2.566  0.4581E+00  0.1884E+01
     -2.438  0.3722E+00  0.1931E+01
     -2.310  0.2414E+00  0.1962E+01
     -2.182  0.1852E+00  0.1986E+01
     -2.055  0.1899E+00  0.2010E+01
     -1.927  0.1685E+00  0.2032E+01
     -1.799  0.1782E+00  0.2055E+01
     -1.671  0.3138E+00  0.2095E+01
     -1.543  0.4635E+00  0.2154E+01
     -1.415  0.5251E+00  0.2221E+01
     -1.287  0.7136E+00  0.2312E+01
     -1.160  0.1089E+01  0.2452E+01
     -1.032  0.1253E+01  0.2612E+01
     -0.904  0.1052E+01  0.2746E+01
     -0.776  0.8306E+00  0.2853E+01
     -0.648  0.7454E+00  0.2948E+01
     -0.520  0.6947E+00  0.3037E+01
     -0.392  0.5819E+00  0.3111E+01
     -0.265  0.4829E+00  0.3173E+01
     -0.137  0.4751E+00  0.3234E+01
     -0.009  0.4981E+00  0.3297E+01
      0.119  0.4295E+00  0.3352E+01
      0.247  0.3506E+00  0.3397E+01
      0.375  0.3430E+00  0.3441E+01
      0.503  0.3207E+00  0.3482E+01
      0.630  0.3329E+00  0.3525E+01
      0.758  0.3344E+00  0.3567E+01
      0.886  0.2528E+00  0.3600E+01
      1.014  0.2116E+00  0.3627E+01
      1.142  0.2590E+00  0.3660E+01
      1.270  0.4019E+00  0.3711E+01
      1.398  0.6588E+00  0.3795E+01
      1.526  0.9293E+00  0.3914E+01
      1.653  0.1093E+01  0.4054E+01
      1.781  0.1117E+01  0.4197E+01
      1.909  0.1090E+01  0.4336E+01
      2.037  0.1084E+01  0.4475E+01
      2.165  0.1099E+01  0.4615E+01
      2.293  0.1124E+01  0.4759E+01
      2.421  0.1167E+01  0.4908E+01
      2.548  0.1244E+01  0.5067E+01
      2.676  0.1344E+01  0.5239E+01
      2.804  0.1431E+01  0.5422E+01
      2.932  0.1465E+01  0.5609E+01
      3.060  0.1494E+01  0.5800E+01
      3.188  0.1587E+01  0.6003E+01
      3.316  0.1570E+01  0.6204E+01
      3.443  0.1368E+01  0.6379E+01
      3.571  0.1273E+01  0.6542E+01
      3.699  0.1315E+01  0.6710E+01
      3.827  0.1330E+01  0.6880E+01
      3.955  0.1317E+01  0.7048E+01
      4.083  0.1257E+01  0.7209E+01
      4.211  0.1190E+01  0.7361E+01
      4.338  0.1086E+01  0.7500E+01
      4.466  0.8841E+00  0.7613E+01
      4.594  0.6932E+00  0.7702E+01
      4.722  0.5684E+00  0.7774E+01
      4.850  0.5104E+00  0.7840E+01
      4.978  0.4372E+00  0.7895E+01
      5.106  0.3237E+00  0.7937E+01
      5.233  0.2222E+00  0.7965E+01
      5.361  0.1462E+00  0.7984E+01
      5.489  0.8367E-01  0.7995E+01
      5.617  0.3349E-01  0.7999E+01
      5.745  0.7745E-02  0.8000E+01
      5.873  0.1820E-02  0.8000E+01
      6.001  0.7136E-02  0.8001E+01
      6.128  0.3247E-01  0.8005E+01
      6.256  0.9283E-01  0.8017E+01
      6.384  0.1765E+00  0.8040E+01
      6.512  0.2619E+00  0.8073E+01
      6.640  0.3652E+00  0.8120E+01
      6.768  0.4861E+00  0.8182E+01
      6.896  0.6006E+00  0.8259E+01
      7.024  0.6919E+00  0.8347E+01
      7.151  0.7621E+00  0.8445E+01
      7.279  0.8710E+00  0.8556E+01
      7.407  0.9955E+00  0.8683E+01
      7.535  0.1095E+01  0.8823E+01
      7.663  0.1304E+01  0.8990E+01
      7.791  0.1585E+01  0.9193E+01
      7.919  0.1723E+01  0.9413E+01
      8.046  0.1643E+01  0.9623E+01
      8.174  0.1390E+01  0.9801E+01
      8.302  0.1128E+01  0.9945E+01
      8.430  0.1047E+01  0.1008E+02
      8.558  0.1152E+01  0.1023E+02
      8.686  0.1369E+01  0.1040E+02
      8.814  0.1672E+01  0.1061E+02
      8.941  0.1884E+01  0.1086E+02
      9.069  0.1882E+01  0.1110E+02
      9.197  0.1870E+01  0.1134E+02
      9.325  0.1882E+01  0.1158E+02
      9.453  0.1650E+01  0.1179E+02
      9.581  0.1306E+01  0.1195E+02
      9.709  0.1206E+01  0.1211E+02
      9.836  0.1257E+01  0.1227E+02
      9.964  0.1246E+01  0.1243E+02
     10.092  0.1168E+01  0.1258E+02
     10.220  0.1143E+01  0.1272E+02
     10.348  0.1187E+01  0.1288E+02
     10.476  0.1272E+01  0.1304E+02
     10.604  0.1431E+01  0.1322E+02
     10.731  0.1584E+01  0.1342E+02
     10.859  0.1538E+01  0.1362E+02
     10.987  0.1264E+01  0.1378E+02
     11.115  0.9465E+00  0.1390E+02
     11.243  0.8211E+00  0.1401E+02
     11.371  0.8431E+00  0.1412E+02
     11.499  0.8456E+00  0.1422E+02
     11.626  0.8975E+00  0.1434E+02
     11.754  0.1047E+01  0.1447E+02
     11.882  0.1290E+01  0.1464E+02
     12.010  0.1563E+01  0.1484E+02
     12.138  0.1576E+01  0.1504E+02
     12.266  0.1314E+01  0.1521E+02
     12.394  0.1090E+01  0.1535E+02
     12.521  0.9890E+00  0.1547E+02
     12.649  0.9680E+00  0.1560E+02
     12.777  0.9599E+00  0.1572E+02
     12.905  0.1015E+01  0.1585E+02
     13.033  0.1174E+01  0.1600E+02
     13.161  0.1345E+01  0.1617E+02
     13.289  0.1516E+01  0.1637E+02
     13.417  0.1571E+01  0.1657E+02
     13.544  0.1469E+01  0.1675E+02
     13.672  0.1318E+01  0.1692E+02
     13.800  0.1137E+01  0.1707E+02
     13.928  0.1023E+01  0.1720E+02
     14.056  0.9976E+00  0.1733E+02
     14.184  0.1061E+01  0.1746E+02
     14.312  0.1207E+01  0.1762E+02
     14.439  0.1327E+01  0.1779E+02
     14.567  0.1364E+01  0.1796E+02
     14.695  0.1463E+01  0.1815E+02
     14.823  0.1659E+01  0.1836E+02
     14.951  0.1718E+01  0.1858E+02
     15.079  0.1548E+01  0.1878E+02
     15.207  0.1378E+01  0.1895E+02
     15.334  0.1278E+01  0.1912E+02
     15.462  0.1098E+01  0.1926E+02
     15.590  0.9143E+00  0.1937E+02
     15.718  0.9799E+00  0.1950E+02
     15.846  0.1227E+01  0.1966E+02
     15.974  0.1353E+01  0.1983E+02
     16.102  0.1346E+01  0.2000E+02
     16.229  0.1422E+01  0.2018E+02
     16.357  0.1547E+01  0.2038E+02
     16.485  0.1591E+01  0.2058E+02
     16.613  0.1466E+01  0.2077E+02
     16.741  0.1195E+01  0.2092E+02
     16.869  0.9966E+00  0.2105E+02
     16.997  0.9611E+00  0.2117E+02
     17.124  0.9635E+00  0.2130E+02
     17.252  0.1039E+01  0.2143E+02
     17.380  0.1348E+01  0.2160E+02
     17.508  0.1747E+01  0.2183E+02
     17.636  0.1955E+01  0.2208E+02
     17.764  0.1886E+01  0.2232E+02
     17.892  0.1794E+01  0.2255E+02
     18.019  0.1843E+01  0.2278E+02
     18.147  0.1805E+01  0.2301E+02
     18.275  0.1592E+01  0.2322E+02
     18.403  0.1354E+01  0.2339E+02
     18.531  0.1188E+01  0.2354E+02
     18.659  0.1184E+01  0.2369E+02
     18.787  0.1343E+01  0.2387E+02
     18.915  0.1522E+01  0.2406E+02
     19.042  0.1678E+01  0.2427E+02
     19.170  0.1885E+01  0.2452E+02
     19.298  0.2129E+01  0.2479E+02
     19.426  0.2142E+01  0.2506E+02
     19.554  0.1837E+01  0.2530E+02
     19.682  0.1519E+01  0.2549E+02
     19.810  0.1350E+01  0.2566E+02
     19.937  0.1254E+01  0.2582E+02
     20.065  0.1180E+01  0.2597E+02
     20.193  0.1215E+01  0.2613E+02
     20.321  0.1421E+01  0.2631E+02
     20.449  0.1582E+01  0.2651E+02
     20.577  0.1600E+01  0.2672E+02
     20.705  0.1649E+01  0.2693E+02
     20.832  0.1811E+01  0.2716E+02
     20.960  0.1745E+01  0.2738E+02
     21.088  0.1325E+01  0.2755E+02
     21.216  0.1100E+01  0.2769E+02
     21.344  0.1130E+01  0.2784E+02
     21.472  0.1248E+01  0.2800E+02
     21.600  0.1478E+01  0.2819E+02
     21.727  0.1551E+01  0.2839E+02
     21.855  0.1498E+01  0.2858E+02
     21.983  0.1567E+01  0.2878E+02
     22.111  0.1651E+01  0.2899E+02
     22.239  0.1557E+01  0.2919E+02
     22.367  0.1452E+01  0.2937E+02
     22.495  0.1568E+01  0.2957E+02
     22.622  0.1783E+01  0.2980E+02
     22.750  0.1745E+01  0.3002E+02
     22.878  0.1430E+01  0.3021E+02
     23.006  0.1223E+01  0.3036E+02
     23.134  0.1278E+01  0.3053E+02
     23.262  0.1510E+01  0.3072E+02
     23.390  0.1738E+01  0.3094E+02
     23.517  0.1748E+01  0.3117E+02
     23.645  0.1439E+01  0.3135E+02
     23.773  0.1089E+01  0.3149E+02
     23.901  0.8224E+00  0.3159E+02
     24.029  0.5846E+00  0.3167E+02
     24.157  0.4695E+00  0.3173E+02
     24.285  0.4002E+00  0.3178E+02
     24.413  0.2813E+00  0.3182E+02
     24.540  0.2207E+00  0.3184E+02
     24.668  0.2014E+00  0.3187E+02
     24.796  0.1282E+00  0.3189E+02
     24.924  0.7529E-01  0.3190E+02
     25.052  0.1038E+00  0.3191E+02
     25.180  0.1355E+00  0.3193E+02
     25.308  0.1169E+00  0.3194E+02
     25.435  0.9247E-01  0.3195E+02
     25.563  0.8946E-01  0.3197E+02
     25.691  0.8965E-01  0.3198E+02
     25.819  0.6429E-01  0.3198E+02
     25.947  0.2648E-01  0.3199E+02
     26.075  0.5696E-02  0.3199E+02
     26.203  0.6057E-03  0.3199E+02
     26.330  0.3070E-04  0.3199E+02
     26.458  0.1262E-05  0.3199E+02
     26.586  0.1884E-04  0.3199E+02
     26.714  0.3007E-03  0.3199E+02
     26.842  0.2211E-02  0.3199E+02
     26.970  0.7566E-02  0.3199E+02
     27.098  0.1259E-01  0.3199E+02
     27.225  0.1303E-01  0.3199E+02
     27.353  0.1504E-01  0.3200E+02
     27.481  0.1626E-01  0.3200E+02
     27.609  0.9674E-02  0.3200E+02
     27.737  0.2746E-02  0.3200E+02
     27.865  0.4473E-03  0.3200E+02
     27.993  0.5534E-03  0.3200E+02
     28.120  0.1502E-02  0.3200E+02
     28.248  0.1973E-02  0.3200E+02
     28.376  0.1208E-02  0.3200E+02
     28.504  0.3441E-03  0.3200E+02
     28.632  0.4536E-04  0.3200E+02
     28.760  0.2750E-05  0.3200E+02
     28.888  0.7615E-07  0.3200E+02
     29.015  0.9573E-09  0.3200E+02
     29.143  0.5434E-11  0.3200E+02
     29.271  0.1387E-13  0.3200E+02
     29.399  0.1582E-16  0.3200E+02
     29.527  0.0000E+00  0.3200E+02
     29.655  0.0000E+00  0.3200E+02
     29.783  0.0000E+00  0.3200E+02
     29.910  0.0000E+00  0.3200E+02
     30.038  0.0000E+00  0.3200E+02
     30.166  0.0000E+00  0.3200E+02
