    2    2    1    1
  0.2072484E+02  0.3884592E-09  0.3884592E-09  0.3884592E-09  0.5000000E-15
   1.0000000000000000E-004
  CAR 
 unknown system                          
      8    104     16

  0.3742002E-15  0.3742002E-15  0.3742002E-15  0.3644315E-03
    1       -6.191863   1.000000
    2        5.458900   0.993210
    3        5.458900   0.993210
    4        5.458900   0.993210
    5        8.074158   0.000000
    6        8.074158   0.000000
    7        8.074158   0.000000
    8        8.529743   0.000000
    9       13.214021   0.000000
   10       13.214021   0.000000
   11       13.348504   0.000000
   12       16.655519   0.000000
   13       16.655519   0.000000
   14       16.655519   0.000000
   15       20.750610   0.000000
   16       28.166216   0.000000

  0.7142857E-01  0.3747003E-15  0.3747003E-15  0.2915452E-02
    1       -6.127064   1.000000
    2        4.808521   1.000000
    3        5.357772   0.999272
    4        5.357772   0.999272
    5        8.081858   0.000000
    6        8.224692   0.000000
    7        8.224692   0.000000
    8        9.063833   0.000000
    9       13.012688   0.000000
   10       13.012688   0.000000
   11       13.627907   0.000000
   12       16.416072   0.000000
   13       17.069173   0.000000
   14       17.069173   0.000000
   15       21.189565   0.000000
   16       27.398630   0.000000

  0.1428571E+00  0.3885781E-15  0.3885781E-15  0.2915452E-02
    1       -5.934159   1.000000
    2        3.577811   1.000000
    3        5.122778   0.999999
    4        5.122778   0.999999
    5        7.862959   0.000000
    6        8.571569   0.000000
    7        8.571569   0.000000
    8       10.246903   0.000000
    9       12.672102   0.000000
   10       12.672102   0.000000
   11       14.284801   0.000000
   12       16.052586   0.000000
   13       18.072233   0.000000
   14       18.072233   0.000000
   15       22.237388   0.000000
   16       25.705595   0.000000

  0.2142857E+00  0.3747003E-15  0.3747003E-15  0.2915452E-02
    1       -5.618561   1.000000
    2        2.275301   1.000000
    3        4.859187   1.000000
    4        4.859187   1.000000
    5        7.579136   0.000000
    6        8.898625   0.000000
    7        8.898625   0.000000
    8       11.520409   0.000000
    9       12.571207   0.000000
   10       12.571207   0.000000
   11       14.531821   0.000000
   12       16.513835   0.000000
   13       19.335788   0.000000
   14       19.335788   0.000000
   15       23.234075   0.000000
   16       23.855263   0.000000

  0.2857143E+00  0.3885781E-15  0.3885781E-15  0.2915452E-02
    1       -5.192990   1.000000
    2        1.036657   1.000000
    3        4.627375   1.000000
    4        4.627375   1.000000
    5        7.318078   0.000000
    6        9.032867   0.000000
    7        9.032867   0.000000
    8       12.707560   0.000000
    9       12.933409   0.000000
   10       12.933409   0.000000
   11       14.305673   0.000000
   12       17.879971   0.000000
   13       20.287946   0.000000
   14       20.287946   0.000000
   15       22.561131   0.000000
   16       22.567056   0.000000

  0.3571429E+00  0.3885781E-15  0.3885781E-15  0.2915452E-02
    1       -4.688620   1.000000
    2       -0.065472   1.000000
    3        4.453288   1.000000
    4        4.453288   1.000000
    5        7.117312   0.000000
    6        8.993560   0.000000
    7        8.993560   0.000000
    8       13.317415   0.000000
    9       13.749919   0.000000
   10       13.749919   0.000000
   11       14.649757   0.000000
   12       19.130977   0.000000
   13       19.401608   0.000000
   14       19.401608   0.000000
   15       21.731904   0.000000
   16       23.375054   0.000000

  0.4285714E+00  0.3885781E-15  0.3885781E-15  0.2915452E-02
    1       -4.194020   1.000000
    2       -0.924225   1.000000
    3        4.346785   1.000000
    4        4.346785   1.000000
    5        6.992787   0.000000
    6        8.911406   0.000000
    7        8.911406   0.000000
    8       13.267011   0.000000
    9       14.877767   0.000000
   10       14.877767   0.000000
   11       15.747279   0.000000
   12       17.860800   0.000000
   13       17.860800   0.000000
   14       18.781783   0.000000
   15       22.723316   0.000000
   16       25.077580   0.000000

  0.5000000E+00  0.3608225E-15  0.3608225E-15  0.1457726E-02
    1       -3.952228   1.000000
    2       -1.288216   1.000000
    3        4.311062   1.000000
    4        4.311062   1.000000
    5        6.950725   0.000000
    6        8.875154   0.000000
    7        8.875154   0.000000
    8       13.213864   0.000000
    9       15.931010   0.000000
   10       15.931010   0.000000
   11       16.542453   0.000000
   12       16.656156   0.000000
   13       16.656156   0.000000
   14       18.054223   0.000000
   15       24.500338   0.000000
   16       25.018117   0.000000

  0.7142857E-01  0.7142857E-01  0.3742002E-15  0.2186589E-02
    1       -6.105375   1.000000
    2        4.917827   1.000000
    3        5.151072   0.999998
    4        5.151072   0.999998
    5        7.874446   0.000000
    6        8.488324   0.000000
    7        8.488324   0.000000
    8        9.043906   0.000000
    9       12.627137   0.000000
   10       13.310520   0.000000
   11       13.720476   0.000000
   12       16.807270   0.000000
   13       16.807270   0.000000
   14       17.063777   0.000000
   15       21.363268   0.000000
   16       27.046492   0.000000

  0.1428571E+00  0.7142857E-01  0.3747003E-15  0.8746356E-02
    1       -5.954906   1.000000
    2        3.933238   1.000000
    3        4.863144   1.000000
    4        5.025750   1.000000
    5        7.870244   0.000000
    6        8.524606   0.000000
    7        8.910992   0.000000
    8        9.919227   0.000000
    9       12.210524   0.000000
   10       13.246556   0.000000
   11       14.282538   0.000000
   12       16.474008   0.000000
   13       17.347036   0.000000
   14       18.011793   0.000000
   15       22.247721   0.000000
   16       25.587581   0.000000

  0.2142857E+00  0.7142857E-01  0.3885781E-15  0.8746356E-02
    1       -5.679501   1.000000
    2        2.683018   1.000000
    3        4.585860   1.000000
    4        4.788533   1.000000
    5        7.928845   0.000000
    6        8.539626   0.000000
    7        9.300272   0.000000
    8       10.783598   0.000000
    9       12.294098   0.000000
   10       13.163648   0.000000
   11       14.838777   0.000000
   12       16.426812   0.000000
   13       18.409833   0.000000
   14       19.318693   0.000000
   15       23.318531   0.000000
   16       23.719795   0.000000

  0.2857143E+00  0.7142857E-01  0.3747003E-15  0.8746356E-02
    1       -5.288754   1.000000
    2        1.440558   1.000000
    3        4.365836   1.000000
    4        4.501465   1.000000
    5        7.765733   0.000000
    6        8.730127   0.000000
    7        9.476908   0.000000
    8       11.269042   0.000000
    9       13.179322   0.000000
   10       13.438398   0.000000
   11       14.703288   0.000000
   12       17.472618   0.000000
   13       19.513424   0.000000
   14       20.559127   0.000000
   15       22.125425   0.000000
   16       22.597141   0.000000

  0.3571429E+00  0.7142857E-01  0.3885781E-15  0.8746356E-02
    1       -4.805238   1.000000
    2        0.298749   1.000000
    3        4.222813   1.000000
    4        4.235299   1.000000
    5        7.572906   0.000000
    6        8.795736   0.000000
    7        9.421897   0.000000
    8       11.950574   0.000000
    9       14.059245   0.000000
   10       14.166514   0.000000
   11       14.718971   0.000000
   12       18.736887   0.000000
   13       19.153724   0.000000
   14       20.382346   0.000000
   15       22.206418   0.000000
   16       22.294553   0.000000

  0.4285714E+00  0.7142857E-01  0.3885781E-15  0.8746356E-02
    1       -4.290164   1.000000
    2       -0.652129   1.000000
    3        4.021631   1.000000
    4        4.163240   1.000000
    5        7.432047   0.000000
    6        8.779613   0.000000
    7        9.267215   0.000000
    8       12.841584   0.000000
    9       14.093492   0.000000
   10       15.226250   0.000000
   11       15.835410   0.000000
   12       17.665933   0.000000
   13       18.259747   0.000000
   14       19.992604   0.000000
   15       22.222796   0.000000
   16       23.880303   0.000000

  0.5000000E+00  0.7142857E-01  0.3885781E-15  0.8746356E-02
    1       -3.924715   1.000000
    2       -1.217731   1.000000
    3        3.875806   1.000000
    4        4.186480   1.000000
    5        7.364923   0.000000
    6        8.794987   0.000000
    7        9.125907   0.000000
    8       13.371535   0.000000
    9       14.610313   0.000000
   10       15.892575   0.000000
   11       16.652780   0.000000
   12       16.774592   0.000000
   13       17.429774   0.000000
   14       18.840782   0.000000
   15       23.960343   0.000000
   16       25.366674   0.000000

 -0.4285714E+00  0.7142857E-01  0.3608225E-15  0.8746356E-02
    1       -4.010560   1.000000
    2       -1.091305   1.000000
    3        3.807245   1.000000
    4        4.287647   1.000000
    5        7.378041   0.000000
    6        8.886168   0.000000
    7        9.046662   0.000000
    8       13.425976   0.000000
    9       14.613015   0.000000
   10       14.992536   0.000000
   11       16.497848   0.000000
   12       17.160961   0.000000
   13       18.127820   0.000000
   14       18.857447   0.000000
   15       23.231866   0.000000
   16       25.060682   0.000000

 -0.3571429E+00  0.7142857E-01  0.3608225E-15  0.8746356E-02
    1       -4.458972   1.000000
    2       -0.362680   1.000000
    3        3.822785   1.000000
    4        4.458500   1.000000
    5        7.471274   0.000000
    6        9.024416   0.000000
    7        9.041057   0.000000
    8       13.129088   0.000000
    9       13.418699   0.000000
   10       14.482297   0.000000
   11       15.874036   0.000000
   12       17.742830   0.000000
   13       19.647521   0.000000
   14       19.683511   0.000000
   15       21.805643   0.000000
   16       23.233337   0.000000

 -0.2857143E+00  0.7142857E-01  0.3885781E-15  0.8746356E-02
    1       -4.975030   1.000000
    2        0.665265   1.000000
    3        3.927186   1.000000
    4        4.686528   1.000000
    5        7.639364   0.000000
    6        8.993974   0.000000
    7        9.185491   0.000000
    8       12.346368   0.000000
    9       12.520080   0.000000
   10       14.515779   0.000000
   11       14.666065   0.000000
   12       18.256225   0.000000
   13       19.489971   0.000000
   14       20.951598   0.000000
   15       21.546539   0.000000
   16       22.594858   0.000000

 -0.2142857E+00  0.7142857E-01  0.3885781E-15  0.8746356E-02
    1       -5.431456   1.000000
    2        1.845787   1.000000
    3        4.123007   1.000000
    4        4.950313   1.000000
    5        7.868607   0.000000
    6        8.837405   0.000000
    7        9.158215   0.000000
    8       11.542609   0.000000
    9       12.066175   0.000000
   10       13.616238   0.000000
   11       14.833936   0.000000
   12       17.000265   0.000000
   13       19.058574   0.000000
   14       20.470332   0.000000
   15       22.082997   0.000000
   16       23.512964   0.000000

 -0.1428571E+00  0.7142857E-01  0.3747003E-15  0.8746356E-02
    1       -5.785175   1.000000
    2        3.086806   1.000000
    3        4.413673   1.000000
    4        5.207542   0.999989
    5        8.125917   0.000000
    6        8.528919   0.000000
    7        8.825703   0.000000
    8       10.724116   0.000000
    9       12.111577   0.000000
   10       13.090395   0.000000
   11       14.724609   0.000000
   12       16.330410   0.000000
   13       17.835251   0.000000
   14       19.168188   0.000000
   15       22.929014   0.000000
   16       23.842078   0.000000

 -0.7142857E-01  0.7142857E-01  0.3885781E-15  0.4373178E-02
    1       -6.019444   1.000000
    2        4.203625   1.000000
    3        4.839752   1.000000
    4        5.376520   0.998859
    5        8.252781   0.000000
    6        8.312233   0.000000
    7        8.351270   0.000000
    8        9.755835   0.000000
    9       12.507462   0.000000
   10       13.066160   0.000000
   11       14.050298   0.000000
   12       16.504387   0.000000
   13       16.975180   0.000000
   14       17.954796   0.000000
   15       21.839917   0.000000
   16       25.717058   0.000000

  0.1428571E+00  0.1428571E+00  0.3742002E-15  0.2186589E-02
    1       -5.846902   1.000000
    2        3.827089   1.000000
    3        4.543614   1.000000
    4        4.543615   1.000000
    5        7.415727   0.000000
    6        9.411116   0.000000
    7        9.411116   0.000000
    8        9.715137   0.000000
    9       11.895005   0.000000
   10       13.599844   0.000000
   11       14.688504   0.000000
   12       17.256340   0.000000
   13       17.256340   0.000000
   14       17.787000   0.000000
   15       22.981027   0.000000
   16       25.193189   0.000000

  0.2142857E+00  0.1428571E+00  0.3747003E-15  0.8746356E-02
    1       -5.612721   1.000000
    2        2.914878   1.000000
    3        4.248794   1.000000
    4        4.294340   1.000000
    5        7.390305   0.000000
    6        9.344892   0.000000
    7        9.899702   0.000000
    8       10.060407   0.000000
    9       12.287850   0.000000
   10       13.712655   0.000000
   11       15.358918   0.000000
   12       17.040762   0.000000
   13       17.884485   0.000000
   14       18.901587   0.000000
   15       23.662491   0.000000
   16       23.813695   0.000000

  0.2857143E+00  0.1428571E+00  0.3747003E-15  0.8746356E-02
    1       -5.259430   1.000000
    2        1.784860   1.000000
    3        3.971037   1.000000
    4        4.021660   1.000000
    5        7.591496   0.000000
    6        9.290432   0.000000
    7       10.069039   0.000000
    8       10.184424   0.000000
    9       13.399759   0.000000
   10       13.963780   0.000000
   11       15.605373   0.000000
   12       17.433935   0.000000
   13       18.858800   0.000000
   14       20.260880   0.000000
   15       21.963755   0.000000
   16       22.539966   0.000000

  0.3571429E+00  0.1428571E+00  0.3747003E-15  0.8746356E-02
    1       -4.803437   1.000000
    2        0.669540   1.000000
    3        3.618748   1.000000
    4        3.881596   1.000000
    5        7.669676   0.000000
    6        9.336724   0.000000
    7       10.182826   0.000000
    8       10.360584   0.000000
    9       14.619259   0.000000
   10       14.672409   0.000000
   11       15.344196   0.000000
   12       18.508874   0.000000
   13       18.925937   0.000000
   14       20.456349   0.000000
   15       21.527468   0.000000
   16       22.640466   0.000000

  0.4285714E+00  0.1428571E+00  0.3885781E-15  0.8746356E-02
    1       -4.287061   1.000000
    2       -0.321363   1.000000
    3        3.305435   1.000000
    4        3.835799   1.000000
    5        7.644555   0.000000
    6        9.256466   0.000000
    7       10.010025   0.000000
    8       11.226842   0.000000
    9       14.894440   0.000000
   10       15.623295   0.000000
   11       16.125683   0.000000
   12       17.546724   0.000000
   13       18.268294   0.000000
   14       20.925612   0.000000
   15       22.633060   0.000000
   16       22.864177   0.000000

  0.5000000E+00  0.1428571E+00  0.3885781E-15  0.8746356E-02
    1       -3.837312   1.000000
    2       -1.031669   1.000000
    3        3.063003   1.000000
    4        3.884317   1.000000
    5        7.646219   0.000000
    6        9.185523   0.000000
    7        9.804988   0.000000
    8       12.377589   0.000000
    9       14.571480   0.000000
   10       15.845120   0.000000
   11       16.896974   0.000000
   12       17.045662   0.000000
   13       17.734701   0.000000
   14       20.649711   0.000000
   15       23.287124   0.000000
   16       24.580551   0.000000

 -0.4285714E+00  0.1428571E+00  0.3885781E-15  0.8746356E-02
    1       -3.754762   1.000000
    2       -1.148916   1.000000
    3        2.909103   1.000000
    4        4.021791   1.000000
    5        7.723738   0.000000
    6        9.188275   0.000000
    7        9.638090   0.000000
    8       13.555182   0.000000
    9       14.055150   0.000000
   10       14.449828   0.000000
   11       16.333437   0.000000
   12       18.446726   0.000000
   13       18.899795   0.000000
   14       19.350585   0.000000
   15       23.334327   0.000000
   16       25.135168   0.000000

 -0.3571429E+00  0.1428571E+00  0.3608225E-15  0.8746356E-02
    1       -4.125958   1.000000
    2       -0.586260   1.000000
    3        2.857189   1.000000
    4        4.237235   1.000000
    5        7.878801   0.000000
    6        9.272305   0.000000
    7        9.519273   0.000000
    8       13.026433   0.000000
    9       13.198727   0.000000
   10       14.646004   0.000000
   11       16.608936   0.000000
   12       17.805309   0.000000
   13       19.999662   0.000000
   14       20.067947   0.000000
   15       21.703250   0.000000
   16       23.507435   0.000000

 -0.2857143E+00  0.1428571E+00  0.3885781E-15  0.8746356E-02
    1       -4.641646   1.000000
    2        0.333704   1.000000
    3        2.922780   1.000000
    4        4.511665   1.000000
    5        8.091543   0.000000
    6        9.391851   0.000000
    7        9.394383   0.000000
    8       12.015072   0.000000
    9       12.240660   0.000000
   10       15.233238   0.000000
   11       16.422003   0.000000
   12       17.536520   0.000000
   13       19.413172   0.000000
   14       21.200763   0.000000
   15       21.443004   0.000000
   16       22.652273   0.000000

 -0.2142857E+00  0.1428571E+00  0.3885781E-15  0.8746356E-02
    1       -5.123318   1.000000
    2        1.388860   1.000000
    3        3.137900   1.000000
    4        4.811709   1.000000
    5        8.325669   0.000000
    6        9.150086   0.000000
    7        9.363805   0.000000
    8       11.265119   0.000000
    9       11.736272   0.000000
   10       15.051485   0.000000
   11       15.644098   0.000000
   12       17.298976   0.000000
   13       19.095448   0.000000
   14       20.509171   0.000000
   15       21.616163   0.000000
   16       23.546521   0.000000

 -0.1428571E+00  0.1428571E+00  0.3885781E-15  0.4373178E-02
    1       -5.511802   1.000000
    2        2.383980   1.000000
    3        3.601247   1.000000
    4        5.076492   1.000000
    5        8.471012   0.000000
    6        8.786992   0.000000
    7        8.994305   0.000000
    8       10.988180   0.000000
    9       11.742421   0.000000
   10       13.873710   0.000000
   11       15.442014   0.000000
   12       16.706870   0.000000
   13       18.118587   0.000000
   14       20.447446   0.000000
   15       21.947889   0.000000
   16       23.751380   0.000000

  0.2142857E+00  0.2142857E+00  0.3742002E-15  0.2186589E-02
    1       -5.419576   1.000000
    2        2.604935   1.000000
    3        3.935183   1.000000
    4        3.935183   1.000000
    5        6.914472   0.000000
    6        9.164686   0.000000
    7       10.534998   0.000000
    8       10.534998   0.000000
    9       12.577786   0.000000
   10       14.081444   0.000000
   11       16.005735   0.000000
   12       17.963440   0.000000
   13       17.963440   0.000000
   14       18.615490   0.000000
   15       23.367257   0.000000
   16       23.367257   0.000000

  0.2857143E+00  0.2142857E+00  0.3677614E-15  0.8746356E-02
    1       -5.105061   1.000000
    2        1.813264   1.000000
    3        3.593892   1.000000
    4        3.690551   1.000000
    5        6.925428   0.000000
    6        8.809228   0.000000
    7       10.797061   0.000000
    8       11.005122   0.000000
    9       13.550495   0.000000
   10       14.403962   0.000000
   11       16.604530   0.000000
   12       17.978899   0.000000
   13       18.564125   0.000000
   14       19.749201   0.000000
   15       21.972177   0.000000
   16       22.343330   0.000000

  0.3571429E+00  0.2142857E+00  0.3885781E-15  0.8746356E-02
    1       -4.681124   1.000000
    2        0.871284   1.000000
    3        3.139461   1.000000
    4        3.536349   1.000000
    5        7.146562   0.000000
    6        8.918047   0.000000
    7       10.691151   0.000000
    8       11.142055   0.000000
    9       14.902006   0.000000
   10       15.022923   0.000000
   11       16.497074   0.000000
   12       18.655512   0.000000
   13       18.742998   0.000000
   14       20.252967   0.000000
   15       21.160307   0.000000
   16       22.263242   0.000000

  0.4285714E+00  0.2142857E+00  0.3747003E-15  0.8746356E-02
    1       -4.176987   1.000000
    2       -0.057194   1.000000
    3        2.694906   1.000000
    4        3.481592   1.000000
    5        7.239380   0.000000
    6        9.630505   0.000000
    7       10.518961   0.000000
    8       11.010989   0.000000
    9       15.942959   0.000000
   10       16.003979   0.000000
   11       16.399961   0.000000
   12       17.497182   0.000000
   13       18.553314   0.000000
   14       20.722216   0.000000
   15       22.122403   0.000000
   16       23.689702   0.000000

  0.5000000E+00  0.2142857E+00  0.3885781E-15  0.8746356E-02
    1       -3.678737   1.000000
    2       -0.824164   1.000000
    3        2.332732   1.000000
    4        3.527950   1.000000
    5        7.295971   0.000000
    6       10.343626   0.000000
    7       10.765421   0.000000
    8       10.783652   0.000000
    9       15.249004   0.000000
   10       15.857456   0.000000
   11       17.347892   0.000000
   12       17.540521   0.000000
   13       17.978436   0.000000
   14       22.130314   0.000000
   15       23.077151   0.000000
   16       23.528953   0.000000

 -0.4285714E+00  0.2142857E+00  0.3330669E-15  0.8746356E-02
    1       -3.441113   1.000000
    2       -1.145932   1.000000
    3        2.083632   1.000000
    4        3.671435   1.000000
    5        7.426502   0.000000
    6       10.262840   0.000000
    7       10.560192   0.000000
    8       12.071354   0.000000
    9       14.189733   0.000000
   10       14.396301   0.000000
   11       17.260680   0.000000
   12       18.773998   0.000000
   13       19.253503   0.000000
   14       21.267717   0.000000
   15       23.123155   0.000000
   16       24.316961   0.000000

 -0.3571429E+00  0.2142857E+00  0.3885781E-15  0.8746356E-02
    1       -3.705666   1.000000
    2       -0.777877   1.000000
    3        1.971200   1.000000
    4        3.901720   1.000000
    5        7.653609   0.000000
    6       10.233667   0.000000
    7       10.359555   0.000000
    8       12.939686   0.000000
    9       13.107733   0.000000
   10       13.534779   0.000000
   11       17.267936   0.000000
   12       19.770879   0.000000
   13       20.321669   0.000000
   14       20.372545   0.000000
   15       21.439276   0.000000
   16       24.101680   0.000000

 -0.2857143E+00  0.2142857E+00  0.3885781E-15  0.8746356E-02
    1       -4.206843   1.000000
    2       -0.019075   1.000000
    3        2.037444   1.000000
    4        4.198816   1.000000
    5        7.955255   0.000000
    6       10.108898   0.000000
    7       10.219385   0.000000
    8       11.830623   0.000000
    9       12.143661   0.000000
   10       14.919281   0.000000
   11       17.508738   0.000000
   12       18.278469   0.000000
   13       19.326727   0.000000
   14       21.753009   0.000000
   15       21.797859   0.000000
   16       22.613270   0.000000

 -0.2142857E+00  0.2142857E+00  0.3885781E-15  0.4373178E-02
    1       -4.705871   1.000000
    2        0.780460   1.000000
    3        2.386341   1.000000
    4        4.525264   1.000000
    5        8.257977   0.000000
    6        9.671104   0.000000
    7        9.938243   0.000000
    8       11.191640   0.000000
    9       11.697131   0.000000
   10       15.922247   0.000000
   11       16.612792   0.000000
   12       17.520753   0.000000
   13       18.833428   0.000000
   14       20.619957   0.000000
   15       22.362936   0.000000
   16       23.142242   0.000000

  0.2857143E+00  0.2857143E+00  0.3742002E-15  0.2186589E-02
    1       -4.828921   1.000000
    2        1.357222   1.000000
    3        3.424199   1.000000
    4        3.424199   1.000000
    5        6.500047   0.000000
    6        8.165191   0.000000
    7       11.753558   0.000000
    8       11.753558   0.000000
    9       13.962921   0.000000
   10       14.754399   0.000000
   11       17.450270   0.000000
   12       18.705044   0.000000
   13       18.705044   0.000000
   14       19.641233   0.000000
   15       21.920067   0.000000
   16       21.920067   0.000000

  0.3571429E+00  0.2857143E+00  0.3608225E-15  0.8746356E-02
    1       -4.439378   1.000000
    2        0.658592   1.000000
    3        3.050032   1.000000
    4        3.247632   1.000000
    5        6.572887   0.000000
    6        7.895224   0.000000
    7       12.033380   0.000000
    8       12.168371   0.000000
    9       15.033040   0.000000
   10       15.304190   0.000000
   11       17.640824   0.000000
   12       18.677051   0.000000
   13       19.089476   0.000000
   14       20.104261   0.000000
   15       21.176864   0.000000
   16       21.918103   0.000000

  0.4285714E+00  0.2857143E+00  0.3885781E-15  0.8746356E-02
    1       -3.956548   1.000000
    2       -0.096783   1.000000
    3        2.491877   1.000000
    4        3.172178   1.000000
    5        6.781399   0.000000
    6        8.233782   0.000000
    7       11.951168   0.000000
    8       12.171369   0.000000
    9       16.270224   0.000000
   10       16.406773   0.000000
   11       16.927489   0.000000
   12       17.517287   0.000000
   13       19.450809   0.000000
   14       20.278289   0.000000
   15       21.583225   0.000000
   16       23.097668   0.000000

  0.5000000E+00  0.2857143E+00  0.3885781E-15  0.8746356E-02
    1       -3.437437   1.000000
    2       -0.797455   1.000000
    3        1.964059   1.000000
    4        3.201289   1.000000
    5        6.878460   0.000000
    6        9.173590   0.000000
    7       11.800513   0.000000
    8       11.965550   0.000000
    9       15.686024   0.000000
   10       15.946120   0.000000
   11       17.575478   0.000000
   12       17.955920   0.000000
   13       18.961453   0.000000
   14       21.646135   0.000000
   15       22.262271   0.000000
   16       23.970470   0.000000

 -0.4285714E+00  0.2857143E+00  0.3330669E-15  0.8746356E-02
    1       -3.078389   1.000000
    2       -1.226010   1.000000
    3        1.577845   1.000000
    4        3.332651   1.000000
    5        7.018845   0.000000
    6       10.406023   0.000000
    7       11.688656   0.000000
    8       11.705520   0.000000
    9       14.344439   0.000000
   10       14.456045   0.000000
   11       18.739240   0.000000
   12       19.038094   0.000000
   13       19.366655   0.000000
   14       22.592858   0.000000
   15       22.757688   0.000000
   16       23.070301   0.000000

 -0.3571429E+00  0.2857143E+00  0.3885781E-15  0.8746356E-02
    1       -3.227250   1.000000
    2       -1.043579   1.000000
    3        1.396487   1.000000
    4        3.557645   1.000000
    5        7.261576   0.000000
    6       11.379072   0.000000
    7       11.405025   0.000000
    8       12.028577   0.000000
    9       13.011038   0.000000
   10       13.179043   0.000000
   11       18.745609   0.000000
   12       20.367228   0.000000
   13       20.581071   0.000000
   14       21.040636   0.000000
   15       21.948874   0.000000
   16       22.674781   0.000000

 -0.2857143E+00  0.2857143E+00  0.3885781E-15  0.4373178E-02
    1       -3.703079   1.000000
    2       -0.502058   1.000000
    3        1.510736   1.000000
    4        3.858203   1.000000
    5        7.596122   0.000000
    6       10.891850   0.000000
    7       11.179626   0.000000
    8       11.948767   0.000000
    9       12.368993   0.000000
   10       13.500088   0.000000
   11       18.672516   0.000000
   12       19.264615   0.000000
   13       20.006864   0.000000
   14       21.780372   0.000000
   15       21.881068   0.000000
   16       22.962869   0.000000

  0.3571429E+00  0.3571429E+00  0.3742002E-15  0.2186589E-02
    1       -4.083522   1.000000
    2        0.122898   1.000000
    3        3.045413   1.000000
    4        3.045413   1.000000
    5        6.237815   0.001185
    6        7.305673   0.000000
    7       13.028713   0.000000
    8       13.028713   0.000000
    9       15.446083   0.000000
   10       15.617191   0.000000
   11       18.520563   0.000000
   12       18.520563   0.000000
   13       18.654953   0.000000
   14       20.903570   0.000000
   15       20.932272   0.000000
   16       21.839660   0.000000

  0.4285714E+00  0.3571429E+00  0.3677614E-15  0.8746356E-02
    1       -3.626944   1.000000
    2       -0.505145   1.000000
    3        2.686411   1.000000
    4        2.943761   1.000000
    5        6.376892   0.000029
    6        7.192367   0.000000
    7       13.335127   0.000000
    8       13.376527   0.000000
    9       16.389785   0.000000
   10       16.482459   0.000000
   11       17.432883   0.000000
   12       17.571654   0.000000
   13       19.527929   0.000000
   14       20.489439   0.000000
   15       20.970687   0.000000
   16       22.632879   0.000000

  0.5000000E+00  0.3571429E+00  0.3747003E-15  0.8746356E-02
    1       -3.106142   1.000000
    2       -1.111317   1.000000
    3        2.100552   1.000000
    4        2.948049   1.000000
    5        6.545833   0.000000
    6        7.813039   0.000000
    7       13.274827   0.000000