       N       E                     dE             d eps       ncg     rms          rms(c)
DAV:   1     0.320644413289E+01    0.32064E+01   -0.35330E+03  3360   0.395E+02
DAV:   2    -0.832674424811E+01   -0.11533E+02   -0.11418E+02  4816   0.402E+01
DAV:   3    -0.840895109573E+01   -0.82207E-01   -0.82207E-01  3760   0.434E+00
DAV:   4    -0.840919300591E+01   -0.24191E-03   -0.24191E-03  6192   0.259E-01
DAV:   5    -0.840919302065E+01   -0.14742E-07   -0.14208E-07  3696   0.166E-03    0.367E+00
DAV:   6    -0.835973342260E+01    0.49460E-01   -0.84731E-02  4880   0.858E-01    0.224E+00
DAV:   7    -0.835390992360E+01    0.58235E-02   -0.19363E-01  5136   0.128E+00    0.186E-01
DAV:   8    -0.833750397222E+01    0.16406E-01   -0.49465E-03  3952   0.243E-01    0.953E-02
DAV:   9    -0.833862286615E+01   -0.11189E-02   -0.55379E-04  5120   0.821E-02    0.525E-02
DAV:  10    -0.833863750838E+01   -0.14642E-04   -0.23310E-05  4288   0.216E-02    0.105E-02
DAV:  11    -0.833845629168E+01    0.18122E-03   -0.30065E-07  5488   0.260E-03    0.189E-03
DAV:  12    -0.833844585331E+01    0.10438E-04   -0.68801E-08  4352   0.137E-03    0.460E-04
DAV:  13    -0.833844369354E+01    0.21598E-05   -0.52104E-09  3808   0.329E-04    0.706E-05
DAV:  14    -0.833844393408E+01   -0.24054E-06   -0.17730E-10  2448   0.674E-05    0.480E-06
DAV:  15    -0.833844368386E+01    0.25022E-06   -0.62252E-12  2288   0.132E-05    0.259E-06
DAV:  16    -0.833844367600E+01    0.78578E-08   -0.69977E-13  2112   0.573E-06
   1 F= -.83384437E+01 E0= -.83384291E+01  d E =-.833844E+01
