 vasp.5.4.1 24Jun15 (build Feb  9 2019 14:16:27) complex                         
 executed on           IFC91_ompi date 2020.09.26  22:31:43
 running on   16 total cores
 distrk:  each k-point on   16 cores,    1 groups
 distr:  one band on NCORES_PER_BAND=   1 cores,   16 groups


--------------------------------------------------------------------------------------------------------


 INCAR:
 POTCAR:    PAW_PBE Si 05Jan2001                  

 ----------------------------------------------------------------------------- 
|                                                                             |
|           W    W    AA    RRRRR   N    N  II  N    N   GGGG   !!!           |
|           W    W   A  A   R    R  NN   N  II  NN   N  G    G  !!!           |
|           W    W  A    A  R    R  N N  N  II  N N  N  G       !!!           |
|           W WW W  AAAAAA  RRRRR   N  N N  II  N  N N  G  GGG   !            |
|           WW  WW  A    A  R   R   N   NN  II  N   NN  G    G                |
|           W    W  A    A  R    R  N    N  II  N    N   GGGG   !!!           |
|                                                                             |
|      For optimal performance we recommend to set                            |
|        NCORE= 4 - approx SQRT( number of cores)                             |
|      NCORE specifies how many cores store one orbital (NPAR=cpu/NCORE).     |
|      This setting can  greatly improve the performance of VASP for DFT.     |
|      The default, NPAR=number of cores might be grossly inefficient         |
|      on modern multi-core architectures or massively parallel machines.     |
|      Do your own testing !!!!                                               |
|      Unfortunately you need to use the default for GW and RPA calculations. |
|      (for HF NCORE is supported but not extensively tested yet)             |
|                                                                             |
 ----------------------------------------------------------------------------- 


 ----------------------------------------------------------------------------- 
|                                                                             |
|  ADVICE TO THIS USER RUNNING 'VASP/VAMP'   (HEAR YOUR MASTER'S VOICE ...):  |
|                                                                             |
|      You have switched on vdW-DFT.                                          |
|      This routine was written and supplied by Jiri Klimes.                  |
|      We recommed that you carefully read and cite the following             |
|      publication                                                            |
|      J. Klimes, D.R. Bowler, A. Michelides                                  |
|        J. Phys.: Cond Matt. 22 022201 (2010)                                |
|      J. Klimes, D.R. Bowler, A. Michelides                                  |
|        Phys. Rev. B. 83, 195131 (2011)                                      |
|      and references therein.                                                |
|                                                                             |
 ----------------------------------------------------------------------------- 

 POTCAR:    PAW_PBE Si 05Jan2001                  
   VRHFIN =Si: s2p2                                                             
   LEXCH  = PE                                                                  
   EATOM  =   103.0669 eV,    7.5752 Ry                                         
                                                                                
   TITEL  = PAW_PBE Si 05Jan2001                                                
   LULTRA =        F    use ultrasoft PP ?                                      
   IUNSCR =        1    unscreen: 0-lin 1-nonlin 2-no                           
   RPACOR =    1.500    partial core radius                                     
   POMASS =   28.085; ZVAL   =    4.000    mass and valenz                      
   RCORE  =    1.900    outmost cutoff radius                                   
   RWIGS  =    2.480; RWIGS  =    1.312    wigner-seitz radius (au A)           
   ENMAX  =  245.345; ENMIN  =  184.009 eV                                      
   ICORE  =        2    local potential                                         
   LCOR   =        T    correct aug charges                                     
   LPAW   =        T    paw PP                                                  
   EAUG   =  322.069                                                            
   DEXC   =    0.000                                                            
   RMAX   =    1.950    core radius for proj-oper                               
   RAUG   =    1.300    factor for augmentation sphere                          
   RDEP   =    1.993    radius for radial grids                                 
   RDEPT  =    1.837    core radius for aug-charge                              
                                                                                
   Atomic configuration                                                         
    6 entries                                                                   
     n  l   j            E        occ.                                          
     1  0  0.50     -1785.8828   2.0000                                         
     2  0  0.50      -139.4969   2.0000                                         
     2  1  1.50       -95.5546   6.0000                                         
     3  0  0.50       -10.8127   2.0000                                         
     3  1  0.50        -4.0811   2.0000                                         
     3  2  1.50        -4.0817   0.0000                                         
   Description                                                                  
     l       E           TYP  RCUT    TYP  RCUT                                 
     0    -10.8127223     23  1.900                                             
     0     -7.6451159     23  1.900                                             
     1     -4.0811372     23  1.900                                             
     1      2.4879257     23  1.900                                             
     2     -4.0817478      7  1.900                                             
  local pseudopotential read in
  partial core-charges read in
  partial kinetic energy density read in
  atomic valenz-charges read in
  non local Contribution for L=           0  read in
    real space projection operators read in
  non local Contribution for L=           0  read in
    real space projection operators read in
  non local Contribution for L=           1  read in
    real space projection operators read in
  non local Contribution for L=           1  read in
    real space projection operators read in
    PAW grid and wavefunctions read in

   number of l-projection  operators is LMAX  =           4
   number of lm-projection operators is LMMAX =           8


 ----------------------------------------------------------------------------- 
|                                                                             |
|  ADVICE TO THIS USER RUNNING 'VASP/VAMP'   (HEAR YOUR MASTER'S VOICE ...):  |
|                                                                             |
|      You enforced a specific xc-type in the INCAR file,                     |
|      a different type was found on the POTCAR file                          |
|          I HOPE YOU KNOW, WHAT YOU ARE  DOING                               |
|                                                                             |
 ----------------------------------------------------------------------------- 

  PAW_PBE Si 05Jan2001                  :
 energy of atom  1       EATOM= -103.0669
 kinetic energy error for atom=    0.0006 (will be added to EATOM!!)


 POSCAR: bulk@JVASP-1002                         
  positions in direct lattice
  No initial velocities read in
 exchange correlation table for  LEXCH =       42
   RHO(1)=    0.500       N(1)  =     2000
   RHO(2)=  100.500       N(2)  =     4000



--------------------------------------------------------------------------------------------------------


 ion  position               nearest neighbor table
   1  0.750  0.750  0.750-   2 2.38   2 2.38   2 2.38   2 2.38
   2  0.500  0.500  0.500-   1 2.38   1 2.38   1 2.38   1 2.38

  LATTYP: Found a face centered cubic cell.
 ALAT       =     5.4936422752
  
  Lattice vectors:
  
 A1 = (   0.0000000000,   2.7468211376,   2.7468211376)
 A2 = (   2.7468211376,   0.0000000000,   2.7468211376)
 A3 = (   2.7468211376,   2.7468211376,   0.0000000000)


Analysis of symmetry for initial positions (statically):
=====================================================================
 Subroutine PRICEL returns:
 Original cell was already a primitive cell.
 

 Routine SETGRP: Setting up the symmetry group for a 
 face centered cubic supercell.


 Subroutine GETGRP returns: Found 48 space group operations
 (whereof 24 operations were pure point group operations)
 out of a pool of 48 trial point group operations.


The static configuration has the point symmetry T_d .
 The point group associated with its full space group is O_h .


Analysis of symmetry for dynamics (positions and initial velocities):
=====================================================================
 Subroutine PRICEL returns:
 Original cell was already a primitive cell.
 

 Routine SETGRP: Setting up the symmetry group for a 
 face centered cubic supercell.


 Subroutine GETGRP returns: Found 48 space group operations
 (whereof 24 operations were pure point group operations)
 out of a pool of 48 trial point group operations.


The dynamic configuration has the point symmetry T_d .
 The point group associated with its full space group is O_h .


 KPOINTS: Automatic kpoint scheme                 

Automatic generation of k-mesh.
Space group operators:
 irot       det(A)        alpha          n_x          n_y          n_z        tau_x        tau_y        tau_z
    1     1.000000     0.000000     1.000000     0.000000     0.000000     0.000000     0.000000     0.000000
    2     1.000000   120.000000    -0.577350    -0.577350    -0.577350     0.000000     0.000000     0.000000
    3     1.000000   120.000000     0.577350     0.577350     0.577350     0.000000     0.000000     0.000000
    4    -1.000000    90.000000     0.000000     0.000000    -1.000000     0.000000     0.000000     0.000000
    5    -1.000000   180.000000     0.000000     0.707107     0.707107     0.000000     0.000000     0.000000
    6    -1.000000    90.000000     0.000000     1.000000     0.000000     0.000000     0.000000     0.000000
    7     1.000000   180.000000     0.000000     0.000000     1.000000     0.000000     0.000000     0.000000
    8     1.000000   120.000000    -0.577350     0.577350     0.577350     0.000000     0.000000     0.000000
    9     1.000000   120.000000    -0.577350     0.577350    -0.577350     0.000000     0.000000     0.000000
   10    -1.000000    90.000000     0.000000     0.000000     1.000000     0.000000     0.000000     0.000000
   11    -1.000000    90.000000    -1.000000     0.000000     0.000000     0.000000     0.000000     0.000000
   12    -1.000000   180.000000     0.707107     0.000000     0.707107     0.000000     0.000000     0.000000
   13     1.000000   120.000000     0.577350    -0.577350     0.577350     0.000000     0.000000     0.000000
   14     1.000000   120.000000    -0.577350    -0.577350     0.577350     0.000000     0.000000     0.000000
   15     1.000000   180.000000     1.000000     0.000000     0.000000     0.000000     0.000000     0.000000
   16    -1.000000    90.000000     0.000000    -1.000000     0.000000     0.000000     0.000000     0.000000
   17    -1.000000   180.000000     0.707107     0.707107     0.000000     0.000000     0.000000     0.000000
   18    -1.000000    90.000000     1.000000     0.000000     0.000000     0.000000     0.000000     0.000000
   19     1.000000   120.000000     0.577350    -0.577350    -0.577350     0.000000     0.000000     0.000000
   20     1.000000   180.000000     0.000000     1.000000     0.000000     0.000000     0.000000     0.000000
   21     1.000000   120.000000     0.577350     0.577350    -0.577350     0.000000     0.000000     0.000000
   22    -1.000000   180.000000     0.000000    -0.707107     0.707107     0.000000     0.000000     0.000000
   23    -1.000000   180.000000     0.707107    -0.707107     0.000000     0.000000     0.000000     0.000000
   24    -1.000000   180.000000     0.707107     0.000000    -0.707107     0.000000     0.000000     0.000000
   25    -1.000000     0.000000     1.000000     0.000000     0.000000     0.250000     0.250000     0.250000
   26    -1.000000   120.000000    -0.577350    -0.577350    -0.577350     0.250000     0.250000     0.250000
   27    -1.000000   120.000000     0.577350     0.577350     0.577350     0.250000     0.250000     0.250000
   28     1.000000    90.000000     0.000000     0.000000    -1.000000     0.250000     0.250000     0.250000
   29     1.000000   180.000000     0.000000     0.707107     0.707107     0.250000     0.250000     0.250000
   30     1.000000    90.000000     0.000000     1.000000     0.000000     0.250000     0.250000     0.250000
   31    -1.000000   180.000000     0.000000     0.000000     1.000000     0.250000     0.250000     0.250000
   32    -1.000000   120.000000    -0.577350     0.577350     0.577350     0.250000     0.250000     0.250000
   33    -1.000000   120.000000    -0.577350     0.577350    -0.577350     0.250000     0.250000     0.250000
   34     1.000000    90.000000     0.000000     0.000000     1.000000     0.250000     0.250000     0.250000
   35     1.000000    90.000000    -1.000000     0.000000     0.000000     0.250000     0.250000     0.250000
   36     1.000000   180.000000     0.707107     0.000000     0.707107     0.250000     0.250000     0.250000
   37    -1.000000   120.000000     0.577350    -0.577350     0.577350     0.250000     0.250000     0.250000
   38    -1.000000   120.000000    -0.577350    -0.577350     0.577350     0.250000     0.250000     0.250000
   39    -1.000000   180.000000     1.000000     0.000000     0.000000     0.250000     0.250000     0.250000
   40     1.000000    90.000000     0.000000    -1.000000     0.000000     0.250000     0.250000     0.250000
   41     1.000000   180.000000     0.707107     0.707107     0.000000     0.250000     0.250000     0.250000
   42     1.000000    90.000000     1.000000     0.000000     0.000000     0.250000     0.250000     0.250000
   43    -1.000000   120.000000     0.577350    -0.577350    -0.577350     0.250000     0.250000     0.250000
   44    -1.000000   180.000000     0.000000     1.000000     0.000000     0.250000     0.250000     0.250000
   45    -1.000000   120.000000     0.577350     0.577350    -0.577350     0.250000     0.250000     0.250000
   46     1.000000   180.000000     0.000000    -0.707107     0.707107     0.250000     0.250000     0.250000
   47     1.000000   180.000000     0.707107    -0.707107     0.000000     0.250000     0.250000     0.250000
   48     1.000000   180.000000     0.707107     0.000000    -0.707107     0.250000     0.250000     0.250000
 
 Subroutine IBZKPT returns following result:
 ===========================================
 
 Found    104 irreducible k-points:
 
 Following reciprocal coordinates:
            Coordinates               Weight
  0.000000  0.000000  0.000000      1.000000
  0.071429  0.000000  0.000000      8.000000
  0.142857  0.000000  0.000000      8.000000
  0.214286  0.000000  0.000000      8.000000
  0.285714  0.000000  0.000000      8.000000
  0.357143  0.000000  0.000000      8.000000
  0.428571  0.000000  0.000000      8.000000
  0.500000  0.000000  0.000000      4.000000
  0.071429  0.071429  0.000000      6.000000
  0.142857  0.071429  0.000000     24.000000
  0.214286  0.071429  0.000000     24.000000
  0.285714  0.071429  0.000000     24.000000
  0.357143  0.071429  0.000000     24.000000
  0.428571  0.071429  0.000000     24.000000
  0.500000  0.071429  0.000000     24.000000
 -0.428571  0.071429  0.000000     24.000000
 -0.357143  0.071429  0.000000     24.000000
 -0.285714  0.071429  0.000000     24.000000
 -0.214286  0.071429  0.000000     24.000000
 -0.142857  0.071429  0.000000     24.000000
 -0.071429  0.071429  0.000000     12.000000
  0.142857  0.142857  0.000000      6.000000
  0.214286  0.142857  0.000000     24.000000
  0.285714  0.142857  0.000000     24.000000
  0.357143  0.142857  0.000000     24.000000
  0.428571  0.142857  0.000000     24.000000
  0.500000  0.142857  0.000000     24.000000
 -0.428571  0.142857  0.000000     24.000000
 -0.357143  0.142857  0.000000     24.000000
 -0.285714  0.142857  0.000000     24.000000
 -0.214286  0.142857  0.000000     24.000000
 -0.142857  0.142857  0.000000     12.000000
  0.214286  0.214286  0.000000      6.000000
  0.285714  0.214286  0.000000     24.000000
  0.357143  0.214286  0.000000     24.000000
  0.428571  0.214286  0.000000     24.000000
  0.500000  0.214286  0.000000     24.000000
 -0.428571  0.214286  0.000000     24.000000
 -0.357143  0.214286  0.000000     24.000000
 -0.285714  0.214286  0.000000     24.000000
 -0.214286  0.214286  0.000000     12.000000
  0.285714  0.285714  0.000000      6.000000
  0.357143  0.285714  0.000000     24.000000
  0.428571  0.285714  0.000000     24.000000
  0.500000  0.285714  0.000000     24.000000
 -0.428571  0.285714  0.000000     24.000000
 -0.357143  0.285714  0.000000     24.000000
 -0.285714  0.285714  0.000000     12.000000
  0.357143  0.357143  0.000000      6.000000
  0.428571  0.357143  0.000000     24.000000
  0.500000  0.357143  0.000000     24.000000
 -0.428571  0.357143  0.000000     24.000000
 -0.357143  0.357143  0.000000     12.000000
  0.428571  0.428571  0.000000      6.000000
  0.500000  0.428571  0.000000     24.000000
 -0.428571  0.428571  0.000000     12.000000
  0.500000  0.500000  0.000000      3.000000
  0.214286  0.142857  0.071429     24.000000
  0.285714  0.142857  0.071429     48.000000
  0.357143  0.142857  0.071429     48.000000
  0.428571  0.142857  0.071429     48.000000
  0.500000  0.142857  0.071429     48.000000
 -0.428571  0.142857  0.071429     24.000000
  0.285714  0.214286  0.071429     24.000000
  0.357143  0.214286  0.071429     48.000000
  0.428571  0.214286  0.071429     48.000000
  0.500000  0.214286  0.071429     48.000000
 -0.428571  0.214286  0.071429     48.000000
 -0.357143  0.214286  0.071429     48.000000
 -0.285714  0.214286  0.071429     48.000000
 -0.214286  0.214286  0.071429     48.000000
 -0.142857  0.214286  0.071429     24.000000
  0.357143  0.285714  0.071429     24.000000
  0.428571  0.285714  0.071429     48.000000
  0.500000  0.285714  0.071429     48.000000
 -0.428571  0.285714  0.071429     48.000000
 -0.357143  0.285714  0.071429     48.000000
 -0.285714  0.285714  0.071429     48.000000
 -0.214286  0.285714  0.071429     24.000000
  0.428571  0.357143  0.071429     24.000000
  0.500000  0.357143  0.071429     48.000000
 -0.428571  0.357143  0.071429     48.000000
 -0.357143  0.357143  0.071429     48.000000
 -0.285714  0.357143  0.071429     24.000000
  0.500000  0.428571  0.071429     24.000000
 -0.428571  0.428571  0.071429     48.000000
 -0.357143  0.428571  0.071429     24.000000
 -0.428571  0.500000  0.071429     12.000000
  0.428571  0.285714  0.142857     24.000000
  0.500000  0.285714  0.142857     48.000000
 -0.428571  0.285714  0.142857     48.000000
 -0.357143  0.285714  0.142857     24.000000
  0.500000  0.357143  0.142857     24.000000
 -0.428571  0.357143  0.142857     48.000000
 -0.357143  0.357143  0.142857     48.000000
 -0.285714  0.357143  0.142857     48.000000
 -0.214286  0.357143  0.142857     24.000000
 -0.428571  0.428571  0.142857     24.000000
 -0.357143  0.428571  0.142857     48.000000
 -0.285714  0.428571  0.142857     24.000000
 -0.357143  0.500000  0.142857     12.000000
 -0.357143  0.428571  0.214286     24.000000
 -0.285714  0.428571  0.214286     24.000000
 -0.285714  0.500000  0.214286     12.000000
 
 Following cartesian coordinates:
            Coordinates               Weight
  0.000000  0.000000  0.000000      1.000000
 -0.013002  0.013002  0.013002      8.000000
 -0.026004  0.026004  0.026004      8.000000
 -0.039006  0.039006  0.039006      8.000000
 -0.052008  0.052008  0.052008      8.000000
 -0.065010  0.065010  0.065010      8.000000
 -0.078012  0.078012  0.078012      8.000000
 -0.091014  0.091014  0.091014      4.000000
  0.000000  0.000000  0.026004      6.000000
 -0.013002  0.013002  0.039006     24.000000
 -0.026004  0.026004  0.052008     24.000000
 -0.039006  0.039006  0.065010     24.000000
 -0.052008  0.052008  0.078012     24.000000
 -0.065010  0.065010  0.091014     24.000000
 -0.078012  0.078012  0.104016     24.000000
  0.091014 -0.091014 -0.065010     24.000000
  0.078012 -0.078012 -0.052008     24.000000
  0.065010 -0.065010 -0.039006     24.000000
  0.052008 -0.052008 -0.026004     24.000000
  0.039006 -0.039006 -0.013002     24.000000
  0.026004 -0.026004  0.000000     12.000000
  0.000000  0.000000  0.052008      6.000000
 -0.013002  0.013002  0.065010     24.000000
 -0.026004  0.026004  0.078012     24.000000
 -0.039006  0.039006  0.091014     24.000000
 -0.052008  0.052008  0.104016     24.000000
 -0.065010  0.065010  0.117018     24.000000
  0.104016 -0.104016 -0.052008     24.000000
  0.091014 -0.091014 -0.039006     24.000000
  0.078012 -0.078012 -0.026004     24.000000
  0.065010 -0.065010 -0.013002     24.000000
  0.052008 -0.052008  0.000000     12.000000
  0.000000  0.000000  0.078012      6.000000
 -0.013002  0.013002  0.091014     24.000000
 -0.026004  0.026004  0.104016     24.000000
 -0.039006  0.039006  0.117018     24.000000
 -0.052008  0.052008  0.130020     24.000000
  0.117018 -0.117018 -0.039006     24.000000
  0.104016 -0.104016 -0.026004     24.000000
  0.091014 -0.091014 -0.013002     24.000000
  0.078012 -0.078012  0.000000     12.000000
  0.000000  0.000000  0.104016      6.000000
 -0.013002  0.013002  0.117018     24.000000
 -0.026004  0.026004  0.130020     24.000000
 -0.039006  0.039006  0.143022     24.000000
  0.130020 -0.130020 -0.026004     24.000000
  0.117018 -0.117018 -0.013002     24.000000
  0.104016 -0.104016  0.000000     12.000000
  0.000000  0.000000  0.130020      6.000000
 -0.013002  0.013002  0.143022     24.000000
 -0.026004  0.026004  0.156025     24.000000
  0.143022 -0.143022 -0.013002     24.000000
  0.130020 -0.130020  0.000000     12.000000
  0.000000  0.000000  0.156025      6.000000
 -0.013002  0.013002  0.169027     24.000000
  0.156025 -0.156025  0.000000     12.000000
  0.000000  0.000000  0.182029      3.000000
  0.000000  0.026004  0.052008     24.000000
 -0.013002  0.039006  0.065010     48.000000
 -0.026004  0.052008  0.078012     48.000000
 -0.039006  0.065010  0.091014     48.000000
 -0.052008  0.078012  0.104016     48.000000
  0.117018 -0.091014 -0.065010     24.000000
  0.000000  0.026004  0.078012     24.000000
 -0.013002  0.039006  0.091014     48.000000
 -0.026004  0.052008  0.104016     48.000000
 -0.039006  0.065010  0.117018     48.000000
  0.130020 -0.104016 -0.052008     48.000000
  0.117018 -0.091014 -0.039006     48.000000
  0.104016 -0.078012 -0.026004     48.000000
  0.091014 -0.065010 -0.013002     48.000000
  0.078012 -0.052008  0.000000     24.000000
  0.000000  0.026004  0.104016     24.000000
 -0.013002  0.039006  0.117018     48.000000
 -0.026004  0.052008  0.130020     48.000000
  0.143022 -0.117018 -0.039006     48.000000
  0.130020 -0.104016 -0.026004     48.000000
  0.117018 -0.091014 -0.013002     48.000000
  0.104016 -0.078012  0.000000     24.000000
 -0.000000  0.026004  0.130020     24.000000
 -0.013002  0.039006  0.143022     48.000000
  0.156025 -0.130020 -0.026004     48.000000
  0.143022 -0.117018 -0.013002     48.000000
  0.130020 -0.104016  0.000000     24.000000
  0.000000  0.026004  0.156025     24.000000
  0.169027 -0.143022 -0.013002     48.000000
  0.156025 -0.130020  0.000000     24.000000
  0.182029 -0.156025  0.000000     12.000000
  0.000000  0.052008  0.104016     24.000000
 -0.013002  0.065010  0.117018     48.000000
  0.156025 -0.104016 -0.052008     48.000000
  0.143022 -0.091014 -0.039006     24.000000
  0.000000  0.052008  0.130020     24.000000
  0.169027 -0.117018 -0.039006     48.000000
  0.156025 -0.104016 -0.026004     48.000000
  0.143022 -0.091014 -0.013002     48.000000
  0.130020 -0.078012  0.000000     24.000000
  0.182029 -0.130020 -0.026004     24.000000
  0.169027 -0.117018 -0.013002     48.000000
  0.156025 -0.104016  0.000000     24.000000
  0.182029 -0.130020  0.000000     12.000000
  0.182029 -0.104016 -0.026004     24.000000
  0.169027 -0.091014 -0.013002     24.000000
  0.182029 -0.104016  0.000000     12.000000
 


--------------------------------------------------------------------------------------------------------




 Dimension of arrays:
   k-points           NKPTS =      104   k-points in BZ     NKDIM =      104   number of bands    NBANDS=     16
   number of dos      NEDOS =    301   number of ions     NIONS =      2
   non local maximal  LDIM  =      4   non local SUM 2l+1 LMDIM =      8
   total plane-waves  NPLWV =  21952
   max r-space proj   IRMAX =      1   max aug-charges    IRDMAX=  17905
   dimension x,y,z NGX =    28 NGY =   28 NGZ =   28
   dimension x,y,z NGXF=    56 NGYF=   56 NGZF=   56
   support grid    NGXF=    56 NGYF=   56 NGZF=   56
   ions per type =               2
 NGX,Y,Z   is equivalent  to a cutoff of  11.98, 11.98, 11.98 a.u.
 NGXF,Y,Z  is equivalent  to a cutoff of  23.97, 23.97, 23.97 a.u.


 I would recommend the setting:
   dimension x,y,z NGX =    28 NGY =   28 NGZ =   28
 SYSTEM =  unknown system                          
 POSCAR =  bulk@JVASP-1002                         

 Startparameter for this run:
   NWRITE =      2    write-flag & timer
   PREC   = accura    normal or accurate (medium, high low for compatibility)
   ISTART =      0    job   : 0-new  1-cont  2-samecut
   ICHARG =      2    charge: 1-file 2-atom 10-const
   ISPIN  =      1    spin polarized calculation?
   LNONCOLLINEAR =      F non collinear calculations
   LSORBIT =      F    spin-orbit coupling
   INIWAV =      1    electr: 0-lowe 1-rand  2-diag
   LASPH  =      F    aspherical Exc in radial PAW
   METAGGA=      F    non-selfconsistent MetaGGA calc.

 Electronic Relaxation 1
   ENCUT  =  500.0 eV  36.75 Ry    6.06 a.u.   7.08  7.08  7.08*2*pi/ulx,y,z
   ENINI  =  500.0     initial cutoff
   ENAUG  =  322.1 eV  augmentation charge cutoff
   NELM   =    400;   NELMIN=  2; NELMDL= -5     # of ELM steps 
   EDIFF  = 0.1E-06   stopping-criterion for ELM
   LREAL  =      F    real-space projection
   NLSPLINE    = F    spline interpolate recip. space projectors
   LCOMPAT=      F    compatible to vasp.4.4
   GGA_COMPAT  = T    GGA compatible to vasp.4.4-vasp.4.6
   LMAXPAW     = -100 max onsite density
   LMAXMIX     =    2 max onsite mixed and CHGCAR
   VOSKOWN=      0    Vosko Wilk Nusair interpolation
   ROPT   =    0.00000
 Ionic relaxation
   EDIFFG = 0.1E-05   stopping-criterion for IOM
   NSW    =      1    number of steps for IOM
   NBLOCK =      1;   KBLOCK =      1    inner block; outer block 
   IBRION =      2    ionic relax: 0-MD 1-quasi-New 2-CG
   NFREE  =      1    steps in history (QN), initial steepest desc. (CG)
   ISIF   =      2    stress and relaxation
   IWAVPR =     11    prediction:  0-non 1-charg 2-wave 3-comb
   ISYM   =      2    0-nonsym 1-usesym 2-fastsym
   LCORR  =      T    Harris-Foulkes like correction to forces

   POTIM  = 0.5000    time-step for ionic-motion
   TEIN   =    0.0    initial temperature
   TEBEG  =    0.0;   TEEND  =   0.0 temperature during run
   SMASS  =  -3.00    Nose mass-parameter (am)
   estimated Nose-frequenzy (Omega)   =  0.10E-29 period in steps =****** mass=  -0.345E-27a.u.
   SCALEE = 1.0000    scale energy and forces
   NPACO  =    256;   APACO  = 16.0  distance and # of slots for P.C.
   PSTRESS=    0.0 pullay stress

  Mass of Ions in am
   POMASS =  28.09
  Ionic Valenz
   ZVAL   =   4.00
  Atomic Wigner-Seitz radii
   RWIGS  =  -1.00
  virtual crystal weights 
   VCA    =   1.00
   NELECT =       8.0000    total number of electrons
   NUPDOWN=      -1.0000    fix difference up-down

 DOS related values:
   EMIN   =  10.00;   EMAX   =-10.00  energy-range for DOS
   EFERMI =   0.00
   ISMEAR =     0;   SIGMA  =   0.20  broadening in eV -4-tet -1-fermi 0-gaus

 Electronic relaxation 2 (details)
   IALGO  =     38    algorithm
   LDIAG  =      T    sub-space diagonalisation (order eigenvalues)
   LSUBROT=      F    optimize rotation matrix (better conditioning)
   TURBO    =      0    0=normal 1=particle mesh
   IRESTART =      0    0=no restart 2=restart with 2 vectors
   NREBOOT  =      0    no. of reboots
   NMIN     =      0    reboot dimension
   EREF     =   0.00    reference energy to select bands
   IMIX   =      4    mixing-type and parameters
     AMIX     =   0.40;   BMIX     =  1.00
     AMIX_MAG =   1.60;   BMIX_MAG =  1.00
     AMIN     =   0.10
     WC   =   100.;   INIMIX=   1;  MIXPRE=   1;  MAXMIX= -45

 Intra band minimization:
   WEIMIN = 0.0010     energy-eigenvalue tresh-hold
   EBREAK =  0.16E-08  absolut break condition
   DEPER  =   0.30     relativ break condition  

   TIME   =   0.40     timestep for ELM

  volume/ion in A,a.u.               =      20.72       139.86
  Fermi-wavevector in a.u.,A,eV,Ry     =   0.946087  1.787845 12.178313  0.895081
  Thomas-Fermi vector in A             =   2.074051

 Write flags
   LWAVE  =      F    write WAVECAR
   LCHARG =      F    write CHGCAR
   LVTOT  =      F    write LOCPOT, total local potential
   LVHAR  =      F    write LOCPOT, Hartree potential only
   LELF   =      F    write electronic localiz. function (ELF)
   LORBIT =      0    0 simple, 1 ext, 2 COOP (PROOUT)


 Dipole corrections
   LMONO  =      F    monopole corrections only (constant potential shift)
   LDIPOL =      F    correct potential (dipole corrections)
   IDIPOL =      0    1-x, 2-y, 3-z, 4-all directions 
   EPSILON=  1.0000000 bulk dielectric constant

 Exchange correlation treatment:
   GGA     =    BO    GGA type
   LEXCH   =    42    internal setting for exchange type
   VOSKOWN=      0    Vosko Wilk Nusair interpolation
   LHFCALC =     F    Hartree Fock is set to
   LHFONE  =     F    Hartree Fock one center treatment
   AEXX    =    0.0000 exact exchange contribution

 vdW DFT:
   LUSE_VDW   =     T    switch on vdW DFT
   Zab_VDW    =-.8491    correlation parameter
   PARAM1     =0.1833
   PARAM2     =0.2200
   PARAM3     =0.0000

 Linear response parameters
   LEPSILON=     F    determine dielectric tensor
   LRPA    =     F    only Hartree local field effects (RPA)
   LNABLA  =     F    use nabla operator in PAW spheres
   LVEL    =     F    velocity operator in full k-point grid
   LINTERFAST=   F  fast interpolation
   KINTER  =     0    interpolate to denser k-point grid
   CSHIFT  =0.1000    complex shift for real part using Kramers Kronig
   OMEGAMAX=  -1.0    maximum frequency
   DEG_THRESHOLD= 0.2000000E-02 threshold for treating states as degnerate
   RTIME   =    0.100 relaxation time in fs

 Orbital magnetization related:
   ORBITALMAG=     F  switch on orbital magnetization
   LCHIMAG   =     F  perturbation theory with respect to B field
   DQ        =  0.001000  dq finite difference perturbation B field



--------------------------------------------------------------------------------------------------------


 conjugate gradient relaxation of ions
 charge density and potential will be updated during run
 non-spin polarized calculation
 Variant of blocked Davidson
 Davidson routine will perform the subspace rotation
 perform sub-space diagonalisation
    after iterative eigenvector-optimisation
 modified Broyden-mixing scheme, WC =      100.0
 initial mixing is a Kerker type mixing with AMIX =  0.4000 and BMIX =      1.0000
 Hartree-type preconditioning will be used
 using additional bands           12
 reciprocal scheme for non local part
 use partial core corrections
 calculate Harris-corrections to forces   (improved forces if not selfconsistent)
 use gradient corrections 
 use of overlap-Matrix (Vanderbilt PP)
 Gauss-broadening in eV      SIGMA  =   0.20


--------------------------------------------------------------------------------------------------------


  energy-cutoff  :      500.00
  volume of cell :       41.45
      direct lattice vectors                 reciprocal lattice vectors
     0.000000000  2.746821138  2.746821138    -0.182028598  0.182028598  0.182028598
     2.746821138  0.000000000  2.746821138     0.182028598 -0.182028598  0.182028598
     2.746821138  2.746821138  0.000000000     0.182028598  0.182028598 -0.182028598

  length of vectors
     3.884591706  3.884591706  3.884591706     0.315282780  0.315282780  0.315282780



 k-points in units of 2pi/SCALE and weight: Automatic kpoint scheme                 
   0.00000000  0.00000000  0.00000000       0.000
  -0.01300204  0.01300204  0.01300204       0.003
  -0.02600409  0.02600409  0.02600409       0.003
  -0.03900613  0.03900613  0.03900613       0.003
  -0.05200817  0.05200817  0.05200817       0.003
  -0.06501021  0.06501021  0.06501021       0.003
  -0.07801226  0.07801226  0.07801226       0.003
  -0.09101430  0.09101430  0.09101430       0.001
   0.00000000  0.00000000  0.02600409       0.002
  -0.01300204  0.01300204  0.03900613       0.009
  -0.02600409  0.02600409  0.05200817       0.009
  -0.03900613  0.03900613  0.06501021       0.009
  -0.05200817  0.05200817  0.07801226       0.009
  -0.06501021  0.06501021  0.09101430       0.009
  -0.07801226  0.07801226  0.10401634       0.009
   0.09101430 -0.09101430 -0.06501021       0.009
   0.07801226 -0.07801226 -0.05200817       0.009
   0.06501021 -0.06501021 -0.03900613       0.009
   0.05200817 -0.05200817 -0.02600409       0.009
   0.03900613 -0.03900613 -0.01300204       0.009
   0.02600409 -0.02600409  0.00000000       0.004
   0.00000000  0.00000000  0.05200817       0.002
  -0.01300204  0.01300204  0.06501021       0.009
  -0.02600409  0.02600409  0.07801226       0.009
  -0.03900613  0.03900613  0.09101430       0.009
  -0.05200817  0.05200817  0.10401634       0.009
  -0.06501021  0.06501021  0.11701838       0.009
   0.10401634 -0.10401634 -0.05200817       0.009
   0.09101430 -0.09101430 -0.03900613       0.009
   0.07801226 -0.07801226 -0.02600409       0.009
   0.06501021 -0.06501021 -0.01300204       0.009
   0.05200817 -0.05200817  0.00000000       0.004
   0.00000000  0.00000000  0.07801226       0.002
  -0.01300204  0.01300204  0.09101430       0.009
  -0.02600409  0.02600409  0.10401634       0.009
  -0.03900613  0.03900613  0.11701838       0.009
  -0.05200817  0.05200817  0.13002043       0.009
   0.11701838 -0.11701838 -0.03900613       0.009
   0.10401634 -0.10401634 -0.02600409       0.009
   0.09101430 -0.09101430 -0.01300204       0.009
   0.07801226 -0.07801226  0.00000000       0.004
   0.00000000  0.00000000  0.10401634       0.002
  -0.01300204  0.01300204  0.11701838       0.009
  -0.02600409  0.02600409  0.13002043       0.009
  -0.03900613  0.03900613  0.14302247       0.009
   0.13002043 -0.13002043 -0.02600409       0.009
   0.11701838 -0.11701838 -0.01300204       0.009
   0.10401634 -0.10401634  0.00000000       0.004
   0.00000000  0.00000000  0.13002043       0.002
  -0.01300204  0.01300204  0.14302247       0.009
  -0.02600409  0.02600409  0.15602451       0.009
   0.14302247 -0.14302247 -0.01300204       0.009
   0.13002043 -0.13002043  0.00000000       0.004
   0.00000000  0.00000000  0.15602451       0.002
  -0.01300204  0.01300204  0.16902656       0.009
   0.15602451 -0.15602451  0.00000000       0.004
   0.00000000  0.00000000  0.18202860       0.001
   0.00000000  0.02600409  0.05200817       0.009
  -0.01300204  0.03900613  0.06501021       0.017
  -0.02600409  0.05200817  0.07801226       0.017
  -0.03900613  0.06501021  0.09101430       0.017
  -0.05200817  0.07801226  0.10401634       0.017
   0.11701838 -0.09101430 -0.06501021       0.009
   0.00000000  0.02600409  0.07801226       0.009
  -0.01300204  0.03900613  0.09101430       0.017
  -0.02600409  0.05200817  0.10401634       0.017
  -0.03900613  0.06501021  0.11701838       0.017
   0.13002043 -0.10401634 -0.05200817       0.017
   0.11701838 -0.09101430 -0.03900613       0.017
   0.10401634 -0.07801226 -0.02600409       0.017
   0.09101430 -0.06501021 -0.01300204       0.017
   0.07801226 -0.05200817  0.00000000       0.009
   0.00000000  0.02600409  0.10401634       0.009
  -0.01300204  0.03900613  0.11701838       0.017
  -0.02600409  0.05200817  0.13002043       0.017
   0.14302247 -0.11701838 -0.03900613       0.017
   0.13002043 -0.10401634 -0.02600409       0.017
   0.11701838 -0.09101430 -0.01300204       0.017
   0.10401634 -0.07801226  0.00000000       0.009
  -0.00000000  0.02600409  0.13002043       0.009
  -0.01300204  0.03900613  0.14302247       0.017
   0.15602451 -0.13002043 -0.02600409       0.017
   0.14302247 -0.11701838 -0.01300204       0.017
   0.13002043 -0.10401634  0.00000000       0.009
   0.00000000  0.02600409  0.15602451       0.009
   0.16902656 -0.14302247 -0.01300204       0.017
   0.15602451 -0.13002043  0.00000000       0.009
   0.18202860 -0.15602451  0.00000000       0.004
   0.00000000  0.05200817  0.10401634       0.009
  -0.01300204  0.06501021  0.11701838       0.017
   0.15602451 -0.10401634 -0.05200817       0.017
   0.14302247 -0.09101430 -0.03900613       0.009
   0.00000000  0.05200817  0.13002043       0.009
   0.16902656 -0.11701838 -0.03900613       0.017
   0.15602451 -0.10401634 -0.02600409       0.017
   0.14302247 -0.09101430 -0.01300204       0.017
   0.13002043 -0.07801226  0.00000000       0.009
   0.18202860 -0.13002043 -0.02600409       0.009
   0.16902656 -0.11701838 -0.01300204       0.017
   0.15602451 -0.10401634  0.00000000       0.009
   0.18202860 -0.13002043  0.00000000       0.004
   0.18202860 -0.10401634 -0.02600409       0.009
   0.16902656 -0.09101430 -0.01300204       0.009
   0.18202860 -0.10401634  0.00000000       0.004

 k-points in reciprocal lattice and weights: Automatic kpoint scheme                 
   0.00000000  0.00000000  0.00000000       0.000
   0.07142857  0.00000000  0.00000000       0.003
   0.14285714  0.00000000  0.00000000       0.003
   0.21428571  0.00000000  0.00000000       0.003
   0.28571429  0.00000000  0.00000000       0.003
   0.35714286  0.00000000  0.00000000       0.003
   0.42857143  0.00000000  0.00000000       0.003
   0.50000000  0.00000000  0.00000000       0.001
   0.07142857  0.07142857  0.00000000       0.002
   0.14285714  0.07142857  0.00000000       0.009
   0.21428571  0.07142857  0.00000000       0.009
   0.28571429  0.07142857  0.00000000       0.009
   0.35714286  0.07142857  0.00000000       0.009
   0.42857143  0.07142857  0.00000000       0.009
   0.50000000  0.07142857  0.00000000       0.009
  -0.42857143  0.07142857  0.00000000       0.009
  -0.35714286  0.07142857  0.00000000       0.009
  -0.28571429  0.07142857  0.00000000       0.009
  -0.21428571  0.07142857  0.00000000       0.009
  -0.14285714  0.07142857  0.00000000       0.009
  -0.07142857  0.07142857  0.00000000       0.004
   0.14285714  0.14285714  0.00000000       0.002
   0.21428571  0.14285714  0.00000000       0.009
   0.28571429  0.14285714  0.00000000       0.009
   0.35714286  0.14285714  0.00000000       0.009
   0.42857143  0.14285714  0.00000000       0.009
   0.50000000  0.14285714  0.00000000       0.009
  -0.42857143  0.14285714  0.00000000       0.009
  -0.35714286  0.14285714  0.00000000       0.009
  -0.28571429  0.14285714  0.00000000       0.009
  -0.21428571  0.14285714  0.00000000       0.009
  -0.14285714  0.14285714  0.00000000       0.004
   0.21428571  0.21428571  0.00000000       0.002
   0.28571429  0.21428571  0.00000000       0.009
   0.35714286  0.21428571  0.00000000       0.009
   0.42857143  0.21428571  0.00000000       0.009
   0.50000000  0.21428571  0.00000000       0.009
  -0.42857143  0.21428571  0.00000000       0.009
  -0.35714286  0.21428571  0.00000000       0.009
  -0.28571429  0.21428571  0.00000000       0.009
  -0.21428571  0.21428571  0.00000000       0.004
   0.28571429  0.28571429  0.00000000       0.002
   0.35714286  0.28571429  0.00000000       0.009
   0.42857143  0.28571429  0.00000000       0.009
   0.50000000  0.28571429  0.00000000       0.009
  -0.42857143  0.28571429  0.00000000       0.009
  -0.35714286  0.28571429  0.00000000       0.009
  -0.28571429  0.28571429  0.00000000       0.004
   0.35714286  0.35714286  0.00000000       0.002
   0.42857143  0.35714286  0.00000000       0.009
   0.50000000  0.35714286  0.00000000       0.009
  -0.42857143  0.35714286  0.00000000       0.009
  -0.35714286  0.35714286  0.00000000       0.004
   0.42857143  0.42857143  0.00000000       0.002
   0.50000000  0.42857143  0.00000000       0.009
  -0.42857143  0.42857143  0.00000000       0.004
   0.50000000  0.50000000  0.00000000       0.001
   0.21428571  0.14285714  0.07142857       0.009
   0.28571429  0.14285714  0.07142857       0.017
   0.35714286  0.14285714  0.07142857       0.017
   0.42857143  0.14285714  0.07142857       0.017
   0.50000000  0.14285714  0.07142857       0.017
  -0.42857143  0.14285714  0.07142857       0.009
   0.28571429  0.21428571  0.07142857       0.009
   0.35714286  0.21428571  0.07142857       0.017
   0.42857143  0.21428571  0.07142857       0.017
   0.50000000  0.21428571  0.07142857       0.017
  -0.42857143  0.21428571  0.07142857       0.017
  -0.35714286  0.21428571  0.07142857       0.017
  -0.28571429  0.21428571  0.07142857       0.017
  -0.21428571  0.21428571  0.07142857       0.017
  -0.14285714  0.21428571  0.07142857       0.009
   0.35714286  0.28571429  0.07142857       0.009
   0.42857143  0.28571429  0.07142857       0.017
   0.50000000  0.28571429  0.07142857       0.017
  -0.42857143  0.28571429  0.07142857       0.017
  -0.35714286  0.28571429  0.07142857       0.017
  -0.28571429  0.28571429  0.07142857       0.017
  -0.21428571  0.28571429  0.07142857       0.009
   0.42857143  0.35714286  0.07142857       0.009
   0.50000000  0.35714286  0.07142857       0.017
  -0.42857143  0.35714286  0.07142857       0.017
  -0.35714286  0.35714286  0.07142857       0.017
  -0.28571429  0.35714286  0.07142857       0.009
   0.50000000  0.42857143  0.07142857       0.009
  -0.42857143  0.42857143  0.07142857       0.017
  -0.35714286  0.42857143  0.07142857       0.009
  -0.42857143  0.50000000  0.07142857       0.004
   0.42857143  0.28571429  0.14285714       0.009
   0.50000000  0.28571429  0.14285714       0.017
  -0.42857143  0.28571429  0.14285714       0.017
  -0.35714286  0.28571429  0.14285714       0.009
   0.50000000  0.35714286  0.14285714       0.009
  -0.42857143  0.35714286  0.14285714       0.017
  -0.35714286  0.35714286  0.14285714       0.017
  -0.28571429  0.35714286  0.14285714       0.017
  -0.21428571  0.35714286  0.14285714       0.009
  -0.42857143  0.42857143  0.14285714       0.009
  -0.35714286  0.42857143  0.14285714       0.017
  -0.28571429  0.42857143  0.14285714       0.009
  -0.35714286  0.50000000  0.14285714       0.004
  -0.35714286  0.42857143  0.21428571       0.009
  -0.28571429  0.42857143  0.21428571       0.009
  -0.28571429  0.50000000  0.21428571       0.004

 position of ions in fractional coordinates (direct lattice) 
   0.75000000  0.75000000  0.75000000
   0.50000000  0.50000000  0.50000000

 position of ions in cartesian coordinates  (Angst):
   4.12023171  4.12023171  4.12023171
   2.74682114  2.74682114  2.74682114



--------------------------------------------------------------------------------------------------------


 k-point  1 :   0.0000 0.0000 0.0000  plane waves:    1067
 k-point  2 :   0.0714 0.0000 0.0000  plane waves:    1046
 k-point  3 :   0.1429 0.0000 0.0000  plane waves:    1031
 k-point  4 :   0.2143 0.0000 0.0000  plane waves:    1040
 k-point  5 :   0.2857 0.0000 0.0000  plane waves:    1056
 k-point  6 :   0.3571 0.0000 0.0000  plane waves:    1053
 k-point  7 :   0.4286 0.0000 0.0000  plane waves:    1044
 k-point  8 :   0.5000 0.0000 0.0000  plane waves:    1056
 k-point  9 :   0.0714 0.0714 0.0000  plane waves:    1034
 k-point 10 :   0.1429 0.0714 0.0000  plane waves:    1033
 k-point 11 :   0.2143 0.0714 0.0000  plane waves:    1038
 k-point 12 :   0.2857 0.0714 0.0000  plane waves:    1049
 k-point 13 :   0.3571 0.0714 0.0000  plane waves:    1059
 k-point 14 :   0.4286 0.0714 0.0000  plane waves:    1046
 k-point 15 :   0.5000 0.0714 0.0000  plane waves:    1055
 k-point 16 :  -0.4286 0.0714 0.0000  plane waves:    1051
 k-point 17 :  -0.3571 0.0714 0.0000  plane waves:    1049
 k-point 18 :  -0.2857 0.0714 0.0000  plane waves:    1055
 k-point 19 :  -0.2143 0.0714 0.0000  plane waves:    1051
 k-point 20 :  -0.1429 0.0714 0.0000  plane waves:    1031
 k-point 21 :  -0.0714 0.0714 0.0000  plane waves:    1031
 k-point 22 :   0.1429 0.1429 0.0000  plane waves:    1034
 k-point 23 :   0.2143 0.1429 0.0000  plane waves:    1034
 k-point 24 :   0.2857 0.1429 0.0000  plane waves:    1050
 k-point 25 :   0.3571 0.1429 0.0000  plane waves:    1050
 k-point 26 :   0.4286 0.1429 0.0000  plane waves:    1050
 k-point 27 :   0.5000 0.1429 0.0000  plane waves:    1051
 k-point 28 :  -0.4286 0.1429 0.0000  plane waves:    1060
 k-point 29 :  -0.3571 0.1429 0.0000  plane waves:    1056
 k-point 30 :  -0.2857 0.1429 0.0000  plane waves:    1054
 k-point 31 :  -0.2143 0.1429 0.0000  plane waves:    1055
 k-point 32 :  -0.1429 0.1429 0.0000  plane waves:    1047
 k-point 33 :   0.2143 0.2143 0.0000  plane waves:    1054
 k-point 34 :   0.2857 0.2143 0.0000  plane waves:    1045
 k-point 35 :   0.3571 0.2143 0.0000  plane waves:    1046
 k-point 36 :   0.4286 0.2143 0.0000  plane waves:    1048
 k-point 37 :   0.5000 0.2143 0.0000  plane waves:    1059
 k-point 38 :  -0.4286 0.2143 0.0000  plane waves:    1065
 k-point 39 :  -0.3571 0.2143 0.0000  plane waves:    1058
 k-point 40 :  -0.2857 0.2143 0.0000  plane waves:    1055
 k-point 41 :  -0.2143 0.2143 0.0000  plane waves:    1055
 k-point 42 :   0.2857 0.2857 0.0000  plane waves:    1030
 k-point 43 :   0.3571 0.2857 0.0000  plane waves:    1046
 k-point 44 :   0.4286 0.2857 0.0000  plane waves:    1048
 k-point 45 :   0.5000 0.2857 0.0000  plane waves:    1056
 k-point 46 :  -0.4286 0.2857 0.0000  plane waves:    1046
 k-point 47 :  -0.3571 0.2857 0.0000  plane waves:    1056
 k-point 48 :  -0.2857 0.2857 0.0000  plane waves:    1057
 k-point 49 :   0.3571 0.3571 0.0000  plane waves:    1034
 k-point 50 :   0.4286 0.3571 0.0000  plane waves:    1046
 k-point 51 :   0.5000 0.3571 0.0000  plane waves:    1056
 k-point 52 :  -0.4286 0.3571 0.0000  plane waves:    1052
 k-point 53 :  -0.3571 0.3571 0.0000  plane waves:    1059
 k-point 54 :   0.4286 0.4286 0.0000  plane waves:    1054
 k-point 55 :   0.5000 0.4286 0.0000  plane waves:    1057
 k-point 56 :  -0.4286 0.4286 0.0000  plane waves:    1037
 k-point 57 :   0.5000 0.5000 0.0000  plane waves:    1034
 k-point 58 :   0.2143 0.1429 0.0714  plane waves:    1034
 k-point 59 :   0.2857 0.1429 0.0714  plane waves:    1043
 k-point 60 :   0.3571 0.1429 0.0714  plane waves:    1052
 k-point 61 :   0.4286 0.1429 0.0714  plane waves:    1050
 k-point 62 :   0.5000 0.1429 0.0714  plane waves:    1049
 k-point 63 :  -0.4286 0.1429 0.0714  plane waves:    1058
 k-point 64 :   0.2857 0.2143 0.0714  plane waves:    1044
 k-point 65 :   0.3571 0.2143 0.0714  plane waves:    1051
 k-point 66 :   0.4286 0.2143 0.0714  plane waves:    1057
 k-point 67 :   0.5000 0.2143 0.0714  plane waves:    1057
 k-point 68 :  -0.4286 0.2143 0.0714  plane waves:    1057
 k-point 69 :  -0.3571 0.2143 0.0714  plane waves:    1054
 k-point 70 :  -0.2857 0.2143 0.0714  plane waves:    1056
 k-point 71 :  -0.2143 0.2143 0.0714  plane waves:    1052
 k-point 72 :  -0.1429 0.2143 0.0714  plane waves:    1051
 k-point 73 :   0.3571 0.2857 0.0714  plane waves:    1048
 k-point 74 :   0.4286 0.2857 0.0714  plane waves:    1050
 k-point 75 :   0.5000 0.2857 0.0714  plane waves:    1053
 k-point 76 :  -0.4286 0.2857 0.0714  plane waves:    1058
 k-point 77 :  -0.3571 0.2857 0.0714  plane waves:    1061
 k-point 78 :  -0.2857 0.2857 0.0714  plane waves:    1055
 k-point 79 :  -0.2143 0.2857 0.0714  plane waves:    1046
 k-point 80 :   0.4286 0.3571 0.0714  plane waves:    1050
 k-point 81 :   0.5000 0.3571 0.0714  plane waves:    1056
 k-point 82 :  -0.4286 0.3571 0.0714  plane waves:    1058
 k-point 83 :  -0.3571 0.3571 0.0714  plane waves:    1056
 k-point 84 :  -0.2857 0.3571 0.0714  plane waves:    1055
 k-point 85 :   0.5000 0.4286 0.0714  plane waves:    1057
 k-point 86 :  -0.4286 0.4286 0.0714  plane waves:    1052
 k-point 87 :  -0.3571 0.4286 0.0714  plane waves:    1058
 k-point 88 :  -0.4286 0.5000 0.0714  plane waves:    1056
 k-point 89 :   0.4286 0.2857 0.1429  plane waves:    1048
 k-point 90 :   0.5000 0.2857 0.1429  plane waves:    1053
 k-point 91 :  -0.4286 0.2857 0.1429  plane waves:    1062
 k-point 92 :  -0.3571 0.2857 0.1429  plane waves:    1058
 k-point 93 :   0.5000 0.3571 0.1429  plane waves:    1051
 k-point 94 :  -0.4286 0.3571 0.1429  plane waves:    1054
 k-point 95 :  -0.3571 0.3571 0.1429  plane waves:    1055
 k-point 96 :  -0.2857 0.3571 0.1429  plane waves:    1063
 k-point 97 :  -0.2143 0.3571 0.1429  plane waves:    1054
 k-point 98 :  -0.4286 0.4286 0.1429  plane waves:    1059
 k-point 99 :  -0.3571 0.4286 0.1429  plane waves:    1057
 k-point ** :  -0.2857 0.4286 0.1429  plane waves:    1053
 k-point ** :  -0.3571 0.5000 0.1429  plane waves:    1054
 k-point ** :  -0.3571 0.4286 0.2143  plane waves:    1056
 k-point ** :  -0.2857 0.4286 0.2143  plane waves:    1058
 k-point ** :  -0.2857 0.5000 0.2143  plane waves:    1054

 maximum and minimum number of plane-waves per node :      1067     1030

 maximum number of plane-waves:      1067
 maximum index in each direction: 
   IXMAX=    7   IYMAX=    7   IZMAX=    7
   IXMIN=   -7   IYMIN=   -7   IZMIN=   -7

 WARNING: aliasing errors must be expected set NGX to  30 to avoid them
 WARNING: aliasing errors must be expected set NGY to  30 to avoid them
 WARNING: aliasing errors must be expected set NGZ to  30 to avoid them
 aliasing errors are usually negligible using standard VASP settings
 and one can safely disregard these warnings

 serial   3D FFT for wavefunctions
 parallel 3D FFT for charge:
    minimum data exchange during FFTs selected (reduces bandwidth)


 total amount of memory used by VASP on root node    41009. kBytes
========================================================================

   base      :      30000. kBytes
   nonl-proj :       7169. kBytes
   fftplans  :        517. kBytes
   grid      :       1507. kBytes
   one-center:          6. kBytes
   wavefun   :       1810. kBytes

     INWAV:  cpu time    0.0000: real time    0.0000
 Broyden mixing: mesh for mixing (old mesh)
   NGX = 15   NGY = 15   NGZ = 15
  (NGX  = 56   NGY  = 56   NGZ  = 56)
  gives a total of   3375 points

 initial charge density was supplied:
 charge density of overlapping atoms calculated
 number of electron       8.0000000 magnetization 
 keeping initial charge density in first step


--------------------------------------------------------------------------------------------------------


 Maximum index for augmentation-charges         1417 (set IRDMAX)


--------------------------------------------------------------------------------------------------------


 First call to EWALD:  gamma=   0.512
 Maximum number of real-space cells 3x 3x 3
 Maximum number of reciprocal cells 3x 3x 3

 FEWALD executed in parallel
    FEWALD:  cpu time    0.0000: real time    0.0009


----------------------------------------- Iteration    1(   1)  ---------------------------------------


vdW kernel read from vdw_kernel.bindat
  0.0000  0.2424  0.5071  0.7962  1.1119  1.4567  1.8333  2.2446  2.6937  3.1842
  3.7199  4.3049  4.9438  5.6415  6.4036  7.2358  8.1446  9.1372 10.2212 11.4050
 12.6979 14.1099 15.6519 17.3360 19.1751 21.1837 23.3773 25.7729 28.3892 31.2465
 34.3669 37.7748 41.4965 45.5611 50.0000

    POTLOK:  cpu time    2.1360: real time    2.1363
    SETDIJ:  cpu time    0.0040: real time    0.0027
     EDDAV:  cpu time    1.3720: real time    1.3730
       DOS:  cpu time    0.0000: real time    0.0009
    --------------------------------------------
      LOOP:  cpu time    3.5120: real time    3.5143

 eigenvalue-minimisations  :  3360
 total energy-change (2. order) : 0.3206444E+01  (-0.3533010E+03)
 number of electron       8.0000000 magnetization 
 augmentation part        8.0000000 magnetization 

 Free energy of the ion-electron system (eV)
  ---------------------------------------------------
  alpha Z        PSCENC =         3.24857844
  Ewald energy   TEWEN  =      -225.91568183
  -Hartree energ DENC   =       -11.53197166
  -exchange      EXHF   =         0.00000000
  -V(xc)+E(xc)   XCENC  =       -20.29573795
  PAW double counting   =       189.40224250     -152.61488262
  entropy T*S    EENTRO =        -0.00920061
  eigenvalues    EBANDS =        12.32935958
  atomic energy  EATOM  =       208.59373829
  Solvation  Ediel_sol  =         0.00000000
  ---------------------------------------------------
  free energy    TOTEN  =         3.20644413 eV

  energy without entropy =        3.21564474  energy(sigma->0) =        3.21104444


--------------------------------------------------------------------------------------------------------




----------------------------------------- Iteration    1(   2)  ---------------------------------------


     EDDAV:  cpu time    2.0040: real time    2.0041
       DOS:  cpu time    0.0000: real time    0.0008
    --------------------------------------------
      LOOP:  cpu time    2.0080: real time    2.1266

 eigenvalue-minimisations  :  4816
 total energy-change (2. order) :-0.1153319E+02  (-0.1141840E+02)
 number of electron       8.0000000 magnetization 
 augmentation part        8.0000000 magnetization 

 Free energy of the ion-electron system (eV)
  ---------------------------------------------------
  alpha Z        PSCENC =         3.24857844
  Ewald energy   TEWEN  =      -225.91568183
  -Hartree energ DENC   =       -11.53197166
  -exchange      EXHF   =         0.00000000
  -V(xc)+E(xc)   XCENC  =       -20.29573795
  PAW double counting   =       189.40224250     -152.61488262
  entropy T*S    EENTRO =        -0.00000168
  eigenvalues    EBANDS =         0.78697227
  atomic energy  EATOM  =       208.59373829
  Solvation  Ediel_sol  =         0.00000000
  ---------------------------------------------------
  free energy    TOTEN  =        -8.32674425 eV

  energy without entropy =       -8.32674257  energy(sigma->0) =       -8.32674341


--------------------------------------------------------------------------------------------------------




----------------------------------------- Iteration    1(   3)  ---------------------------------------


     EDDAV:  cpu time    1.4560: real time    1.4535
       DOS:  cpu time    0.0000: real time    0.0008
    --------------------------------------------
      LOOP:  cpu time    1.4560: real time    1.5390

 eigenvalue-minimisations  :  3760
 total energy-change (2. order) :-0.8220685E-01  (-0.8220684E-01)
 number of electron       8.0000000 magnetization 
 augmentation part        8.0000000 magnetization 

 Free energy of the ion-electron system (eV)
  ---------------------------------------------------
  alpha Z        PSCENC =         3.24857844
  Ewald energy   TEWEN  =      -225.91568183
  -Hartree energ DENC   =       -11.53197166
  -exchange      EXHF   =         0.00000000
  -V(xc)+E(xc)   XCENC  =       -20.29573795
  PAW double counting   =       189.40224250     -152.61488262
  entropy T*S    EENTRO =        -0.00000129
  eigenvalues    EBANDS =         0.70476503
  atomic energy  EATOM  =       208.59373829
  Solvation  Ediel_sol  =         0.00000000
  ---------------------------------------------------
  free energy    TOTEN  =        -8.40895110 eV

  energy without entropy =       -8.40894981  energy(sigma->0) =       -8.40895045


--------------------------------------------------------------------------------------------------------




----------------------------------------- Iteration    1(   4)  ---------------------------------------


     EDDAV:  cpu time    2.8800: real time    2.8784
       DOS:  cpu time    0.0000: real time    0.0008
    --------------------------------------------
      LOOP:  cpu time    2.8800: real time    3.1879

 eigenvalue-minimisations  :  6192
 total energy-change (2. order) :-0.2419102E-03  (-0.2419106E-03)
 number of electron       8.0000000 magnetization 
 augmentation part        8.0000000 magnetization 

 Free energy of the ion-electron system (eV)
  ---------------------------------------------------
  alpha Z        PSCENC =         3.24857844
  Ewald energy   TEWEN  =      -225.91568183
  -Hartree energ DENC   =       -11.53197166
  -exchange      EXHF   =         0.00000000
  -V(xc)+E(xc)   XCENC  =       -20.29573795
  PAW double counting   =       189.40224250     -152.61488262
  entropy T*S    EENTRO =        -0.00000129
  eigenvalues    EBANDS =         0.70452312
  atomic energy  EATOM  =       208.59373829
  Solvation  Ediel_sol  =         0.00000000
  ---------------------------------------------------
  free energy    TOTEN  =        -8.40919301 eV

  energy without entropy =       -8.40919172  energy(sigma->0) =       -8.40919236


--------------------------------------------------------------------------------------------------------




----------------------------------------- Iteration    1(   5)  ---------------------------------------


     EDDAV:  cpu time    1.5040: real time    1.5030
       DOS:  cpu time    0.0000: real time    0.0008
    CHARGE:  cpu time    0.0960: real time    0.0961
    MIXING:  cpu time    0.0000: real time    0.0005
    --------------------------------------------
      LOOP:  cpu time    1.6000: real time    1.8629

 eigenvalue-minimisations  :  3696
 total energy-change (2. order) :-0.1474203E-07  (-0.1420803E-07)
 number of electron       7.9999999 magnetization 
 augmentation part       -0.4824962 magnetization 

 Broyden mixing:
  rms(total) = 0.36706E+00    rms(broyden)= 0.36706E+00
  rms(prec ) = 0.88303E+00
  weight for this iteration     100.00

 Free energy of the ion-electron system (eV)
  ---------------------------------------------------
  alpha Z        PSCENC =         3.24857844
  Ewald energy   TEWEN  =      -225.91568183
  -Hartree energ DENC   =       -11.53197166
  -exchange      EXHF   =         0.00000000
  -V(xc)+E(xc)   XCENC  =       -20.29573795
  PAW double counting   =       189.40224250     -152.61488262
  entropy T*S    EENTRO =        -0.00000129
  eigenvalues    EBANDS =         0.70452311
  atomic energy  EATOM  =       208.59373829
  Solvation  Ediel_sol  =         0.00000000
  ---------------------------------------------------
  free energy    TOTEN  =        -8.40919302 eV

  energy without entropy =       -8.40919173  energy(sigma->0) =       -8.40919238


--------------------------------------------------------------------------------------------------------




----------------------------------------- Iteration    1(   6)  ---------------------------------------


    POTLOK:  cpu time    1.6280: real time    1.6274
    SETDIJ:  cpu time    0.0040: real time    0.0026
     EDDAV:  cpu time    1.8800: real time    1.8814
       DOS:  cpu time    0.0040: real time    0.0009
    CHARGE:  cpu time    0.0680: real time    0.0708
    MIXING:  cpu time    0.0040: real time    0.0005
    --------------------------------------------
      LOOP:  cpu time    3.5880: real time    3.6583

 eigenvalue-minimisations  :  4880
 total energy-change (2. order) : 0.4945960E-01  (-0.8473120E-02)
 number of electron       7.9999999 magnetization 
 augmentation part       -0.4758178 magnetization 

 Broyden mixing:
  rms(total) = 0.22446E+00    rms(broyden)= 0.22446E+00
  rms(prec ) = 0.53319E+00
  weight for this iteration     100.00

 eigenvalues of (default mixing * dielectric matrix)
  average eigenvalue GAMMA=   2.5571
  2.5571

 Free energy of the ion-electron system (eV)
  ---------------------------------------------------
  alpha Z        PSCENC =         3.24857844
  Ewald energy   TEWEN  =      -225.91568183
  -Hartree energ DENC   =       -13.05561264
  -exchange      EXHF   =         0.00000000
  -V(xc)+E(xc)   XCENC  =       -20.06112836
  PAW double counting   =       304.67697012     -268.01749238
  entropy T*S    EENTRO =        -0.00000549
  eigenvalues    EBANDS =         2.17090043
  atomic energy  EATOM  =       208.59373829
  Solvation  Ediel_sol  =         0.00000000
  ---------------------------------------------------
  free energy    TOTEN  =        -8.35973342 eV

  energy without entropy =       -8.35972793  energy(sigma->0) =       -8.35973068


--------------------------------------------------------------------------------------------------------




----------------------------------------- Iteration    1(   7)  ---------------------------------------


    POTLOK:  cpu time    1.6040: real time    1.6037
    SETDIJ:  cpu time    0.0000: real time    0.0020
     EDDAV:  cpu time    2.1360: real time    2.1335
       DOS:  cpu time    0.0000: real time    0.0010
    CHARGE:  cpu time    0.0920: real time    0.0912
    MIXING:  cpu time    0.0000: real time    0.0005
    --------------------------------------------
      LOOP:  cpu time    3.8320: real time    4.1565

 eigenvalue-minimisations  :  5136
 total energy-change (2. order) : 0.5823499E-02  (-0.1936270E-01)
 number of electron       7.9999999 magnetization 
 augmentation part       -0.4668899 magnetization 

 Broyden mixing:
  rms(total) = 0.18562E-01    rms(broyden)= 0.18562E-01
  rms(prec ) = 0.47432E-01
  weight for this iteration     100.00

 eigenvalues of (default mixing * dielectric matrix)
  average eigenvalue GAMMA=   2.3157
  2.3157  2.3157

 Free energy of the ion-electron system (eV)
  ---------------------------------------------------
  alpha Z        PSCENC =         3.24857844
  Ewald energy   TEWEN  =      -225.91568183
  -Hartree energ DENC   =       -15.63082930
  -exchange      EXHF   =         0.00000000
  -V(xc)+E(xc)   XCENC  =       -19.64194734
  PAW double counting   =       542.10369922     -505.60912054
  entropy T*S    EENTRO =        -0.00003896
  eigenvalues    EBANDS =         4.49769210
  atomic energy  EATOM  =       208.59373829
  Solvation  Ediel_sol  =         0.00000000
  ---------------------------------------------------
  free energy    TOTEN  =        -8.35390992 eV

  energy without entropy =       -8.35387097  energy(sigma->0) =       -8.35389044


--------------------------------------------------------------------------------------------------------




----------------------------------------- Iteration    1(   8)  ---------------------------------------


    POTLOK:  cpu time    1.5920: real time    1.5898
    SETDIJ:  cpu time    0.0000: real time    0.0026
     EDDAV:  cpu time    1.6520: real time    1.6491
       DOS:  cpu time    0.0000: real time    0.0010
    CHARGE:  cpu time    0.0920: real time    0.0938
    MIXING:  cpu time    0.0040: real time    0.0005
    --------------------------------------------
      LOOP:  cpu time    3.3400: real time    3.3925

 eigenvalue-minimisations  :  3952
 total energy-change (2. order) : 0.1640595E-01  (-0.4946518E-03)
 number of electron       7.9999999 magnetization 
 augmentation part       -0.4681908 magnetization 

 Broyden mixing:
  rms(total) = 0.95337E-02    rms(broyden)= 0.95337E-02
  rms(prec ) = 0.23529E-01
  weight for this iteration     100.00

 eigenvalues of (default mixing * dielectric matrix)
  average eigenvalue GAMMA=   2.2057
  3.1188  1.7492  1.7492

 Free energy of the ion-electron system (eV)
  ---------------------------------------------------
  alpha Z        PSCENC =         3.24857844
  Ewald energy   TEWEN  =      -225.91568183
  -Hartree energ DENC   =       -15.40739576
  -exchange      EXHF   =         0.00000000
  -V(xc)+E(xc)   XCENC  =       -19.65715684
  PAW double counting   =       520.46712141     -483.90929116
  entropy T*S    EENTRO =        -0.00002738
  eigenvalues    EBANDS =         4.24261087
  atomic energy  EATOM  =       208.59373829
  Solvation  Ediel_sol  =         0.00000000
  ---------------------------------------------------
  free energy    TOTEN  =        -8.33750397 eV

  energy without entropy =       -8.33747659  energy(sigma->0) =       -8.33749028


--------------------------------------------------------------------------------------------------------




----------------------------------------- Iteration    1(   9)  ---------------------------------------


    POTLOK:  cpu time    1.6080: real time    1.6093
    SETDIJ:  cpu time    0.0040: real time    0.0027
     EDDAV:  cpu time    2.0320: real time    2.0300
       DOS:  cpu time    0.0000: real time    0.0009
    CHARGE:  cpu time    0.0880: real time    0.0885
    MIXING:  cpu time    0.0000: real time    0.0006
    --------------------------------------------
      LOOP:  cpu time    3.7320: real time    3.9830

 eigenvalue-minimisations  :  5120
 total energy-change (2. order) :-0.1118894E-02  (-0.5537924E-04)
 number of electron       7.9999999 magnetization 
 augmentation part       -0.4678664 magnetization 

 Broyden mixing:
  rms(total) = 0.52529E-02    rms(broyden)= 0.52529E-02
  rms(prec ) = 0.68779E-02
  weight for this iteration     100.00

 eigenvalues of (default mixing * dielectric matrix)
  average eigenvalue GAMMA=   2.2408
  0.9624  2.9847  2.5684  2.4475

 Free energy of the ion-electron system (eV)
  ---------------------------------------------------
  alpha Z        PSCENC =         3.24857844
  Ewald energy   TEWEN  =      -225.91568183
  -Hartree energ DENC   =       -15.55105287
  -exchange      EXHF   =         0.00000000
  -V(xc)+E(xc)   XCENC  =       -19.63286072
  PAW double counting   =       530.48845131     -493.93756120
  entropy T*S    EENTRO =        -0.00002981
  eigenvalues    EBANDS =         4.36779553
  atomic energy  EATOM  =       208.59373829
  Solvation  Ediel_sol  =         0.00000000
  ---------------------------------------------------
  free energy    TOTEN  =        -8.33862287 eV

  energy without entropy =       -8.33859305  energy(sigma->0) =       -8.33860796


--------------------------------------------------------------------------------------------------------




----------------------------------------- Iteration    1(  10)  ---------------------------------------


    POTLOK:  cpu time    1.6200: real time    1.6186
    SETDIJ:  cpu time    0.0000: real time    0.0020
     EDDAV:  cpu time    2.0160: real time    2.0157
       DOS:  cpu time    0.0040: real time    0.0010
    CHARGE:  cpu time    0.0880: real time    0.0880
    MIXING:  cpu time    0.0000: real time    0.0006
    --------------------------------------------
      LOOP:  cpu time    3.7280: real time    3.8267

 eigenvalue-minimisations  :  4288
 total energy-change (2. order) :-0.1464222E-04  (-0.2331040E-05)
 number of electron       7.9999999 magnetization 
 augmentation part       -0.4678874 magnetization 

 Broyden mixing:
  rms(total) = 0.10527E-02    rms(broyden)= 0.10527E-02
  rms(prec ) = 0.11679E-02
  weight for this iteration     100.00

 eigenvalues of (default mixing * dielectric matrix)
  average eigenvalue GAMMA=   1.8886
  2.9236  2.5010  2.2628  0.9673  0.7881

 Free energy of the ion-electron system (eV)
  ---------------------------------------------------
  alpha Z        PSCENC =         3.24857844
  Ewald energy   TEWEN  =      -225.91568183
  -Hartree energ DENC   =       -15.53137973
  -exchange      EXHF   =         0.00000000
  -V(xc)+E(xc)   XCENC  =       -19.63700307
  PAW double counting   =       521.86397079     -485.31247883
  entropy T*S    EENTRO =        -0.00002923
  eigenvalues    EBANDS =         4.35164767
  atomic energy  EATOM  =       208.59373829
  Solvation  Ediel_sol  =         0.00000000
  ---------------------------------------------------
  free energy    TOTEN  =        -8.33863751 eV

  energy without entropy =       -8.33860828  energy(sigma->0) =       -8.33862290


--------------------------------------------------------------------------------------------------------




----------------------------------------- Iteration    1(  11)  ---------------------------------------


    POTLOK:  cpu time    1.6200: real time    1.6203
    SETDIJ:  cpu time    0.0040: real time    0.0027
     EDDAV:  cpu time    2.8440: real time    2.8453
       DOS:  cpu time    0.0040: real time    0.0010
    CHARGE:  cpu time    0.0600: real time    0.0625
    MIXING:  cpu time    0.0000: real time    0.0006
    --------------------------------------------
      LOOP:  cpu time    4.5320: real time    4.6332

 eigenvalue-minimisations  :  5488
 total energy-change (2. order) : 0.1812167E-03  (-0.3006518E-07)
 number of electron       7.9999999 magnetization 
 augmentation part       -0.4679007 magnetization 

 Broyden mixing:
  rms(total) = 0.18872E-03    rms(broyden)= 0.18872E-03
  rms(prec ) = 0.23888E-03
  weight for this iteration     100.00

 eigenvalues of (default mixing * dielectric matrix)
  average eigenvalue GAMMA=   1.9953
  2.9160  2.4436  2.4436  2.2145  1.0086  0.9454

 Free energy of the ion-electron system (eV)
  ---------------------------------------------------
  alpha Z        PSCENC =         3.24857844
  Ewald energy   TEWEN  =      -225.91568183
  -Hartree energ DENC   =       -15.53144304
  -exchange      EXHF   =         0.00000000
  -V(xc)+E(xc)   XCENC  =       -19.63665257
  PAW double counting   =       522.94524215     -486.39315180
  entropy T*S    EENTRO =        -0.00002918
  eigenvalues    EBANDS =         4.35094326
  atomic energy  EATOM  =       208.59373829
  Solvation  Ediel_sol  =         0.00000000
  ---------------------------------------------------
  free energy    TOTEN  =        -8.33845629 eV

  energy without entropy =       -8.33842711  energy(sigma->0) =       -8.33844170


--------------------------------------------------------------------------------------------------------




----------------------------------------- Iteration    1(  12)  ---------------------------------------


    POTLOK:  cpu time    1.6160: real time    1.6167
    SETDIJ:  cpu time    0.0000: real time    0.0026
     EDDAV:  cpu time    2.0160: real time    2.0126
       DOS:  cpu time    0.0000: real time    0.0010
    CHARGE:  cpu time    0.0880: real time    0.0882
    MIXING:  cpu time    0.0000: real time    0.0005
    --------------------------------------------
      LOOP:  cpu time    3.7240: real time    4.0047

 eigenvalue-minimisations  :  4352
 total energy-change (2. order) : 0.1043837E-04  (-0.6880072E-08)
 number of electron       7.9999999 magnetization 
 augmentation part       -0.4679010 magnetization 

 Broyden mixing:
  rms(total) = 0.46042E-04    rms(broyden)= 0.46042E-04
  rms(prec ) = 0.74684E-04
  weight for this iteration     100.00

 eigenvalues of (default mixing * dielectric matrix)
  average eigenvalue GAMMA=   1.9357
  3.0256  2.7903  2.4416  2.2089  0.9680  1.0174  1.0979

 Free energy of the ion-electron system (eV)
  ---------------------------------------------------
  alpha Z        PSCENC =         3.24857844
  Ewald energy   TEWEN  =      -225.91568183
  -Hartree energ DENC   =       -15.53173498
  -exchange      EXHF   =         0.00000000
  -V(xc)+E(xc)   XCENC  =       -19.63661487
  PAW double counting   =       523.28941093     -486.73727982
  entropy T*S    EENTRO =        -0.00002917
  eigenvalues    EBANDS =         4.35116717
  atomic energy  EATOM  =       208.59373829
  Solvation  Ediel_sol  =         0.00000000
  ---------------------------------------------------
  free energy    TOTEN  =        -8.33844585 eV

  energy without entropy =       -8.33841669  energy(sigma->0) =       -8.33843127


--------------------------------------------------------------------------------------------------------




----------------------------------------- Iteration    1(  13)  ---------------------------------------


    POTLOK:  cpu time    1.6080: real time    1.6061
    SETDIJ:  cpu time    0.0000: real time    0.0020
     EDDAV:  cpu time    1.8480: real time    1.8466
       DOS:  cpu time    0.0000: real time    0.0009
    CHARGE:  cpu time    0.0680: real time    0.0672
    MIXING:  cpu time    0.0000: real time    0.0006
    --------------------------------------------
      LOOP:  cpu time    3.5240: real time    3.5397

 eigenvalue-minimisations  :  3808
 total energy-change (2. order) : 0.2159766E-05  (-0.5210423E-09)
 number of electron       7.9999999 magnetization 
 augmentation part       -0.4679017 magnetization 

 Broyden mixing:
  rms(total) = 0.70588E-05    rms(broyden)= 0.70588E-05
  rms(prec ) = 0.86698E-05
  weight for this iteration     100.00

 eigenvalues of (default mixing * dielectric matrix)
  average eigenvalue GAMMA=   2.0496
  3.0429  3.0429  2.5849  2.5849  2.1948  1.0044  0.9844  0.9579

 Free energy of the ion-electron system (eV)
  ---------------------------------------------------
  alpha Z        PSCENC =         3.24857844
  Ewald energy   TEWEN  =      -225.91568183
  -Hartree energ DENC   =       -15.53149256
  -exchange      EXHF   =         0.00000000
  -V(xc)+E(xc)   XCENC  =       -19.63666472
  PAW double counting   =       523.23196183     -486.67981507
  entropy T*S    EENTRO =        -0.00002916
  eigenvalues    EBANDS =         4.35096109
  atomic energy  EATOM  =       208.59373829
  Solvation  Ediel_sol  =         0.00000000
  ---------------------------------------------------
  free energy    TOTEN  =        -8.33844369 eV

  energy without entropy =       -8.33841453  energy(sigma->0) =       -8.33842911


--------------------------------------------------------------------------------------------------------




----------------------------------------- Iteration    1(  14)  ---------------------------------------


    POTLOK:  cpu time    1.6160: real time    1.6179
    SETDIJ:  cpu time    0.0040: real time    0.0024
     EDDAV:  cpu time    1.0040: real time    1.0049
       DOS:  cpu time    0.0000: real time    0.0010
    CHARGE:  cpu time    0.0960: real time    0.0946
    MIXING:  cpu time    0.0000: real time    0.0006
    --------------------------------------------
      LOOP:  cpu time    2.7240: real time    3.0273

 eigenvalue-minimisations  :  2448
 total energy-change (2. order) :-0.2405414E-06  (-0.1772985E-10)
 number of electron       7.9999999 magnetization 
 augmentation part       -0.4679016 magnetization 

 Broyden mixing:
  rms(total) = 0.47956E-06    rms(broyden)= 0.47956E-06
  rms(prec ) = 0.10253E-05
  weight for this iteration     100.00

 eigenvalues of (default mixing * dielectric matrix)
  average eigenvalue GAMMA=   1.9082
  3.0484  2.8525  2.6263  2.4441  2.1858  1.0866  0.9695  0.9804  0.9804

 Free energy of the ion-electron system (eV)
  ---------------------------------------------------
  alpha Z        PSCENC =         3.24857844
  Ewald energy   TEWEN  =      -225.91568183
  -Hartree energ DENC   =       -15.53152429
  -exchange      EXHF   =         0.00000000
  -V(xc)+E(xc)   XCENC  =       -19.63666064
  PAW double counting   =       523.22285517     -486.67071088
  entropy T*S    EENTRO =        -0.00002916
  eigenvalues    EBANDS =         4.35099097
  atomic energy  EATOM  =       208.59373829
  Solvation  Ediel_sol  =         0.00000000
  ---------------------------------------------------
  free energy    TOTEN  =        -8.33844393 eV

  energy without entropy =       -8.33841477  energy(sigma->0) =       -8.33842935


--------------------------------------------------------------------------------------------------------




----------------------------------------- Iteration    1(  15)  ---------------------------------------


    POTLOK:  cpu time    1.6120: real time    1.6116
    SETDIJ:  cpu time    0.0040: real time    0.0026
     EDDAV:  cpu time    0.9560: real time    0.9548
       DOS:  cpu time    0.0000: real time    0.0010
    CHARGE:  cpu time    0.0880: real time    0.0887
    MIXING:  cpu time    0.0000: real time    0.0007
    --------------------------------------------
      LOOP:  cpu time    2.6600: real time    2.7253

 eigenvalue-minimisations  :  2288
 total energy-change (2. order) : 0.2502210E-06  (-0.6225222E-12)
 number of electron       7.9999999 magnetization 
 augmentation part       -0.4679016 magnetization 

 Broyden mixing:
  rms(total) = 0.25945E-06    rms(broyden)= 0.25945E-06
  rms(prec ) = 0.32376E-06
  weight for this iteration     100.00

 eigenvalues of (default mixing * dielectric matrix)
  average eigenvalue GAMMA=   1.9533
  3.1305  3.0166  2.7125  2.4344  2.1995  2.0841  1.0450  0.9841  0.9841  0.9419

 Free energy of the ion-electron system (eV)
  ---------------------------------------------------
  alpha Z        PSCENC =         3.24857844
  Ewald energy   TEWEN  =      -225.91568183
  -Hartree energ DENC   =       -15.53152013
  -exchange      EXHF   =         0.00000000
  -V(xc)+E(xc)   XCENC  =       -19.63666106
  PAW double counting   =       523.22365462     -486.67150938
  entropy T*S    EENTRO =        -0.00002916
  eigenvalues    EBANDS =         4.35098652
  atomic energy  EATOM  =       208.59373829
  Solvation  Ediel_sol  =         0.00000000
  ---------------------------------------------------
  free energy    TOTEN  =        -8.33844368 eV

  energy without entropy =       -8.33841452  energy(sigma->0) =       -8.33842910


--------------------------------------------------------------------------------------------------------




----------------------------------------- Iteration    1(  16)  ---------------------------------------


    POTLOK:  cpu time    1.6200: real time    1.6171
    SETDIJ:  cpu time    0.0040: real time    0.0025
     EDDAV:  cpu time    0.9440: real time    0.9461
       DOS:  cpu time    0.0000: real time    0.0009
    --------------------------------------------
      LOOP:  cpu time    2.5680: real time    2.8460

 eigenvalue-minimisations  :  2112
 total energy-change (2. order) : 0.7857807E-08  (-0.6997676E-13)
 number of electron       7.9999999 magnetization 
 augmentation part       -0.4679016 magnetization 

 Free energy of the ion-electron system (eV)
  ---------------------------------------------------
  alpha Z        PSCENC =         3.24857844
  Ewald energy   TEWEN  =      -225.91568183
  -Hartree energ DENC   =       -15.53151995
  -exchange      EXHF   =         0.00000000
  -V(xc)+E(xc)   XCENC  =       -19.63666115
  PAW double counting   =       523.22353568     -486.67139043
  entropy T*S    EENTRO =        -0.00002916
  eigenvalues    EBANDS =         4.35098645
  atomic energy  EATOM  =       208.59373829
  Solvation  Ediel_sol  =         0.00000000
  ---------------------------------------------------
  free energy    TOTEN  =        -8.33844368 eV

  energy without entropy =       -8.33841452  energy(sigma->0) =       -8.33842910


[...]
     10      13.8798      0.00000
     11      19.5270      0.00000
     12      19.9612      0.00000
     13      20.0066      0.00000
     14      21.7432      0.00000
     15      21.8227      0.00000
     16      22.5360      0.00000

 k-point    85 :       0.5000    0.4286    0.0714
  band No.  band energies     occupation 
      1      -3.1446      2.00000
      2      -1.0843      2.00000
      3       2.5459      2.00000
      4       2.6687      2.00000
      5       6.6297      0.00000
      6       7.0872      0.00000
      7      13.2615      0.00000
      8      14.3282      0.00000
      9      15.9985      0.00000
     10      16.6203      0.00000
     11      17.3283      0.00000
     12      18.0273      0.00000
     13      19.1363      0.00000
     14      20.4678      0.00000
     15      21.5426      0.00000
     16      22.8385      0.00000

 k-point    86 :      -0.4286    0.4286    0.0714
  band No.  band energies     occupation 
      1      -2.6206      2.00000
      2      -1.6171      2.00000
      3       2.0342      2.00000
      4       2.6475      2.00000
      5       6.8786      0.00000
      6       7.7485      0.00000
      7      13.0218      0.00000
      8      14.2171      0.00000
      9      14.8600      0.00000
     10      16.2113      0.00000
     11      17.7117      0.00000
     12      19.0721      0.00000
     13      19.6037      0.00000
     14      20.8847      0.00000
     15      21.6781      0.00000
     16      23.4344      0.00000

 k-point    87 :      -0.3571    0.4286    0.0714
  band No.  band energies     occupation 
      1      -2.4129      2.00000
      2      -1.7812      2.00000
      3       1.5576      2.00000
      4       2.7901      2.00000
      5       7.0527      0.00000
      6       8.9561      0.00000
      7      12.6192      0.00000
      8      12.9711      0.00000
      9      14.4163      0.00000
     10      15.1644      0.00000
     11      18.6865      0.00000
     12      19.6626      0.00000
     13      20.6706      0.00000
     14      21.5594      0.00000
     15      21.6214      0.00000
     16      22.0812      0.00000

 k-point    88 :      -0.4286    0.5000    0.0714
  band No.  band energies     occupation 
      1      -2.1568      2.00000
      2      -2.1568      2.00000
      3       2.5171      2.00000
      4       2.5171      2.00000
      5       6.7464      0.00000
      6       6.7464      0.00000
      7      14.4893      0.00000
      8      14.4893      0.00000
      9      15.9025      0.00000
     10      15.9025      0.00000
     11      18.0371      0.00000
     12      18.0371      0.00000
     13      19.3039      0.00000
     14      19.3039      0.00000
     15      23.3144      0.00000
     16      23.3144      0.00000

 k-point    89 :       0.4286    0.2857    0.1429
  band No.  band energies     occupation 
      1      -4.5316      2.00000
      2       0.6552      2.00000
      3       2.4974      2.00000
      4       3.7596      2.00000
      5       8.0868      0.00000
      6       9.3159      0.00000
      7       9.5964      0.00000
      8      11.5197      0.00000
      9      13.6221      0.00000
     10      16.2792      0.00000
     11      16.6190      0.00000
     12      17.9304      0.00000
     13      19.0295      0.00000
     14      20.7772      0.00000
     15      20.8715      0.00000
     16      23.7080      0.00000

 k-point    90 :       0.5000    0.2857    0.1429
  band No.  band energies     occupation 
      1      -4.0316      2.00000
      2      -0.1063      2.00000
      3       2.1135      2.00000
      4       3.4692      2.00000
      5       8.4263      0.00000
      6       9.2657      0.00000
      7       9.8391      0.00000
      8      11.8964      0.00000
      9      14.2452      0.00000
     10      15.1410      0.00000
     11      17.8831      0.00000
     12      18.2255      0.00000
     13      19.5760      0.00000
     14      20.0829      0.00000
     15      22.1626      0.00000
     16      23.2935      0.00000

 k-point    91 :      -0.4286    0.2857    0.1429
  band No.  band energies     occupation 
      1      -3.5296      2.00000
      2      -0.8183      2.00000
      3       1.9362      2.00000
      4       3.2514      2.00000
      5       8.5657      0.00000
      6       8.9623      0.00000
      7      10.9016      0.00000
      8      11.9741      0.00000
      9      13.6915      0.00000
     10      15.3101      0.00000
     11      17.5400      0.00000
     12      18.6788      0.00000
     13      19.7596      0.00000
     14      21.2672      0.00000
     15      22.6054      0.00000
     16      23.4140      0.00000

 k-point    92 :      -0.3571    0.2857    0.1429
  band No.  band energies     occupation 
      1      -3.2736      2.00000
      2      -1.1524      2.00000
      3       1.8863      2.00000
      4       3.1716      2.00000
      5       8.7192      0.00000
      6       8.7322      0.00000
      7      11.9524      0.00000
      8      12.0979      0.00000
      9      12.3957      0.00000
     10      16.1892      0.00000
     11      17.0578      0.00000
     12      18.1132      0.00000
     13      21.0566      0.00000
     14      21.3959      0.00000
     15      22.6319      0.00000
     16      23.4068      0.00000

 k-point    93 :       0.5000    0.3571    0.1429
  band No.  band energies     occupation 
      1      -3.8251      2.00000
      2      -0.2297      2.00000
      3       2.1702      2.00000
      4       2.9965      2.00000
      5       7.8339      0.00000
      6       8.6191      0.00000
      7      10.4778      0.00000
      8      12.9362      0.00000
      9      15.0114      0.00000
     10      15.3845      0.00000
     11      18.1405      0.00000
     12      18.6956      0.00000
     13      19.3960      0.00000
     14      19.8129      0.00000
     15      21.8072      0.00000
     16      22.6561      0.00000

 k-point    94 :      -0.4286    0.3571    0.1429
  band No.  band energies     occupation 
      1      -3.3067      2.00000
      2      -0.8451      2.00000
      3       1.8171      2.00000
      4       2.7558      2.00000
      5       8.1643      0.00000
      6       9.3191      0.00000
      7      10.1965      0.00000
      8      13.3156      0.00000
      9      13.8510      0.00000
     10      15.7880      0.00000
     11      17.9876      0.00000
     12      19.2996      0.00000
     13      19.9799      0.00000
     14      20.3288      0.00000
     15      22.1499      0.00000
     16      23.5124      0.00000

 k-point    95 :      -0.3571    0.3571    0.1429
  band No.  band energies     occupation 
      1      -2.9229      2.00000
      2      -1.2761      2.00000
      3       1.5795      2.00000
      4       2.7062      2.00000
      5       8.3354      0.00000
      6       9.8193      0.00000
      7      10.6538      0.00000
      8      12.3372      0.00000
      9      13.3713      0.00000
     10      16.3947      0.00000
     11      17.3426      0.00000
     12      19.2551      0.00000
     13      20.9083      0.00000
     14      21.5494      0.00000
     15      22.7363      0.00000
     16      23.4126      0.00000

 k-point    96 :      -0.2857    0.3571    0.1429
  band No.  band energies     occupation 
      1      -3.0494      2.00000
      2      -1.1328      2.00000
      3       1.4979      2.00000
      4       2.8422      2.00000
      5       8.5765      0.00000
      6       9.6316      0.00000
      7      10.9219      0.00000
      8      12.1085      0.00000
      9      13.2626      0.00000
     10      15.3041      0.00000
     11      18.4443      0.00000
     12      19.3014      0.00000
     13      20.7068      0.00000
     14      21.5738      0.00000
     15      22.0204      0.00000
     16      23.2276      0.00000

 k-point    97 :      -0.2143    0.3571    0.1429
  band No.  band energies     occupation 
      1      -3.5259      2.00000
      2      -0.6130      2.00000
      3       1.6502      2.00000
      4       3.1192      2.00000
      5       8.8997      0.00000
      6       9.2567      0.00000
      7       9.9947      0.00000
      8      12.8231      0.00000
      9      13.6398      0.00000
     10      14.4503      0.00000
     11      19.0124      0.00000
     12      19.4881      0.00000
     13      19.5498      0.00000
     14      20.2626      0.00000
     15      21.9766      0.00000
     16      23.6955      0.00000

 k-point    98 :      -0.4286    0.4286    0.1429
  band No.  band energies     occupation 
      1      -3.0016      2.00000
      2      -1.1546      2.00000
      3       2.0340      2.00000
      4       2.4312      2.00000
      5       7.7372      0.00000
      6       8.1114      0.00000
      7      11.5435      0.00000
      8      13.9864      0.00000
      9      14.4668      0.00000
     10      16.3249      0.00000
     11      17.7130      0.00000
     12      19.2781      0.00000
     13      19.7446      0.00000
     14      20.7918      0.00000
     15      22.0137      0.00000
     16      22.7063      0.00000

 k-point    99 :      -0.3571    0.4286    0.1429
  band No.  band energies     occupation 
      1      -2.5311      2.00000
      2      -1.6071      2.00000
      3       1.6804      2.00000
      4       2.3408      2.00000
      5       8.0238      0.00000
      6       9.0878      0.00000
      7      11.2630      0.00000
      8      12.4991      0.00000
      9      14.7460      0.00000
     10      16.3120      0.00000
     11      17.6591      0.00000
     12      19.2756      0.00000
     13      20.8642      0.00000
     14      21.5585      0.00000
     15      22.4484      0.00000
     16      23.2176      0.00000

 k-point   100 :      -0.2857    0.4286    0.1429
  band No.  band energies     occupation 
      1      -2.5863      2.00000
      2      -1.5360      2.00000
      3       1.4282      2.00000
      4       2.5184      2.00000
      5       8.2539      0.00000
      6      10.3138      0.00000
      7      11.0433      0.00000
      8      11.2017      0.00000
      9      14.3773      0.00000
     10      15.5421      0.00000
     11      18.4080      0.00000
     12      19.6905      0.00000
     13      20.6075      0.00000
     14      21.7010      0.00000
     15      22.7291      0.00000
     16      23.5464      0.00000

 k-point   101 :      -0.3571    0.5000    0.1429
  band No.  band energies     occupation 
      1      -2.0954      2.00000
      2      -2.0954      2.00000
      3       2.1130      2.00000
      4       2.1130      2.00000
      5       7.8228      0.00000
      6       7.8228      0.00000
      7      12.7394      0.00000
      8      12.7394      0.00000
      9      15.8386      0.00000
     10      15.8386      0.00000
     11      18.1453      0.00000
     12      18.1453      0.00000
     13      21.1770      0.00000
     14      21.1770      0.00000
     15      22.4966      0.00000
     16      22.4966      0.00000

 k-point   102 :      -0.3571    0.4286    0.2143
  band No.  band energies     occupation 
      1      -2.7984      2.00000
      2      -1.3089      2.00000
      3       1.6096      2.00000
      4       2.3592      2.00000
      5       9.1634      0.00000
      6       9.3822      0.00000
      7       9.9708      0.00000
      8      12.2555      0.00000
      9      14.3800      0.00000
     10      15.9526      0.00000
     11      18.0844      0.00000
     12      19.4891      0.00000
     13      20.3679      0.00000
     14      21.7468      0.00000
     15      21.8559      0.00000
     16      23.8790      0.00000

 k-point   103 :      -0.2857    0.4286    0.2143
  band No.  band energies     occupation 
      1      -2.4867      2.00000
      2      -1.6069      2.00000
      3       1.5585      2.00000
      4       2.1983      2.00000
      5       9.3411      0.00000
      6       9.6268      0.00000
      7      10.5855      0.00000
      8      10.9690      0.00000
      9      14.7434      0.00000
     10      16.3664      0.00000
     11      17.6324      0.00000
     12      19.3410      0.00000
     13      20.7202      0.00000
     14      22.3459      0.00000
     15      22.9176      0.00000
     16      23.5291      0.00000

 k-point   104 :      -0.2857    0.5000    0.2143
  band No.  band energies     occupation 
      1      -2.0426      2.00000
      2      -2.0426      2.00000
      3       1.8395      2.00000
      4       1.8395      2.00000
      5       9.2205      0.00000
      6       9.2205      0.00000
      7      10.9942      0.00000
      8      10.9942      0.00000
      9      15.8388      0.00000
     10      15.8388      0.00000
     11      18.2408      0.00000
     12      18.2408      0.00000
     13      21.7846      0.00000
     14      21.7846      0.00000
     15      23.3093      0.00000
     16      23.3093      0.00000


--------------------------------------------------------------------------------------------------------


 soft charge-density along one line, spin component           1
         0         1         2         3         4         5         6         7         8         9
 total charge-density along one line

 pseudopotential strength for first ion, spin component:           1
 18.546  25.870  -0.000  -0.000  -0.000  -0.000  -0.000  -0.000
 25.870  36.092  -0.000  -0.000  -0.000  -0.000  -0.000  -0.000
 -0.000  -0.000   4.200  -0.000  -0.000   7.819  -0.000  -0.000
 -0.000  -0.000  -0.000   4.200  -0.000  -0.000   7.819  -0.000
 -0.000  -0.000  -0.000  -0.000   4.200  -0.000  -0.000   7.819
 -0.000  -0.000   7.819  -0.000  -0.000  14.567  -0.000  -0.000
 -0.000  -0.000  -0.000   7.819  -0.000  -0.000  14.567  -0.000
 -0.000  -0.000  -0.000  -0.000   7.819  -0.000  -0.000  14.567
 total augmentation occupancy for first ion, spin component:           1
  3.174  -0.925   0.000  -0.000  -0.000   0.000  -0.000   0.000
 -0.925   0.476   0.000  -0.000  -0.000   0.000   0.000   0.000
  0.000   0.000   2.219   0.000   0.000  -0.395  -0.000   0.000
 -0.000  -0.000   0.000   2.219   0.000  -0.000  -0.395   0.000
 -0.000  -0.000   0.000   0.000   2.219  -0.000   0.000  -0.395
  0.000   0.000  -0.395  -0.000   0.000   0.081   0.000   0.000
  0.000  -0.000  -0.000  -0.395  -0.000  -0.000   0.081   0.000
  0.000   0.000   0.000  -0.000  -0.395   0.000  -0.000   0.081


------------------------ aborting loop because EDIFF is reached ----------------------------------------


    CHARGE:  cpu time    0.0920: real time    0.0921
    FORLOC:  cpu time    0.0000: real time    0.0005
    FORNL :  cpu time    0.1440: real time    0.1447
    STRESS:  cpu time    1.5000: real time    1.5000
    FORCOR:  cpu time    1.6200: real time    1.6202
    FORHAR:  cpu time    0.0040: real time    0.0041
    MIXING:  cpu time    0.0000: real time    0.0007
    OFIELD:  cpu time    0.0000: real time    0.0000

  FORCE on cell =-STRESS in cart. coord.  units (eV):
  Direction    XX          YY          ZZ          XY          YZ          ZX
  --------------------------------------------------------------------------------------
  Alpha Z     3.24858     3.24858     3.24858
  Ewald     -75.30526   -75.30526   -75.30526     0.00000    -0.00000    -0.00000
  Hartree     5.17717     5.17717     5.17717     0.00000     0.00000     0.00000
  E(xc)     -25.30723   -25.30723   -25.30723    -0.00000    -0.00000    -0.00000
  Local     -29.74890   -29.74890   -29.74890     0.00001     0.00001     0.00001
  n-local    78.54329    80.05481    74.28406     2.17393    -1.29934     0.51273
  augment   -11.97750   -11.97750   -11.97750    -0.00001    -0.00001    -0.00001
  Kinetic    58.47487    55.94851    54.43437     3.56390    -0.71563     1.04810
  Fock        0.00000     0.00000     0.00000     0.00000     0.00000     0.00000
  -------------------------------------------------------------------------------------
  Total       0.00016     0.00016     0.00016     0.00000     0.00000    -0.00000
  in kB       0.00624     0.00624     0.00624     0.00000     0.00000    -0.00000
  external pressure =        0.01 kB  Pullay stress =        0.00 kB


 VOLUME and BASIS-vectors are now :
 -----------------------------------------------------------------------------
  energy-cutoff  :      500.00
  volume of cell :       41.45
      direct lattice vectors                 reciprocal lattice vectors
     0.000000000  2.746821138  2.746821138    -0.182028598  0.182028598  0.182028598
     2.746821138  0.000000000  2.746821138     0.182028598 -0.182028598  0.182028598
     2.746821138  2.746821138  0.000000000     0.182028598  0.182028598 -0.182028598

  length of vectors
     3.884591706  3.884591706  3.884591706     0.315282780  0.315282780  0.315282780


 FORCES acting on ions
    electron-ion (+dipol)            ewald-force                    non-local-force                 convergence-correction
 -----------------------------------------------------------------------------------------------
   0.983E-08 0.983E-08 0.107E-07   -.313E-14 -.268E-14 -.153E-14   -.173E-15 -.180E-15 -.194E-15   -.524E-12 -.521E-12 -.529E-12
   -.983E-08 -.983E-08 -.107E-07   0.307E-14 0.301E-14 0.222E-14   0.194E-15 0.194E-15 0.184E-15   0.525E-12 0.527E-12 0.529E-12
 -----------------------------------------------------------------------------------------------
   -.358E-14 0.740E-13 -.119E-12   -.615E-16 0.330E-15 0.690E-15   0.208E-16 0.139E-16 -.104E-16   0.158E-14 0.632E-14 -.377E-15


 POSITION                                       TOTAL-FORCE (eV/Angst)
 -----------------------------------------------------------------------------------
      4.12023      4.12023      4.12023         0.000000     -0.000000      0.000000
      2.74682      2.74682      2.74682        -0.000000      0.000000     -0.000000
 -----------------------------------------------------------------------------------
    total drift:                               -0.000000      0.000000     -0.000000


--------------------------------------------------------------------------------------------------------



  FREE ENERGIE OF THE ION-ELECTRON SYSTEM (eV)
  ---------------------------------------------------
  free  energy   TOTEN  =        -8.33844368 eV

  energy  without entropy=       -8.33841452  energy(sigma->0) =       -8.33842910



--------------------------------------------------------------------------------------------------------


    POTLOK:  cpu time    1.6320: real time    1.6321


--------------------------------------------------------------------------------------------------------




--------------------------------------------------------------------------------------------------------


  
 reached required accuracy - stopping structural energy minimisation
     LOOP+:  cpu time   54.4160: real time   57.5673
    4ORBIT:  cpu time    0.0000: real time    0.0000

 total amount of memory used by VASP on root node    41009. kBytes
========================================================================

   base      :      30000. kBytes
   nonl-proj :       7169. kBytes
   fftplans  :        517. kBytes
   grid      :       1507. kBytes
   one-center:          6. kBytes
   wavefun   :       1810. kBytes

  
  
 General timing and accounting informations for this job:
 ========================================================
  
                  Total CPU time used (sec):       55.356
                            User time (sec):       54.624
                          System time (sec):        0.732
                         Elapsed time (sec):       59.878
  
                   Maximum memory used (kb):      122600.
                   Average memory used (kb):           0.
  
                          Minor page faults:       563912
                          Major page faults:            5
                 Voluntary context switches:          276
