<?xml version="1.0" encoding="ISO-8859-1"?>
<modeling>
 <generator>
  <i name="program" type="string">vasp </i>
  <i name="version" type="string">5.4.1  </i>
  <i name="subversion" type="string">24Jun15 (build Feb  9 2019 14:16:27) complex                          parallel </i>
  <i name="platform" type="string">IFC91_ompi </i>
  <i name="date" type="string">2020 09 26 </i>
  <i name="time" type="string">22:31:43 </i>
 </generator>
 <incar>
  <i type="string" name="PREC">accurate</i>
  <i type="int" name="NELM">   400</i>
  <i type="int" name="IBRION">     2</i>
  <i name="EDIFF">      0.00000010</i>
  <i type="int" name="NSW">     1</i>
  <i type="int" name="ISIF">     2</i>
  <i name="ENCUT">    500.00000000</i>
  <i type="int" name="ISMEAR">     0</i>
  <i type="logical" name="LWAVE"> F  </i>
  <i type="logical" name="LCHARG"> F  </i>
  <v type="int" name="KPOINT_BSE">    -1     0     0     0</v>
  <i type="int" name="NELM">   400</i>
  <i type="string" name="GGA">BO</i>
  <i name="PARAM1">      0.18333333</i>
  <i name="PARAM2">      0.22000000</i>
  <i type="logical" name="LUSE_VDW"> T  </i>
  <i name="AGGAC">      0.00000000</i>
 </incar>
 <kpoints>
  <generation param="Gamma">
   <v type="int" name="divisions">      14       14       14 </v>
   <v name="usershift">      0.00000000       0.00000000       0.00000000 </v>
   <v name="genvec1">      0.07142857       0.00000000       0.00000000 </v>
   <v name="genvec2">      0.00000000       0.07142857       0.00000000 </v>
   <v name="genvec3">      0.00000000       0.00000000       0.07142857 </v>
   <v name="shift">      0.00000000       0.00000000       0.00000000 </v>
  </generation>
  <varray name="kpointlist" >
   <v>       0.00000000       0.00000000       0.00000000 </v>
   <v>       0.07142857       0.00000000       0.00000000 </v>
   <v>       0.14285714       0.00000000       0.00000000 </v>
   <v>       0.21428571       0.00000000       0.00000000 </v>
   <v>       0.28571429       0.00000000       0.00000000 </v>
   <v>       0.35714286       0.00000000       0.00000000 </v>
   <v>       0.42857143       0.00000000       0.00000000 </v>
   <v>       0.50000000       0.00000000       0.00000000 </v>
   <v>       0.07142857       0.07142857       0.00000000 </v>
   <v>       0.14285714       0.07142857       0.00000000 </v>
   <v>       0.21428571       0.07142857       0.00000000 </v>
   <v>       0.28571429       0.07142857       0.00000000 </v>
   <v>       0.35714286       0.07142857       0.00000000 </v>
   <v>       0.42857143       0.07142857       0.00000000 </v>
   <v>       0.50000000       0.07142857       0.00000000 </v>
   <v>      -0.42857143       0.07142857       0.00000000 </v>
   <v>      -0.35714286       0.07142857       0.00000000 </v>
   <v>      -0.28571429       0.07142857       0.00000000 </v>
   <v>      -0.21428571       0.07142857       0.00000000 </v>
   <v>      -0.14285714       0.07142857       0.00000000 </v>
   <v>      -0.07142857       0.07142857       0.00000000 </v>
   <v>       0.14285714       0.14285714       0.00000000 </v>
   <v>       0.21428571       0.14285714       0.00000000 </v>
   <v>       0.28571429       0.14285714       0.00000000 </v>
   <v>       0.35714286       0.14285714       0.00000000 </v>
   <v>       0.42857143       0.14285714       0.00000000 </v>
   <v>       0.50000000       0.14285714       0.00000000 </v>
   <v>      -0.42857143       0.14285714       0.00000000 </v>
   <v>      -0.35714286       0.14285714       0.00000000 </v>
   <v>      -0.28571429       0.14285714       0.00000000 </v>
   <v>      -0.21428571       0.14285714       0.00000000 </v>
   <v>      -0.14285714       0.14285714       0.00000000 </v>
   <v>       0.21428571       0.21428571       0.00000000 </v>
   <v>       0.28571429       0.21428571       0.00000000 </v>
   <v>       0.35714286       0.21428571       0.00000000 </v>
   <v>       0.42857143       0.21428571       0.00000000 </v>
   <v>       0.50000000       0.21428571       0.00000000 </v>
   <v>      -0.42857143       0.21428571       0.00000000 </v>
   <v>      -0.35714286       0.21428571       0.00000000 </v>
   <v>      -0.28571429       0.21428571       0.00000000 </v>
   <v>      -0.21428571       0.21428571       0.00000000 </v>
   <v>       0.28571429       0.28571429       0.00000000 </v>
   <v>       0.35714286       0.28571429       0.00000000 </v>
   <v>       0.42857143       0.28571429       0.00000000 </v>
   <v>       0.50000000       0.28571429       0.00000000 </v>
   <v>      -0.42857143       0.28571429       0.00000000 </v>
   <v>      -0.35714286       0.28571429       0.00000000 </v>
   <v>      -0.28571429       0.28571429       0.00000000 </v>
   <v>       0.35714286       0.35714286       0.00000000 </v>
   <v>       0.42857143       0.35714286       0.00000000 </v>
   <v>       0.50000000       0.35714286       0.00000000 </v>
   <v>      -0.42857143       0.35714286       0.00000000 </v>
   <v>      -0.35714286       0.35714286       0.00000000 </v>
   <v>       0.42857143       0.42857143       0.00000000 </v>
   <v>       0.50000000       0.42857143       0.00000000 </v>
   <v>      -0.42857143       0.42857143       0.00000000 </v>
   <v>       0.50000000       0.50000000       0.00000000 </v>
   <v>       0.21428571       0.14285714       0.07142857 </v>
   <v>       0.28571429       0.14285714       0.07142857 </v>
   <v>       0.35714286       0.14285714       0.07142857 </v>
   <v>       0.42857143       0.14285714       0.07142857 </v>
   <v>       0.50000000       0.14285714       0.07142857 </v>
   <v>      -0.42857143       0.14285714       0.07142857 </v>
   <v>       0.28571429       0.21428571       0.07142857 </v>
   <v>       0.35714286       0.21428571       0.07142857 </v>
   <v>       0.42857143       0.21428571       0.07142857 </v>
   <v>       0.50000000       0.21428571       0.07142857 </v>
   <v>      -0.42857143       0.21428571       0.07142857 </v>
   <v>      -0.35714286       0.21428571       0.07142857 </v>
   <v>      -0.28571429       0.21428571       0.07142857 </v>
   <v>      -0.21428571       0.21428571       0.07142857 </v>
   <v>      -0.14285714       0.21428571       0.07142857 </v>
   <v>       0.35714286       0.28571429       0.07142857 </v>
   <v>       0.42857143       0.28571429       0.07142857 </v>
   <v>       0.50000000       0.28571429       0.07142857 </v>
   <v>      -0.42857143       0.28571429       0.07142857 </v>
   <v>      -0.35714286       0.28571429       0.07142857 </v>
   <v>      -0.28571429       0.28571429       0.07142857 </v>
   <v>      -0.21428571       0.28571429       0.07142857 </v>
   <v>       0.42857143       0.35714286       0.07142857 </v>
   <v>       0.50000000       0.35714286       0.07142857 </v>
   <v>      -0.42857143       0.35714286       0.07142857 </v>
   <v>      -0.35714286       0.35714286       0.07142857 </v>
   <v>      -0.28571429       0.35714286       0.07142857 </v>
   <v>       0.50000000       0.42857143       0.07142857 </v>
   <v>      -0.42857143       0.42857143       0.07142857 </v>
   <v>      -0.35714286       0.42857143       0.07142857 </v>
   <v>      -0.42857143       0.50000000       0.07142857 </v>
   <v>       0.42857143       0.28571429       0.14285714 </v>
   <v>       0.50000000       0.28571429       0.14285714 </v>
   <v>      -0.42857143       0.28571429       0.14285714 </v>
   <v>      -0.35714286       0.28571429       0.14285714 </v>
   <v>       0.50000000       0.35714286       0.14285714 </v>
   <v>      -0.42857143       0.35714286       0.14285714 </v>
   <v>      -0.35714286       0.35714286       0.14285714 </v>
   <v>      -0.28571429       0.35714286       0.14285714 </v>
   <v>      -0.21428571       0.35714286       0.14285714 </v>
   <v>      -0.42857143       0.42857143       0.14285714 </v>
   <v>      -0.35714286       0.42857143       0.14285714 </v>
   <v>      -0.28571429       0.42857143       0.14285714 </v>
   <v>      -0.35714286       0.50000000       0.14285714 </v>
   <v>      -0.35714286       0.42857143       0.21428571 </v>
   <v>      -0.28571429       0.42857143       0.21428571 </v>
   <v>      -0.28571429       0.50000000       0.21428571 </v>
  </varray>
  <varray name="weights" >
   <v>       0.00036443 </v>
   <v>       0.00291545 </v>
   <v>       0.00291545 </v>
   <v>       0.00291545 </v>
   <v>       0.00291545 </v>
   <v>       0.00291545 </v>
   <v>       0.00291545 </v>
   <v>       0.00145773 </v>
   <v>       0.00218659 </v>
   <v>       0.00874636 </v>
   <v>       0.00874636 </v>
   <v>       0.00874636 </v>
   <v>       0.00874636 </v>
   <v>       0.00874636 </v>
   <v>       0.00874636 </v>
   <v>       0.00874636 </v>
   <v>       0.00874636 </v>
   <v>       0.00874636 </v>
   <v>       0.00874636 </v>
   <v>       0.00874636 </v>
   <v>       0.00437318 </v>
   <v>       0.00218659 </v>
   <v>       0.00874636 </v>
   <v>       0.00874636 </v>
   <v>       0.00874636 </v>
   <v>       0.00874636 </v>
   <v>       0.00874636 </v>
   <v>       0.00874636 </v>
   <v>       0.00874636 </v>
   <v>       0.00874636 </v>
   <v>       0.00874636 </v>
   <v>       0.00437318 </v>
   <v>       0.00218659 </v>
   <v>       0.00874636 </v>
   <v>       0.00874636 </v>
   <v>       0.00874636 </v>
   <v>       0.00874636 </v>
   <v>       0.00874636 </v>
   <v>       0.00874636 </v>
   <v>       0.00874636 </v>
   <v>       0.00437318 </v>
   <v>       0.00218659 </v>
   <v>       0.00874636 </v>
   <v>       0.00874636 </v>
   <v>       0.00874636 </v>
   <v>       0.00874636 </v>
   <v>       0.00874636 </v>
   <v>       0.00437318 </v>
   <v>       0.00218659 </v>
   <v>       0.00874636 </v>
   <v>       0.00874636 </v>
   <v>       0.00874636 </v>
   <v>       0.00437318 </v>
   <v>       0.00218659 </v>
   <v>       0.00874636 </v>
   <v>       0.00437318 </v>
   <v>       0.00109329 </v>
   <v>       0.00874636 </v>
   <v>       0.01749271 </v>
   <v>       0.01749271 </v>
   <v>       0.01749271 </v>
   <v>       0.01749271 </v>
   <v>       0.00874636 </v>
   <v>       0.00874636 </v>
   <v>       0.01749271 </v>
   <v>       0.01749271 </v>
   <v>       0.01749271 </v>
   <v>       0.01749271 </v>
   <v>       0.01749271 </v>
   <v>       0.01749271 </v>
   <v>       0.01749271 </v>
   <v>       0.00874636 </v>
   <v>       0.00874636 </v>
   <v>       0.01749271 </v>
   <v>       0.01749271 </v>
   <v>       0.01749271 </v>
   <v>       0.01749271 </v>
   <v>       0.01749271 </v>
   <v>       0.00874636 </v>
   <v>       0.00874636 </v>
   <v>       0.01749271 </v>
   <v>       0.01749271 </v>
   <v>       0.01749271 </v>
   <v>       0.00874636 </v>
   <v>       0.00874636 </v>
   <v>       0.01749271 </v>
   <v>       0.00874636 </v>
   <v>       0.00437318 </v>
   <v>       0.00874636 </v>
   <v>       0.01749271 </v>
   <v>       0.01749271 </v>
   <v>       0.00874636 </v>
   <v>       0.00874636 </v>
   <v>       0.01749271 </v>
   <v>       0.01749271 </v>
   <v>       0.01749271 </v>
   <v>       0.00874636 </v>
   <v>       0.00874636 </v>
   <v>       0.01749271 </v>
   <v>       0.00874636 </v>
   <v>       0.00437318 </v>
   <v>       0.00874636 </v>
   <v>       0.00874636 </v>
   <v>       0.00437318 </v>
  </varray>
 </kpoints>
 <parameters>
  <separator name="general" >
   <i type="string" name="SYSTEM">unknown system</i>
   <i type="logical" name="LCOMPAT"> F  </i>
  </separator>
  <separator name="electronic" >
   <i type="string" name="PREC">accura</i>
   <i name="ENMAX">    500.00000000</i>
   <i name="ENAUG">    322.06900000</i>
   <i name="EDIFF">      0.00000010</i>
   <i type="int" name="IALGO">    38</i>
   <i type="int" name="IWAVPR">    11</i>
   <i type="int" name="NBANDS">    16</i>
   <i name="NELECT">      8.00000000</i>
   <i type="int" name="TURBO">     0</i>
   <i type="int" name="IRESTART">     0</i>
   <i type="int" name="NREBOOT">     0</i>
   <i type="int" name="NMIN">     0</i>
   <i name="EREF">      0.00000000</i>
   <separator name="electronic smearing" >
    <i type="int" name="ISMEAR">     0</i>
    <i name="SIGMA">      0.20000000</i>
    <i name="KSPACING">      0.50000000</i>
    <i type="logical" name="KGAMMA"> T  </i>
   </separator>
   <separator name="electronic projectors" >
    <i type="logical" name="LREAL"> F  </i>
    <v name="ROPT">      0.00000000</v>
    <i type="int" name="LMAXPAW">  -100</i>
    <i type="int" name="LMAXMIX">     2</i>
    <i type="logical" name="NLSPLINE"> F  </i>
   </separator>
   <separator name="electronic startup" >
    <i type="int" name="ISTART">     0</i>
    <i type="int" name="ICHARG">     2</i>
    <i type="int" name="INIWAV">     1</i>
   </separator>
   <separator name="electronic spin" >
    <i type="int" name="ISPIN">     1</i>
    <i type="logical" name="LNONCOLLINEAR"> F  </i>
    <v name="MAGMOM">      1.00000000      1.00000000</v>
    <i name="NUPDOWN">     -1.00000000</i>
    <i type="logical" name="LSORBIT"> F  </i>
    <v name="SAXIS">      0.00000000      0.00000000      1.00000000</v>
    <i type="logical" name="LSPIRAL"> F  </i>
    <v name="QSPIRAL">      0.00000000      0.00000000      0.00000000</v>
    <i type="logical" name="LZEROZ"> F  </i>
   </separator>
   <separator name="electronic exchange-correlation" >
    <i type="logical" name="LASPH"> F  </i>
    <i type="logical" name="LMETAGGA"> F  </i>
   </separator>
   <separator name="electronic convergence" >
    <i type="int" name="NELM">   400</i>
    <i type="int" name="NELMDL">    -5</i>
    <i type="int" name="NELMIN">     2</i>
    <i name="ENINI">    500.00000000</i>
    <separator name="electronic convergence detail" >
     <i type="logical" name="LDIAG"> T  </i>
     <i type="logical" name="LSUBROT"> F  </i>
     <i name="WEIMIN">      0.00100000</i>
     <i name="EBREAK">      0.00000000</i>
     <i name="DEPER">      0.30000000</i>
     <i type="int" name="NRMM">     4</i>
     <i name="TIME">      0.40000000</i>
    </separator>
   </separator>
   <separator name="electronic mixer" >
    <i name="AMIX">      0.40000000</i>
    <i name="BMIX">      1.00000000</i>
    <i name="AMIN">      0.10000000</i>
    <i name="AMIX_MAG">      1.60000000</i>
    <i name="BMIX_MAG">      1.00000000</i>
    <separator name="electronic mixer details" >
     <i type="int" name="IMIX">     4</i>
     <i type="logical" name="MIXFIRST"> F  </i>
     <i type="int" name="MAXMIX">   -45</i>
     <i name="WC">    100.00000000</i>
     <i type="int" name="INIMIX">     1</i>
     <i type="int" name="MIXPRE">     1</i>
     <i type="int" name="MREMOVE">     5</i>
    </separator>
   </separator>
   <separator name="electronic dipolcorrection" >
    <i type="logical" name="LDIPOL"> F  </i>
    <i type="logical" name="LMONO"> F  </i>
    <i type="int" name="IDIPOL">     0</i>
    <i name="EPSILON">      1.00000000</i>
    <v name="DIPOL">   -100.00000000   -100.00000000   -100.00000000</v>
    <i name="EFIELD">      0.00000000</i>
   </separator>
  </separator>
  <separator name="grids" >
   <i type="int" name="NGX">    28</i>
   <i type="int" name="NGY">    28</i>
   <i type="int" name="NGZ">    28</i>
   <i type="int" name="NGXF">    56</i>
   <i type="int" name="NGYF">    56</i>
   <i type="int" name="NGZF">    56</i>
   <i type="logical" name="ADDGRID"> F  </i>
  </separator>
  <separator name="ionic" >
   <i type="int" name="NSW">     1</i>
   <i type="int" name="IBRION">     2</i>
   <i type="int" name="ISIF">     2</i>
   <i name="PSTRESS">      0.00000000</i>
   <i name="EDIFFG">      0.00000100</i>
   <i type="int" name="NFREE">     1</i>
   <i name="POTIM">      0.50000000</i>
   <i name="SMASS">     -3.00000000</i>
   <i name="SCALEE">      1.00000000</i>
  </separator>
  <separator name="ionic md" >
   <i name="TEBEG">      0.00010000</i>
   <i name="TEEND">      0.00010000</i>
   <i type="int" name="NBLOCK">     1</i>
   <i type="int" name="KBLOCK">     1</i>
   <i type="int" name="NPACO">   256</i>
   <i name="APACO">     16.00000000</i>
  </separator>
  <separator name="symmetry" >
   <i type="int" name="ISYM">     2</i>
   <i name="SYMPREC">      0.00001000</i>
  </separator>
  <separator name="dos" >
   <i type="logical" name="LORBIT"> T  </i>
   <v name="RWIGS">     -1.00000000</v>
   <i type="int" name="NEDOS">   301</i>
   <i name="EMIN">     10.00000000</i>
   <i name="EMAX">    -10.00000000</i>
   <i name="EFERMI">      0.00000000</i>
  </separator>
  <separator name="writing" >
   <i type="int" name="NWRITE">     2</i>
   <i type="logical" name="LWAVE"> F  </i>
   <i type="logical" name="LCHARG"> F  </i>
   <i type="logical" name="LPARD"> F  </i>
   <i type="logical" name="LVTOT"> F  </i>
   <i type="logical" name="LVHAR"> F  </i>
   <i type="logical" name="LELF"> F  </i>
   <i type="logical" name="LOPTICS"> F  </i>
   <v name="STM">      0.00000000      0.00000000      0.00000000      0.00000000      0.00000000      0.00000000      0.00000000</v>
  </separator>
  <separator name="performance" >
   <i type="int" name="NPAR">    16</i>
   <i type="int" name="NSIM">     4</i>
   <i type="int" name="NBLK">    -1</i>
   <i type="logical" name="LPLANE"> T  </i>
   <i type="logical" name="LSCALAPACK"> T  </i>
   <i type="logical" name="LSCAAWARE"> F  </i>
   <i type="logical" name="LSCALU"> F  </i>
   <i type="logical" name="LASYNC"> F  </i>
   <i type="logical" name="LORBITALREAL"> F  </i>
  </separator>
  <separator name="miscellaneous" >
   <i type="int" name="IDIOT">     3</i>
   <i type="logical" name="LMUSIC"> F  </i>
   <v name="POMASS">     28.08500000</v>
   <v name="DARWINR">      0.00000000</v>
   <v name="DARWINV">      1.00000000</v>
   <i type="logical" name="LCORR"> T  </i>
  </separator>
  <i type="logical" name="GGA_COMPAT"> T  </i>
  <i type="logical" name="LBERRY"> F  </i>
  <i type="int" name="ICORELEVEL">     0</i>
  <i type="logical" name="LDAU"> F  </i>
  <i type="int" name="I_CONSTRAINED_M">     0</i>
  <separator name="electronic exchange-correlation" >
   <i type="string" name="GGA">BO</i>
   <i type="int" name="VOSKOWN">     0</i>
   <i type="logical" name="LHFCALC"> F  </i>
   <i type="string" name="PRECFOCK"></i>
   <i type="logical" name="LSYMGRAD"> F  </i>
   <i type="logical" name="LHFONE"> F  </i>
   <i type="logical" name="LRHFCALC"> F  </i>
   <i type="logical" name="LTHOMAS"> F  </i>
   <i type="logical" name="LMODELHF"> F  </i>
   <i name="ENCUT4O">     -1.00000000</i>
   <i type="int" name="EXXOEP">     0</i>
   <i type="int" name="FOURORBIT">     0</i>
   <i name="AEXX">      0.00000000</i>
   <i name="HFALPHA">      0.00000000</i>
   <i name="MCALPHA">      0.00000000</i>
   <i name="ALDAX">      1.00000000</i>
   <i name="AGGAX">      1.00000000</i>
   <i name="ALDAC">      1.00000000</i>
   <i name="AGGAC">      0.00000000</i>
   <i type="int" name="NKREDX">     1</i>
   <i type="int" name="NKREDY">     1</i>
   <i type="int" name="NKREDZ">     1</i>
   <i type="logical" name="SHIFTRED"> F  </i>
   <i type="logical" name="ODDONLY"> F  </i>
   <i type="logical" name="EVENONLY"> F  </i>
   <i type="int" name="LMAXFOCK">     0</i>
   <i type="int" name="NMAXFOCKAE">     0</i>
   <i type="logical" name="LFOCKAEDFT"> F  </i>
   <i name="HFSCREEN">      0.00000000</i>
   <i name="HFSCREENC">      0.00000000</i>
   <i type="int" name="NBANDSGWLOW">     0</i>
  </separator>
  <separator name="vdW DFT" >
   <i type="logical" name="LUSE_VDW"> T  </i>
   <i name="Zab_VDW">     -0.84910000</i>
   <i name="PARAM1">      0.18333333</i>
   <i name="PARAM2">      0.22000000</i>
   <i name="PARAM3">      0.00000000</i>
  </separator>
  <separator name="model GW" >
   <i type="int" name="MODEL_GW">     0</i>
   <i name="MODEL_EPS0">     12.43490274</i>
   <i name="MODEL_ALPHA">      1.00000000</i>
  </separator>
  <separator name="linear response parameters" >
   <i type="logical" name="LEPSILON"> F  </i>
   <i type="logical" name="LRPA"> F  </i>
   <i type="logical" name="LNABLA"> F  </i>
   <i type="logical" name="LVEL"> F  </i>
   <i type="int" name="KINTER">     0</i>
   <i name="CSHIFT">      0.10000000</i>
   <i name="OMEGAMAX">     -1.00000000</i>
   <i name="DEG_THRESHOLD">      0.00200000</i>
  </separator>
  <separator name="orbital magnetization" >
   <i type="logical" name="NUCIND"> F  </i>
   <v name="MAGPOS">      0.00000000      0.00000000      0.00000000</v>
   <i type="logical" name="LNICSALL"> T  </i>
   <i type="logical" name="ORBITALMAG"> F  </i>
   <i type="logical" name="LMAGBLOCH"> F  </i>
   <i type="logical" name="LCHIMAG"> F  </i>
   <i type="logical" name="LGAUGE"> T  </i>
   <i type="int" name="MAGATOM">     0</i>
   <v name="MAGDIPOL">      0.00000000      0.00000000      0.00000000</v>
   <v name="AVECCONST">      0.00000000      0.00000000      0.00000000</v>
  </separator>
  <separator name="response functions" >
   <i type="logical" name="LADDER"> F  </i>
   <i type="logical" name="LFXC"> F  </i>
   <i type="logical" name="LHARTREE"> T  </i>
   <i type="int" name="IBSE">     0</i>
   <v type="int" name="KPOINT">    -1     0     0     0</v>
   <i type="logical" name="LTCTE"> F  </i>
   <i type="logical" name="LTETE"> F  </i>
   <i type="logical" name="LTRIPLET"> F  </i>
   <i type="logical" name="LFXCEPS"> F  </i>
   <i type="logical" name="LFXHEG"> F  </i>
   <i type="int" name="NATURALO">     0</i>
   <i type="logical" name="L2ORDER"> F  </i>
   <i type="logical" name="LUSEW"> F  </i>
   <i name="ENCUTGW">     -2.00000000</i>
   <i name="ENCUTGWSOFT">     -2.00000000</i>
   <i name="ENCUTLF">     -1.00000000</i>
   <i type="int" name="LMAXMP2">    -1</i>
   <i name="SCISSOR">      0.00000000</i>
   <i type="int" name="NOMEGA">     0</i>
   <i type="int" name="NOMEGAR">     0</i>
   <i type="int" name="NBANDSGW">    -1</i>
   <i type="int" name="NBANDSO">    -1</i>
   <i type="int" name="NBANDSV">    -1</i>
   <i type="int" name="NELM">   400</i>
   <i type="int" name="NELMHF">     1</i>
   <i type="int" name="DIM">     3</i>
   <i type="int" name="ANTIRES">     0</i>
   <i name="OMEGAMAX">    -30.00000000</i>
   <i name="OMEGAMIN">    -30.00000000</i>
   <i name="OMEGATL">   -200.00000000</i>
   <i type="int" name="OMEGAGRID">     0</i>
   <i name="CSHIFT">     -0.10000000</i>
   <i type="logical" name="SELFENERGY"> F  </i>
   <i type="logical" name="LSPECTRAL"> F  </i>
   <i type="logical" name="LSPECTRALGW"> F  </i>
   <i type="logical" name="LSINGLES"> F  </i>
   <i type="logical" name="LFERMIGW"> F  </i>
   <i type="logical" name="ODDONLYGW"> F  </i>
   <i type="logical" name="EVENONLYGW"> F  </i>
   <i type="int" name="NKREDLFX">     1</i>
   <i type="int" name="NKREDLFY">     1</i>
   <i type="int" name="NKREDLFZ">     1</i>
   <i type="int" name="MAXMEM">  1800</i>
   <i type="int" name="TELESCOPE">     0</i>
   <i type="int" name="TAUPAR">     1</i>
   <i type="int" name="OMEGAPAR">    -1</i>
   <i name="LAMBDA">      1.00000000</i>
  </separator>
  <separator name="External order field" >
   <i name="OFIELD_KAPPA">      0.00000000</i>
   <v name="OFIELD_K">      0.00000000      0.00000000      0.00000000</v>
   <i name="OFIELD_Q6_NEAR">      0.00000000</i>
   <i name="OFIELD_Q6_FAR">      0.00000000</i>
   <i name="OFIELD_A">      0.00000000</i>
  </separator>
 </parameters>
 <atominfo>
  <atoms>       2 </atoms>
  <types>       1 </types>
  <array name="atoms" >
   <dimension dim="1">ion</dimension>
   <field type="string">element</field>
   <field type="int">atomtype</field>
   <set>
    <rc><c>Si</c><c>   1</c></rc>
    <rc><c>Si</c><c>   1</c></rc>
   </set>
  </array>
  <array name="atomtypes" >
   <dimension dim="1">type</dimension>
   <field type="int">atomspertype</field>
   <field type="string">element</field>
   <field>mass</field>
   <field>valence</field>
   <field type="string">pseudopotential</field>
   <set>
    <rc><c>   2</c><c>Si</c><c>     28.08500000</c><c>      4.00000000</c><c>  PAW_PBE Si 05Jan2001                  </c></rc>
   </set>
  </array>
 </atominfo>
 <structure name="initialpos" >
  <crystal>
   <varray name="basis" >
    <v>       0.00000000       2.74682114       2.74682114 </v>
    <v>       2.74682114       0.00000000       2.74682114 </v>
    <v>       2.74682114       2.74682114       0.00000000 </v>
   </varray>
   <i name="volume">     41.44967579 </i>
   <varray name="rec_basis" >
    <v>      -0.18202860       0.18202860       0.18202860 </v>
    <v>       0.18202860      -0.18202860       0.18202860 </v>
    <v>       0.18202860       0.18202860      -0.18202860 </v>
   </varray>
  </crystal>
  <varray name="positions" >
   <v>       0.75000000       0.75000000       0.75000000 </v>
   <v>       0.50000000       0.50000000       0.50000000 </v>
  </varray>
 </structure>
 <calculation>
  <scstep>
   <time name="dav">    1.37    1.37</time>
   <time name="total">    3.51    3.51</time>
   <energy>
    <i name="alphaZ">      3.24857844 </i>
    <i name="ewald">   -225.91568183 </i>
    <i name="hartreedc">    -11.53197166 </i>
    <i name="XCdc">    -20.29573795 </i>
    <i name="pawpsdc">    189.40224250 </i>
    <i name="pawaedc">   -152.61488262 </i>
    <i name="eentropy">     -0.00920061 </i>
    <i name="bandstr">     12.32935958 </i>
    <i name="atom">    208.59373829 </i>
    <i name="e_fr_energy">      3.20644413 </i>
    <i name="e_wo_entrp">      3.21564474 </i>
    <i name="e_0_energy">      3.21104444 </i>
   </energy>
  </scstep>
  <scstep>
   <time name="dav">    2.00    2.00</time>
   <time name="total">    2.01    2.13</time>
   <energy>
    <i name="e_fr_energy">     -8.32674425 </i>
    <i name="e_wo_entrp">     -8.32674257 </i>
    <i name="e_0_energy">     -8.32674341 </i>
   </energy>
  </scstep>
  <scstep>
   <time name="dav">    1.46    1.45</time>
   <time name="total">    1.46    1.54</time>
   <energy>
    <i name="e_fr_energy">     -8.40895110 </i>
    <i name="e_wo_entrp">     -8.40894981 </i>
    <i name="e_0_energy">     -8.40895045 </i>
   </energy>
  </scstep>
  <scstep>
   <time name="dav">    2.88    2.88</time>
   <time name="total">    2.88    3.19</time>
   <energy>
    <i name="e_fr_energy">     -8.40919301 </i>
    <i name="e_wo_entrp">     -8.40919172 </i>
    <i name="e_0_energy">     -8.40919236 </i>
   </energy>
  </scstep>
  <scstep>
   <time name="dav">    1.50    1.50</time>
   <time name="total">    1.60    1.86</time>
   <energy>
    <i name="e_fr_energy">     -8.40919302 </i>
    <i name="e_wo_entrp">     -8.40919173 </i>
    <i name="e_0_energy">     -8.40919238 </i>
   </energy>
  </scstep>
  <scstep>
   <time name="dav">    1.88    1.88</time>
   <time name="total">    3.59    3.66</time>
   <energy>
    <i name="e_fr_energy">     -8.35973342 </i>
    <i name="e_wo_entrp">     -8.35972793 </i>
    <i name="e_0_energy">     -8.35973068 </i>
   </energy>
  </scstep>
  <scstep>
   <time name="dav">    2.14    2.13</time>
   <time name="total">    3.83    4.16</time>
   <energy>
    <i name="e_fr_energy">     -8.35390992 </i>
    <i name="e_wo_entrp">     -8.35387097 </i>
    <i name="e_0_energy">     -8.35389044 </i>
   </energy>
  </scstep>
  <scstep>
   <time name="dav">    1.65    1.65</time>
   <time name="total">    3.34    3.39</time>
   <energy>
    <i name="e_fr_energy">     -8.33750397 </i>
    <i name="e_wo_entrp">     -8.33747659 </i>
    <i name="e_0_energy">     -8.33749028 </i>
   </energy>
  </scstep>
  <scstep>
   <time name="dav">    2.03    2.03</time>
   <time name="total">    3.73    3.98</time>
   <energy>
    <i name="e_fr_energy">     -8.33862287 </i>
    <i name="e_wo_entrp">     -8.33859305 </i>
    <i name="e_0_energy">     -8.33860796 </i>
   </energy>
  </scstep>
  <scstep>
   <time name="dav">    2.02    2.02</time>
   <time name="total">    3.73    3.83</time>
   <energy>
    <i name="e_fr_energy">     -8.33863751 </i>
    <i name="e_wo_entrp">     -8.33860828 </i>
    <i name="e_0_energy">     -8.33862290 </i>
   </energy>
  </scstep>
  <scstep>
   <time name="dav">    2.84    2.85</time>
   <time name="total">    4.53    4.63</time>
   <energy>
    <i name="e_fr_energy">     -8.33845629 </i>
    <i name="e_wo_entrp">     -8.33842711 </i>
    <i name="e_0_energy">     -8.33844170 </i>
   </energy>
  </scstep>
  <scstep>
   <time name="dav">    2.02    2.01</time>
   <time name="total">    3.72    4.00</time>
   <energy>
    <i name="e_fr_energy">     -8.33844585 </i>
    <i name="e_wo_entrp">     -8.33841669 </i>
    <i name="e_0_energy">     -8.33843127 </i>
   </energy>
  </scstep>
  <scstep>
   <time name="dav">    1.85    1.85</time>
   <time name="total">    3.52    3.54</time>
   <energy>
    <i name="e_fr_energy">     -8.33844369 </i>
    <i name="e_wo_entrp">     -8.33841453 </i>
    <i name="e_0_energy">     -8.33842911 </i>
   </energy>
  </scstep>
  <scstep>
   <time name="dav">    1.00    1.00</time>
   <time name="total">    2.72    3.03</time>
   <energy>
    <i name="e_fr_energy">     -8.33844393 </i>
    <i name="e_wo_entrp">     -8.33841477 </i>
    <i name="e_0_energy">     -8.33842935 </i>
   </energy>
  </scstep>
  <scstep>
   <time name="dav">    0.96    0.95</time>
   <time name="total">    2.66    2.73</time>
   <energy>
    <i name="e_fr_energy">     -8.33844368 </i>
    <i name="e_wo_entrp">     -8.33841452 </i>
    <i name="e_0_energy">     -8.33842910 </i>
   </energy>
  </scstep>
  <scstep>
   <time name="dav">    0.94    0.95</time>
   <time name="total">    2.57    2.85</time>
   <energy>
    <i name="alphaZ">      3.24857844 </i>
    <i name="ewald">   -225.91568183 </i>
    <i name="hartreedc">    -15.53151995 </i>
    <i name="XCdc">    -19.63666115 </i>
    <i name="pawpsdc">    523.22353568 </i>
    <i name="pawaedc">   -486.67139043 </i>
    <i name="eentropy">     -0.00002916 </i>
    <i name="bandstr">      4.35098645 </i>
    <i name="atom">    208.59373829 </i>
    <i name="e_fr_energy">     -8.33844368 </i>
    <i name="e_wo_entrp">     -8.33841452 </i>
    <i name="e_0_energy">     -8.33842910 </i>
   </energy>
  </scstep>
  <structure>
   <crystal>
    <varray name="basis" >
     <v>       0.00000000       2.74682114       2.74682114 </v>
     <v>       2.74682114       0.00000000       2.74682114 </v>
     <v>       2.74682114       2.74682114       0.00000000 </v>
    </varray>
    <i name="volume">     41.44967579 </i>
    <varray name="rec_basis" >
     <v>      -0.18202860       0.18202860       0.18202860 </v>
     <v>       0.18202860      -0.18202860       0.18202860 </v>
     <v>       0.18202860       0.18202860      -0.18202860 </v>
    </varray>
   </crystal>
   <varray name="positions" >
    <v>       0.75000000       0.75000000       0.75000000 </v>
    <v>       0.50000000       0.50000000       0.50000000 </v>
   </varray>
  </structure>
  <varray name="forces" >
   <v>       0.00000000      -0.00000000       0.00000000 </v>
   <v>      -0.00000000       0.00000000      -0.00000000 </v>
  </varray>
  <varray name="stress" >
   <v>       0.00623577       0.00000000      -0.00000000 </v>
   <v>       0.00000000       0.00623577      -0.00000000 </v>
   <v>       0.00000000       0.00000000       0.00623577 </v>
  </varray>
  <energy>
   <i name="e_fr_energy">     -8.33844368 </i>
   <i name="e_wo_entrp">     -8.33842910 </i>
   <i name="e_0_energy">     -0.00002916 </i>
  </energy>
  <time name="totalsc">   54.42   57.57</time>
  <eigenvalues>
   <array>
    <dimension dim="1">band</dimension>
    <dimension dim="2">kpoint</dimension>
    <dimension dim="3">spin</dimension>
    <field>eigene</field>
    <field>occ</field>
    <set>
     <set comment="spin 1">
      <set comment="kpoint 1">
       <r>   -6.1919    1.0000 </r>
       <r>    5.4589    0.9932 </r>
       <r>    5.4589    0.9932 </r>
       <r>    5.4589    0.9932 </r>
       <r>    8.0742    0.0000 </r>
       <r>    8.0742    0.0000 </r>
       <r>    8.0742    0.0000 </r>
       <r>    8.5297    0.0000 </r>
       <r>   13.2140    0.0000 </r>
       <r>   13.2140    0.0000 </r>
       <r>   13.3485    0.0000 </r>
       <r>   16.6555    0.0000 </r>
       <r>   16.6555    0.0000 </r>
       <r>   16.6555    0.0000 </r>
       <r>   20.7506    0.0000 </r>
       <r>   28.1662    0.0000 </r>
      </set>
      <set comment="kpoint 2">
       <r>   -6.1271    1.0000 </r>
       <r>    4.8085    1.0000 </r>
       <r>    5.3578    0.9993 </r>
       <r>    5.3578    0.9993 </r>
       <r>    8.0819    0.0000 </r>
       <r>    8.2247    0.0000 </r>
       <r>    8.2247    0.0000 </r>
       <r>    9.0638    0.0000 </r>
       <r>   13.0127    0.0000 </r>
       <r>   13.0127    0.0000 </r>
       <r>   13.6279    0.0000 </r>
       <r>   16.4161    0.0000 </r>
       <r>   17.0692    0.0000 </r>
       <r>   17.0692    0.0000 </r>
       <r>   21.1896    0.0000 </r>
       <r>   27.3986    0.0000 </r>
      </set>
      <set comment="kpoint 3">
       <r>   -5.9342    1.0000 </r>
       <r>    3.5778    1.0000 </r>
       <r>    5.1228    1.0000 </r>
       <r>    5.1228    1.0000 </r>
       <r>    7.8630    0.0000 </r>
       <r>    8.5716    0.0000 </r>
       <r>    8.5716    0.0000 </r>
       <r>   10.2469    0.0000 </r>
       <r>   12.6721    0.0000 </r>
       <r>   12.6721    0.0000 </r>
       <r>   14.2848    0.0000 </r>
       <r>   16.0526    0.0000 </r>
       <r>   18.0722    0.0000 </r>
       <r>   18.0722    0.0000 </r>
       <r>   22.2374    0.0000 </r>
       <r>   25.7056    0.0000 </r>
      </set>
      <set comment="kpoint 4">
       <r>   -5.6186    1.0000 </r>
       <r>    2.2753    1.0000 </r>
       <r>    4.8592    1.0000 </r>
       <r>    4.8592    1.0000 </r>
       <r>    7.5791    0.0000 </r>
       <r>    8.8986    0.0000 </r>
       <r>    8.8986    0.0000 </r>
       <r>   11.5204    0.0000 </r>
       <r>   12.5712    0.0000 </r>
       <r>   12.5712    0.0000 </r>
       <r>   14.5318    0.0000 </r>
       <r>   16.5138    0.0000 </r>
       <r>   19.3358    0.0000 </r>
       <r>   19.3358    0.0000 </r>
       <r>   23.2341    0.0000 </r>
       <r>   23.8553    0.0000 </r>
      </set>
      <set comment="kpoint 5">
       <r>   -5.1930    1.0000 </r>
       <r>    1.0367    1.0000 </r>
       <r>    4.6274    1.0000 </r>
       <r>    4.6274    1.0000 </r>
       <r>    7.3181    0.0000 </r>
       <r>    9.0329    0.0000 </r>
       <r>    9.0329    0.0000 </r>
       <r>   12.7076    0.0000 </r>
       <r>   12.9334    0.0000 </r>
       <r>   12.9334    0.0000 </r>
       <r>   14.3057    0.0000 </r>
       <r>   17.8800    0.0000 </r>
       <r>   20.2879    0.0000 </r>
       <r>   20.2879    0.0000 </r>
       <r>   22.5611    0.0000 </r>
       <r>   22.5671    0.0000 </r>
      </set>
      <set comment="kpoint 6">
       <r>   -4.6886    1.0000 </r>
       <r>   -0.0655    1.0000 </r>
       <r>    4.4533    1.0000 </r>
       <r>    4.4533    1.0000 </r>
       <r>    7.1173    0.0000 </r>
       <r>    8.9936    0.0000 </r>
       <r>    8.9936    0.0000 </r>
       <r>   13.3174    0.0000 </r>
       <r>   13.7499    0.0000 </r>
       <r>   13.7499    0.0000 </r>
       <r>   14.6498    0.0000 </r>
       <r>   19.1310    0.0000 </r>
       <r>   19.4016    0.0000 </r>
       <r>   19.4016    0.0000 </r>
       <r>   21.7319    0.0000 </r>
       <r>   23.3751    0.0000 </r>
      </set>
      <set comment="kpoint 7">
       <r>   -4.1940    1.0000 </r>
       <r>   -0.9242    1.0000 </r>
       <r>    4.3468    1.0000 </r>
       <r>    4.3468    1.0000 </r>
       <r>    6.9928    0.0000 </r>
       <r>    8.9114    0.0000 </r>
       <r>    8.9114    0.0000 </r>
       <r>   13.2670    0.0000 </r>
       <r>   14.8778    0.0000 </r>
       <r>   14.8778    0.0000 </r>
       <r>   15.7473    0.0000 </r>
       <r>   17.8608    0.0000 </r>
       <r>   17.8608    0.0000 </r>
       <r>   18.7818    0.0000 </r>
       <r>   22.7233    0.0000 </r>
       <r>   25.0776    0.0000 </r>
      </set>
      <set comment="kpoint 8">
       <r>   -3.9522    1.0000 </r>
       <r>   -1.2882    1.0000 </r>
       <r>    4.3111    1.0000 </r>
       <r>    4.3111    1.0000 </r>
       <r>    6.9507    0.0000 </r>
       <r>    8.8752    0.0000 </r>
       <r>    8.8752    0.0000 </r>
       <r>   13.2139    0.0000 </r>
       <r>   15.9310    0.0000 </r>
       <r>   15.9310    0.0000 </r>
       <r>   16.5425    0.0000 </r>
       <r>   16.6562    0.0000 </r>
       <r>   16.6562    0.0000 </r>
       <r>   18.0542    0.0000 </r>
       <r>   24.5003    0.0000 </r>
       <r>   25.0181    0.0000 </r>
      </set>
      <set comment="kpoint 9">
       <r>   -6.1054    1.0000 </r>
       <r>    4.9178    1.0000 </r>
       <r>    5.1511    1.0000 </r>
       <r>    5.1511    1.0000 </r>
       <r>    7.8744    0.0000 </r>
       <r>    8.4883    0.0000 </r>
       <r>    8.4883    0.0000 </r>
       <r>    9.0439    0.0000 </r>
       <r>   12.6271    0.0000 </r>
       <r>   13.3105    0.0000 </r>
       <r>   13.7205    0.0000 </r>
       <r>   16.8073    0.0000 </r>
       <r>   16.8073    0.0000 </r>
       <r>   17.0638    0.0000 </r>
       <r>   21.3633    0.0000 </r>
       <r>   27.0465    0.0000 </r>
      </set>
      <set comment="kpoint 10">
       <r>   -5.9549    1.0000 </r>
       <r>    3.9332    1.0000 </r>
       <r>    4.8631    1.0000 </r>
       <r>    5.0257    1.0000 </r>
       <r>    7.8702    0.0000 </r>
       <r>    8.5246    0.0000 </r>
       <r>    8.9110    0.0000 </r>
       <r>    9.9192    0.0000 </r>
       <r>   12.2105    0.0000 </r>
       <r>   13.2466    0.0000 </r>
       <r>   14.2825    0.0000 </r>
       <r>   16.4740    0.0000 </r>
       <r>   17.3470    0.0000 </r>
       <r>   18.0118    0.0000 </r>
       <r>   22.2477    0.0000 </r>
       <r>   25.5876    0.0000 </r>
      </set>
      <set comment="kpoint 11">
       <r>   -5.6795    1.0000 </r>
       <r>    2.6830    1.0000 </r>
       <r>    4.5859    1.0000 </r>
       <r>    4.7885    1.0000 </r>
       <r>    7.9288    0.0000 </r>
       <r>    8.5396    0.0000 </r>
       <r>    9.3003    0.0000 </r>
       <r>   10.7836    0.0000 </r>
       <r>   12.2941    0.0000 </r>
       <r>   13.1636    0.0000 </r>
       <r>   14.8388    0.0000 </r>
       <r>   16.4268    0.0000 </r>
       <r>   18.4098    0.0000 </r>
       <r>   19.3187    0.0000 </r>
       <r>   23.3185    0.0000 </r>
       <r>   23.7198    0.0000 </r>
      </set>
      <set comment="kpoint 12">
       <r>   -5.2888    1.0000 </r>
       <r>    1.4406    1.0000 </r>
       <r>    4.3658    1.0000 </r>
       <r>    4.5015    1.0000 </r>
       <r>    7.7657    0.0000 </r>
       <r>    8.7301    0.0000 </r>
       <r>    9.4769    0.0000 </r>
       <r>   11.2690    0.0000 </r>
       <r>   13.1793    0.0000 </r>
       <r>   13.4384    0.0000 </r>
       <r>   14.7033    0.0000 </r>
       <r>   17.4726    0.0000 </r>
       <r>   19.5134    0.0000 </r>
       <r>   20.5591    0.0000 </r>
       <r>   22.1254    0.0000 </r>
       <r>   22.5971    0.0000 </r>
      </set>
      <set comment="kpoint 13">
       <r>   -4.8052    1.0000 </r>
       <r>    0.2987    1.0000 </r>
       <r>    4.2228    1.0000 </r>
       <r>    4.2353    1.0000 </r>
       <r>    7.5729    0.0000 </r>
       <r>    8.7957    0.0000 </r>
       <r>    9.4219    0.0000 </r>
       <r>   11.9506    0.0000 </r>
       <r>   14.0592    0.0000 </r>
       <r>   14.1665    0.0000 </r>
       <r>   14.7190    0.0000 </r>
       <r>   18.7369    0.0000 </r>
       <r>   19.1537    0.0000 </r>
       <r>   20.3823    0.0000 </r>
       <r>   22.2064    0.0000 </r>
       <r>   22.2946    0.0000 </r>
      </set>
      <set comment="kpoint 14">
       <r>   -4.2902    1.0000 </r>
       <r>   -0.6521    1.0000 </r>
       <r>    4.0216    1.0000 </r>
       <r>    4.1632    1.0000 </r>
       <r>    7.4320    0.0000 </r>
       <r>    8.7796    0.0000 </r>
       <r>    9.2672    0.0000 </r>
       <r>   12.8416    0.0000 </r>
       <r>   14.0935    0.0000 </r>
       <r>   15.2262    0.0000 </r>
       <r>   15.8354    0.0000 </r>
       <r>   17.6659    0.0000 </r>
       <r>   18.2597    0.0000 </r>
       <r>   19.9926    0.0000 </r>
       <r>   22.2228    0.0000 </r>
       <r>   23.8803    0.0000 </r>
      </set>
      <set comment="kpoint 15">
       <r>   -3.9247    1.0000 </r>
       <r>   -1.2177    1.0000 </r>
       <r>    3.8758    1.0000 </r>
       <r>    4.1865    1.0000 </r>
       <r>    7.3649    0.0000 </r>
       <r>    8.7950    0.0000 </r>
       <r>    9.1259    0.0000 </r>
       <r>   13.3715    0.0000 </r>
       <r>   14.6103    0.0000 </r>
       <r>   15.8926    0.0000 </r>
       <r>   16.6528    0.0000 </r>
       <r>   16.7746    0.0000 </r>
       <r>   17.4298    0.0000 </r>
       <r>   18.8408    0.0000 </r>
       <r>   23.9603    0.0000 </r>
       <r>   25.3667    0.0000 </r>
      </set>
      <set comment="kpoint 16">
       <r>   -4.0106    1.0000 </r>
       <r>   -1.0913    1.0000 </r>
       <r>    3.8072    1.0000 </r>
       <r>    4.2876    1.0000 </r>
       <r>    7.3780    0.0000 </r>
       <r>    8.8862    0.0000 </r>
       <r>    9.0467    0.0000 </r>
       <r>   13.4260    0.0000 </r>
       <r>   14.6130    0.0000 </r>
       <r>   14.9925    0.0000 </r>
       <r>   16.4978    0.0000 </r>
       <r>   17.1610    0.0000 </r>
       <r>   18.1278    0.0000 </r>
       <r>   18.8574    0.0000 </r>
       <r>   23.2319    0.0000 </r>
       <r>   25.0607    0.0000 </r>
      </set>
      <set comment="kpoint 17">
       <r>   -4.4590    1.0000 </r>
       <r>   -0.3627    1.0000 </r>
       <r>    3.8228    1.0000 </r>
       <r>    4.4585    1.0000 </r>
       <r>    7.4713    0.0000 </r>
       <r>    9.0244    0.0000 </r>
       <r>    9.0411    0.0000 </r>
       <r>   13.1291    0.0000 </r>
       <r>   13.4187    0.0000 </r>
       <r>   14.4823    0.0000 </r>
       <r>   15.8740    0.0000 </r>
       <r>   17.7428    0.0000 </r>
       <r>   19.6475    0.0000 </r>
       <r>   19.6835    0.0000 </r>
       <r>   21.8056    0.0000 </r>
       <r>   23.2333    0.0000 </r>
      </set>
      <set comment="kpoint 18">
       <r>   -4.9750    1.0000 </r>
       <r>    0.6653    1.0000 </r>
       <r>    3.9272    1.0000 </r>
       <r>    4.6865    1.0000 </r>
       <r>    7.6394    0.0000 </r>
       <r>    8.9940    0.0000 </r>
       <r>    9.1855    0.0000 </r>
       <r>   12.3464    0.0000 </r>
       <r>   12.5201    0.0000 </r>
       <r>   14.5158    0.0000 </r>
       <r>   14.6661    0.0000 </r>
       <r>   18.2562    0.0000 </r>
       <r>   19.4900    0.0000 </r>
       <r>   20.9516    0.0000 </r>
       <r>   21.5465    0.0000 </r>
       <r>   22.5949    0.0000 </r>
      </set>
      <set comment="kpoint 19">
       <r>   -5.4315    1.0000 </r>
       <r>    1.8458    1.0000 </r>
       <r>    4.1230    1.0000 </r>
       <r>    4.9503    1.0000 </r>
       <r>    7.8686    0.0000 </r>
       <r>    8.8374    0.0000 </r>
       <r>    9.1582    0.0000 </r>
       <r>   11.5426    0.0000 </r>
       <r>   12.0662    0.0000 </r>
       <r>   13.6162    0.0000 </r>
       <r>   14.8339    0.0000 </r>
       <r>   17.0003    0.0000 </r>
       <r>   19.0586    0.0000 </r>
       <r>   20.4703    0.0000 </r>
       <r>   22.0830    0.0000 </r>
       <r>   23.5130    0.0000 </r>
      </set>
      <set comment="kpoint 20">
       <r>   -5.7852    1.0000 </r>
       <r>    3.0868    1.0000 </r>
       <r>    4.4137    1.0000 </r>
       <r>    5.2075    1.0000 </r>
       <r>    8.1259    0.0000 </r>
       <r>    8.5289    0.0000 </r>
       <r>    8.8257    0.0000 </r>
       <r>   10.7241    0.0000 </r>
       <r>   12.1116    0.0000 </r>
       <r>   13.0904    0.0000 </r>
       <r>   14.7246    0.0000 </r>
       <r>   16.3304    0.0000 </r>
       <r>   17.8353    0.0000 </r>
       <r>   19.1682    0.0000 </r>
       <r>   22.9290    0.0000 </r>
       <r>   23.8421    0.0000 </r>
      </set>
      <set comment="kpoint 21">
       <r>   -6.0194    1.0000 </r>
       <r>    4.2036    1.0000 </r>
       <r>    4.8398    1.0000 </r>
       <r>    5.3765    0.9989 </r>
       <r>    8.2528    0.0000 </r>
       <r>    8.3122    0.0000 </r>
       <r>    8.3513    0.0000 </r>
       <r>    9.7558    0.0000 </r>
       <r>   12.5075    0.0000 </r>
       <r>   13.0662    0.0000 </r>
       <r>   14.0503    0.0000 </r>
       <r>   16.5044    0.0000 </r>
       <r>   16.9752    0.0000 </r>
       <r>   17.9548    0.0000 </r>
       <r>   21.8399    0.0000 </r>
       <r>   25.7171    0.0000 </r>
      </set>
      <set comment="kpoint 22">
       <r>   -5.8469    1.0000 </r>
       <r>    3.8271    1.0000 </r>
       <r>    4.5436    1.0000 </r>
       <r>    4.5436    1.0000 </r>
       <r>    7.4157    0.0000 </r>
       <r>    9.4111    0.0000 </r>
       <r>    9.4111    0.0000 </r>
       <r>    9.7151    0.0000 </r>
       <r>   11.8950    0.0000 </r>
       <r>   13.5998    0.0000 </r>
       <r>   14.6885    0.0000 </r>
       <r>   17.2563    0.0000 </r>
       <r>   17.2563    0.0000 </r>
       <r>   17.7870    0.0000 </r>
       <r>   22.9810    0.0000 </r>
       <r>   25.1932    0.0000 </r>
      </set>
      <set comment="kpoint 23">
       <r>   -5.6127    1.0000 </r>
       <r>    2.9149    1.0000 </r>
       <r>    4.2488    1.0000 </r>
       <r>    4.2943    1.0000 </r>
       <r>    7.3903    0.0000 </r>
       <r>    9.3449    0.0000 </r>
       <r>    9.8997    0.0000 </r>
       <r>   10.0604    0.0000 </r>
       <r>   12.2879    0.0000 </r>
       <r>   13.7127    0.0000 </r>
       <r>   15.3589    0.0000 </r>
       <r>   17.0408    0.0000 </r>
       <r>   17.8845    0.0000 </r>
       <r>   18.9016    0.0000 </r>
       <r>   23.6625    0.0000 </r>
       <r>   23.8137    0.0000 </r>
      </set>
      <set comment="kpoint 24">
       <r>   -5.2594    1.0000 </r>
       <r>    1.7849    1.0000 </r>
       <r>    3.9710    1.0000 </r>
       <r>    4.0217    1.0000 </r>
       <r>    7.5915    0.0000 </r>
       <r>    9.2904    0.0000 </r>
       <r>   10.0690    0.0000 </r>
       <r>   10.1844    0.0000 </r>
       <r>   13.3998    0.0000 </r>
       <r>   13.9638    0.0000 </r>
       <r>   15.6054    0.0000 </r>
       <r>   17.4339    0.0000 </r>
       <r>   18.8588    0.0000 </r>
       <r>   20.2609    0.0000 </r>
       <r>   21.9638    0.0000 </r>
       <r>   22.5400    0.0000 </r>
      </set>
      <set comment="kpoint 25">
       <r>   -4.8034    1.0000 </r>
       <r>    0.6695    1.0000 </r>
       <r>    3.6187    1.0000 </r>
       <r>    3.8816    1.0000 </r>
       <r>    7.6697    0.0000 </r>
       <r>    9.3367    0.0000 </r>
       <r>   10.1828    0.0000 </r>
       <r>   10.3606    0.0000 </r>
       <r>   14.6193    0.0000 </r>
       <r>   14.6724    0.0000 </r>
       <r>   15.3442    0.0000 </r>
       <r>   18.5089    0.0000 </r>
       <r>   18.9259    0.0000 </r>
       <r>   20.4563    0.0000 </r>
       <r>   21.5275    0.0000 </r>
       <r>   22.6405    0.0000 </r>
      </set>
      <set comment="kpoint 26">
       <r>   -4.2871    1.0000 </r>
       <r>   -0.3214    1.0000 </r>
       <r>    3.3054    1.0000 </r>
       <r>    3.8358    1.0000 </r>
       <r>    7.6446    0.0000 </r>
       <r>    9.2565    0.0000 </r>
       <r>   10.0100    0.0000 </r>
       <r>   11.2268    0.0000 </r>
       <r>   14.8944    0.0000 </r>
       <r>   15.6233    0.0000 </r>
       <r>   16.1257    0.0000 </r>
       <r>   17.5467    0.0000 </r>
       <r>   18.2683    0.0000 </r>
       <r>   20.9256    0.0000 </r>
       <r>   22.6331    0.0000 </r>
       <r>   22.8642    0.0000 </r>
      </set>
      <set comment="kpoint 27">
       <r>   -3.8373    1.0000 </r>
       <r>   -1.0317    1.0000 </r>
       <r>    3.0630    1.0000 </r>
       <r>    3.8843    1.0000 </r>
       <r>    7.6462    0.0000 </r>
       <r>    9.1855    0.0000 </r>
       <r>    9.8050    0.0000 </r>
       <r>   12.3776    0.0000 </r>
       <r>   14.5715    0.0000 </r>
       <r>   15.8451    0.0000 </r>
       <r>   16.8970    0.0000 </r>
       <r>   17.0457    0.0000 </r>
       <r>   17.7347    0.0000 </r>
       <r>   20.6497    0.0000 </r>
       <r>   23.2871    0.0000 </r>
       <r>   24.5806    0.0000 </r>
      </set>
      <set comment="kpoint 28">
       <r>   -3.7548    1.0000 </r>
       <r>   -1.1489    1.0000 </r>
       <r>    2.9091    1.0000 </r>
       <r>    4.0218    1.0000 </r>
       <r>    7.7237    0.0000 </r>
       <r>    9.1883    0.0000 </r>
       <r>    9.6381    0.0000 </r>
       <r>   13.5552    0.0000 </r>
       <r>   14.0552    0.0000 </r>
       <r>   14.4498    0.0000 </r>
       <r>   16.3334    0.0000 </r>
       <r>   18.4467    0.0000 </r>
       <r>   18.8998    0.0000 </r>
       <r>   19.3506    0.0000 </r>
       <r>   23.3343    0.0000 </r>
       <r>   25.1352    0.0000 </r>
      </set>
      <set comment="kpoint 29">
       <r>   -4.1260    1.0000 </r>
       <r>   -0.5863    1.0000 </r>
       <r>    2.8572    1.0000 </r>
       <r>    4.2372    1.0000 </r>
       <r>    7.8788    0.0000 </r>
       <r>    9.2723    0.0000 </r>
       <r>    9.5193    0.0000 </r>
       <r>   13.0264    0.0000 </r>
       <r>   13.1987    0.0000 </r>
       <r>   14.6460    0.0000 </r>
       <r>   16.6089    0.0000 </r>
       <r>   17.8053    0.0000 </r>
       <r>   19.9997    0.0000 </r>
       <r>   20.0679    0.0000 </r>
       <r>   21.7033    0.0000 </r>
       <r>   23.5074    0.0000 </r>
      </set>
      <set comment="kpoint 30">
       <r>   -4.6416    1.0000 </r>
       <r>    0.3337    1.0000 </r>
       <r>    2.9228    1.0000 </r>
       <r>    4.5117    1.0000 </r>
       <r>    8.0915    0.0000 </r>
       <r>    9.3919    0.0000 </r>
       <r>    9.3944    0.0000 </r>
       <r>   12.0151    0.0000 </r>
       <r>   12.2407    0.0000 </r>
       <r>   15.2332    0.0000 </r>
       <r>   16.4220    0.0000 </r>
       <r>   17.5365    0.0000 </r>
       <r>   19.4132    0.0000 </r>
       <r>   21.2008    0.0000 </r>
       <r>   21.4430    0.0000 </r>
       <r>   22.6523    0.0000 </r>
      </set>
      <set comment="kpoint 31">
       <r>   -5.1233    1.0000 </r>
       <r>    1.3889    1.0000 </r>
       <r>    3.1379    1.0000 </r>
       <r>    4.8117    1.0000 </r>
       <r>    8.3257    0.0000 </r>
       <r>    9.1501    0.0000 </r>
       <r>    9.3638    0.0000 </r>
       <r>   11.2651    0.0000 </r>
       <r>   11.7363    0.0000 </r>
       <r>   15.0515    0.0000 </r>
       <r>   15.6441    0.0000 </r>
       <r>   17.2990    0.0000 </r>
       <r>   19.0954    0.0000 </r>
       <r>   20.5092    0.0000 </r>
       <r>   21.6162    0.0000 </r>
       <r>   23.5465    0.0000 </r>
      </set>
      <set comment="kpoint 32">
       <r>   -5.5118    1.0000 </r>
       <r>    2.3840    1.0000 </r>
       <r>    3.6012    1.0000 </r>
       <r>    5.0765    1.0000 </r>
       <r>    8.4710    0.0000 </r>
       <r>    8.7870    0.0000 </r>
       <r>    8.9943    0.0000 </r>
       <r>   10.9882    0.0000 </r>
       <r>   11.7424    0.0000 </r>
       <r>   13.8737    0.0000 </r>
       <r>   15.4420    0.0000 </r>
       <r>   16.7069    0.0000 </r>
       <r>   18.1186    0.0000 </r>
       <r>   20.4474    0.0000 </r>
       <r>   21.9479    0.0000 </r>
       <r>   23.7514    0.0000 </r>
      </set>
      <set comment="kpoint 33">
       <r>   -5.4196    1.0000 </r>
       <r>    2.6049    1.0000 </r>
       <r>    3.9352    1.0000 </r>
       <r>    3.9352    1.0000 </r>
       <r>    6.9145    0.0000 </r>
       <r>    9.1647    0.0000 </r>
       <r>   10.5350    0.0000 </r>
       <r>   10.5350    0.0000 </r>
       <r>   12.5778    0.0000 </r>
       <r>   14.0814    0.0000 </r>
       <r>   16.0057    0.0000 </r>
       <r>   17.9634    0.0000 </r>
       <r>   17.9634    0.0000 </r>
       <r>   18.6155    0.0000 </r>
       <r>   23.3673    0.0000 </r>
       <r>   23.3673    0.0000 </r>
      </set>
      <set comment="kpoint 34">
       <r>   -5.1051    1.0000 </r>
       <r>    1.8133    1.0000 </r>
       <r>    3.5939    1.0000 </r>
       <r>    3.6906    1.0000 </r>
       <r>    6.9254    0.0000 </r>
       <r>    8.8092    0.0000 </r>
       <r>   10.7971    0.0000 </r>
       <r>   11.0051    0.0000 </r>
       <r>   13.5505    0.0000 </r>
       <r>   14.4040    0.0000 </r>
       <r>   16.6045    0.0000 </r>
       <r>   17.9789    0.0000 </r>
       <r>   18.5641    0.0000 </r>
       <r>   19.7492    0.0000 </r>
       <r>   21.9722    0.0000 </r>
       <r>   22.3433    0.0000 </r>
      </set>
      <set comment="kpoint 35">
       <r>   -4.6811    1.0000 </r>
       <r>    0.8713    1.0000 </r>
       <r>    3.1395    1.0000 </r>
       <r>    3.5363    1.0000 </r>
       <r>    7.1466    0.0000 </r>
       <r>    8.9180    0.0000 </r>
       <r>   10.6912    0.0000 </r>
       <r>   11.1421    0.0000 </r>
       <r>   14.9020    0.0000 </r>
       <r>   15.0229    0.0000 </r>
       <r>   16.4971    0.0000 </r>
       <r>   18.6555    0.0000 </r>
       <r>   18.7430    0.0000 </r>
       <r>   20.2530    0.0000 </r>
       <r>   21.1603    0.0000 </r>
       <r>   22.2632    0.0000 </r>
      </set>
      <set comment="kpoint 36">
       <r>   -4.1770    1.0000 </r>
       <r>   -0.0572    1.0000 </r>
       <r>    2.6949    1.0000 </r>
       <r>    3.4816    1.0000 </r>
       <r>    7.2394    0.0000 </r>
       <r>    9.6305    0.0000 </r>
       <r>   10.5190    0.0000 </r>
       <r>   11.0110    0.0000 </r>
       <r>   15.9430    0.0000 </r>
       <r>   16.0040    0.0000 </r>
       <r>   16.4000    0.0000 </r>
       <r>   17.4972    0.0000 </r>
       <r>   18.5533    0.0000 </r>
       <r>   20.7222    0.0000 </r>
       <r>   22.1224    0.0000 </r>
       <r>   23.6897    0.0000 </r>
      </set>
      <set comment="kpoint 37">
       <r>   -3.6787    1.0000 </r>
       <r>   -0.8242    1.0000 </r>
       <r>    2.3327    1.0000 </r>
       <r>    3.5279    1.0000 </r>
       <r>    7.2960    0.0000 </r>
       <r>   10.3436    0.0000 </r>
       <r>   10.7654    0.0000 </r>
       <r>   10.7837    0.0000 </r>
       <r>   15.2490    0.0000 </r>
       <r>   15.8575    0.0000 </r>
       <r>   17.3479    0.0000 </r>
       <r>   17.5405    0.0000 </r>
       <r>   17.9784    0.0000 </r>
       <r>   22.1303    0.0000 </r>
       <r>   23.0772    0.0000 </r>
       <r>   23.5290    0.0000 </r>
      </set>
      <set comment="kpoint 38">
       <r>   -3.4411    1.0000 </r>
       <r>   -1.1459    1.0000 </r>
       <r>    2.0836    1.0000 </r>
       <r>    3.6714    1.0000 </r>
       <r>    7.4265    0.0000 </r>
       <r>   10.2628    0.0000 </r>
       <r>   10.5602    0.0000 </r>
       <r>   12.0714    0.0000 </r>
       <r>   14.1897    0.0000 </r>
       <r>   14.3963    0.0000 </r>
       <r>   17.2607    0.0000 </r>
       <r>   18.7740    0.0000 </r>
       <r>   19.2535    0.0000 </r>
       <r>   21.2677    0.0000 </r>
       <r>   23.1232    0.0000 </r>
       <r>   24.3170    0.0000 </r>
      </set>
      <set comment="kpoint 39">
       <r>   -3.7057    1.0000 </r>
       <r>   -0.7779    1.0000 </r>
       <r>    1.9712    1.0000 </r>
       <r>    3.9017    1.0000 </r>
       <r>    7.6536    0.0000 </r>
       <r>   10.2337    0.0000 </r>
       <r>   10.3596    0.0000 </r>
       <r>   12.9397    0.0000 </r>
       <r>   13.1077    0.0000 </r>
       <r>   13.5348    0.0000 </r>
       <r>   17.2679    0.0000 </r>
       <r>   19.7709    0.0000 </r>
       <r>   20.3217    0.0000 </r>
       <r>   20.3725    0.0000 </r>
       <r>   21.4393    0.0000 </r>
       <r>   24.1017    0.0000 </r>
      </set>
      <set comment="kpoint 40">
       <r>   -4.2068    1.0000 </r>
       <r>   -0.0191    1.0000 </r>
       <r>    2.0374    1.0000 </r>
       <r>    4.1988    1.0000 </r>
       <r>    7.9553    0.0000 </r>
       <r>   10.1089    0.0000 </r>
       <r>   10.2194    0.0000 </r>
       <r>   11.8306    0.0000 </r>
       <r>   12.1437    0.0000 </r>
       <r>   14.9193    0.0000 </r>
       <r>   17.5087    0.0000 </r>
       <r>   18.2785    0.0000 </r>
       <r>   19.3267    0.0000 </r>
       <r>   21.7530    0.0000 </r>
       <r>   21.7979    0.0000 </r>
       <r>   22.6133    0.0000 </r>
      </set>
      <set comment="kpoint 41">
       <r>   -4.7059    1.0000 </r>
       <r>    0.7805    1.0000 </r>
       <r>    2.3863    1.0000 </r>
       <r>    4.5253    1.0000 </r>
       <r>    8.2580    0.0000 </r>
       <r>    9.6711    0.0000 </r>
       <r>    9.9382    0.0000 </r>
       <r>   11.1916    0.0000 </r>
       <r>   11.6971    0.0000 </r>
       <r>   15.9222    0.0000 </r>
       <r>   16.6128    0.0000 </r>
       <r>   17.5208    0.0000 </r>
       <r>   18.8334    0.0000 </r>
       <r>   20.6200    0.0000 </r>
       <r>   22.3629    0.0000 </r>
       <r>   23.1422    0.0000 </r>
      </set>
      <set comment="kpoint 42">
       <r>   -4.8289    1.0000 </r>
       <r>    1.3572    1.0000 </r>
       <r>    3.4242    1.0000 </r>
       <r>    3.4242    1.0000 </r>
       <r>    6.5000    0.0000 </r>
       <r>    8.1652    0.0000 </r>
       <r>   11.7536    0.0000 </r>
       <r>   11.7536    0.0000 </r>
       <r>   13.9629    0.0000 </r>
       <r>   14.7544    0.0000 </r>
       <r>   17.4503    0.0000 </r>
       <r>   18.7050    0.0000 </r>
       <r>   18.7050    0.0000 </r>
       <r>   19.6412    0.0000 </r>
       <r>   21.9201    0.0000 </r>
       <r>   21.9201    0.0000 </r>
      </set>
      <set comment="kpoint 43">
       <r>   -4.4394    1.0000 </r>
       <r>    0.6586    1.0000 </r>
       <r>    3.0500    1.0000 </r>
       <r>    3.2476    1.0000 </r>
       <r>    6.5729    0.0000 </r>
       <r>    7.8952    0.0000 </r>
       <r>   12.0334    0.0000 </r>
       <r>   12.1684    0.0000 </r>
       <r>   15.0330    0.0000 </r>
       <r>   15.3042    0.0000 </r>
       <r>   17.6408    0.0000 </r>
       <r>   18.6771    0.0000 </r>
       <r>   19.0895    0.0000 </r>
       <r>   20.1043    0.0000 </r>
       <r>   21.1769    0.0000 </r>
       <r>   21.9181    0.0000 </r>
      </set>
      <set comment="kpoint 44">
       <r>   -3.9565    1.0000 </r>
       <r>   -0.0968    1.0000 </r>
       <r>    2.4919    1.0000 </r>
       <r>    3.1722    1.0000 </r>
       <r>    6.7814    0.0000 </r>
       <r>    8.2338    0.0000 </r>
       <r>   11.9512    0.0000 </r>
       <r>   12.1714    0.0000 </r>
       <r>   16.2702    0.0000 </r>
       <r>   16.4068    0.0000 </r>
       <r>   16.9275    0.0000 </r>
       <r>   17.5173    0.0000 </r>
       <r>   19.4508    0.0000 </r>
       <r>   20.2783    0.0000 </r>
       <r>   21.5832    0.0000 </r>
       <r>   23.0977    0.0000 </r>
      </set>
      <set comment="kpoint 45">
       <r>   -3.4374    1.0000 </r>
       <r>   -0.7975    1.0000 </r>
       <r>    1.9641    1.0000 </r>
       <r>    3.2013    1.0000 </r>
       <r>    6.8785    0.0000 </r>
       <r>    9.1736    0.0000 </r>
       <r>   11.8005    0.0000 </r>
       <r>   11.9656    0.0000 </r>
       <r>   15.6860    0.0000 </r>
       <r>   15.9461    0.0000 </r>
       <r>   17.5755    0.0000 </r>
       <r>   17.9559    0.0000 </r>
       <r>   18.9615    0.0000 </r>
       <r>   21.6461    0.0000 </r>
       <r>   22.2623    0.0000 </r>
       <r>   23.9705    0.0000 </r>
      </set>
      <set comment="kpoint 46">
       <r>   -3.0784    1.0000 </r>
       <r>   -1.2260    1.0000 </r>
       <r>    1.5778    1.0000 </r>
       <r>    3.3327    1.0000 </r>
       <r>    7.0188    0.0000 </r>
       <r>   10.4060    0.0000 </r>
       <r>   11.6887    0.0000 </r>
       <r>   11.7055    0.0000 </r>
       <r>   14.3444    0.0000 </r>
       <r>   14.4560    0.0000 </r>
       <r>   18.7392    0.0000 </r>
       <r>   19.0381    0.0000 </r>
       <r>   19.3667    0.0000 </r>
       <r>   22.5929    0.0000 </r>
       <r>   22.7577    0.0000 </r>
       <r>   23.0703    0.0000 </r>
      </set>
      <set comment="kpoint 47">
       <r>   -3.2272    1.0000 </r>
       <r>   -1.0436    1.0000 </r>
       <r>    1.3965    1.0000 </r>
       <r>    3.5576    1.0000 </r>
       <r>    7.2616    0.0000 </r>
       <r>   11.3791    0.0000 </r>
       <r>   11.4050    0.0000 </r>
       <r>   12.0286    0.0000 </r>
       <r>   13.0110    0.0000 </r>
       <r>   13.1790    0.0000 </r>
       <r>   18.7456    0.0000 </r>
       <r>   20.3672    0.0000 </r>
       <r>   20.5811    0.0000 </r>
       <r>   21.0406    0.0000 </r>
       <r>   21.9489    0.0000 </r>
       <r>   22.6748    0.0000 </r>
      </set>
      <set comment="kpoint 48">
       <r>   -3.7031    1.0000 </r>
       <r>   -0.5021    1.0000 </r>
       <r>    1.5107    1.0000 </r>
       <r>    3.8582    1.0000 </r>
       <r>    7.5961    0.0000 </r>
       <r>   10.8919    0.0000 </r>
       <r>   11.1796    0.0000 </r>
       <r>   11.9488    0.0000 </r>
       <r>   12.3690    0.0000 </r>
       <r>   13.5001    0.0000 </r>
       <r>   18.6725    0.0000 </r>
       <r>   19.2646    0.0000 </r>
       <r>   20.0069    0.0000 </r>
       <r>   21.7804    0.0000 </r>
       <r>   21.8811    0.0000 </r>
       <r>   22.9629    0.0000 </r>
      </set>
      <set comment="kpoint 49">
       <r>   -4.0835    1.0000 </r>
       <r>    0.1229    1.0000 </r>
       <r>    3.0454    1.0000 </r>
       <r>    3.0454    1.0000 </r>
       <r>    6.2378    0.0012 </r>
       <r>    7.3057    0.0000 </r>
       <r>   13.0287    0.0000 </r>
       <r>   13.0287    0.0000 </r>
       <r>   15.4461    0.0000 </r>
       <r>   15.6172    0.0000 </r>
       <r>   18.5206    0.0000 </r>
       <r>   18.5206    0.0000 </r>
       <r>   18.6550    0.0000 </r>
       <r>   20.9036    0.0000 </r>
       <r>   20.9323    0.0000 </r>
       <r>   21.8397    0.0000 </r>
      </set>
      <set comment="kpoint 50">
       <r>   -3.6269    1.0000 </r>
       <r>   -0.5051    1.0000 </r>
       <r>    2.6864    1.0000 </r>
       <r>    2.9438    1.0000 </r>
       <r>    6.3769    0.0000 </r>
       <r>    7.1924    0.0000 </r>
       <r>   13.3351    0.0000 </r>
       <r>   13.3765    0.0000 </r>
       <r>   16.3898    0.0000 </r>
       <r>   16.4825    0.0000 </r>
       <r>   17.4329    0.0000 </r>
       <r>   17.5717    0.0000 </r>
       <r>   19.5279    0.0000 </r>
       <r>   20.4894    0.0000 </r>
       <r>   20.9707    0.0000 </r>
       <r>   22.6329    0.0000 </r>
      </set>
      <set comment="kpoint 51">
       <r>   -3.1061    1.0000 </r>
       <r>   -1.1113    1.0000 </r>
       <r>    2.1006    1.0000 </r>
       <r>    2.9480    1.0000 </r>
       <r>    6.5458    0.0000 </r>
       <r>    7.8130    0.0000 </r>
       <r>   13.2748    0.0000 </r>
       <r>   13.2756    0.0000 </r>
       <r>   15.9508    0.0000 </r>
       <r>   16.0960    0.0000 </r>
       <r>   17.6544    0.0000 </r>
       <r>   17.9676    0.0000 </r>
       <r>   20.2959    0.0000 </r>
       <r>   20.6350    0.0000 </r>
       <r>   20.8760    0.0000 </r>
       <r>   23.8720    0.0000 </r>
      </set>
      <set comment="kpoint 52">
       <r>   -2.6696    1.0000 </r>
       <r>   -1.5514    1.0000 </r>
       <r>    1.5714    1.0000 </r>
       <r>    3.0577    1.0000 </r>
       <r>    6.6829    0.0000 </r>
       <r>    8.9490    0.0000 </r>
       <r>   12.9825    0.0000 </r>
       <r>   13.1361    0.0000 </r>
       <r>   14.4858    0.0000 </r>
       <r>   14.6424    0.0000 </r>
       <r>   19.1574    0.0000 </r>
       <r>   19.2777    0.0000 </r>
       <r>   20.4668    0.0000 </r>
       <r>   20.8321    0.0000 </r>
       <r>   21.5271    0.0000 </r>
       <r>   22.6977    0.0000 </r>
      </set>
      <set comment="kpoint 53">
       <r>   -2.7691    1.0000 </r>
       <r>   -1.4319    1.0000 </r>
       <r>    1.2837    1.0000 </r>
       <r>    3.2660    1.0000 </r>
       <r>    6.9200    0.0000 </r>
       <r>   10.3153    0.0000 </r>
       <r>   12.4172    0.0000 </r>
       <r>   12.8899    0.0000 </r>
       <r>   13.1587    0.0000 </r>
       <r>   13.5756    0.0000 </r>
       <r>   19.9964    0.0000 </r>
       <r>   20.5157    0.0000 </r>
       <r>   20.6340    0.0000 </r>
       <r>   20.7698    0.0000 </r>
       <r>   21.1626    0.0000 </r>
       <r>   22.7114    0.0000 </r>
      </set>
      <set comment="kpoint 54">
       <r>   -3.1958    1.0000 </r>
       <r>   -1.0673    1.0000 </r>
       <r>    2.8138    1.0000 </r>
       <r>    2.8138    1.0000 </r>
       <r>    6.1648    0.0058 </r>
       <r>    6.6828    0.0000 </r>
       <r>   14.3346    0.0000 </r>
       <r>   14.3346    0.0000 </r>
       <r>   16.6677    0.0000 </r>
       <r>   16.8724    0.0000 </r>
       <r>   17.3169    0.0000 </r>
       <r>   17.3169    0.0000 </r>
       <r>   18.9117    0.0000 </r>
       <r>   19.3171    0.0000 </r>
       <r>   22.4926    0.0000 </r>
       <r>   23.2181    0.0000 </r>
      </set>
      <set comment="kpoint 55">
       <r>   -2.6845    1.0000 </r>
       <r>   -1.6316    1.0000 </r>
       <r>    2.5049    1.0000 </r>
       <r>    2.7896    1.0000 </r>
       <r>    6.3395    0.0001 </r>
       <r>    6.7717    0.0000 </r>
       <r>   14.5840    0.0000 </r>
       <r>   14.6457    0.0000 </r>
       <r>   16.1513    0.0000 </r>
       <r>   16.2499    0.0000 </r>
       <r>   17.6396    0.0000 </r>
       <r>   17.9268    0.0000 </r>
       <r>   19.0286    0.0000 </r>
       <r>   19.1074    0.0000 </r>
       <r>   22.6295    0.0000 </r>
       <r>   24.1609    0.0000 </r>
      </set>
      <set comment="kpoint 56">
       <r>   -2.2827    1.0000 </r>
       <r>   -1.9945    1.0000 </r>
       <r>    1.9717    1.0000 </r>
       <r>    2.8725    1.0000 </r>
       <r>    6.4645    0.0000 </r>
       <r>    7.6733    0.0000 </r>
       <r>   14.1421    0.0000 </r>
       <r>   14.5192    0.0000 </r>
       <r>   14.7520    0.0000 </r>
       <r>   15.1118    0.0000 </r>
       <r>   18.9040    0.0000 </r>
       <r>   19.0518    0.0000 </r>
       <r>   19.1998    0.0000 </r>
       <r>   19.9342    0.0000 </r>
       <r>   22.3795    0.0000 </r>
       <r>   22.8143    0.0000 </r>
      </set>
      <set comment="kpoint 57">
       <r>   -2.1828    1.0000 </r>
       <r>   -2.1828    1.0000 </r>
       <r>    2.7359    1.0000 </r>
       <r>    2.7359    1.0000 </r>
       <r>    6.3066    0.0002 </r>
       <r>    6.3066    0.0002 </r>
       <r>   15.3308    0.0000 </r>
       <r>   15.3308    0.0000 </r>
       <r>   16.2966    0.0000 </r>
       <r>   16.2966    0.0000 </r>
       <r>   17.9026    0.0000 </r>
       <r>   17.9026    0.0000 </r>
       <r>   18.1222    0.0000 </r>
       <r>   18.1222    0.0000 </r>
       <r>   24.1009    0.0000 </r>
       <r>   24.1009    0.0000 </r>
      </set>
      <set comment="kpoint 58">
       <r>   -5.7628    1.0000 </r>
       <r>    3.2440    1.0000 </r>
       <r>    4.2255    1.0000 </r>
       <r>    4.9441    1.0000 </r>
       <r>    7.8652    0.0000 </r>
       <r>    8.7899    0.0000 </r>
       <r>    9.2622    0.0000 </r>
       <r>   10.3730    0.0000 </r>
       <r>   12.0564    0.0000 </r>
       <r>   13.3841    0.0000 </r>
       <r>   14.9019    0.0000 </r>
       <r>   16.7163    0.0000 </r>
       <r>   17.4768    0.0000 </r>
       <r>   18.9778    0.0000 </r>
       <r>   23.2030    0.0000 </r>
       <r>   23.8116    0.0000 </r>
      </set>
      <set comment="kpoint 59">
       <r>   -5.4483    1.0000 </r>
       <r>    2.1881    1.0000 </r>
       <r>    3.7687    1.0000 </r>
       <r>    4.7468    1.0000 </r>
       <r>    8.0620    0.0000 </r>
       <r>    8.7896    0.0000 </r>
       <r>    9.6625    0.0000 </r>
       <r>   10.5354    0.0000 </r>
       <r>   12.3989    0.0000 </r>
       <r>   13.8702    0.0000 </r>
       <r>   15.4150    0.0000 </r>
       <r>   16.8983    0.0000 </r>
       <r>   18.4374    0.0000 </r>
       <r>   20.2801    0.0000 </r>
       <r>   22.0002    0.0000 </r>
       <r>   23.7437    0.0000 </r>
      </set>
      <set comment="kpoint 60">
       <r>   -5.0240    1.0000 </r>
       <r>    1.0452    1.0000 </r>
       <r>    3.4943    1.0000 </r>
       <r>    4.4797    1.0000 </r>
       <r>    8.0763    0.0000 </r>
       <r>    8.8422    0.0000 </r>
       <r>    9.8230    0.0000 </r>
       <r>   10.8466    0.0000 </r>
       <r>   12.9861    0.0000 </r>
       <r>   14.9019    0.0000 </r>
       <r>   15.2356    0.0000 </r>
       <r>   17.8610    0.0000 </r>
       <r>   19.2685    0.0000 </r>
       <r>   20.8636    0.0000 </r>
       <r>   21.2332    0.0000 </r>
       <r>   22.9696    0.0000 </r>
      </set>
      <set comment="kpoint 61">
       <r>   -4.5203    1.0000 </r>
       <r>   -0.0132    1.0000 </r>
       <r>    3.3294    1.0000 </r>
       <r>    4.2335    1.0000 </r>
       <r>    7.9668    0.0000 </r>
       <r>    8.8084    0.0000 </r>
       <r>    9.7782    0.0000 </r>
       <r>   11.6094    0.0000 </r>
       <r>   13.8350    0.0000 </r>
       <r>   14.9358    0.0000 </r>
       <r>   16.1686    0.0000 </r>
       <r>   17.6561    0.0000 </r>
       <r>   19.3871    0.0000 </r>
       <r>   20.5214    0.0000 </r>
       <r>   21.9803    0.0000 </r>
       <r>   22.6964    0.0000 </r>
      </set>
      <set comment="kpoint 62">
       <r>   -4.0240    1.0000 </r>
       <r>   -0.8536    1.0000 </r>
       <r>    3.2453    1.0000 </r>
       <r>    4.0622    1.0000 </r>
       <r>    7.8769    0.0000 </r>
       <r>    8.7239    0.0000 </r>
       <r>    9.6906    0.0000 </r>
       <r>   12.6566    0.0000 </r>
       <r>   14.3301    0.0000 </r>
       <r>   15.1134    0.0000 </r>
       <r>   16.5284    0.0000 </r>
       <r>   17.4843    0.0000 </r>
       <r>   18.3333    0.0000 </r>
       <r>   20.3368    0.0000 </r>
       <r>   22.5112    0.0000 </r>
       <r>   24.1507    0.0000 </r>
      </set>
      <set comment="kpoint 63">
       <r>   -3.7796    1.0000 </r>
       <r>   -1.2143    1.0000 </r>
       <r>    3.2206    1.0000 </r>
       <r>    4.0004    1.0000 </r>
       <r>    7.8448    0.0000 </r>
       <r>    8.6861    0.0000 </r>
       <r>    9.6525    0.0000 </r>
       <r>   13.5317    0.0000 </r>
       <r>   13.9812    0.0000 </r>
       <r>   15.2538    0.0000 </r>
       <r>   16.7357    0.0000 </r>
       <r>   17.0622    0.0000 </r>
       <r>   18.7926    0.0000 </r>
       <r>   19.2095    0.0000 </r>
       <r>   24.2457    0.0000 </r>
       <r>   24.5167    0.0000 </r>
      </set>
      <set comment="kpoint 64">
       <r>   -5.3388    1.0000 </r>
       <r>    2.2224    1.0000 </r>
       <r>    3.6144    1.0000 </r>
       <r>    4.2142    1.0000 </r>
       <r>    7.3855    0.0000 </r>
       <r>    9.3052    0.0000 </r>
       <r>   10.0382    0.0000 </r>
       <r>   10.4279    0.0000 </r>
       <r>   12.9002    0.0000 </r>
       <r>   14.1263    0.0000 </r>
       <r>   16.0238    0.0000 </r>
       <r>   17.3204    0.0000 </r>
       <r>   18.2768    0.0000 </r>
       <r>   19.8421    0.0000 </r>
       <r>   22.0204    0.0000 </r>
       <r>   23.4799    0.0000 </r>
      </set>
      <set comment="kpoint 65">
       <r>   -4.9500    1.0000 </r>
       <r>    1.2891    1.0000 </r>
       <r>    3.1567    1.0000 </r>
       <r>    3.9957    1.0000 </r>
       <r>    7.6434    0.0000 </r>
       <r>    9.3386    0.0000 </r>
       <r>    9.8632    0.0000 </r>
       <r>   10.8035    0.0000 </r>
       <r>   13.5313    0.0000 </r>
       <r>   15.1058    0.0000 </r>
       <r>   16.2086    0.0000 </r>
       <r>   17.7668    0.0000 </r>
       <r>   19.0762    0.0000 </r>
       <r>   20.6121    0.0000 </r>
       <r>   20.8873    0.0000 </r>
       <r>   22.8434    0.0000 </r>
      </set>
      <set comment="kpoint 66">
       <r>   -4.4680    1.0000 </r>
       <r>    0.3004    1.0000 </r>
       <r>    2.8475    1.0000 </r>
       <r>    3.7666    1.0000 </r>
       <r>    7.7841    0.0000 </r>
       <r>    9.5334    0.0000 </r>
       <r>    9.9915    0.0000 </r>
       <r>   10.8720    0.0000 </r>
       <r>   14.3758    0.0000 </r>
       <r>   15.7880    0.0000 </r>
       <r>   16.4204    0.0000 </r>
       <r>   17.7409    0.0000 </r>
       <r>   19.2683    0.0000 </r>
       <r>   20.2864    0.0000 </r>
       <r>   21.6137    0.0000 </r>
       <r>   23.5307    0.0000 </r>
      </set>
      <set comment="kpoint 67">
       <r>   -3.9515    1.0000 </r>
       <r>   -0.5765    1.0000 </r>
       <r>    2.6207    1.0000 </r>
       <r>    3.6322    1.0000 </r>
       <r>    7.8283    0.0000 </r>
       <r>    9.3111    0.0000 </r>
       <r>   10.7600    0.0000 </r>
       <r>   11.0143    0.0000 </r>
       <r>   14.9899    0.0000 </r>
       <r>   15.4588    0.0000 </r>
       <r>   16.8279    0.0000 </r>
       <r>   17.8130    0.0000 </r>
       <r>   18.3518    0.0000 </r>
       <r>   21.3384    0.0000 </r>
       <r>   22.6298    0.0000 </r>
       <r>   23.4251    0.0000 </r>
      </set>
      <set comment="kpoint 68">
       <r>   -3.5818    1.0000 </r>
       <r>   -1.1144    1.0000 </r>
       <r>    2.4574    1.0000 </r>
       <r>    3.6299    1.0000 </r>
       <r>    7.9121    0.0000 </r>
       <r>    9.1224    0.0000 </r>
       <r>   10.6795    0.0000 </r>
       <r>   12.2466    0.0000 </r>
       <r>   13.8586    0.0000 </r>
       <r>   15.6567    0.0000 </r>
       <r>   16.9373    0.0000 </r>
       <r>   17.4470    0.0000 </r>
       <r>   19.2790    0.0000 </r>
       <r>   20.9620    0.0000 </r>
       <r>   23.4508    0.0000 </r>
       <r>   24.2105    0.0000 </r>
      </set>
      <set comment="kpoint 69">
       <r>   -3.6753    1.0000 </r>
       <r>   -0.9822    1.0000 </r>
       <r>    2.3714    1.0000 </r>
       <r>    3.7546    1.0000 </r>
       <r>    8.0758    0.0000 </r>
       <r>    9.0066    0.0000 </r>
       <r>   10.6221    0.0000 </r>
       <r>   12.5731    0.0000 </r>
       <r>   13.6075    0.0000 </r>
       <r>   14.7579    0.0000 </r>
       <r>   16.7709    0.0000 </r>
       <r>   18.5805    0.0000 </r>
       <r>   19.5306    0.0000 </r>
       <r>   20.6574    0.0000 </r>
       <r>   22.3690    0.0000 </r>
       <r>   24.6265    0.0000 </r>
      </set>
      <set comment="kpoint 70">
       <r>   -4.1310    1.0000 </r>
       <r>   -0.2879    1.0000 </r>
       <r>    2.3913    1.0000 </r>
       <r>    3.9811    1.0000 </r>
       <r>    8.3063    0.0000 </r>
       <r>    8.9544    0.0000 </r>
       <r>   10.5787    0.0000 </r>
       <r>   11.4278    0.0000 </r>
       <r>   13.6549    0.0000 </r>
       <r>   14.8927    0.0000 </r>
       <r>   17.0493    0.0000 </r>
       <r>   18.0718    0.0000 </r>
       <r>   19.7905    0.0000 </r>
       <r>   20.5520    0.0000 </r>
       <r>   22.1299    0.0000 </r>
       <r>   23.0237    0.0000 </r>
      </set>
      <set comment="kpoint 71">
       <r>   -4.6460    1.0000 </r>
       <r>    0.6252    1.0000 </r>
       <r>    2.5634    1.0000 </r>
       <r>    4.2714    1.0000 </r>
       <r>    8.5479    0.0000 </r>
       <r>    8.8681    0.0000 </r>
       <r>   10.4092    0.0000 </r>
       <r>   10.6560    0.0000 </r>
       <r>   12.7768    0.0000 </r>
       <r>   15.8132    0.0000 </r>
       <r>   16.5838    0.0000 </r>
       <r>   17.5877    0.0000 </r>
       <r>   19.0764    0.0000 </r>
       <r>   20.7601    0.0000 </r>
       <r>   21.5696    0.0000 </r>
       <r>   23.4995    0.0000 </r>
      </set>
      <set comment="kpoint 72">
       <r>   -5.0986    1.0000 </r>
       <r>    1.5173    1.0000 </r>
       <r>    2.9889    1.0000 </r>
       <r>    4.5628    1.0000 </r>
       <r>    8.4560    0.0000 </r>
       <r>    8.8077    0.0000 </r>
       <r>   10.1564    0.0000 </r>
       <r>   10.3090    0.0000 </r>
       <r>   12.3962    0.0000 </r>
       <r>   15.1375    0.0000 </r>
       <r>   16.0832    0.0000 </r>
       <r>   17.1600    0.0000 </r>
       <r>   19.0014    0.0000 </r>
       <r>   20.4322    0.0000 </r>
       <r>   21.3828    0.0000 </r>
       <r>   23.6743    0.0000 </r>
      </set>
      <set comment="kpoint 73">
       <r>   -4.7537    1.0000 </r>
       <r>    1.1475    1.0000 </r>
       <r>    3.1089    1.0000 </r>
       <r>    3.5311    1.0000 </r>
       <r>    6.9809    0.0000 </r>
       <r>    8.4756    0.0000 </r>
       <r>   10.9361    0.0000 </r>
       <r>   11.6908    0.0000 </r>
       <r>   14.1471    0.0000 </r>
       <r>   15.1970    0.0000 </r>
       <r>   17.0880    0.0000 </r>
       <r>   18.1839    0.0000 </r>
       <r>   19.0770    0.0000 </r>
       <r>   20.2936    0.0000 </r>
       <r>   20.8331    0.0000 </r>
       <r>   22.4505    0.0000 </r>
      </set>
      <set comment="kpoint 74">
       <r>   -4.3000    1.0000 </r>
       <r>    0.3609    1.0000 </r>
       <r>    2.6355    1.0000 </r>
       <r>    3.3205    1.0000 </r>
       <r>    7.2691    0.0000 </r>
       <r>    8.6239    0.0000 </r>
       <r>   10.7486    0.0000 </r>
       <r>   12.0446    0.0000 </r>
       <r>   14.8406    0.0000 </r>
       <r>   16.5284    0.0000 </r>
       <r>   16.6045    0.0000 </r>
       <r>   18.1807    0.0000 </r>
       <r>   19.3880    0.0000 </r>
       <r>   19.9590    0.0000 </r>
       <r>   21.2638    0.0000 </r>
       <r>   22.9680    0.0000 </r>
      </set>
      <set comment="kpoint 75">
       <r>   -3.7831    1.0000 </r>
       <r>   -0.4288    1.0000 </r>
       <r>    2.2122    1.0000 </r>
       <r>    3.2066    1.0000 </r>
       <r>    7.4039    0.0000 </r>
       <r>    9.4114    0.0000 </r>
       <r>   10.5011    0.0000 </r>
       <r>   12.0501    0.0000 </r>
       <r>   15.4043    0.0000 </r>
       <r>   15.8900    0.0000 </r>
       <r>   17.3607    0.0000 </r>
       <r>   18.0033    0.0000 </r>
       <r>   18.8172    0.0000 </r>
       <r>   20.8443    0.0000 </r>
       <r>   22.6626    0.0000 </r>
       <r>   23.2018    0.0000 </r>
      </set>
      <set comment="kpoint 76">
       <r>   -3.3286    1.0000 </r>
       <r>   -1.0386    1.0000 </r>
       <r>    1.8808    1.0000 </r>
       <r>    3.2306    1.0000 </r>
       <r>    7.5144    0.0000 </r>
       <r>   10.1768    0.0000 </r>
       <r>   10.6736    0.0000 </r>
       <r>   11.9430    0.0000 </r>
       <r>   13.9922    0.0000 </r>
       <r>   16.0352    0.0000 </r>
       <r>   17.3277    0.0000 </r>
       <r>   18.3014    0.0000 </r>
       <r>   19.4891    0.0000 </r>
       <r>   22.2838    0.0000 </r>
       <r>   22.8224    0.0000 </r>
       <r>   23.7659    0.0000 </r>
      </set>
      <set comment="kpoint 77">
       <r>   -3.2633    1.0000 </r>
       <r>   -1.1149    1.0000 </r>
       <r>    1.6818    1.0000 </r>
       <r>    3.3799    1.0000 </r>
       <r>    7.7075    0.0000 </r>
       <r>   10.0265    0.0000 </r>
       <r>   11.7873    0.0000 </r>
       <r>   12.0016    0.0000 </r>
       <r>   12.6524    0.0000 </r>
       <r>   14.7874    0.0000 </r>
       <r>   17.9825    0.0000 </r>
       <r>   18.8728    0.0000 </r>
       <r>   20.8509    0.0000 </r>
       <r>   21.5460    0.0000 </r>
       <r>   22.0654    0.0000 </r>
       <r>   23.1614    0.0000 </r>
      </set>
      <set comment="kpoint 78">
       <r>   -3.6587    1.0000 </r>
       <r>   -0.6027    1.0000 </r>
       <r>    1.6644    1.0000 </r>
       <r>    3.6313    1.0000 </r>
       <r>    7.9934    0.0000 </r>
       <r>    9.8580    0.0000 </r>
       <r>   11.3010    0.0000 </r>
       <r>   11.7262    0.0000 </r>
       <r>   13.5064    0.0000 </r>
       <r>   13.6417    0.0000 </r>
       <r>   18.1303    0.0000 </r>
       <r>   19.7700    0.0000 </r>
       <r>   20.0631    0.0000 </r>
       <r>   20.4808    0.0000 </r>
[...]
       <r>   19.2781    0.0000 </r>
       <r>   19.7446    0.0000 </r>
       <r>   20.7918    0.0000 </r>
       <r>   22.0137    0.0000 </r>
       <r>   22.7063    0.0000 </r>
      </set>
      <set comment="kpoint 99">
       <r>   -2.5311    1.0000 </r>
       <r>   -1.6071    1.0000 </r>
       <r>    1.6804    1.0000 </r>
       <r>    2.3408    1.0000 </r>
       <r>    8.0238    0.0000 </r>
       <r>    9.0878    0.0000 </r>
       <r>   11.2630    0.0000 </r>
       <r>   12.4991    0.0000 </r>
       <r>   14.7460    0.0000 </r>
       <r>   16.3120    0.0000 </r>
       <r>   17.6591    0.0000 </r>
       <r>   19.2756    0.0000 </r>
       <r>   20.8642    0.0000 </r>
       <r>   21.5585    0.0000 </r>
       <r>   22.4484    0.0000 </r>
       <r>   23.2176    0.0000 </r>
      </set>
      <set comment="kpoint 100">
       <r>   -2.5863    1.0000 </r>
       <r>   -1.5360    1.0000 </r>
       <r>    1.4282    1.0000 </r>
       <r>    2.5184    1.0000 </r>
       <r>    8.2539    0.0000 </r>
       <r>   10.3138    0.0000 </r>
       <r>   11.0433    0.0000 </r>
       <r>   11.2017    0.0000 </r>
       <r>   14.3773    0.0000 </r>
       <r>   15.5421    0.0000 </r>
       <r>   18.4080    0.0000 </r>
       <r>   19.6905    0.0000 </r>
       <r>   20.6075    0.0000 </r>
       <r>   21.7010    0.0000 </r>
       <r>   22.7291    0.0000 </r>
       <r>   23.5464    0.0000 </r>
      </set>
      <set comment="kpoint 101">
       <r>   -2.0954    1.0000 </r>
       <r>   -2.0954    1.0000 </r>
       <r>    2.1130    1.0000 </r>
       <r>    2.1130    1.0000 </r>
       <r>    7.8228    0.0000 </r>
       <r>    7.8228    0.0000 </r>
       <r>   12.7394    0.0000 </r>
       <r>   12.7394    0.0000 </r>
       <r>   15.8386    0.0000 </r>
       <r>   15.8386    0.0000 </r>
       <r>   18.1453    0.0000 </r>
       <r>   18.1453    0.0000 </r>
       <r>   21.1770    0.0000 </r>
       <r>   21.1770    0.0000 </r>
       <r>   22.4966    0.0000 </r>
       <r>   22.4966    0.0000 </r>
      </set>
      <set comment="kpoint 102">
       <r>   -2.7984    1.0000 </r>
       <r>   -1.3089    1.0000 </r>
       <r>    1.6096    1.0000 </r>
       <r>    2.3592    1.0000 </r>
       <r>    9.1634    0.0000 </r>
       <r>    9.3822    0.0000 </r>
       <r>    9.9708    0.0000 </r>
       <r>   12.2555    0.0000 </r>
       <r>   14.3800    0.0000 </r>
       <r>   15.9526    0.0000 </r>
       <r>   18.0844    0.0000 </r>
       <r>   19.4891    0.0000 </r>
       <r>   20.3679    0.0000 </r>
       <r>   21.7468    0.0000 </r>
       <r>   21.8559    0.0000 </r>
       <r>   23.8790    0.0000 </r>
      </set>
      <set comment="kpoint 103">
       <r>   -2.4867    1.0000 </r>
       <r>   -1.6069    1.0000 </r>
       <r>    1.5585    1.0000 </r>
       <r>    2.1983    1.0000 </r>
       <r>    9.3411    0.0000 </r>
       <r>    9.6268    0.0000 </r>
       <r>   10.5855    0.0000 </r>
       <r>   10.9690    0.0000 </r>
       <r>   14.7434    0.0000 </r>
       <r>   16.3664    0.0000 </r>
       <r>   17.6324    0.0000 </r>
       <r>   19.3410    0.0000 </r>
       <r>   20.7202    0.0000 </r>
       <r>   22.3459    0.0000 </r>
       <r>   22.9176    0.0000 </r>
       <r>   23.5291    0.0000 </r>
      </set>
      <set comment="kpoint 104">
       <r>   -2.0426    1.0000 </r>
       <r>   -2.0426    1.0000 </r>
       <r>    1.8395    1.0000 </r>
       <r>    1.8395    1.0000 </r>
       <r>    9.2205    0.0000 </r>
       <r>    9.2205    0.0000 </r>
       <r>   10.9942    0.0000 </r>
       <r>   10.9942    0.0000 </r>
       <r>   15.8388    0.0000 </r>
       <r>   15.8388    0.0000 </r>
       <r>   18.2408    0.0000 </r>
       <r>   18.2408    0.0000 </r>
       <r>   21.7846    0.0000 </r>
       <r>   21.7846    0.0000 </r>
       <r>   23.3093    0.0000 </r>
       <r>   23.3093    0.0000 </r>
      </set>
     </set>
    </set>
   </array>
  </eigenvalues>
  <separator name="orbital magnetization" >
   <v name="MAGDIPOLOUT">      0.00000000      0.00000000      0.00000000</v>
  </separator>
  <dos>
   <i name="efermi">      5.80795716 </i>
   <total>
    <array>
     <dimension dim="1">gridpoints</dimension>
     <dimension dim="2">spin</dimension>
     <field>energy</field>
     <field>total</field>
     <field>integrated</field>
     <set>
      <set comment="spin 1">
       <r>    -8.1919     0.0000     0.0000 </r>
       <r>    -8.0640     0.0000     0.0000 </r>
       <r>    -7.9361     0.0000     0.0000 </r>
       <r>    -7.8083     0.0000     0.0000 </r>
       <r>    -7.6804     0.0000     0.0000 </r>
       <r>    -7.5526     0.0000     0.0000 </r>
       <r>    -7.4247     0.0000     0.0000 </r>
       <r>    -7.2968     0.0000     0.0000 </r>
       <r>    -7.1690     0.0000     0.0000 </r>
       <r>    -7.0411     0.0000     0.0000 </r>
       <r>    -6.9133     0.0000     0.0000 </r>
       <r>    -6.7854     0.0000     0.0000 </r>
       <r>    -6.6575     0.0000     0.0000 </r>
       <r>    -6.5297     0.0002     0.0000 </r>
       <r>    -6.4018     0.0024     0.0003 </r>
       <r>    -6.2740     0.0144     0.0022 </r>
       <r>    -6.1461     0.0498     0.0085 </r>
       <r>    -6.0182     0.1076     0.0223 </r>
       <r>    -5.8904     0.1673     0.0437 </r>
       <r>    -5.7625     0.2181     0.0716 </r>
       <r>    -5.6347     0.2564     0.1044 </r>
       <r>    -5.5068     0.2922     0.1417 </r>
       <r>    -5.3789     0.3316     0.1841 </r>
       <r>    -5.2511     0.3512     0.2290 </r>
       <r>    -5.1232     0.3833     0.2780 </r>
       <r>    -4.9954     0.4325     0.3333 </r>
       <r>    -4.8675     0.4427     0.3899 </r>
       <r>    -4.7396     0.4613     0.4489 </r>
       <r>    -4.6118     0.5241     0.5159 </r>
       <r>    -4.4839     0.5659     0.5883 </r>
       <r>    -4.3561     0.5680     0.6609 </r>
       <r>    -4.2282     0.6121     0.7392 </r>
       <r>    -4.1003     0.7274     0.8322 </r>
       <r>    -3.9725     0.8077     0.9355 </r>
       <r>    -3.8446     0.8084     1.0388 </r>
       <r>    -3.7168     0.8356     1.1456 </r>
       <r>    -3.5889     0.8678     1.2566 </r>
       <r>    -3.4610     0.7968     1.3585 </r>
       <r>    -3.3332     0.7059     1.4487 </r>
       <r>    -3.2053     0.6820     1.5360 </r>
       <r>    -3.0775     0.6660     1.6211 </r>
       <r>    -2.9496     0.6063     1.6986 </r>
       <r>    -2.8217     0.5173     1.7648 </r>
       <r>    -2.6939     0.4736     1.8253 </r>
       <r>    -2.5660     0.4581     1.8839 </r>
       <r>    -2.4382     0.3722     1.9315 </r>
       <r>    -2.3103     0.2414     1.9624 </r>
       <r>    -2.1824     0.1852     1.9860 </r>
       <r>    -2.0546     0.1899     2.0103 </r>
       <r>    -1.9267     0.1685     2.0319 </r>
       <r>    -1.7988     0.1782     2.0547 </r>
       <r>    -1.6710     0.3138     2.0948 </r>
       <r>    -1.5431     0.4635     2.1540 </r>
       <r>    -1.4153     0.5251     2.2212 </r>
       <r>    -1.2874     0.7136     2.3124 </r>
       <r>    -1.1595     1.0892     2.4517 </r>
       <r>    -1.0317     1.2534     2.6119 </r>
       <r>    -0.9038     1.0521     2.7465 </r>
       <r>    -0.7760     0.8306     2.8527 </r>
       <r>    -0.6481     0.7454     2.9480 </r>
       <r>    -0.5202     0.6947     3.0368 </r>
       <r>    -0.3924     0.5819     3.1112 </r>
       <r>    -0.2645     0.4829     3.1729 </r>
       <r>    -0.1367     0.4751     3.2337 </r>
       <r>    -0.0088     0.4981     3.2974 </r>
       <r>     0.1191     0.4295     3.3523 </r>
       <r>     0.2469     0.3506     3.3971 </r>
       <r>     0.3748     0.3430     3.4410 </r>
       <r>     0.5026     0.3207     3.4820 </r>
       <r>     0.6305     0.3329     3.5245 </r>
       <r>     0.7584     0.3344     3.5673 </r>
       <r>     0.8862     0.2528     3.5996 </r>
       <r>     1.0141     0.2116     3.6266 </r>
       <r>     1.1419     0.2590     3.6598 </r>
       <r>     1.2698     0.4019     3.7112 </r>
       <r>     1.3977     0.6588     3.7954 </r>
       <r>     1.5255     0.9293     3.9142 </r>
       <r>     1.6534     1.0929     4.0539 </r>
       <r>     1.7812     1.1167     4.1967 </r>
       <r>     1.9091     1.0897     4.3361 </r>
       <r>     2.0370     1.0837     4.4746 </r>
       <r>     2.1648     1.0993     4.6152 </r>
       <r>     2.2927     1.1237     4.7589 </r>
       <r>     2.4205     1.1672     4.9081 </r>
       <r>     2.5484     1.2438     5.0671 </r>
       <r>     2.6763     1.3442     5.2390 </r>
       <r>     2.8041     1.4310     5.4220 </r>
       <r>     2.9320     1.4654     5.6093 </r>
       <r>     3.0598     1.4939     5.8003 </r>
       <r>     3.1877     1.5868     6.0032 </r>
       <r>     3.3156     1.5695     6.2039 </r>
       <r>     3.4434     1.3677     6.3788 </r>
       <r>     3.5713     1.2733     6.5416 </r>
       <r>     3.6991     1.3146     6.7097 </r>
       <r>     3.8270     1.3305     6.8798 </r>
       <r>     3.9549     1.3171     7.0482 </r>
       <r>     4.0827     1.2570     7.2089 </r>
       <r>     4.2106     1.1897     7.3610 </r>
       <r>     4.3384     1.0863     7.4999 </r>
       <r>     4.4663     0.8841     7.6130 </r>
       <r>     4.5942     0.6932     7.7016 </r>
       <r>     4.7220     0.5684     7.7743 </r>
       <r>     4.8499     0.5104     7.8395 </r>
       <r>     4.9777     0.4372     7.8954 </r>
       <r>     5.1056     0.3237     7.9368 </r>
       <r>     5.2335     0.2222     7.9652 </r>
       <r>     5.3613     0.1462     7.9839 </r>
       <r>     5.4892     0.0837     7.9946 </r>
       <r>     5.6170     0.0335     7.9989 </r>
       <r>     5.7449     0.0077     7.9999 </r>
       <r>     5.8728     0.0018     8.0001 </r>
       <r>     6.0006     0.0071     8.0010 </r>
       <r>     6.1285     0.0325     8.0052 </r>
       <r>     6.2563     0.0928     8.0170 </r>
       <r>     6.3842     0.1765     8.0396 </r>
       <r>     6.5121     0.2619     8.0731 </r>
       <r>     6.6399     0.3652     8.1198 </r>
       <r>     6.7678     0.4861     8.1819 </r>
       <r>     6.8956     0.6006     8.2587 </r>
       <r>     7.0235     0.6919     8.3472 </r>
       <r>     7.1514     0.7621     8.4446 </r>
       <r>     7.2792     0.8710     8.5560 </r>
       <r>     7.4071     0.9955     8.6833 </r>
       <r>     7.5349     1.0948     8.8233 </r>
       <r>     7.6628     1.3044     8.9901 </r>
       <r>     7.7907     1.5850     9.1927 </r>
       <r>     7.9185     1.7226     9.4130 </r>
       <r>     8.0464     1.6429     9.6230 </r>
       <r>     8.1743     1.3901     9.8008 </r>
       <r>     8.3021     1.1278     9.9450 </r>
       <r>     8.4300     1.0467    10.0788 </r>
       <r>     8.5578     1.1520    10.2261 </r>
       <r>     8.6857     1.3690    10.4012 </r>
       <r>     8.8136     1.6720    10.6150 </r>
       <r>     8.9414     1.8840    10.8558 </r>
       <r>     9.0693     1.8825    11.0965 </r>
       <r>     9.1971     1.8697    11.3356 </r>
       <r>     9.3250     1.8822    11.5763 </r>
       <r>     9.4529     1.6498    11.7872 </r>
       <r>     9.5807     1.3061    11.9542 </r>
       <r>     9.7086     1.2062    12.1084 </r>
       <r>     9.8364     1.2574    12.2692 </r>
       <r>     9.9643     1.2459    12.4285 </r>
       <r>    10.0922     1.1680    12.5778 </r>
       <r>    10.2200     1.1425    12.7239 </r>
       <r>    10.3479     1.1871    12.8757 </r>
       <r>    10.4757     1.2718    13.0383 </r>
       <r>    10.6036     1.4314    13.2213 </r>
       <r>    10.7315     1.5844    13.4239 </r>
       <r>    10.8593     1.5376    13.6205 </r>
       <r>    10.9872     1.2644    13.7822 </r>
       <r>    11.1150     0.9465    13.9032 </r>
       <r>    11.2429     0.8211    14.0082 </r>
       <r>    11.3708     0.8431    14.1160 </r>
       <r>    11.4986     0.8456    14.2241 </r>
       <r>    11.6265     0.8975    14.3388 </r>
       <r>    11.7543     1.0471    14.4727 </r>
       <r>    11.8822     1.2903    14.6377 </r>
       <r>    12.0101     1.5633    14.8376 </r>
       <r>    12.1379     1.5758    15.0391 </r>
       <r>    12.2658     1.3140    15.2071 </r>
       <r>    12.3936     1.0904    15.3465 </r>
       <r>    12.5215     0.9890    15.4729 </r>
       <r>    12.6494     0.9680    15.5967 </r>
       <r>    12.7772     0.9599    15.7194 </r>
       <r>    12.9051     1.0145    15.8492 </r>
       <r>    13.0329     1.1744    15.9993 </r>
       <r>    13.1608     1.3445    16.1712 </r>
       <r>    13.2887     1.5163    16.3651 </r>
       <r>    13.4165     1.5710    16.5660 </r>
       <r>    13.5444     1.4686    16.7537 </r>
       <r>    13.6722     1.3179    16.9222 </r>
       <r>    13.8001     1.1372    17.0676 </r>
       <r>    13.9280     1.0231    17.1984 </r>
       <r>    14.0558     0.9976    17.3260 </r>
       <r>    14.1837     1.0609    17.4616 </r>
       <r>    14.3115     1.2074    17.6160 </r>
       <r>    14.4394     1.3271    17.7857 </r>
       <r>    14.5673     1.3637    17.9601 </r>
       <r>    14.6951     1.4627    18.1471 </r>
       <r>    14.8230     1.6589    18.3592 </r>
       <r>    14.9508     1.7177    18.5788 </r>
       <r>    15.0787     1.5481    18.7768 </r>
       <r>    15.2066     1.3778    18.9529 </r>
       <r>    15.3344     1.2783    19.1164 </r>
       <r>    15.4623     1.0983    19.2568 </r>
       <r>    15.5901     0.9143    19.3737 </r>
       <r>    15.7180     0.9799    19.4990 </r>
       <r>    15.8459     1.2268    19.6558 </r>
       <r>    15.9737     1.3534    19.8289 </r>
       <r>    16.1016     1.3455    20.0009 </r>
       <r>    16.2294     1.4221    20.1828 </r>
       <r>    16.3573     1.5470    20.3806 </r>
       <r>    16.4852     1.5910    20.5840 </r>
       <r>    16.6130     1.4665    20.7715 </r>
       <r>    16.7409     1.1951    20.9243 </r>
       <r>    16.8687     0.9966    21.0517 </r>
       <r>    16.9966     0.9611    21.1746 </r>
       <r>    17.1245     0.9635    21.2978 </r>
       <r>    17.2523     1.0390    21.4307 </r>
       <r>    17.3802     1.3480    21.6030 </r>
       <r>    17.5081     1.7469    21.8264 </r>
       <r>    17.6359     1.9554    22.0764 </r>
       <r>    17.7638     1.8864    22.3176 </r>
       <r>    17.8916     1.7938    22.5469 </r>
       <r>    18.0195     1.8426    22.7825 </r>
       <r>    18.1474     1.8051    23.0133 </r>
       <r>    18.2752     1.5924    23.2169 </r>
       <r>    18.4031     1.3542    23.3901 </r>
       <r>    18.5309     1.1876    23.5419 </r>
       <r>    18.6588     1.1840    23.6933 </r>
       <r>    18.7867     1.3434    23.8651 </r>
       <r>    18.9145     1.5225    24.0598 </r>
       <r>    19.0424     1.6776    24.2743 </r>
       <r>    19.1702     1.8850    24.5153 </r>
       <r>    19.2981     2.1294    24.7875 </r>
       <r>    19.4260     2.1422    25.0614 </r>
       <r>    19.5538     1.8365    25.2962 </r>
       <r>    19.6817     1.5189    25.4905 </r>
       <r>    19.8095     1.3504    25.6631 </r>
       <r>    19.9374     1.2542    25.8235 </r>
       <r>    20.0653     1.1804    25.9744 </r>
       <r>    20.1931     1.2146    26.1297 </r>
       <r>    20.3210     1.4214    26.3114 </r>
       <r>    20.4488     1.5823    26.5137 </r>
       <r>    20.5767     1.5995    26.7183 </r>
       <r>    20.7046     1.6492    26.9291 </r>
       <r>    20.8324     1.8114    27.1607 </r>
       <r>    20.9603     1.7448    27.3838 </r>
       <r>    21.0881     1.3250    27.5532 </r>
       <r>    21.2160     1.0997    27.6938 </r>
       <r>    21.3439     1.1302    27.8384 </r>
       <r>    21.4717     1.2484    27.9980 </r>
       <r>    21.5996     1.4777    28.1869 </r>
       <r>    21.7274     1.5513    28.3853 </r>
       <r>    21.8553     1.4975    28.5767 </r>
       <r>    21.9832     1.5671    28.7771 </r>
       <r>    22.1110     1.6515    28.9883 </r>
       <r>    22.2389     1.5572    29.1874 </r>
       <r>    22.3667     1.4524    29.3731 </r>
       <r>    22.4946     1.5676    29.5735 </r>
       <r>    22.6225     1.7827    29.8014 </r>
       <r>    22.7503     1.7452    30.0246 </r>
       <r>    22.8782     1.4298    30.2074 </r>
       <r>    23.0060     1.2231    30.3638 </r>
       <r>    23.1339     1.2784    30.5272 </r>
       <r>    23.2618     1.5096    30.7203 </r>
       <r>    23.3896     1.7384    30.9425 </r>
       <r>    23.5175     1.7482    31.1661 </r>
       <r>    23.6453     1.4395    31.3501 </r>
       <r>    23.7732     1.0891    31.4894 </r>
       <r>    23.9011     0.8224    31.5945 </r>
       <r>    24.0289     0.5846    31.6693 </r>
       <r>    24.1568     0.4695    31.7293 </r>
       <r>    24.2846     0.4002    31.7804 </r>
       <r>    24.4125     0.2813    31.8164 </r>
       <r>    24.5404     0.2207    31.8446 </r>
       <r>    24.6682     0.2014    31.8704 </r>
       <r>    24.7961     0.1282    31.8868 </r>
       <r>    24.9239     0.0753    31.8964 </r>
       <r>    25.0518     0.1038    31.9097 </r>
       <r>    25.1797     0.1355    31.9270 </r>
       <r>    25.3075     0.1169    31.9419 </r>
       <r>    25.4354     0.0925    31.9538 </r>
       <r>    25.5632     0.0895    31.9652 </r>
       <r>    25.6911     0.0896    31.9767 </r>
       <r>    25.8190     0.0643    31.9849 </r>
       <r>    25.9468     0.0265    31.9883 </r>
       <r>    26.0747     0.0057    31.9890 </r>
       <r>    26.2025     0.0006    31.9891 </r>
       <r>    26.3304     0.0000    31.9891 </r>
       <r>    26.4583     0.0000    31.9891 </r>
       <r>    26.5861     0.0000    31.9891 </r>
       <r>    26.7140     0.0003    31.9891 </r>
       <r>    26.8418     0.0022    31.9894 </r>
       <r>    26.9697     0.0076    31.9904 </r>
       <r>    27.0976     0.0126    31.9920 </r>
       <r>    27.2254     0.0130    31.9936 </r>
       <r>    27.3533     0.0150    31.9956 </r>
       <r>    27.4812     0.0163    31.9976 </r>
       <r>    27.6090     0.0097    31.9989 </r>
       <r>    27.7369     0.0027    31.9992 </r>
       <r>    27.8647     0.0004    31.9993 </r>
       <r>    27.9926     0.0006    31.9994 </r>
       <r>    28.1205     0.0015    31.9995 </r>
       <r>    28.2483     0.0020    31.9998 </r>
       <r>    28.3762     0.0012    31.9999 </r>
       <r>    28.5040     0.0003    32.0000 </r>
       <r>    28.6319     0.0000    32.0000 </r>
       <r>    28.7598     0.0000    32.0000 </r>
       <r>    28.8876     0.0000    32.0000 </r>
       <r>    29.0155     0.0000    32.0000 </r>
       <r>    29.1433     0.0000    32.0000 </r>
       <r>    29.2712     0.0000    32.0000 </r>
       <r>    29.3991     0.0000    32.0000 </r>
       <r>    29.5269     0.0000    32.0000 </r>
       <r>    29.6548     0.0000    32.0000 </r>
       <r>    29.7826     0.0000    32.0000 </r>
       <r>    29.9105     0.0000    32.0000 </r>
       <r>    30.0384     0.0000    32.0000 </r>
       <r>    30.1662     0.0000    32.0000 </r>
      </set>
     </set>
    </array>
   </total>
  </dos>
 </calculation>
 <structure name="finalpos" >
  <crystal>
   <varray name="basis" >
    <v>       0.00000000       2.74682114       2.74682114 </v>
    <v>       2.74682114       0.00000000       2.74682114 </v>
    <v>       2.74682114       2.74682114       0.00000000 </v>
   </varray>
   <i name="volume">     41.44967579 </i>
   <varray name="rec_basis" >
    <v>      -0.18202860       0.18202860       0.18202860 </v>
    <v>       0.18202860      -0.18202860       0.18202860 </v>
    <v>       0.18202860       0.18202860      -0.18202860 </v>
   </varray>
  </crystal>
  <varray name="positions" >
   <v>       0.75000000       0.75000000       0.75000000 </v>
   <v>       0.50000000       0.50000000       0.50000000 </v>
  </varray>
 </structure>
</modeling>
