 running on   16 total cores
 distrk:  each k-point on   16 cores,    1 groups
 distr:  one band on    1 cores,   16 groups
 using from now: INCAR     
 vasp.5.4.1 24Jun15 (build Feb  9 2019 14:16:27) complex                         
 POSCAR found type information on POSCAR  Si
 POSCAR found :  1 types and       2 ions
 scaLAPACK will be used

 ----------------------------------------------------------------------------- 
|                                                                             |
|           W    W    AA    RRRRR   N    N  II  N    N   GGGG   !!!           |
|           W    W   A  A   R    R  NN   N  II  NN   N  G    G  !!!           |
|           W    W  A    A  R    R  N N  N  II  N N  N  G       !!!           |
|           W WW W  AAAAAA  RRRRR   N  N N  II  N  N N  G  GGG   !            |
|           WW  WW  A    A  R   R   N   NN  II  N   NN  G    G                |
|           W    W  A    A  R    R  N    N  II  N    N   GGGG   !!!           |
|                                                                             |
|      For optimal performance we recommend to set                            |
|        NCORE= 4 - approx SQRT( number of cores)                             |
|      NCORE specifies how many cores store one orbital (NPAR=cpu/NCORE).     |
|      This setting can  greatly improve the performance of VASP for DFT.     |
|      The default, NPAR=number of cores might be grossly inefficient         |
|      on modern multi-core architectures or massively parallel machines.     |
|      Do your own testing !!!!                                               |
|      Unfortunately you need to use the default for GW and RPA calculations. |
|      (for HF NCORE is supported but not extensively tested yet)             |
|                                                                             |
 ----------------------------------------------------------------------------- 


 ----------------------------------------------------------------------------- 
|                                                                             |
|  ADVICE TO THIS USER RUNNING 'VASP/VAMP'   (HEAR YOUR MASTER'S VOICE ...):  |
|                                                                             |
|      You have switched on vdW-DFT.                                          |
|      This routine was written and supplied by Jiri Klimes.                  |
|      We recommed that you carefully read and cite the following             |
|      publication                                                            |
|      J. Klimes, D.R. Bowler, A. Michelides                                  |
|        J. Phys.: Cond Matt. 22 022201 (2010)                                |
|      J. Klimes, D.R. Bowler, A. Michelides                                  |
|        Phys. Rev. B. 83, 195131 (2011)                                      |
|      and references therein.                                                |
|                                                                             |
 ----------------------------------------------------------------------------- 


 ----------------------------------------------------------------------------- 
|                                                                             |
|  ADVICE TO THIS USER RUNNING 'VASP/VAMP'   (HEAR YOUR MASTER'S VOICE ...):  |
|                                                                             |
|      You enforced a specific xc-type in the INCAR file,                     |
|      a different type was found on the POTCAR file                          |
|          I HOPE YOU KNOW, WHAT YOU ARE  DOING                               |
|                                                                             |
 ----------------------------------------------------------------------------- 

 LDA part: xc-table for Pade appr. of Perdew
 POSCAR, INCAR and KPOINTS ok, starting setup
 WARNING: small aliasing (wrap around) errors must be expected
 FFT: planning ...
 WAVECAR not read
 entering main loop
       N       E                     dE             d eps       ncg     rms          rms(c)
Total vdW correction in eV:      1.0901334
DAV:   1     0.320644413289E+01    0.32064E+01   -0.35330E+03  3360   0.395E+02
DAV:   2    -0.832674424811E+01   -0.11533E+02   -0.11418E+02  4816   0.402E+01
DAV:   3    -0.840895109573E+01   -0.82207E-01   -0.82207E-01  3760   0.434E+00
DAV:   4    -0.840919300591E+01   -0.24191E-03   -0.24191E-03  6192   0.259E-01
DAV:   5    -0.840919302065E+01   -0.14742E-07   -0.14208E-07  3696   0.166E-03    0.367E+00
Total vdW correction in eV:      1.1375766
DAV:   6    -0.835973342260E+01    0.49460E-01   -0.84731E-02  4880   0.858E-01    0.224E+00
Total vdW correction in eV:      1.2281432
DAV:   7    -0.835390992360E+01    0.58235E-02   -0.19363E-01  5136   0.128E+00    0.186E-01
Total vdW correction in eV:      1.2235777
DAV:   8    -0.833750397222E+01    0.16406E-01   -0.49465E-03  3952   0.243E-01    0.953E-02
Total vdW correction in eV:      1.2294329
DAV:   9    -0.833862286615E+01   -0.11189E-02   -0.55379E-04  5120   0.821E-02    0.525E-02
Total vdW correction in eV:      1.2291096
DAV:  10    -0.833863750838E+01   -0.14642E-04   -0.23310E-05  4288   0.216E-02    0.105E-02
Total vdW correction in eV:      1.2291119
DAV:  11    -0.833845629168E+01    0.18122E-03   -0.30065E-07  5488   0.260E-03    0.189E-03
Total vdW correction in eV:      1.2291535
DAV:  12    -0.833844585331E+01    0.10438E-04   -0.68801E-08  4352   0.137E-03    0.460E-04
Total vdW correction in eV:      1.2291518
DAV:  13    -0.833844369354E+01    0.21598E-05   -0.52104E-09  3808   0.329E-04    0.706E-05
Total vdW correction in eV:      1.2291528
DAV:  14    -0.833844393408E+01   -0.24054E-06   -0.17730E-10  2448   0.674E-05    0.480E-06
Total vdW correction in eV:      1.2291527
DAV:  15    -0.833844368386E+01    0.25022E-06   -0.62252E-12  2288   0.132E-05    0.259E-06
Total vdW correction in eV:      1.2291527
DAV:  16    -0.833844367600E+01    0.78578E-08   -0.69977E-13  2112   0.573E-06
Total vdW correction in eV:      1.2291527
Total vdW correction in eV:      1.2291527
   1 F= -.83384437E+01 E0= -.83384291E+01  d E =-.833844E+01
 curvature:   0.00 expect dE= 0.000E+00 dE for cont linesearch  0.000E+00
 trial: gam= 0.00000 g(F)=  0.230E-49 g(S)=  0.000E+00 ort = 0.000E+00 (trialstep = 0.100E+01)
 search vector abs. value=  0.100E-09
 reached required accuracy - stopping structural energy minimisation
