LAMMPS data file via write_data, version 13 Jan 2016, timestep = 1001

700 atoms
1 atom types

1.8557322105903748e-01 2.0064426616940967e+01 xlo xhi
1.7163553509174739e-01 2.8466188872908273e+01 ylo yhi
-8.2828792088460529e-02 4.5903347844088515e+01 zlo zhi
0.0000000000000000e+00 0.0000000000000000e+00 0.0000000000000000e+00 xy xz yz

Masses

1 26.982

Atoms # charge

1 1 0.0000000000000000e+00 2.0064426616843679e+01 1.5026276037642987e+01 1.3660715817603915e+01 -1 0 0
2 1 0.0000000000000000e+00 2.0064426616843694e+01 2.0685186705206203e+01 1.3660715817603670e+01 -1 0 0
3 1 0.0000000000000000e+00 2.0064426616843686e+01 2.6344097372769596e+01 1.3660715817603378e+01 -1 0 0
4 1 0.0000000000000000e+00 2.0064426616843679e+01 3.7084547025165193e+00 1.3660715817603490e+01 -1 0 0
5 1 0.0000000000000000e+00 2.0064426616843679e+01 9.3673653700798241e+00 1.3660715817603823e+01 -1 0 0
6 1 0.0000000000000000e+00 4.1613439001381263e+00 1.5026276037642978e+01 1.3660715817603920e+01 0 0 0
7 1 0.0000000000000000e+00 4.1613439001381254e+00 2.0685186705206206e+01 1.3660715817603664e+01 0 0 0
8 1 0.0000000000000000e+00 4.1613439001381272e+00 2.6344097372769596e+01 1.3660715817603387e+01 0 0 0
9 1 0.0000000000000000e+00 4.1613439001381272e+00 3.7084547025165162e+00 1.3660715817603489e+01 0 0 0
10 1 0.0000000000000000e+00 4.1613439001381209e+00 9.3673653700798134e+00 1.3660715817603821e+01 0 0 0
11 1 0.0000000000000000e+00 8.1371145793145185e+00 1.5026276037642978e+01 1.3660715817603926e+01 0 0 0
12 1 0.0000000000000000e+00 8.1371145793145203e+00 2.0685186705206206e+01 1.3660715817603668e+01 0 0 0
13 1 0.0000000000000000e+00 8.1371145793145185e+00 2.6344097372769586e+01 1.3660715817603391e+01 0 0 0
14 1 0.0000000000000000e+00 8.1371145793145203e+00 3.7084547025165180e+00 1.3660715817603494e+01 0 0 0
15 1 0.0000000000000000e+00 8.1371145793145221e+00 9.3673653700798170e+00 1.3660715817603826e+01 0 0 0
16 1 0.0000000000000000e+00 1.2112885258490916e+01 1.5026276037642987e+01 1.3660715817603934e+01 0 0 0
17 1 0.0000000000000000e+00 1.2112885258490905e+01 2.0685186705206203e+01 1.3660715817603672e+01 0 0 0
18 1 0.0000000000000000e+00 1.2112885258490913e+01 2.6344097372769596e+01 1.3660715817603391e+01 0 0 0
19 1 0.0000000000000000e+00 1.2112885258490907e+01 3.7084547025165162e+00 1.3660715817603501e+01 0 0 0
20 1 0.0000000000000000e+00 1.2112885258490913e+01 9.3673653700798170e+00 1.3660715817603826e+01 0 0 0
21 1 0.0000000000000000e+00 1.6088655937667308e+01 1.5026276037642983e+01 1.3660715817603934e+01 0 0 0
22 1 0.0000000000000000e+00 1.6088655937667301e+01 2.0685186705206206e+01 1.3660715817603686e+01 0 0 0
23 1 0.0000000000000000e+00 1.6088655937667294e+01 2.6344097372769596e+01 1.3660715817603389e+01 0 0 0
24 1 0.0000000000000000e+00 1.6088655937667301e+01 3.7084547025165131e+00 1.3660715817603494e+01 0 0 0
25 1 0.0000000000000000e+00 1.6088655937667301e+01 9.3673653700798170e+00 1.3660715817603831e+01 0 0 0
26 1 0.0000000000000000e+00 2.1734585605499177e+00 1.6441003704533806e+01 1.5001826210339670e+01 0 0 0
27 1 0.0000000000000000e+00 2.1734585605499084e+00 2.2099914372097096e+01 1.5001826210339354e+01 0 0 0
28 1 0.0000000000000000e+00 2.1734585605499075e+00 2.7758825039660465e+01 1.5001826210339127e+01 0 0 0
29 1 0.0000000000000000e+00 2.1734585605499133e+00 5.1231823694073029e+00 1.5001826210339349e+01 0 0 0
30 1 0.0000000000000000e+00 2.1734585605499093e+00 1.0782093036970585e+01 1.5001826210339676e+01 0 0 0
31 1 0.0000000000000000e+00 6.1492292397262904e+00 1.6441003704533802e+01 1.5001826210339669e+01 0 0 0
32 1 0.0000000000000000e+00 6.1492292397262922e+00 2.2099914372097096e+01 1.5001826210339344e+01 0 0 0
33 1 0.0000000000000000e+00 6.1492292397262904e+00 2.7758825039660461e+01 1.5001826210339125e+01 0 0 0
34 1 0.0000000000000000e+00 6.1492292397262904e+00 5.1231823694073100e+00 1.5001826210339342e+01 0 0 0
35 1 0.0000000000000000e+00 6.1492292397262878e+00 1.0782093036970581e+01 1.5001826210339663e+01 0 0 0
36 1 0.0000000000000000e+00 1.0124999918902686e+01 1.6441003704533802e+01 1.5001826210339676e+01 0 0 0
37 1 0.0000000000000000e+00 1.0124999918902679e+01 2.2099914372097096e+01 1.5001826210339354e+01 0 0 0
38 1 0.0000000000000000e+00 1.0124999918902681e+01 2.7758825039660465e+01 1.5001826210339132e+01 0 0 0
39 1 0.0000000000000000e+00 1.0124999918902679e+01 5.1231823694073046e+00 1.5001826210339347e+01 0 0 0
40 1 0.0000000000000000e+00 1.0124999918902681e+01 1.0782093036970585e+01 1.5001826210339672e+01 0 0 0
41 1 0.0000000000000000e+00 1.4100770598079079e+01 1.6441003704533809e+01 1.5001826210339686e+01 0 0 0
42 1 0.0000000000000000e+00 1.4100770598079071e+01 2.2099914372097096e+01 1.5001826210339349e+01 0 0 0
43 1 0.0000000000000000e+00 1.4100770598079077e+01 2.7758825039660469e+01 1.5001826210339143e+01 0 0 0
44 1 0.0000000000000000e+00 1.4100770598079071e+01 5.1231823694073055e+00 1.5001826210339354e+01 0 0 0
45 1 0.0000000000000000e+00 1.4100770598079079e+01 1.0782093036970583e+01 1.5001826210339681e+01 0 0 0
46 1 0.0000000000000000e+00 1.8076541277255469e+01 1.6441003704533806e+01 1.5001826210339681e+01 0 0 0
47 1 0.0000000000000000e+00 1.8076541277255469e+01 2.2099914372097096e+01 1.5001826210339351e+01 0 0 0
48 1 0.0000000000000000e+00 1.8076541277255458e+01 2.7758825039660465e+01 1.5001826210339132e+01 0 0 0
49 1 0.0000000000000000e+00 1.8076541277255465e+01 5.1231823694073126e+00 1.5001826210339347e+01 0 0 0
50 1 0.0000000000000000e+00 1.8076541277255469e+01 1.0782093036970590e+01 1.5001826210339681e+01 0 0 0
51 1 0.0000000000000000e+00 2.1734585605499110e+00 1.3611548370752200e+01 1.5001826210339729e+01 0 0 0
52 1 0.0000000000000000e+00 2.1734585605499146e+00 1.9270459038315444e+01 1.5001826210339530e+01 0 0 0
53 1 0.0000000000000000e+00 2.1734585605499075e+00 2.4929369705878770e+01 1.5001826210339196e+01 0 0 0
54 1 0.0000000000000000e+00 2.1734585605499110e+00 2.2937270356256279e+00 1.5001826210339187e+01 0 0 0
55 1 0.0000000000000000e+00 2.1734585605499146e+00 7.9526377031889579e+00 1.5001826210339528e+01 0 0 0
56 1 0.0000000000000000e+00 6.1492292397262922e+00 1.3611548370752198e+01 1.5001826210339722e+01 0 0 0
57 1 0.0000000000000000e+00 6.1492292397262940e+00 1.9270459038315433e+01 1.5001826210339525e+01 0 0 0
58 1 0.0000000000000000e+00 6.1492292397262887e+00 2.4929369705878766e+01 1.5001826210339191e+01 0 0 0
59 1 0.0000000000000000e+00 6.1492292397262922e+00 2.2937270356256283e+00 1.5001826210339184e+01 0 0 0
60 1 0.0000000000000000e+00 6.1492292397262895e+00 7.9526377031889579e+00 1.5001826210339518e+01 0 0 0
61 1 0.0000000000000000e+00 1.0124999918902684e+01 1.3611548370752196e+01 1.5001826210339727e+01 0 0 0
62 1 0.0000000000000000e+00 1.0124999918902681e+01 1.9270459038315433e+01 1.5001826210339532e+01 0 0 0
63 1 0.0000000000000000e+00 1.0124999918902684e+01 2.4929369705878766e+01 1.5001826210339201e+01 0 0 0
64 1 0.0000000000000000e+00 1.0124999918902684e+01 2.2937270356256283e+00 1.5001826210339193e+01 0 0 0
65 1 0.0000000000000000e+00 1.0124999918902681e+01 7.9526377031889579e+00 1.5001826210339523e+01 0 0 0
66 1 0.0000000000000000e+00 1.4100770598079070e+01 1.3611548370752198e+01 1.5001826210339733e+01 0 0 0
67 1 0.0000000000000000e+00 1.4100770598079079e+01 1.9270459038315433e+01 1.5001826210339535e+01 0 0 0
68 1 0.0000000000000000e+00 1.4100770598079071e+01 2.4929369705878766e+01 1.5001826210339198e+01 0 0 0
69 1 0.0000000000000000e+00 1.4100770598079077e+01 2.2937270356256310e+00 1.5001826210339196e+01 0 0 0
70 1 0.0000000000000000e+00 1.4100770598079079e+01 7.9526377031889579e+00 1.5001826210339532e+01 0 0 0
71 1 0.0000000000000000e+00 1.8076541277255469e+01 1.3611548370752200e+01 1.5001826210339733e+01 0 0 0
72 1 0.0000000000000000e+00 1.8076541277255465e+01 1.9270459038315447e+01 1.5001826210339535e+01 0 0 0
73 1 0.0000000000000000e+00 1.8076541277255462e+01 2.4929369705878770e+01 1.5001826210339193e+01 0 0 0
74 1 0.0000000000000000e+00 1.8076541277255462e+01 2.2937270356256279e+00 1.5001826210339193e+01 0 0 0
75 1 0.0000000000000000e+00 1.8076541277255462e+01 7.9526377031889597e+00 1.5001826210339528e+01 0 0 0
76 1 0.0000000000000000e+00 2.0064426616843690e+01 1.7855731371424579e+01 1.3660715817603821e+01 -1 0 0
77 1 0.0000000000000000e+00 2.0064426616843686e+01 2.3514642038987880e+01 1.3660715817603496e+01 -1 0 0
78 1 0.0000000000000000e+00 2.0064426616843686e+01 8.7899936873479367e-01 1.3660715817603387e+01 -1 0 0
79 1 0.0000000000000000e+00 2.0064426616843690e+01 6.5379100362981886e+00 1.3660715817603663e+01 -1 0 0
80 1 0.0000000000000000e+00 2.0064426616843690e+01 1.2196820703861416e+01 1.3660715817603926e+01 -1 0 0
81 1 0.0000000000000000e+00 4.1613439001381280e+00 1.7855731371424568e+01 1.3660715817603815e+01 0 0 0
82 1 0.0000000000000000e+00 4.1613439001381289e+00 2.3514642038987876e+01 1.3660715817603494e+01 0 0 0
83 1 0.0000000000000000e+00 4.1613439001381280e+00 8.7899936873479190e-01 1.3660715817603382e+01 0 0 0
84 1 0.0000000000000000e+00 4.1613439001381263e+00 6.5379100362981877e+00 1.3660715817603657e+01 0 0 0
85 1 0.0000000000000000e+00 4.1613439001381209e+00 1.2196820703861404e+01 1.3660715817603917e+01 0 0 0
86 1 0.0000000000000000e+00 8.1371145793145203e+00 1.7855731371424579e+01 1.3660715817603826e+01 0 0 0
87 1 0.0000000000000000e+00 8.1371145793145132e+00 2.3514642038987876e+01 1.3660715817603499e+01 0 0 0
88 1 0.0000000000000000e+00 8.1371145793145239e+00 8.7899936873479523e-01 1.3660715817603389e+01 0 0 0
89 1 0.0000000000000000e+00 8.1371145793145221e+00 6.5379100362981877e+00 1.3660715817603663e+01 0 0 0
90 1 0.0000000000000000e+00 8.1371145793145185e+00 1.2196820703861404e+01 1.3660715817603917e+01 0 0 0
91 1 0.0000000000000000e+00 1.2112885258490913e+01 1.7855731371424579e+01 1.3660715817603833e+01 0 0 0
92 1 0.0000000000000000e+00 1.2112885258490913e+01 2.3514642038987876e+01 1.3660715817603499e+01 0 0 0
93 1 0.0000000000000000e+00 1.2112885258490913e+01 8.7899936873479168e-01 1.3660715817603400e+01 0 0 0
94 1 0.0000000000000000e+00 1.2112885258490907e+01 6.5379100362981877e+00 1.3660715817603668e+01 0 0 0
95 1 0.0000000000000000e+00 1.2112885258490913e+01 1.2196820703861407e+01 1.3660715817603927e+01 0 0 0
96 1 0.0000000000000000e+00 1.6088655937667305e+01 1.7855731371424579e+01 1.3660715817603828e+01 0 0 0
97 1 0.0000000000000000e+00 1.6088655937667308e+01 2.3514642038987876e+01 1.3660715817603506e+01 0 0 0
98 1 0.0000000000000000e+00 1.6088655937667301e+01 8.7899936873479501e-01 1.3660715817603400e+01 0 0 0
99 1 0.0000000000000000e+00 1.6088655937667298e+01 6.5379100362981895e+00 1.3660715817603668e+01 0 0 0
100 1 0.0000000000000000e+00 1.6088655937667298e+01 1.2196820703861405e+01 1.3660715817603931e+01 0 0 0
101 1 0.0000000000000000e+00 2.0064426616843576e+01 1.2196820703861381e+01 1.6412877429801387e+01 -1 0 0
102 1 0.0000000000000000e+00 2.0064426616843576e+01 1.7855731371424660e+01 1.6412877429801281e+01 -1 0 0
103 1 0.0000000000000000e+00 2.0064426616843576e+01 2.3514642038987962e+01 1.6412877429800933e+01 -1 0 0
104 1 0.0000000000000000e+00 2.0064426616843573e+01 8.7899936873477413e-01 1.6412877429800819e+01 -1 0 0
105 1 0.0000000000000000e+00 2.0064426616843569e+01 6.5379100362980997e+00 1.6412877429801107e+01 -1 0 0
106 1 0.0000000000000000e+00 4.1613439001380215e+00 1.2196820703861386e+01 1.6412877429801377e+01 0 0 0
107 1 0.0000000000000000e+00 4.1613439001380215e+00 1.7855731371424660e+01 1.6412877429801274e+01 0 0 0
108 1 0.0000000000000000e+00 4.1613439001380250e+00 2.3514642038987965e+01 1.6412877429800929e+01 0 0 0
109 1 0.0000000000000000e+00 4.1613439001380232e+00 8.7899936873477302e-01 1.6412877429800812e+01 0 0 0
110 1 0.0000000000000000e+00 4.1613439001380232e+00 6.5379100362980997e+00 1.6412877429801103e+01 0 0 0
111 1 0.0000000000000000e+00 8.1371145793144066e+00 1.2196820703861388e+01 1.6412877429801377e+01 0 0 0
112 1 0.0000000000000000e+00 8.1371145793144048e+00 1.7855731371424660e+01 1.6412877429801274e+01 0 0 0
113 1 0.0000000000000000e+00 8.1371145793144048e+00 2.3514642038987965e+01 1.6412877429800933e+01 0 0 0
114 1 0.0000000000000000e+00 8.1371145793144048e+00 8.7899936873477480e-01 1.6412877429800815e+01 0 0 0
115 1 0.0000000000000000e+00 8.1371145793144066e+00 6.5379100362981006e+00 1.6412877429801103e+01 0 0 0
116 1 0.0000000000000000e+00 1.2112885258490802e+01 1.2196820703861381e+01 1.6412877429801384e+01 0 0 0
117 1 0.0000000000000000e+00 1.2112885258490797e+01 1.7855731371424660e+01 1.6412877429801281e+01 0 0 0
118 1 0.0000000000000000e+00 1.2112885258490797e+01 2.3514642038987965e+01 1.6412877429800936e+01 0 0 0
119 1 0.0000000000000000e+00 1.2112885258490795e+01 8.7899936873477480e-01 1.6412877429800822e+01 0 0 0
120 1 0.0000000000000000e+00 1.2112885258490802e+01 6.5379100362981033e+00 1.6412877429801110e+01 0 0 0
121 1 0.0000000000000000e+00 1.6088655937667188e+01 1.2196820703861381e+01 1.6412877429801391e+01 0 0 0
122 1 0.0000000000000000e+00 1.6088655937667191e+01 1.7855731371424664e+01 1.6412877429801284e+01 0 0 0
123 1 0.0000000000000000e+00 1.6088655937667195e+01 2.3514642038987965e+01 1.6412877429800933e+01 0 0 0
124 1 0.0000000000000000e+00 1.6088655937667195e+01 8.7899936873477236e-01 1.6412877429800819e+01 0 0 0
125 1 0.0000000000000000e+00 1.6088655937667195e+01 6.5379100362981033e+00 1.6412877429801114e+01 0 0 0
126 1 0.0000000000000000e+00 2.1734585605497245e+00 1.3611548370752201e+01 1.7806212467081302e+01 0 0 0
127 1 0.0000000000000000e+00 2.1734585605497241e+00 1.9270459038315508e+01 1.7806212467081096e+01 0 0 0
128 1 0.0000000000000000e+00 2.1734585605497241e+00 2.4929369705878820e+01 1.7806212467080762e+01 0 0 0
129 1 0.0000000000000000e+00 2.1734585605497192e+00 2.2937270356255914e+00 1.7806212467080755e+01 0 0 0
130 1 0.0000000000000000e+00 2.1734585605497223e+00 7.9526377031888957e+00 1.7806212467081092e+01 0 0 0
131 1 0.0000000000000000e+00 6.1492292397261030e+00 1.3611548370752203e+01 1.7806212467081291e+01 0 0 0
132 1 0.0000000000000000e+00 6.1492292397261021e+00 1.9270459038315515e+01 1.7806212467081096e+01 0 0 0
133 1 0.0000000000000000e+00 6.1492292397260986e+00 2.4929369705878823e+01 1.7806212467080758e+01 0 0 0
134 1 0.0000000000000000e+00 6.1492292397260977e+00 2.2937270356255905e+00 1.7806212467080751e+01 0 0 0
135 1 0.0000000000000000e+00 6.1492292397261021e+00 7.9526377031888922e+00 1.7806212467081089e+01 0 0 0
136 1 0.0000000000000000e+00 1.0124999918902494e+01 1.3611548370752201e+01 1.7806212467081291e+01 0 0 0
137 1 0.0000000000000000e+00 1.0124999918902489e+01 1.9270459038315511e+01 1.7806212467081096e+01 0 0 0
138 1 0.0000000000000000e+00 1.0124999918902491e+01 2.4929369705878823e+01 1.7806212467080766e+01 0 0 0
139 1 0.0000000000000000e+00 1.0124999918902489e+01 2.2937270356255914e+00 1.7806212467080762e+01 0 0 0
140 1 0.0000000000000000e+00 1.0124999918902489e+01 7.9526377031888966e+00 1.7806212467081089e+01 0 0 0
141 1 0.0000000000000000e+00 1.4100770598078896e+01 1.3611548370752203e+01 1.7806212467081298e+01 0 0 0
142 1 0.0000000000000000e+00 1.4100770598078888e+01 1.9270459038315526e+01 1.7806212467081096e+01 0 0 0
143 1 0.0000000000000000e+00 1.4100770598078881e+01 2.4929369705878823e+01 1.7806212467080766e+01 0 0 0
144 1 0.0000000000000000e+00 1.4100770598078887e+01 2.2937270356255937e+00 1.7806212467080762e+01 0 0 0
145 1 0.0000000000000000e+00 1.4100770598078880e+01 7.9526377031888966e+00 1.7806212467081096e+01 0 0 0
146 1 0.0000000000000000e+00 1.8076541277255270e+01 1.3611548370752210e+01 1.7806212467081298e+01 0 0 0
147 1 0.0000000000000000e+00 1.8076541277255274e+01 1.9270459038315511e+01 1.7806212467081100e+01 0 0 0
148 1 0.0000000000000000e+00 1.8076541277255277e+01 2.4929369705878823e+01 1.7806212467080762e+01 0 0 0
149 1 0.0000000000000000e+00 1.8076541277255277e+01 2.2937270356255919e+00 1.7806212467080758e+01 0 0 0
150 1 0.0000000000000000e+00 1.8076541277255277e+01 7.9526377031888957e+00 1.7806212467081100e+01 0 0 0
151 1 0.0000000000000000e+00 2.1734585605497219e+00 1.0782093036970553e+01 1.7806212467081238e+01 0 0 0
152 1 0.0000000000000000e+00 2.1734585605497201e+00 1.6441003704533859e+01 1.7806212467081235e+01 0 0 0
153 1 0.0000000000000000e+00 2.1734585605497254e+00 2.2099914372097171e+01 1.7806212467080915e+01 0 0 0
154 1 0.0000000000000000e+00 2.1734585605497174e+00 2.7758825039660469e+01 1.7806212467080698e+01 0 0 0
155 1 0.0000000000000000e+00 2.1734585605497219e+00 5.1231823694072469e+00 1.7806212467080915e+01 0 0 0
156 1 0.0000000000000000e+00 6.1492292397261057e+00 1.0782093036970551e+01 1.7806212467081231e+01 0 0 0
157 1 0.0000000000000000e+00 6.1492292397261012e+00 1.6441003704533856e+01 1.7806212467081235e+01 0 0 0
158 1 0.0000000000000000e+00 6.1492292397261012e+00 2.2099914372097171e+01 1.7806212467080915e+01 0 0 0
159 1 0.0000000000000000e+00 6.1492292397261012e+00 2.7758825039660469e+01 1.7806212467080694e+01 0 0 0
160 1 0.0000000000000000e+00 6.1492292397261012e+00 5.1231823694072469e+00 1.7806212467080915e+01 0 0 0
161 1 0.0000000000000000e+00 1.0124999918902489e+01 1.0782093036970549e+01 1.7806212467081238e+01 0 0 0
162 1 0.0000000000000000e+00 1.0124999918902494e+01 1.6441003704533859e+01 1.7806212467081238e+01 0 0 0
163 1 0.0000000000000000e+00 1.0124999918902491e+01 2.2099914372097174e+01 1.7806212467080922e+01 0 0 0
164 1 0.0000000000000000e+00 1.0124999918902491e+01 2.7758825039660469e+01 1.7806212467080702e+01 0 0 0
165 1 0.0000000000000000e+00 1.0124999918902489e+01 5.1231823694072425e+00 1.7806212467080915e+01 0 0 0
166 1 0.0000000000000000e+00 1.4100770598078888e+01 1.0782093036970544e+01 1.7806212467081245e+01 0 0 0
167 1 0.0000000000000000e+00 1.4100770598078890e+01 1.6441003704533859e+01 1.7806212467081242e+01 0 0 0
168 1 0.0000000000000000e+00 1.4100770598078880e+01 2.2099914372097178e+01 1.7806212467080922e+01 0 0 0
169 1 0.0000000000000000e+00 1.4100770598078890e+01 2.7758825039660469e+01 1.7806212467080709e+01 0 0 0
170 1 0.0000000000000000e+00 1.4100770598078887e+01 5.1231823694072487e+00 1.7806212467080915e+01 0 0 0
171 1 0.0000000000000000e+00 1.8076541277255274e+01 1.0782093036970549e+01 1.7806212467081245e+01 0 0 0
172 1 0.0000000000000000e+00 1.8076541277255277e+01 1.6441003704533856e+01 1.7806212467081245e+01 0 0 0
173 1 0.0000000000000000e+00 1.8076541277255274e+01 2.2099914372097178e+01 1.7806212467080918e+01 0 0 0
174 1 0.0000000000000000e+00 1.8076541277255274e+01 2.7758825039660469e+01 1.7806212467080702e+01 0 0 0
175 1 0.0000000000000000e+00 1.8076541277255277e+01 5.1231823694072478e+00 1.7806212467080915e+01 0 0 0
176 1 0.0000000000000000e+00 2.0064426616843573e+01 1.5026276037643019e+01 1.6412877429801377e+01 -1 0 0
177 1 0.0000000000000000e+00 2.0064426616843580e+01 2.0685186705206295e+01 1.6412877429801110e+01 -1 0 0
178 1 0.0000000000000000e+00 2.0064426616843573e+01 2.6344097372769632e+01 1.6412877429800812e+01 -1 0 0
179 1 0.0000000000000000e+00 2.0064426616843573e+01 3.7084547025164487e+00 1.6412877429800922e+01 -1 0 0
180 1 0.0000000000000000e+00 2.0064426616843573e+01 9.3673653700797495e+00 1.6412877429801277e+01 -1 0 0
181 1 0.0000000000000000e+00 4.1613439001380250e+00 1.5026276037643019e+01 1.6412877429801380e+01 0 0 0
182 1 0.0000000000000000e+00 4.1613439001380215e+00 2.0685186705206306e+01 1.6412877429801110e+01 0 0 0
183 1 0.0000000000000000e+00 4.1613439001380224e+00 2.6344097372769632e+01 1.6412877429800815e+01 0 0 0
184 1 0.0000000000000000e+00 4.1613439001380250e+00 3.7084547025164434e+00 1.6412877429800922e+01 0 0 0
185 1 0.0000000000000000e+00 4.1613439001380224e+00 9.3673653700797441e+00 1.6412877429801267e+01 0 0 0
186 1 0.0000000000000000e+00 8.1371145793144066e+00 1.5026276037643012e+01 1.6412877429801377e+01 0 0 0
187 1 0.0000000000000000e+00 8.1371145793144066e+00 2.0685186705206309e+01 1.6412877429801110e+01 0 0 0
188 1 0.0000000000000000e+00 8.1371145793144066e+00 2.6344097372769632e+01 1.6412877429800822e+01 0 0 0
189 1 0.0000000000000000e+00 8.1371145793144013e+00 3.7084547025164425e+00 1.6412877429800922e+01 0 0 0
190 1 0.0000000000000000e+00 8.1371145793144066e+00 9.3673653700797423e+00 1.6412877429801274e+01 0 0 0
191 1 0.0000000000000000e+00 1.2112885258490797e+01 1.5026276037643015e+01 1.6412877429801387e+01 0 0 0
192 1 0.0000000000000000e+00 1.2112885258490795e+01 2.0685186705206309e+01 1.6412877429801114e+01 0 0 0
193 1 0.0000000000000000e+00 1.2112885258490802e+01 2.6344097372769632e+01 1.6412877429800819e+01 0 0 0
194 1 0.0000000000000000e+00 1.2112885258490797e+01 3.7084547025164434e+00 1.6412877429800933e+01 0 0 0
195 1 0.0000000000000000e+00 1.2112885258490797e+01 9.3673653700797423e+00 1.6412877429801281e+01 0 0 0
196 1 0.0000000000000000e+00 1.6088655937667195e+01 1.5026276037643015e+01 1.6412877429801387e+01 0 0 0
197 1 0.0000000000000000e+00 1.6088655937667191e+01 2.0685186705206309e+01 1.6412877429801110e+01 0 0 0
198 1 0.0000000000000000e+00 1.6088655937667191e+01 2.6344097372769628e+01 1.6412877429800822e+01 0 0 0
199 1 0.0000000000000000e+00 1.6088655937667195e+01 3.7084547025164434e+00 1.6412877429800933e+01 0 0 0
200 1 0.0000000000000000e+00 1.6088655937667195e+01 9.3673653700797423e+00 1.6412877429801277e+01 0 0 0
201 1 0.0000000000000000e+00 2.0064426616843306e+01 9.3673653700797033e+00 1.9271644936348721e+01 -1 0 0
202 1 0.0000000000000000e+00 2.0064426616843303e+01 1.5026276037643040e+01 1.9271644936348817e+01 -1 0 0
203 1 0.0000000000000000e+00 2.0064426616843303e+01 2.0685186705206370e+01 1.9271644936348565e+01 -1 0 0
204 1 0.0000000000000000e+00 2.0064426616843299e+01 2.6344097372769657e+01 1.9271644936348292e+01 -1 0 0
205 1 0.0000000000000000e+00 2.0064426616843306e+01 3.7084547025164079e+00 1.9271644936348395e+01 -1 0 0
206 1 0.0000000000000000e+00 4.1613439001377506e+00 9.3673653700797015e+00 1.9271644936348714e+01 0 0 0
207 1 0.0000000000000000e+00 4.1613439001377515e+00 1.5026276037643040e+01 1.9271644936348821e+01 0 0 0
208 1 0.0000000000000000e+00 4.1613439001377541e+00 2.0685186705206366e+01 1.9271644936348558e+01 0 0 0
209 1 0.0000000000000000e+00 4.1613439001377479e+00 2.6344097372769653e+01 1.9271644936348284e+01 0 0 0
210 1 0.0000000000000000e+00 4.1613439001377488e+00 3.7084547025164070e+00 1.9271644936348395e+01 0 0 0
211 1 0.0000000000000000e+00 8.1371145793141313e+00 9.3673653700797033e+00 1.9271644936348714e+01 0 0 0
212 1 0.0000000000000000e+00 8.1371145793141384e+00 1.5026276037643040e+01 1.9271644936348814e+01 0 0 0
213 1 0.0000000000000000e+00 8.1371145793141348e+00 2.0685186705206366e+01 1.9271644936348562e+01 0 0 0
214 1 0.0000000000000000e+00 8.1371145793141366e+00 2.6344097372769657e+01 1.9271644936348292e+01 0 0 0
215 1 0.0000000000000000e+00 8.1371145793141366e+00 3.7084547025164070e+00 1.9271644936348387e+01 0 0 0
216 1 0.0000000000000000e+00 1.2112885258490529e+01 9.3673653700797050e+00 1.9271644936348721e+01 0 0 0
217 1 0.0000000000000000e+00 1.2112885258490532e+01 1.5026276037643040e+01 1.9271644936348828e+01 0 0 0
218 1 0.0000000000000000e+00 1.2112885258490529e+01 2.0685186705206370e+01 1.9271644936348562e+01 0 0 0
219 1 0.0000000000000000e+00 1.2112885258490531e+01 2.6344097372769657e+01 1.9271644936348292e+01 0 0 0
220 1 0.0000000000000000e+00 1.2112885258490529e+01 3.7084547025164047e+00 1.9271644936348391e+01 0 0 0
221 1 0.0000000000000000e+00 1.6088655937666918e+01 9.3673653700797015e+00 1.9271644936348718e+01 0 0 0
222 1 0.0000000000000000e+00 1.6088655937666921e+01 1.5026276037643040e+01 1.9271644936348821e+01 0 0 0
223 1 0.0000000000000000e+00 1.6088655937666921e+01 2.0685186705206377e+01 1.9271644936348558e+01 0 0 0
224 1 0.0000000000000000e+00 1.6088655937666925e+01 2.6344097372769657e+01 1.9271644936348288e+01 0 0 0
225 1 0.0000000000000000e+00 1.6088655937666918e+01 3.7084547025164047e+00 1.9271644936348387e+01 0 0 0
226 1 0.0000000000000000e+00 2.1734585605493817e+00 1.0782093036970529e+01 2.0722929765229352e+01 0 0 0
227 1 0.0000000000000000e+00 2.1734585605493777e+00 1.6441003704533884e+01 2.0722929765229352e+01 0 0 0
228 1 0.0000000000000000e+00 2.1734585605493799e+00 2.2099914372097203e+01 2.0722929765229068e+01 0 0 0
229 1 0.0000000000000000e+00 2.1734585605493821e+00 2.7758825039660469e+01 2.0722929765228884e+01 0 0 0
230 1 0.0000000000000000e+00 2.1734585605493821e+00 5.1231823694072132e+00 2.0722929765229075e+01 0 0 0
231 1 0.0000000000000000e+00 6.1492292397257646e+00 1.0782093036970526e+01 2.0722929765229345e+01 0 0 0
232 1 0.0000000000000000e+00 6.1492292397257620e+00 1.6441003704533884e+01 2.0722929765229349e+01 0 0 0
233 1 0.0000000000000000e+00 6.1492292397257602e+00 2.2099914372097203e+01 2.0722929765229068e+01 0 0 0
234 1 0.0000000000000000e+00 6.1492292397257575e+00 2.7758825039660469e+01 2.0722929765228880e+01 0 0 0
235 1 0.0000000000000000e+00 6.1492292397257557e+00 5.1231823694072105e+00 2.0722929765229068e+01 0 0 0
236 1 0.0000000000000000e+00 1.0124999918902152e+01 1.0782093036970529e+01 2.0722929765229349e+01 0 0 0
237 1 0.0000000000000000e+00 1.0124999918902150e+01 1.6441003704533884e+01 2.0722929765229352e+01 0 0 0
238 1 0.0000000000000000e+00 1.0124999918902146e+01 2.2099914372097203e+01 2.0722929765229072e+01 0 0 0
239 1 0.0000000000000000e+00 1.0124999918902152e+01 2.7758825039660469e+01 2.0722929765228880e+01 0 0 0
240 1 0.0000000000000000e+00 1.0124999918902146e+01 5.1231823694072087e+00 2.0722929765229068e+01 0 0 0
241 1 0.0000000000000000e+00 1.4100770598078544e+01 1.0782093036970529e+01 2.0722929765229360e+01 0 0 0
242 1 0.0000000000000000e+00 1.4100770598078542e+01 1.6441003704533884e+01 2.0722929765229360e+01 0 0 0
243 1 0.0000000000000000e+00 1.4100770598078549e+01 2.2099914372097203e+01 2.0722929765229061e+01 0 0 0
244 1 0.0000000000000000e+00 1.4100770598078549e+01 2.7758825039660469e+01 2.0722929765228880e+01 0 0 0
245 1 0.0000000000000000e+00 1.4100770598078544e+01 5.1231823694072149e+00 2.0722929765229068e+01 0 0 0
246 1 0.0000000000000000e+00 1.8076541277254925e+01 1.0782093036970526e+01 2.0722929765229360e+01 0 0 0
247 1 0.0000000000000000e+00 1.8076541277254929e+01 1.6441003704533887e+01 2.0722929765229352e+01 0 0 0
248 1 0.0000000000000000e+00 1.8076541277254929e+01 2.2099914372097210e+01 2.0722929765229065e+01 0 0 0
249 1 0.0000000000000000e+00 1.8076541277254925e+01 2.7758825039660469e+01 2.0722929765228894e+01 0 0 0
250 1 0.0000000000000000e+00 1.8076541277254929e+01 5.1231823694072132e+00 2.0722929765229072e+01 0 0 0
251 1 0.0000000000000000e+00 2.1734585605493826e+00 7.9526377031888620e+00 2.0722929765229225e+01 0 0 0
252 1 0.0000000000000000e+00 2.1734585605493804e+00 1.3611548370752212e+01 2.0722929765229402e+01 0 0 0
253 1 0.0000000000000000e+00 2.1734585605493808e+00 1.9270459038315558e+01 2.0722929765229228e+01 0 0 0
254 1 0.0000000000000000e+00 2.1734585605493790e+00 2.4929369705878848e+01 2.0722929765228933e+01 0 0 0
255 1 0.0000000000000000e+00 2.1734585605493826e+00 2.2937270356255732e+00 2.0722929765228944e+01 0 0 0
256 1 0.0000000000000000e+00 6.1492292397257557e+00 7.9526377031888593e+00 2.0722929765229221e+01 0 0 0
257 1 0.0000000000000000e+00 6.1492292397257611e+00 1.3611548370752210e+01 2.0722929765229399e+01 0 0 0
258 1 0.0000000000000000e+00 6.1492292397257602e+00 1.9270459038315558e+01 2.0722929765229232e+01 0 0 0
259 1 0.0000000000000000e+00 6.1492292397257566e+00 2.4929369705878848e+01 2.0722929765228930e+01 0 0 0
260 1 0.0000000000000000e+00 6.1492292397257575e+00 2.2937270356255715e+00 2.0722929765228930e+01 0 0 0
261 1 0.0000000000000000e+00 1.0124999918902150e+01 7.9526377031888558e+00 2.0722929765229225e+01 0 0 0
262 1 0.0000000000000000e+00 1.0124999918902153e+01 1.3611548370752212e+01 2.0722929765229399e+01 0 0 0
263 1 0.0000000000000000e+00 1.0124999918902153e+01 1.9270459038315558e+01 2.0722929765229225e+01 0 0 0
264 1 0.0000000000000000e+00 1.0124999918902150e+01 2.4929369705878852e+01 2.0722929765228937e+01 0 0 0
265 1 0.0000000000000000e+00 1.0124999918902144e+01 2.2937270356255768e+00 2.0722929765228937e+01 0 0 0
266 1 0.0000000000000000e+00 1.4100770598078542e+01 7.9526377031888558e+00 2.0722929765229228e+01 0 0 0
267 1 0.0000000000000000e+00 1.4100770598078542e+01 1.3611548370752208e+01 2.0722929765229413e+01 0 0 0
268 1 0.0000000000000000e+00 1.4100770598078544e+01 1.9270459038315561e+01 2.0722929765229232e+01 0 0 0
269 1 0.0000000000000000e+00 1.4100770598078542e+01 2.4929369705878852e+01 2.0722929765228937e+01 0 0 0
270 1 0.0000000000000000e+00 1.4100770598078549e+01 2.2937270356255732e+00 2.0722929765228937e+01 0 0 0
271 1 0.0000000000000000e+00 1.8076541277254925e+01 7.9526377031888620e+00 2.0722929765229228e+01 0 0 0
272 1 0.0000000000000000e+00 1.8076541277254933e+01 1.3611548370752210e+01 2.0722929765229413e+01 0 0 0
273 1 0.0000000000000000e+00 1.8076541277254925e+01 1.9270459038315561e+01 2.0722929765229235e+01 0 0 0
274 1 0.0000000000000000e+00 1.8076541277254936e+01 2.4929369705878848e+01 2.0722929765228944e+01 0 0 0
275 1 0.0000000000000000e+00 1.8076541277254925e+01 2.2937270356255741e+00 2.0722929765228937e+01 0 0 0
276 1 0.0000000000000000e+00 2.0064426616843299e+01 1.2196820703861373e+01 1.9271644936348828e+01 -1 0 0
277 1 0.0000000000000000e+00 2.0064426616843303e+01 1.7855731371424714e+01 1.9271644936348725e+01 -1 0 0
278 1 0.0000000000000000e+00 2.0064426616843303e+01 2.3514642038988015e+01 1.9271644936348395e+01 -1 0 0
279 1 0.0000000000000000e+00 2.0064426616843303e+01 8.7899936873476214e-01 1.9271644936348288e+01 -1 0 0
280 1 0.0000000000000000e+00 2.0064426616843303e+01 6.5379100362980491e+00 1.9271644936348562e+01 -1 0 0
281 1 0.0000000000000000e+00 4.1613439001377506e+00 1.2196820703861372e+01 1.9271644936348810e+01 0 0 0
282 1 0.0000000000000000e+00 4.1613439001377523e+00 1.7855731371424699e+01 1.9271644936348718e+01 0 0 0
283 1 0.0000000000000000e+00 4.1613439001377488e+00 2.3514642038988015e+01 1.9271644936348387e+01 0 0 0
284 1 0.0000000000000000e+00 4.1613439001377470e+00 8.7899936873476125e-01 1.9271644936348277e+01 0 0 0
285 1 0.0000000000000000e+00 4.1613439001377523e+00 6.5379100362980465e+00 1.9271644936348562e+01 0 0 0