       N       E                     dE             d eps       ncg     rms          rms(c)
DAV:   1     0.138302967815E+02    0.13830E+02   -0.49375E+03    64   0.122E+03
DAV:   2    -0.744593960026E+01   -0.21276E+02   -0.21222E+02    88   0.959E+01
DAV:   3    -0.787488526612E+01   -0.42895E+00   -0.42894E+00   104   0.162E+01
DAV:   4    -0.787540544942E+01   -0.52018E-03   -0.52018E-03    96   0.593E-01
DAV:   5    -0.787540610964E+01   -0.66023E-06   -0.66029E-06    96   0.172E-02    0.400E+00
DAV:   6    -0.778939824159E+01    0.86008E-01   -0.11268E-01    80   0.198E+00    0.247E+00
DAV:   7    -0.776758844661E+01    0.21810E-01   -0.26795E-01    80   0.304E+00    0.214E-01
DAV:   8    -0.774882286692E+01    0.18766E-01   -0.77143E-03    96   0.624E-01    0.109E-01
DAV:   9    -0.775070897959E+01   -0.18861E-02   -0.87959E-04    80   0.199E-01    0.757E-02
DAV:  10    -0.774992325912E+01    0.78572E-03   -0.54752E-05    88   0.611E-02    0.200E-02
DAV:  11    -0.774983232524E+01    0.90934E-04   -0.74372E-07    88   0.723E-03    0.166E-03
DAV:  12    -0.774983870524E+01   -0.63800E-05   -0.11517E-07    80   0.376E-03    0.344E-04
DAV:  13    -0.774983894445E+01   -0.23922E-06   -0.43083E-09    72   0.503E-04    0.117E-04
DAV:  14    -0.774983816492E+01    0.77953E-06   -0.18980E-10    72   0.141E-04    0.318E-05
DAV:  15    -0.774983770276E+01    0.46216E-06   -0.15864E-11    64   0.357E-05    0.643E-06
DAV:  16    -0.774983786039E+01   -0.15764E-06   -0.44012E-12    40   0.965E-06    0.622E-07
DAV:  17    -0.774983786538E+01   -0.49830E-08   -0.83827E-13    32   0.497E-06
   1 F= -.77498379E+01 E0= -.77494487E+01  d E =-.774984E+01
