   2   2   0   0
  0.2044415E+02  0.3866974E-09  0.3866975E-09  0.3866975E-09  0.5000000E-15
  1.000000000000000E-004
  CAR 
 unknown system                          
     17.20270411     -8.14703135  301      5.92831285      1.00000000
     -8.147  0.0000E+00  0.0000E+00
     -8.063  0.0000E+00  0.0000E+00
     -7.978  0.0000E+00  0.0000E+00
     -7.894  0.0000E+00  0.0000E+00
     -7.809  0.0000E+00  0.0000E+00
     -7.725  0.0000E+00  0.0000E+00
     -7.640  0.0000E+00  0.0000E+00
     -7.556  0.0000E+00  0.0000E+00
     -7.471  0.0000E+00  0.0000E+00
     -7.387  0.0000E+00  0.0000E+00
     -7.302  0.2961E-17  0.2502E-18
     -7.218  0.3376E-15  0.2878E-16
     -7.133  0.2831E-13  0.2421E-14
     -7.049  0.1685E-11  0.1448E-12
     -6.964  0.7125E-10  0.6165E-11
     -6.880  0.2153E-08  0.1881E-09
     -6.795  0.4685E-07  0.4147E-08
     -6.711  0.7408E-06  0.6674E-07
     -6.626  0.8604E-05  0.7938E-06
     -6.542  0.7418E-04  0.7062E-05
     -6.457  0.4785E-03  0.4749E-04
     -6.373  0.2319E-02  0.2434E-03
     -6.288  0.8461E-02  0.9583E-03
     -6.204  0.2338E-01  0.2934E-02
     -6.119  0.4987E-01  0.7148E-02
     -6.035  0.8568E-01  0.1439E-01
     -5.950  0.1264E+00  0.2507E-01
     -5.866  0.1685E+00  0.3931E-01
     -5.781  0.2036E+00  0.5652E-01
     -5.697  0.2240E+00  0.7544E-01
     -5.612  0.2403E+00  0.9575E-01
     -5.528  0.2723E+00  0.1188E+00
     -5.443  0.3140E+00  0.1453E+00
     -5.359  0.3401E+00  0.1740E+00
     -5.274  0.3410E+00  0.2028E+00
     -5.190  0.3324E+00  0.2309E+00
     -5.105  0.3430E+00  0.2599E+00
     -5.021  0.3916E+00  0.2930E+00
     -4.936  0.4553E+00  0.3315E+00
     -4.852  0.4884E+00  0.3728E+00
     -4.767  0.4784E+00  0.4132E+00
     -4.683  0.4495E+00  0.4512E+00
     -4.598  0.4308E+00  0.4876E+00
     -4.514  0.4550E+00  0.5260E+00
     -4.429  0.5386E+00  0.5715E+00
     -4.345  0.6414E+00  0.6257E+00
     -4.260  0.6950E+00  0.6844E+00
     -4.176  0.6759E+00  0.7416E+00
     -4.091  0.6236E+00  0.7943E+00
     -4.007  0.6024E+00  0.8452E+00
     -3.922  0.6648E+00  0.9013E+00
     -3.838  0.8091E+00  0.9697E+00
     -3.753  0.9463E+00  0.1050E+01
     -3.669  0.9702E+00  0.1132E+01
     -3.584  0.8782E+00  0.1206E+01
     -3.500  0.7554E+00  0.1270E+01
     -3.415  0.6741E+00  0.1327E+01
     -3.331  0.6717E+00  0.1383E+01
     -3.246  0.7381E+00  0.1446E+01
     -3.162  0.7860E+00  0.1512E+01
     -3.077  0.7316E+00  0.1574E+01
     -2.993  0.6049E+00  0.1625E+01
     -2.908  0.5094E+00  0.1668E+01
     -2.824  0.5030E+00  0.1711E+01
     -2.739  0.5543E+00  0.1758E+01
     -2.655  0.5790E+00  0.1806E+01
     -2.570  0.5189E+00  0.1850E+01
     -2.486  0.4014E+00  0.1884E+01
     -2.401  0.3020E+00  0.1910E+01
     -2.317  0.2608E+00  0.1932E+01
     -2.232  0.2584E+00  0.1954E+01
     -2.148  0.2532E+00  0.1975E+01
     -2.063  0.2255E+00  0.1994E+01
     -1.979  0.1888E+00  0.2010E+01
     -1.894  0.1650E+00  0.2024E+01
     -1.810  0.1595E+00  0.2037E+01
     -1.725  0.1685E+00  0.2052E+01
     -1.641  0.2038E+00  0.2069E+01
     -1.556  0.2903E+00  0.2093E+01
     -1.472  0.4318E+00  0.2130E+01
     -1.387  0.5842E+00  0.2179E+01
     -1.303  0.6917E+00  0.2238E+01
     -1.218  0.7700E+00  0.2303E+01
     -1.134  0.8932E+00  0.2378E+01
     -1.049  0.1062E+01  0.2468E+01
     -0.965  0.1176E+01  0.2567E+01
     -0.880  0.1164E+01  0.2666E+01
     -0.796  0.1064E+01  0.2756E+01
     -0.711  0.9282E+00  0.2834E+01
     -0.627  0.7742E+00  0.2899E+01
     -0.542  0.6448E+00  0.2954E+01
     -0.458  0.6035E+00  0.3005E+01
     -0.373  0.6282E+00  0.3058E+01
     -0.289  0.6207E+00  0.3110E+01
     -0.204  0.5491E+00  0.3157E+01
     -0.120  0.4782E+00  0.3197E+01
     -0.035  0.4529E+00  0.3236E+01
      0.049  0.4409E+00  0.3273E+01
      0.134  0.4100E+00  0.3307E+01
      0.218  0.3870E+00  0.3340E+01
      0.303  0.3985E+00  0.3374E+01
      0.387  0.4130E+00  0.3409E+01
      0.472  0.3887E+00  0.3442E+01
      0.556  0.3338E+00  0.3470E+01
      0.641  0.2942E+00  0.3495E+01
      0.725  0.2983E+00  0.3520E+01
      0.810  0.3227E+00  0.3547E+01
      0.894  0.3114E+00  0.3573E+01
      0.979  0.2426E+00  0.3594E+01
      1.063  0.1670E+00  0.3608E+01
      1.148  0.1645E+00  0.3622E+01
      1.232  0.2750E+00  0.3645E+01
      1.317  0.4648E+00  0.3684E+01
      1.401  0.6560E+00  0.3740E+01
      1.486  0.7963E+00  0.3807E+01
      1.570  0.8814E+00  0.3882E+01
      1.655  0.9269E+00  0.3960E+01
      1.739  0.9742E+00  0.4042E+01
      1.824  0.1073E+01  0.4133E+01
      1.908  0.1192E+01  0.4234E+01
      1.993  0.1223E+01  0.4337E+01
      2.077  0.1131E+01  0.4433E+01
      2.162  0.1008E+01  0.4518E+01
      2.246  0.9550E+00  0.4599E+01
      2.331  0.9888E+00  0.4682E+01
      2.415  0.1085E+01  0.4774E+01
      2.500  0.1209E+01  0.4876E+01
      2.584  0.1304E+01  0.4986E+01
      2.669  0.1312E+01  0.5097E+01
      2.753  0.1277E+01  0.5205E+01
      2.838  0.1322E+01  0.5317E+01
      2.922  0.1484E+01  0.5442E+01
      3.007  0.1629E+01  0.5580E+01
      3.091  0.1610E+01  0.5716E+01
      3.176  0.1462E+01  0.5839E+01
      3.260  0.1364E+01  0.5954E+01
      3.345  0.1393E+01  0.6072E+01
      3.429  0.1432E+01  0.6193E+01
      3.514  0.1368E+01  0.6309E+01
      3.598  0.1271E+01  0.6416E+01
      3.683  0.1285E+01  0.6525E+01
      3.767  0.1408E+01  0.6644E+01
      3.852  0.1491E+01  0.6770E+01
      3.936  0.1440E+01  0.6891E+01
      4.021  0.1319E+01  0.7003E+01
      4.105  0.1232E+01  0.7107E+01
      4.190  0.1175E+01  0.7206E+01
      4.274  0.1086E+01  0.7298E+01
      4.359  0.9871E+00  0.7381E+01
      4.443  0.9468E+00  0.7461E+01
      4.528  0.9425E+00  0.7541E+01
      4.612  0.8930E+00  0.7616E+01
      4.697  0.7952E+00  0.7684E+01
      4.781  0.7038E+00  0.7743E+01
      4.866  0.6219E+00  0.7796E+01
      4.950  0.5203E+00  0.7840E+01
      5.035  0.4131E+00  0.7874E+01
      5.119  0.3338E+00  0.7903E+01
      5.204  0.2790E+00  0.7926E+01
      5.288  0.2300E+00  0.7946E+01
      5.373  0.1903E+00  0.7962E+01
      5.457  0.1627E+00  0.7976E+01
      5.542  0.1310E+00  0.7987E+01
      5.626  0.8751E-01  0.7994E+01
      5.711  0.4555E-01  0.7998E+01
      5.795  0.1829E-01  0.7999E+01
      5.880  0.5866E-02  0.8000E+01
      5.964  0.2503E-02  0.8000E+01
      6.049  0.5200E-02  0.8001E+01
      6.133  0.1592E-01  0.8002E+01
      6.218  0.3882E-01  0.8005E+01
      6.302  0.7606E-01  0.8012E+01
      6.387  0.1268E+00  0.8022E+01
      6.471  0.1869E+00  0.8038E+01
      6.556  0.2458E+00  0.8059E+01
      6.640  0.2907E+00  0.8083E+01
      6.725  0.3178E+00  0.8110E+01
      6.809  0.3407E+00  0.8139E+01
      6.894  0.3894E+00  0.8172E+01
      6.978  0.4823E+00  0.8213E+01
      7.063  0.5946E+00  0.8263E+01
      7.147  0.6938E+00  0.8322E+01
      7.232  0.7943E+00  0.8389E+01
      7.316  0.9157E+00  0.8466E+01
      7.401  0.1020E+01  0.8552E+01
      7.485  0.1064E+01  0.8642E+01
      7.570  0.1078E+01  0.8733E+01
      7.654  0.1125E+01  0.8828E+01
      7.739  0.1231E+01  0.8932E+01
      7.823  0.1368E+01  0.9048E+01
      7.908  0.1475E+01  0.9173E+01
      7.992  0.1481E+01  0.9298E+01
      8.077  0.1392E+01  0.9415E+01
      8.161  0.1315E+01  0.9526E+01
      8.246  0.1317E+01  0.9638E+01
      8.330  0.1335E+01  0.9750E+01
      8.415  0.1290E+01  0.9859E+01
      8.499  0.1205E+01  0.9961E+01
      8.584  0.1146E+01  0.1006E+02
      8.668  0.1172E+01  0.1016E+02
      8.753  0.1338E+01  0.1027E+02
      8.837  0.1639E+01  0.1041E+02
      8.922  0.1947E+01  0.1057E+02
      9.006  0.2091E+01  0.1075E+02
      9.091  0.2033E+01  0.1092E+02
      9.175  0.1896E+01  0.1108E+02
      9.260  0.1807E+01  0.1123E+02
      9.344  0.1761E+01  0.1138E+02
      9.429  0.1661E+01  0.1152E+02
      9.513  0.1452E+01  0.1165E+02
      9.598  0.1209E+01  0.1175E+02
      9.682  0.1059E+01  0.1184E+02
      9.767  0.1051E+01  0.1193E+02
      9.851  0.1123E+01  0.1202E+02
      9.936  0.1160E+01  0.1212E+02
     10.020  0.1122E+01  0.1221E+02
     10.105  0.1126E+01  0.1231E+02
     10.189  0.1321E+01  0.1242E+02
     10.274  0.1652E+01  0.1256E+02
     10.358  0.1881E+01  0.1272E+02
     10.443  0.1852E+01  0.1288E+02
     10.527  0.1647E+01  0.1302E+02
     10.612  0.1427E+01  0.1314E+02
     10.696  0.1256E+01  0.1324E+02
     10.781  0.1103E+01  0.1334E+02
     10.865  0.9537E+00  0.1342E+02
     10.950  0.8394E+00  0.1349E+02
     11.034  0.7911E+00  0.1355E+02
     11.119  0.8292E+00  0.1362E+02
     11.203  0.9546E+00  0.1370E+02
     11.288  0.1107E+01  0.1380E+02
     11.372  0.1177E+01  0.1390E+02
     11.457  0.1114E+01  0.1399E+02
     11.541  0.1008E+01  0.1408E+02
     11.626  0.9958E+00  0.1416E+02
     11.710  0.1105E+01  0.1425E+02
     11.795  0.1256E+01  0.1436E+02
     11.879  0.1350E+01  0.1447E+02
     11.964  0.1319E+01  0.1459E+02
     12.048  0.1148E+01  0.1468E+02
     12.133  0.9216E+00  0.1476E+02
     12.217  0.7729E+00  0.1483E+02
     12.302  0.7338E+00  0.1489E+02
     12.386  0.7214E+00  0.1495E+02
     12.471  0.6669E+00  0.1501E+02
     12.555  0.5871E+00  0.1506E+02
     12.640  0.5450E+00  0.1510E+02
     12.724  0.5814E+00  0.1515E+02
     12.809  0.6596E+00  0.1521E+02
     12.893  0.6896E+00  0.1526E+02
     12.978  0.6317E+00  0.1532E+02
     13.062  0.5483E+00  0.1536E+02
     13.147  0.5398E+00  0.1541E+02
     13.231  0.6373E+00  0.1546E+02
     13.316  0.7636E+00  0.1553E+02
     13.400  0.8203E+00  0.1560E+02
     13.485  0.7968E+00  0.1566E+02
     13.569  0.7556E+00  0.1573E+02
     13.654  0.7177E+00  0.1579E+02
     13.738  0.6243E+00  0.1584E+02
     13.823  0.4417E+00  0.1588E+02
     13.907  0.2358E+00  0.1590E+02
     13.992  0.9171E-01  0.1591E+02
     14.076  0.2557E-01  0.1591E+02
     14.161  0.5074E-02  0.1591E+02
     14.245  0.7170E-03  0.1591E+02
     14.330  0.1102E-03  0.1591E+02
     14.414  0.3497E-03  0.1591E+02
     14.499  0.2160E-02  0.1591E+02
     14.583  0.9680E-02  0.1591E+02
     14.668  0.3128E-01  0.1591E+02
     14.752  0.7384E-01  0.1592E+02
     14.837  0.1297E+00  0.1593E+02
     14.921  0.1740E+00  0.1595E+02
     15.006  0.1845E+00  0.1596E+02
     15.090  0.1621E+00  0.1597E+02
     15.175  0.1245E+00  0.1599E+02
     15.259  0.8587E-01  0.1599E+02
     15.344  0.5156E-01  0.1600E+02
     15.428  0.2511E-01  0.1600E+02
     15.513  0.9309E-02  0.1600E+02
     15.597  0.2529E-02  0.1600E+02
     15.682  0.4935E-03  0.1600E+02
     15.766  0.6852E-04  0.1600E+02
     15.851  0.6737E-05  0.1600E+02
     15.935  0.4679E-06  0.1600E+02
     16.020  0.2292E-07  0.1600E+02
     16.104  0.7913E-09  0.1600E+02
     16.189  0.1924E-10  0.1600E+02
     16.273  0.3291E-12  0.1600E+02
     16.358  0.3933E-14  0.1600E+02
     16.442  0.4738E-16  0.1600E+02
     16.527  0.0000E+00  0.1600E+02
     16.611  0.0000E+00  0.1600E+02
     16.696  0.0000E+00  0.1600E+02
     16.780  0.0000E+00  0.1600E+02
     16.865  0.0000E+00  0.1600E+02
     16.949  0.0000E+00  0.1600E+02
     17.034  0.0000E+00  0.1600E+02
     17.118  0.0000E+00  0.1600E+02
     17.203  0.0000E+00  0.1600E+02
