 vasp.5.3.3 18Dez12 (build Jan 30 2013 10:57:47) complex                        
  
 executed on             LinuxIFC date 2016.06.21  12:52:29
 running on   16 total cores
 distrk:  each k-point on   16 cores,    1 groups
 distr:  one band on NCORES_PER_BAND=   4 cores,    4 groups


--------------------------------------------------------------------------------------------------------


 INCAR:
 POTCAR:    PAW_PBE Si 05Jan2001                  

 ----------------------------------------------------------------------------- 
|                                                                             |
|  ADVICE TO THIS USER RUNNING 'VASP/VAMP'   (HEAR YOUR MASTER'S VOICE ...):  |
|                                                                             |
|      You have switched on vdW-DFT.                                          |
|      This routine was written and supplied by Jiri Klimes.                  |
|      We recommed that you carefully read and cite the following             |
|      publication                                                            |
|      J. Klimes, D.R. Bowler, A. Michelides                                  |
|        J. Phys.: Cond Matt. 22 022201 (2010)                                |
|      J. Klimes, D.R. Bowler, A. Michelides                                  |
|        Phys. Rev. B. 83, 195131 (2011)                                      |
|      and references therein.                                                |
|                                                                             |
 ----------------------------------------------------------------------------- 

 POTCAR:    PAW_PBE Si 05Jan2001                  
   VRHFIN =Si: s2p2                                                             
   LEXCH  = PE                                                                  
   EATOM  =   103.0669 eV,    7.5752 Ry                                         
                                                                                
   TITEL  = PAW_PBE Si 05Jan2001                                                
   LULTRA =        F    use ultrasoft PP ?                                      
   IUNSCR =        1    unscreen: 0-lin 1-nonlin 2-no                           
   RPACOR =    1.500    partial core radius                                     
   POMASS =   28.085; ZVAL   =    4.000    mass and valenz                      
   RCORE  =    1.900    outmost cutoff radius                                   
   RWIGS  =    2.480; RWIGS  =    1.312    wigner-seitz radius (au A)           
   ENMAX  =  245.345; ENMIN  =  184.009 eV                                      
   ICORE  =        2    local potential                                         
   LCOR   =        T    correct aug charges                                     
   LPAW   =        T    paw PP                                                  
   EAUG   =  322.069                                                            
   DEXC   =    0.000                                                            
   RMAX   =    1.950    core radius for proj-oper                               
   RAUG   =    1.300    factor for augmentation sphere                          
   RDEP   =    1.993    radius for radial grids                                 
   RDEPT  =    1.837    core radius for aug-charge                              
                                                                                
   Atomic configuration                                                         
    6 entries                                                                   
     n  l   j            E        occ.                                          
     1  0  0.50     -1785.8828   2.0000                                         
     2  0  0.50      -139.4969   2.0000                                         
     2  1  1.50       -95.5546   6.0000                                         
     3  0  0.50       -10.8127   2.0000                                         
     3  1  0.50        -4.0811   2.0000                                         
     3  2  1.50        -4.0817   0.0000                                         
   Description                                                                  
     l       E           TYP  RCUT    TYP  RCUT                                 
     0    -10.8127223     23  1.900                                             
     0     -7.6451159     23  1.900                                             
     1     -4.0811372     23  1.900                                             
     1      2.4879257     23  1.900                                             
     2     -4.0817478      7  1.900                                             
  local pseudopotential read in
  partial core-charges read in
  partial kinetic energy density read in
  atomic valenz-charges read in
  non local Contribution for L=           0  read in
    real space projection operators read in
  non local Contribution for L=           0  read in
    real space projection operators read in
  non local Contribution for L=           1  read in
    real space projection operators read in
  non local Contribution for L=           1  read in
    real space projection operators read in
    PAW grid and wavefunctions read in
 
   number of l-projection  operators is LMAX  =           4
   number of lm-projection operators is LMMAX =           8
 

 ----------------------------------------------------------------------------- 
|                                                                             |
|  ADVICE TO THIS USER RUNNING 'VASP/VAMP'   (HEAR YOUR MASTER'S VOICE ...):  |
|                                                                             |
|      You enforced a specific xc-type in the INCAR file,                     |
|      a different type was found on the POTCAR file                          |
|          I HOPE YOU KNOW, WHAT YOU ARE  DOING                               |
|                                                                             |
 ----------------------------------------------------------------------------- 

  PAW_PBE Si 05Jan2001                  :
 energy of atom  1       EATOM= -103.0669
 kinetic energy error for atom=    0.0004 (will be added to EATOM!!)
 
 
 POSCAR: bulk@mp_149                             
  positions in direct lattice
  No initial velocities read in
 exchange correlation table for  LEXCH =       42
   RHO(1)=    0.500       N(1)  =     2000
   RHO(2)=  100.500       N(2)  =     4000
 


--------------------------------------------------------------------------------------------------------


 ion  position               nearest neighbor table
   1  0.875  0.875  0.875-   2 2.37   2 2.37   2 2.37   2 2.37
   2  0.125  0.125  0.125-   1 2.37   1 2.37   1 2.37   1 2.37
 
  LATTYP: Found a face centered cubic cell.
 ALAT       =     5.4687284904
  
  Lattice vectors:
  
 A1 = (   3.3488980000,   0.0000000000,   1.9334870000)
 A2 = (   1.1162990000,   3.1573720000,   1.9334870000)
 A3 = (   0.0000000000,   0.0000000000,   3.8669750000)


Analysis of symmetry for initial positions (statically):
=====================================================================
 Subroutine PRICEL returns:
 Original cell was already a primitive cell.
 

 Routine SETGRP: Setting up the symmetry group for a 
 face centered cubic supercell.


 Subroutine GETGRP returns: Found 48 space group operations
 (whereof 12 operations were pure point group operations)
 out of a pool of 48 trial point group operations.


The static configuration has the point symmetry D_3d.
 The point group associated with its full space group is O_h .


Analysis of symmetry for dynamics (positions and initial velocities):
=====================================================================
 Subroutine PRICEL returns:
 Original cell was already a primitive cell.
 

 Routine SETGRP: Setting up the symmetry group for a 
 face centered cubic supercell.


 Subroutine GETGRP returns: Found 48 space group operations
 (whereof 12 operations were pure point group operations)
 out of a pool of 48 trial point group operations.


The dynamic configuration has the point symmetry D_3d.
 The point group associated with its full space group is O_h .


 irot  :   1
 --------------------------------------------------------------------
 isymop:   1   0   0
           0   1   0
           0   0   1

 gtrans:     0.0000000     0.0000000     0.0000000

 ptrans:     0.0000000     0.0000000     0.0000000
 rotmap:
 (   1->   1)  (   2->   2) 


 irot  :   2
 --------------------------------------------------------------------
 isymop:  -1   0   0
           0  -1   0
           0   0  -1

 gtrans:     0.0000000     0.0000000     0.0000000

 ptrans:     0.0000000     0.0000000     0.0000000
 rotmap:
 (   1->   2)  (   2->   1) 


 irot  :   3
 --------------------------------------------------------------------
 isymop:   0   0   1
           1   0   0
           0   1   0

 gtrans:     0.0000000     0.0000000     0.0000000

 ptrans:     0.0000000     0.0000000     0.0000000
 rotmap:
 (   1->   1)  (   2->   2) 


 irot  :   4
 --------------------------------------------------------------------
 isymop:   0   0  -1
          -1   0   0
           0  -1   0

 gtrans:     0.0000000     0.0000000     0.0000000

 ptrans:     0.0000000     0.0000000     0.0000000
 rotmap:
 (   1->   2)  (   2->   1) 


 irot  :   5
 --------------------------------------------------------------------
 isymop:   0   1   0
           0   0   1
           1   0   0

 gtrans:     0.0000000     0.0000000     0.0000000

 ptrans:     0.0000000     0.0000000     0.0000000
 rotmap:
 (   1->   1)  (   2->   2) 


 irot  :   6
 --------------------------------------------------------------------
 isymop:   0  -1   0
           0   0  -1
          -1   0   0

 gtrans:     0.0000000     0.0000000     0.0000000

 ptrans:     0.0000000     0.0000000     0.0000000
 rotmap:
 (   1->   2)  (   2->   1) 


 irot  :   7
 --------------------------------------------------------------------
 isymop:  -1   0   0
           0   0  -1
           0  -1   0

 gtrans:     0.0000000     0.0000000     0.0000000

 ptrans:     0.0000000     0.0000000     0.0000000
 rotmap:
 (   1->   2)  (   2->   1) 


 irot  :   8
 --------------------------------------------------------------------
 isymop:   1   0   0
           0   0   1
           0   1   0

 gtrans:     0.0000000     0.0000000     0.0000000

 ptrans:     0.0000000     0.0000000     0.0000000
 rotmap:
 (   1->   1)  (   2->   2) 


 irot  :   9
 --------------------------------------------------------------------
 isymop:   0  -1   0
          -1   0   0
           0   0  -1

 gtrans:     0.0000000     0.0000000     0.0000000

 ptrans:     0.0000000     0.0000000     0.0000000
 rotmap:
 (   1->   2)  (   2->   1) 


 irot  :  10
 --------------------------------------------------------------------
 isymop:   0   1   0
           1   0   0
           0   0   1

 gtrans:     0.0000000     0.0000000     0.0000000

 ptrans:     0.0000000     0.0000000     0.0000000
 rotmap:
 (   1->   1)  (   2->   2) 


 irot  :  11
 --------------------------------------------------------------------
 isymop:   0   0  -1
           0  -1   0
          -1   0   0

 gtrans:     0.0000000     0.0000000     0.0000000

 ptrans:     0.0000000     0.0000000     0.0000000
 rotmap:
 (   1->   2)  (   2->   1) 


 irot  :  12
 --------------------------------------------------------------------
 isymop:   0   0   1
           0   1   0
           1   0   0

 gtrans:     0.0000000     0.0000000     0.0000000

 ptrans:     0.0000000     0.0000000     0.0000000
 rotmap:
 (   1->   1)  (   2->   2) 


 irot  :  13
 --------------------------------------------------------------------
 isymop:   1   1   1
           0   0  -1
          -1   0   0

 gtrans:     0.5000000     0.0000000     0.0000000

 ptrans:     0.0000000     0.0000000     0.0000000
 rotmap:
 (   1->   2)  (   2->   1) 


 irot  :  14
 --------------------------------------------------------------------
 isymop:  -1  -1  -1
           0   0   1
           1   0   0

 gtrans:     0.5000000     0.0000000     0.0000000

 ptrans:     0.0000000     0.0000000     0.0000000
 rotmap:
 (   1->   1)  (   2->   2) 


 irot  :  15
 --------------------------------------------------------------------
 isymop:   1   1   1
           0  -1   0
           0   0  -1

 gtrans:     0.5000000     0.0000000     0.0000000

 ptrans:     0.0000000     0.0000000     0.0000000
 rotmap:
 (   1->   2)  (   2->   1) 


 irot  :  16
 --------------------------------------------------------------------
 isymop:  -1  -1  -1
           0   1   0
           0   0   1

 gtrans:     0.5000000     0.0000000     0.0000000

 ptrans:     0.0000000     0.0000000     0.0000000
 rotmap:
 (   1->   1)  (   2->   2) 


 irot  :  17
 --------------------------------------------------------------------
 isymop:   1   1   1
          -1   0   0
           0  -1   0

 gtrans:     0.5000000     0.0000000     0.0000000

 ptrans:     0.0000000     0.0000000     0.0000000
 rotmap:
 (   1->   2)  (   2->   1) 


 irot  :  18
 --------------------------------------------------------------------
 isymop:  -1  -1  -1
           1   0   0
           0   1   0

 gtrans:     0.5000000     0.0000000     0.0000000

 ptrans:     0.0000000     0.0000000     0.0000000
 rotmap:
 (   1->   1)  (   2->   2) 


 irot  :  19
 --------------------------------------------------------------------
 isymop:   0   1   0
           1   0   0
          -1  -1  -1

 gtrans:     0.0000000     0.0000000     0.5000000

 ptrans:     0.0000000     0.0000000     0.0000000
 rotmap:
 (   1->   1)  (   2->   2) 


 irot  :  20
 --------------------------------------------------------------------
 isymop:   0  -1   0
          -1   0   0
           1   1   1

 gtrans:     0.0000000     0.0000000     0.5000000

 ptrans:     0.0000000     0.0000000     0.0000000
 rotmap:
 (   1->   2)  (   2->   1) 


 irot  :  21
 --------------------------------------------------------------------
 isymop:   1   0   0
           0   0   1
          -1  -1  -1

 gtrans:     0.0000000     0.0000000     0.5000000

 ptrans:     0.0000000     0.0000000     0.0000000
 rotmap:
 (   1->   1)  (   2->   2) 


 irot  :  22
 --------------------------------------------------------------------
 isymop:  -1   0   0
           0   0  -1
           1   1   1

 gtrans:     0.0000000     0.0000000     0.5000000

 ptrans:     0.0000000     0.0000000     0.0000000
 rotmap:
 (   1->   2)  (   2->   1) 


 irot  :  23
 --------------------------------------------------------------------
 isymop:   0   0   1
           0   1   0
          -1  -1  -1

 gtrans:     0.0000000     0.0000000     0.5000000

 ptrans:     0.0000000     0.0000000     0.0000000
 rotmap:
 (   1->   1)  (   2->   2) 


 irot  :  24
 --------------------------------------------------------------------
 isymop:   0   0  -1
           0  -1   0
           1   1   1

 gtrans:     0.0000000     0.0000000     0.5000000

 ptrans:     0.0000000     0.0000000     0.0000000
 rotmap:
 (   1->   2)  (   2->   1) 


 irot  :  25
 --------------------------------------------------------------------
 isymop:   0   0  -1
           1   1   1
           0  -1   0

 gtrans:     0.0000000     0.5000000     0.0000000

 ptrans:     0.0000000     0.0000000     0.0000000
 rotmap:
 (   1->   2)  (   2->   1) 


 irot  :  26
 --------------------------------------------------------------------
 isymop:   0   0   1
          -1  -1  -1
           0   1   0

 gtrans:     0.0000000     0.5000000     0.0000000

 ptrans:     0.0000000     0.0000000     0.0000000
 rotmap:
 (   1->   1)  (   2->   2) 


 irot  :  27
 --------------------------------------------------------------------
 isymop:   0  -1   0
           1   1   1
          -1   0   0

 gtrans:     0.0000000     0.5000000     0.0000000

 ptrans:     0.0000000     0.0000000     0.0000000
 rotmap:
 (   1->   2)  (   2->   1) 


 irot  :  28
 --------------------------------------------------------------------
 isymop:   0   1   0
          -1  -1  -1
           1   0   0

 gtrans:     0.0000000     0.5000000     0.0000000

 ptrans:     0.0000000     0.0000000     0.0000000
 rotmap:
 (   1->   1)  (   2->   2) 


 irot  :  29
 --------------------------------------------------------------------
 isymop:  -1   0   0
           1   1   1
           0   0  -1

 gtrans:     0.0000000     0.5000000     0.0000000

 ptrans:     0.0000000     0.0000000     0.0000000
 rotmap:
 (   1->   2)  (   2->   1) 


 irot  :  30
 --------------------------------------------------------------------
 isymop:   1   0   0
          -1  -1  -1
           0   0   1

 gtrans:     0.0000000     0.5000000     0.0000000

 ptrans:     0.0000000     0.0000000     0.0000000
 rotmap:
 (   1->   1)  (   2->   2) 


 irot  :  31
 --------------------------------------------------------------------
 isymop:  -1  -1  -1
           0   1   0
           1   0   0

 gtrans:     0.5000000     0.0000000     0.0000000

 ptrans:     0.0000000     0.0000000     0.0000000
 rotmap:
 (   1->   1)  (   2->   2) 


 irot  :  32
 --------------------------------------------------------------------
 isymop:   1   1   1
           0  -1   0
          -1   0   0

 gtrans:     0.5000000     0.0000000     0.0000000

 ptrans:     0.0000000     0.0000000     0.0000000
 rotmap:
 (   1->   2)  (   2->   1) 


 irot  :  33
 --------------------------------------------------------------------
 isymop:  -1  -1  -1
           1   0   0
           0   0   1

 gtrans:     0.5000000     0.0000000     0.0000000

 ptrans:     0.0000000     0.0000000     0.0000000
 rotmap:
 (   1->   1)  (   2->   2) 


 irot  :  34
 --------------------------------------------------------------------
 isymop:   1   1   1
          -1   0   0
           0   0  -1

 gtrans:     0.5000000     0.0000000     0.0000000

 ptrans:     0.0000000     0.0000000     0.0000000
 rotmap:
 (   1->   2)  (   2->   1) 


 irot  :  35
 --------------------------------------------------------------------
 isymop:  -1  -1  -1
           0   0   1
           0   1   0

 gtrans:     0.5000000     0.0000000     0.0000000

 ptrans:     0.0000000     0.0000000     0.0000000
 rotmap:
 (   1->   1)  (   2->   2) 


 irot  :  36
 --------------------------------------------------------------------
 isymop:   1   1   1
           0   0  -1
           0  -1   0

 gtrans:     0.5000000     0.0000000     0.0000000

 ptrans:     0.0000000     0.0000000     0.0000000
 rotmap:
 (   1->   2)  (   2->   1) 


 irot  :  37
 --------------------------------------------------------------------
 isymop:   0  -1   0
           0   0  -1
           1   1   1

 gtrans:     0.0000000     0.0000000     0.5000000

 ptrans:     0.0000000     0.0000000     0.0000000
 rotmap:
 (   1->   2)  (   2->   1) 


 irot  :  38
 --------------------------------------------------------------------
 isymop:   0   1   0
           0   0   1
          -1  -1  -1

 gtrans:     0.0000000     0.0000000     0.5000000

 ptrans:     0.0000000     0.0000000     0.0000000
 rotmap:
 (   1->   1)  (   2->   2) 


 irot  :  39
 --------------------------------------------------------------------
 isymop:  -1   0   0
           0  -1   0
           1   1   1

 gtrans:     0.0000000     0.0000000     0.5000000

 ptrans:     0.0000000     0.0000000     0.0000000
 rotmap:
 (   1->   2)  (   2->   1) 


 irot  :  40
 --------------------------------------------------------------------
 isymop:   1   0   0
           0   1   0
          -1  -1  -1

 gtrans:     0.0000000     0.0000000     0.5000000

 ptrans:     0.0000000     0.0000000     0.0000000
 rotmap:
 (   1->   1)  (   2->   2) 


 irot  :  41
 --------------------------------------------------------------------
 isymop:   0   0  -1
          -1   0   0
           1   1   1

 gtrans:     0.0000000     0.0000000     0.5000000

 ptrans:     0.0000000     0.0000000     0.0000000
 rotmap:
 (   1->   2)  (   2->   1) 


 irot  :  42
 --------------------------------------------------------------------
 isymop:   0   0   1
           1   0   0
          -1  -1  -1

 gtrans:     0.0000000     0.0000000     0.5000000

 ptrans:     0.0000000     0.0000000     0.0000000
 rotmap:
 (   1->   1)  (   2->   2) 


 irot  :  43
 --------------------------------------------------------------------
 isymop:   1   0   0
          -1  -1  -1
           0   1   0

 gtrans:     0.0000000     0.5000000     0.0000000

 ptrans:     0.0000000     0.0000000     0.0000000
 rotmap:
 (   1->   1)  (   2->   2) 


 irot  :  44
 --------------------------------------------------------------------
 isymop:  -1   0   0
           1   1   1
           0  -1   0

 gtrans:     0.0000000     0.5000000     0.0000000

 ptrans:     0.0000000     0.0000000     0.0000000
 rotmap:
 (   1->   2)  (   2->   1) 


 irot  :  45
 --------------------------------------------------------------------
 isymop:   0   0   1
          -1  -1  -1
           1   0   0

 gtrans:     0.0000000     0.5000000     0.0000000

 ptrans:     0.0000000     0.0000000     0.0000000
 rotmap:
 (   1->   1)  (   2->   2) 


 irot  :  46
 --------------------------------------------------------------------
 isymop:   0   0  -1
           1   1   1
          -1   0   0

 gtrans:     0.0000000     0.5000000     0.0000000

 ptrans:     0.0000000     0.0000000     0.0000000
 rotmap:
 (   1->   2)  (   2->   1) 


 irot  :  47
 --------------------------------------------------------------------
 isymop:   0   1   0
          -1  -1  -1
           0   0   1

 gtrans:     0.0000000     0.5000000     0.0000000

 ptrans:     0.0000000     0.0000000     0.0000000
 rotmap:
 (   1->   1)  (   2->   2) 


 irot  :  48
 --------------------------------------------------------------------
 isymop:   0  -1   0
           1   1   1
           0   0  -1

 gtrans:     0.0000000     0.5000000     0.0000000

 ptrans:     0.0000000     0.0000000     0.0000000
 rotmap:
 (   1->   2)  (   2->   1) 
 
 
 KPOINTS: Automatic kpoint scheme                 

Automatic generation of k-mesh.
Space group operators:
 irot       det(A)        alpha          n_x          n_y          n_z        tau_x        tau_y        tau_z
    1     1.000000     0.000000     1.000000     0.000000     0.000000     0.000000     0.000000     0.000000
    2    -1.000000     0.000000     1.000000     0.000000     0.000000     0.000000     0.000000     0.000000
    3     1.000000   120.000000    -0.471405    -0.333333    -0.816497     0.000000     0.000000     0.000000
    4    -1.000000   120.000000    -0.471405    -0.333333    -0.816497     0.000000     0.000000     0.000000
    5     1.000000   120.000000     0.471405     0.333334     0.816496     0.000000     0.000000     0.000000
    6    -1.000000   120.000000     0.471405     0.333334     0.816496     0.000000     0.000000     0.000000
    7     1.000000   180.000000     0.288675     0.816497    -0.500000     0.000000     0.000000     0.000000
    8    -1.000000   180.000000     0.288675     0.816497    -0.500000     0.000000     0.000000     0.000000
    9     1.000000   180.000000     0.577350    -0.816497     0.000000     0.000000     0.000000     0.000000
   10    -1.000000   180.000000     0.577350    -0.816497     0.000000     0.000000     0.000000     0.000000
   11     1.000000   180.000000     0.866025     0.000000    -0.500000     0.000000     0.000000     0.000000
   12    -1.000000   180.000000     0.866025     0.000000    -0.500000     0.000000     0.000000     0.000000
   13     1.000000    90.000000    -0.816496    -0.577350     0.000000     0.500000     0.000000     0.000000
   14    -1.000000    90.000000    -0.816496    -0.577350     0.000000     0.500000     0.000000     0.000000
   15     1.000000   180.000000     0.866025     0.000000     0.500000     0.500000     0.000000     0.000000
   16    -1.000000   180.000000     0.866025     0.000000     0.500000     0.500000     0.000000     0.000000
   17     1.000000    90.000000     0.408248    -0.577350     0.707107     0.500000     0.000000     0.000000
   18    -1.000000    90.000000     0.408248    -0.577350     0.707107     0.500000     0.000000     0.000000
   19     1.000000   180.000000     0.816497     0.577350     0.000000     0.000000     0.000000     0.500000
   20    -1.000000   180.000000     0.816497     0.577350     0.000000     0.000000     0.000000     0.500000
   21     1.000000   120.000000     0.942809    -0.333333     0.000000     0.000000     0.000000     0.500000
   22    -1.000000   120.000000     0.942809    -0.333333     0.000000     0.000000     0.000000     0.500000
   23     1.000000   120.000000     0.000000    -1.000000     0.000000     0.000000     0.000000     0.500000
   24    -1.000000   120.000000     0.000000    -1.000000     0.000000     0.000000     0.000000     0.500000
   25     1.000000    90.000000     0.816497     0.577350     0.000000     0.000000     0.500000     0.000000
   26    -1.000000    90.000000     0.816497     0.577350     0.000000     0.000000     0.500000     0.000000
   27     1.000000    90.000000     0.408248    -0.577350    -0.707107     0.000000     0.500000     0.000000
   28    -1.000000    90.000000     0.408248    -0.577350    -0.707107     0.000000     0.500000     0.000000
   29     1.000000   180.000000     0.288675     0.816497     0.500000     0.000000     0.500000     0.000000
   30    -1.000000   180.000000     0.288675     0.816497     0.500000     0.000000     0.500000     0.000000
   31     1.000000   120.000000     0.000000     1.000000     0.000000     0.500000     0.000000     0.000000
   32    -1.000000   120.000000     0.000000     1.000000     0.000000     0.500000     0.000000     0.000000
   33     1.000000   120.000000     0.471404     0.333333    -0.816497     0.500000     0.000000     0.000000
   34    -1.000000   120.000000     0.471404     0.333333    -0.816497     0.500000     0.000000     0.000000
   35     1.000000   180.000000    -0.408248     0.577350     0.707107     0.500000     0.000000     0.000000
   36    -1.000000   180.000000    -0.408248     0.577350     0.707107     0.500000     0.000000     0.000000
   37     1.000000    90.000000    -0.408248     0.577350    -0.707107     0.000000     0.000000     0.500000
   38    -1.000000    90.000000    -0.408248     0.577350    -0.707107     0.000000     0.000000     0.500000
   39     1.000000   180.000000     0.000000     0.000000     1.000000     0.000000     0.000000     0.500000
   40    -1.000000   180.000000     0.000000     0.000000     1.000000     0.000000     0.000000     0.500000
   41     1.000000    90.000000    -0.408248     0.577350     0.707107     0.000000     0.000000     0.500000
   42    -1.000000    90.000000    -0.408248     0.577350     0.707107     0.000000     0.000000     0.500000
   43     1.000000   120.000000    -0.942809     0.333333     0.000000     0.000000     0.500000     0.000000
   44    -1.000000   120.000000    -0.942809     0.333333     0.000000     0.000000     0.500000     0.000000
   45     1.000000   179.999999    -0.408248     0.577350    -0.707107     0.000000     0.500000     0.000000
   46    -1.000000   179.999999    -0.408248     0.577350    -0.707107     0.000000     0.500000     0.000000
   47     1.000000   120.000000    -0.471404    -0.333333     0.816497     0.000000     0.500000     0.000000
   48    -1.000000   120.000000    -0.471404    -0.333333     0.816497     0.000000     0.500000     0.000000
 
 Subroutine IBZKPT returns following result:
 ===========================================
 
 Found     56 irreducible k-points:
 
 Following reciprocal coordinates:
            Coordinates               Weight
  0.000000  0.000000  0.000000      1.000000
  0.090909  0.000000  0.000000      8.000000
  0.181818  0.000000  0.000000      8.000000
  0.272727  0.000000  0.000000      8.000000
  0.363636  0.000000  0.000000      8.000000
  0.454545  0.000000  0.000000      8.000000
  0.090909  0.090909  0.000000      6.000000
  0.181818  0.090909  0.000000     24.000000
  0.272727  0.090909  0.000000     24.000000
  0.363636  0.090909  0.000000     24.000000
  0.454545  0.090909  0.000000     24.000000
 -0.454545  0.090909  0.000000     24.000000
 -0.363636  0.090909  0.000000     24.000000
 -0.272727  0.090909  0.000000     24.000000
 -0.181818  0.090909  0.000000     24.000000
 -0.090909  0.090909  0.000000     12.000000
  0.181818  0.181818  0.000000      6.000000
  0.272727  0.181818  0.000000     24.000000
  0.363636  0.181818  0.000000     24.000000
  0.454545  0.181818  0.000000     24.000000
 -0.454545  0.181818  0.000000     24.000000
 -0.363636  0.181818  0.000000     24.000000
 -0.272727  0.181818  0.000000     24.000000
 -0.181818  0.181818  0.000000     12.000000
  0.272727  0.272727  0.000000      6.000000
  0.363636  0.272727  0.000000     24.000000
  0.454545  0.272727  0.000000     24.000000
 -0.454545  0.272727  0.000000     24.000000
 -0.363636  0.272727  0.000000     24.000000
 -0.272727  0.272727  0.000000     12.000000
  0.363636  0.363636  0.000000      6.000000
  0.454545  0.363636  0.000000     24.000000
 -0.454545  0.363636  0.000000     24.000000
 -0.363636  0.363636  0.000000     12.000000
  0.454545  0.454545  0.000000      6.000000
 -0.454545  0.454545  0.000000     12.000000
  0.272727  0.181818  0.090909     24.000000
  0.363636  0.181818  0.090909     48.000000
  0.454545  0.181818  0.090909     48.000000
 -0.454545  0.181818  0.090909     48.000000
  0.363636  0.272727  0.090909     24.000000
  0.454545  0.272727  0.090909     48.000000
 -0.454545  0.272727  0.090909     48.000000
 -0.363636  0.272727  0.090909     48.000000
 -0.272727  0.272727  0.090909     48.000000
 -0.181818  0.272727  0.090909     24.000000
  0.454545  0.363636  0.090909     24.000000
 -0.454545  0.363636  0.090909     48.000000
 -0.363636  0.363636  0.090909     48.000000
 -0.272727  0.363636  0.090909     24.000000
 -0.454545  0.454545  0.090909     24.000000
 -0.363636  0.454545  0.090909     24.000000
 -0.454545  0.363636  0.181818     24.000000
 -0.363636  0.363636  0.181818     48.000000
 -0.363636  0.454545  0.181818     24.000000
 -0.272727  0.454545  0.181818     24.000000
 
 Following cartesian coordinates:
            Coordinates               Weight
  0.000000  0.000000  0.000000      1.000000
  0.027146 -0.009598  0.000000      8.000000
  0.054292 -0.019195  0.000000      8.000000
  0.081438 -0.028793  0.000000      8.000000
  0.108584 -0.038390  0.000000      8.000000
  0.135730 -0.047988  0.000000      8.000000
  0.027146  0.019195  0.000000      6.000000
  0.054292  0.009598  0.000000     24.000000
  0.081438  0.000000  0.000000     24.000000
  0.108584 -0.009598  0.000000     24.000000
  0.135730 -0.019195  0.000000     24.000000
 -0.135730  0.076780  0.000000     24.000000
 -0.108584  0.067183  0.000000     24.000000
 -0.081438  0.057585  0.000000     24.000000
 -0.054292  0.047988  0.000000     24.000000
 -0.027146  0.038390  0.000000     12.000000
  0.054292  0.038390  0.000000      6.000000
  0.081438  0.028793  0.000000     24.000000
  0.108584  0.019195  0.000000     24.000000
  0.135730  0.009598  0.000000     24.000000
 -0.135730  0.105573  0.000000     24.000000
 -0.108584  0.095975  0.000000     24.000000
 -0.081438  0.086378  0.000000     24.000000
 -0.054292  0.076780  0.000000     12.000000
  0.081438  0.057585  0.000000      6.000000
  0.108584  0.047988  0.000000     24.000000
  0.135730  0.038390  0.000000     24.000000
 -0.135730  0.134366  0.000000     24.000000
 -0.108584  0.124768  0.000000     24.000000
 -0.081438  0.115171  0.000000     12.000000
  0.108584  0.076780  0.000000      6.000000
  0.135730  0.067183  0.000000     24.000000
 -0.135730  0.163158  0.000000     24.000000
 -0.108584  0.153561  0.000000     12.000000
  0.135730  0.095975  0.000000      6.000000
 -0.135730  0.191951  0.000000     12.000000
  0.067865  0.019195  0.023509     24.000000
  0.095011  0.009598  0.023509     48.000000
  0.122157  0.000000  0.023509     48.000000
 -0.149303  0.095975  0.023509     48.000000
  0.095011  0.038390  0.023509     24.000000
  0.122157  0.028793  0.023509     48.000000
 -0.149303  0.124768  0.023509     48.000000
 -0.122157  0.115171  0.023509     48.000000
 -0.095011  0.105573  0.023509     48.000000
 -0.067865  0.095975  0.023509     24.000000
  0.122157  0.057585  0.023509     24.000000
 -0.149303  0.153561  0.023509     48.000000
 -0.122157  0.143963  0.023509     48.000000
 -0.095011  0.134366  0.023509     24.000000
 -0.149303  0.182353  0.023509     24.000000
 -0.122157  0.172756  0.023509     24.000000
 -0.162876  0.143963  0.047018     24.000000
 -0.135730  0.134366  0.047018     48.000000
 -0.135730  0.163158  0.047018     24.000000
 -0.108584  0.153561  0.047018     24.000000
 


--------------------------------------------------------------------------------------------------------




 Dimension of arrays:
   k-points           NKPTS =     56   k-points in BZ     NKDIM =     56   number of bands    NBANDS=      8
   number of dos      NEDOS =    301   number of ions     NIONS =      2
   non local maximal  LDIM  =      4   non local SUM 2l+1 LMDIM =      8
   total plane-waves  NPLWV =  27000
   max r-space proj   IRMAX =      1   max aug-charges    IRDMAX=  22275
   dimension x,y,z NGX =    30 NGY =   30 NGZ =   30
   dimension x,y,z NGXF=    60 NGYF=   60 NGZF=   60
   support grid    NGXF=    60 NGYF=   60 NGZF=   60
   ions per type =               2
 NGX,Y,Z   is equivalent  to a cutoff of  12.90, 12.90, 12.90 a.u.
 NGXF,Y,Z  is equivalent  to a cutoff of  25.79, 25.79, 25.79 a.u.


 I would recommend the setting:
   dimension x,y,z NGX =    30 NGY =   30 NGZ =   30
 SYSTEM =  unknown system                          
 POSCAR =  bulk@mp_149                             

 Startparameter for this run:
   NWRITE =      2    write-flag & timer
   PREC   = accura    normal or accurate (medium, high low for compatibility)
   ISTART =      0    job   : 0-new  1-cont  2-samecut
   ICHARG =      2    charge: 1-file 2-atom 10-const
   ISPIN  =      1    spin polarized calculation?
   LNONCOLLINEAR =      F non collinear calculations
   LSORBIT =      F    spin-orbit coupling
   INIWAV =      1    electr: 0-lowe 1-rand  2-diag
   LASPH  =      F    aspherical Exc in radial PAW
   METAGGA=      F    non-selfconsistent MetaGGA calc.

 Electronic Relaxation 1
   ENCUT  =  550.0 eV  40.42 Ry    6.36 a.u.   7.39  7.39  7.39*2*pi/ulx,y,z
   ENINI  =  550.0     initial cutoff
   ENAUG  =  322.1 eV  augmentation charge cutoff
   NELM   =    400;   NELMIN=  2; NELMDL= -5     # of ELM steps 
   EDIFF  = 0.1E-06   stopping-criterion for ELM
   LREAL  =      F    real-space projection
   NLSPLINE    = F    spline interpolate recip. space projectors
   LCOMPAT=      F    compatible to vasp.4.4
   GGA_COMPAT  = T    GGA compatible to vasp.4.4-vasp.4.6
   LMAXPAW     = -100 max onsite density
   LMAXMIX     =    2 max onsite mixed and CHGCAR
   VOSKOWN=      0    Vosko Wilk Nusair interpolation
   ROPT   =    0.00000
 Ionic relaxation
   EDIFFG = 0.1E-05   stopping-criterion for IOM
   NSW    =      1    number of steps for IOM
   NBLOCK =      1;   KBLOCK =      1    inner block; outer block 
   IBRION =      2    ionic relax: 0-MD 1-quasi-New 2-CG
   NFREE  =      1    steps in history (QN), initial steepest desc. (CG)
   ISIF   =      2    stress and relaxation
   IWAVPR =     11    prediction:  0-non 1-charg 2-wave 3-comb
   ISYM   =      2    0-nonsym 1-usesym 2-fastsym
   LCORR  =      T    Harris-Foulkes like correction to forces

   POTIM  = 0.5000    time-step for ionic-motion
   TEIN   =    0.0    initial temperature
   TEBEG  =    0.0;   TEEND  =   0.0 temperature during run
   SMASS  =  -3.00    Nose mass-parameter (am)
   estimated Nose-frequenzy (Omega)   =  0.10E-29 period in steps =****** mass=  -0.342E-27a.u.
   SCALEE = 1.0000    scale energy and forces
   NPACO  =    256;   APACO  = 16.0  distance and # of slots for P.C.
   PSTRESS=    0.0 pullay stress

  Mass of Ions in am
   POMASS =  28.09
  Ionic Valenz
   ZVAL   =   4.00
  Atomic Wigner-Seitz radii
   RWIGS  =  -1.00
  virtual crystal weights 
   VCA    =   1.00
   NELECT =       8.0000    total number of electrons
   NUPDOWN=      -1.0000    fix difference up-down

 DOS related values:
   EMIN   =  10.00;   EMAX   =-10.00  energy-range for DOS
   EFERMI =   0.00
   ISMEAR =     0;   SIGMA  =   0.20  broadening in eV -4-tet -1-fermi 0-gaus

 Electronic relaxation 2 (details)
   IALGO  =     38    algorithm
   LDIAG  =      T    sub-space diagonalisation (order eigenvalues)
   LSUBROT=      T    optimize rotation matrix (better conditioning)
   TURBO    =      0    0=normal 1=particle mesh
   IRESTART =      0    0=no restart 2=restart with 2 vectors
   NREBOOT  =      0    no. of reboots
   NMIN     =      0    reboot dimension
   EREF     =   0.00    reference energy to select bands
   IMIX   =      4    mixing-type and parameters
     AMIX     =   0.40;   BMIX     =  1.00
     AMIX_MAG =   1.60;   BMIX_MAG =  1.00
     AMIN     =   0.10
     WC   =   100.;   INIMIX=   1;  MIXPRE=   1;  MAXMIX= -45

 Intra band minimization:
   WEIMIN = 0.0010     energy-eigenvalue tresh-hold
   EBREAK =  0.31E-08  absolut break condition
   DEPER  =   0.30     relativ break condition  

   TIME   =   0.40     timestep for ELM

  volume/ion in A,a.u.               =      20.44       137.96
  Fermi-wavevector in a.u.,A,eV,Ry     =   0.950397  1.795990 12.289528  0.903255
  Thomas-Fermi vector in A             =   2.078770
 
 Write flags
   LWAVE  =      F    write WAVECAR
   LCHARG =      F    write CHGCAR
   LVTOT  =      F    write LOCPOT, total local potential
   LVHAR  =      F    write LOCPOT, Hartree potential only
   LELF   =      F    write electronic localiz. function (ELF)
   LORBIT =      0    0 simple, 1 ext, 2 COOP (PROOUT)


 Dipole corrections
   LMONO  =      F    monopole corrections only (constant potential shift)
   LDIPOL =      F    correct potential (dipole corrections)
   IDIPOL =      0    1-x, 2-y, 3-z, 4-all directions 
   EPSILON=  1.0000000 bulk dielectric constant

 Exchange correlation treatment:
   GGA     =    BO    GGA type
   LEXCH   =    42    internal setting for exchange type
   VOSKOWN=      0    Vosko Wilk Nusair interpolation
   LHFCALC =     F    Hartree Fock is set to
   LHFONE  =     F    Hartree Fock one center treatment
   AEXX    =    0.0000 exact exchange contribution

 vdW DFT:
   LUSE_VDW   =     T    switch on vdW DFT
   Zab_VDW    =-.8491    correlation parameter
   PARAM1     =0.1833
   PARAM2     =0.2200
   PARAM3     =0.0000

 Linear response parameters
   LEPSILON=     F    determine dielectric tensor
   LRPA    =     F    only Hartree local field effects (RPA)
   LNABLA  =     F    use nabla operator in PAW spheres
   LVEL    =     F    velocity operator in full k-point grid
   LINTERFAST=   F  fast interpolation
   KINTER  =     0    interpolate to denser k-point grid
   CSHIFT  =0.1000    complex shift for real part using Kramers Kronig
   OMEGAMAX=  -1.0    maximum frequency
   DEG_THRESHOLD= 0.2000000E-02 threshold for treating states as degnerate
   RTIME   =    0.100 relaxation time in fs

 Orbital magnetization related:
   ORBITALMAG=     F  switch on orbital magnetization
   LCHIMAG   =     F  perturbation theory with respect to B field
   DQ        =  0.001000  dq finite difference perturbation B field



--------------------------------------------------------------------------------------------------------


 conjugate gradient relaxation of ions
 charge density and potential will be updated during run
 non-spin polarized calculation
 Variant of blocked Davidson
 Davidson routine will perform the subspace rotation
 perform sub-space diagonalisation
    after iterative eigenvector-optimisation
 modified Broyden-mixing scheme, WC =      100.0
 initial mixing is a Kerker type mixing with AMIX =  0.4000 and BMIX =      1.0000
 Hartree-type preconditioning will be used
 using additional bands            4
 reciprocal scheme for non local part
 use partial core corrections
 calculate Harris-corrections to forces 
   (improved forces if not selfconsistent)
 use gradient corrections 
 use of overlap-Matrix (Vanderbilt PP)
 Gauss-broadening in eV      SIGMA  =   0.20


--------------------------------------------------------------------------------------------------------


  energy-cutoff  :      550.00
  volume of cell :       40.89
      direct lattice vectors                 reciprocal lattice vectors
     3.348898000  0.000000000  1.933487000     0.298605691 -0.105573000  0.000000000
     1.116299000  3.157372000  1.933487000     0.000000000  0.316719094  0.000000000
     0.000000000  0.000000000  3.866975000    -0.149302807 -0.105573020  0.258600069

  length of vectors
     3.866974243  3.866974707  3.866975000     0.316719145  0.316719094  0.316719096


 
 k-points in units of 2pi/SCALE and weight: Automatic kpoint scheme                 
   0.00000000  0.00000000  0.00000000       0.001
   0.02714597 -0.00959755  0.00000000       0.006
   0.05429194 -0.01919509  0.00000000       0.006
   0.08143792 -0.02879264  0.00000000       0.006
   0.10858389 -0.03839018  0.00000000       0.006
   0.13572986 -0.04798773  0.00000000       0.006
   0.02714597  0.01919510  0.00000000       0.005
   0.05429194  0.00959755  0.00000000       0.018
   0.08143792  0.00000001  0.00000000       0.018
   0.10858389 -0.00959754  0.00000000       0.018
   0.13572986 -0.01919508  0.00000000       0.018
  -0.13572986  0.07678037  0.00000000       0.018
  -0.10858389  0.06718283  0.00000000       0.018
  -0.08143792  0.05758528  0.00000000       0.018
  -0.05429194  0.04798774  0.00000000       0.018
  -0.02714597  0.03839019  0.00000000       0.009
   0.05429194  0.03839020  0.00000000       0.005
   0.08143792  0.02879265  0.00000000       0.018
   0.10858389  0.01919511  0.00000000       0.018
   0.13572986  0.00959756  0.00000000       0.018
  -0.13572986  0.10557302  0.00000000       0.018
  -0.10858389  0.09597547  0.00000000       0.018
  -0.08143792  0.08637793  0.00000000       0.018
  -0.05429194  0.07678038  0.00000000       0.009
   0.08143792  0.05758530  0.00000000       0.005
   0.10858389  0.04798775  0.00000000       0.018
   0.13572986  0.03839021  0.00000000       0.018
  -0.13572986  0.13436566  0.00000000       0.018
  -0.10858389  0.12476812  0.00000000       0.018
  -0.08143792  0.11517057  0.00000000       0.009
   0.10858389  0.07678040  0.00000000       0.005
   0.13572986  0.06718285  0.00000000       0.018
  -0.13572986  0.16315831  0.00000000       0.018
  -0.10858389  0.15356076  0.00000000       0.009
   0.13572986  0.09597550  0.00000000       0.005
  -0.13572986  0.19195095  0.00000000       0.009
   0.06786493  0.01919511  0.02350910       0.018
   0.09501091  0.00959756  0.02350910       0.036
   0.12215688  0.00000002  0.02350910       0.036
  -0.14930284  0.09597547  0.02350910       0.036
   0.09501091  0.03839021  0.02350910       0.018
   0.12215688  0.02879266  0.02350910       0.036
  -0.14930284  0.12476811  0.02350910       0.036
  -0.12215687  0.11517057  0.02350910       0.036
  -0.09501090  0.10557302  0.02350910       0.036
  -0.06786493  0.09597548  0.02350910       0.018
   0.12215688  0.05758531  0.02350910       0.018
  -0.14930284  0.15356076  0.02350910       0.036
  -0.12215687  0.14396321  0.02350910       0.036
  -0.09501090  0.13436567  0.02350910       0.018
  -0.14930284  0.18235340  0.02350910       0.018
  -0.12215687  0.17275586  0.02350910       0.018
  -0.16287582  0.14396321  0.04701819       0.018
  -0.13572985  0.13436567  0.04701819       0.036
  -0.13572985  0.16315831  0.04701819       0.018
  -0.10858388  0.15356077  0.04701819       0.018
 
 k-points in reciprocal lattice and weights: Automatic kpoint scheme                 
   0.00000000  0.00000000  0.00000000       0.001
   0.09090909  0.00000000  0.00000000       0.006
   0.18181818  0.00000000  0.00000000       0.006
   0.27272727  0.00000000  0.00000000       0.006
   0.36363636  0.00000000  0.00000000       0.006
   0.45454545  0.00000000  0.00000000       0.006
   0.09090909  0.09090909  0.00000000       0.005
   0.18181818  0.09090909  0.00000000       0.018
   0.27272727  0.09090909  0.00000000       0.018
   0.36363636  0.09090909  0.00000000       0.018
   0.45454545  0.09090909  0.00000000       0.018
  -0.45454545  0.09090909  0.00000000       0.018
  -0.36363636  0.09090909  0.00000000       0.018
  -0.27272727  0.09090909  0.00000000       0.018
  -0.18181818  0.09090909  0.00000000       0.018
  -0.09090909  0.09090909  0.00000000       0.009
   0.18181818  0.18181818  0.00000000       0.005
   0.27272727  0.18181818  0.00000000       0.018
   0.36363636  0.18181818  0.00000000       0.018
   0.45454545  0.18181818  0.00000000       0.018
  -0.45454545  0.18181818  0.00000000       0.018
  -0.36363636  0.18181818  0.00000000       0.018
  -0.27272727  0.18181818  0.00000000       0.018
  -0.18181818  0.18181818  0.00000000       0.009
   0.27272727  0.27272727  0.00000000       0.005
   0.36363636  0.27272727  0.00000000       0.018
   0.45454545  0.27272727  0.00000000       0.018
  -0.45454545  0.27272727  0.00000000       0.018
  -0.36363636  0.27272727  0.00000000       0.018
  -0.27272727  0.27272727  0.00000000       0.009
   0.36363636  0.36363636  0.00000000       0.005
   0.45454545  0.36363636  0.00000000       0.018
  -0.45454545  0.36363636  0.00000000       0.018
  -0.36363636  0.36363636  0.00000000       0.009
   0.45454545  0.45454545  0.00000000       0.005
  -0.45454545  0.45454545  0.00000000       0.009
   0.27272727  0.18181818  0.09090909       0.018
   0.36363636  0.18181818  0.09090909       0.036
   0.45454545  0.18181818  0.09090909       0.036
  -0.45454545  0.18181818  0.09090909       0.036
   0.36363636  0.27272727  0.09090909       0.018
   0.45454545  0.27272727  0.09090909       0.036
  -0.45454545  0.27272727  0.09090909       0.036
  -0.36363636  0.27272727  0.09090909       0.036
  -0.27272727  0.27272727  0.09090909       0.036
  -0.18181818  0.27272727  0.09090909       0.018
   0.45454545  0.36363636  0.09090909       0.018
  -0.45454545  0.36363636  0.09090909       0.036
  -0.36363636  0.36363636  0.09090909       0.036
  -0.27272727  0.36363636  0.09090909       0.018
  -0.45454545  0.45454545  0.09090909       0.018
  -0.36363636  0.45454545  0.09090909       0.018
  -0.45454545  0.36363636  0.18181818       0.018
  -0.36363636  0.36363636  0.18181818       0.036
  -0.36363636  0.45454545  0.18181818       0.018
  -0.27272727  0.45454545  0.18181818       0.018
 
 position of ions in fractional coordinates (direct lattice) 
   0.87500000  0.87500000  0.87500000
   0.12500000  0.12500000  0.12500000
 
 position of ions in cartesian coordinates  (Angst):
   3.90704738  2.76270050  6.76720537
   0.55814962  0.39467150  0.96674362
 


--------------------------------------------------------------------------------------------------------


 k-point  1 :   0.0000 0.0000 0.0000  plane waves:    1243
 k-point  2 :   0.0909 0.0000 0.0000  plane waves:    1218
 k-point  3 :   0.1818 0.0000 0.0000  plane waves:    1209
 k-point  4 :   0.2727 0.0000 0.0000  plane waves:    1209
 k-point  5 :   0.3636 0.0000 0.0000  plane waves:    1188
 k-point  6 :   0.4545 0.0000 0.0000  plane waves:    1188
 k-point  7 :   0.0909 0.0909 0.0000  plane waves:    1219
 k-point  8 :   0.1818 0.0909 0.0000  plane waves:    1209
 k-point  9 :   0.2727 0.0909 0.0000  plane waves:    1202
 k-point 10 :   0.3636 0.0909 0.0000  plane waves:    1196
 k-point 11 :   0.4545 0.0909 0.0000  plane waves:    1191
 k-point 12 :  -0.4545 0.0909 0.0000  plane waves:    1195
 k-point 13 :  -0.3636 0.0909 0.0000  plane waves:    1194
 k-point 14 :  -0.2727 0.0909 0.0000  plane waves:    1195
 k-point 15 :  -0.1818 0.0909 0.0000  plane waves:    1210
 k-point 16 :  -0.0909 0.0909 0.0000  plane waves:    1213
 k-point 17 :   0.1818 0.1818 0.0000  plane waves:    1203
 k-point 18 :   0.2727 0.1818 0.0000  plane waves:    1208
 k-point 19 :   0.3636 0.1818 0.0000  plane waves:    1205
 k-point 20 :   0.4545 0.1818 0.0000  plane waves:    1198
 k-point 21 :  -0.4545 0.1818 0.0000  plane waves:    1202
 k-point 22 :  -0.3636 0.1818 0.0000  plane waves:    1189
 k-point 23 :  -0.2727 0.1818 0.0000  plane waves:    1190
 k-point 24 :  -0.1818 0.1818 0.0000  plane waves:    1199
 k-point 25 :   0.2727 0.2727 0.0000  plane waves:    1198
 k-point 26 :   0.3636 0.2727 0.0000  plane waves:    1201
 k-point 27 :   0.4545 0.2727 0.0000  plane waves:    1201
 k-point 28 :  -0.4545 0.2727 0.0000  plane waves:    1201
 k-point 29 :  -0.3636 0.2727 0.0000  plane waves:    1192
 k-point 30 :  -0.2727 0.2727 0.0000  plane waves:    1197
 k-point 31 :   0.3636 0.3636 0.0000  plane waves:    1206
 k-point 32 :   0.4545 0.3636 0.0000  plane waves:    1196
 k-point 33 :  -0.4545 0.3636 0.0000  plane waves:    1195
 k-point 34 :  -0.3636 0.3636 0.0000  plane waves:    1192
 k-point 35 :   0.4545 0.4545 0.0000  plane waves:    1190
 k-point 36 :  -0.4545 0.4545 0.0000  plane waves:    1190
 k-point 37 :   0.2727 0.1818 0.0909  plane waves:    1204
 k-point 38 :   0.3636 0.1818 0.0909  plane waves:    1197
 k-point 39 :   0.4545 0.1818 0.0909  plane waves:    1194
 k-point 40 :  -0.4545 0.1818 0.0909  plane waves:    1192
 k-point 41 :   0.3636 0.2727 0.0909  plane waves:    1202
 k-point 42 :   0.4545 0.2727 0.0909  plane waves:    1197
 k-point 43 :  -0.4545 0.2727 0.0909  plane waves:    1196
 k-point 44 :  -0.3636 0.2727 0.0909  plane waves:    1195
 k-point 45 :  -0.2727 0.2727 0.0909  plane waves:    1196
 k-point 46 :  -0.1818 0.2727 0.0909  plane waves:    1203
 k-point 47 :   0.4545 0.3636 0.0909  plane waves:    1197
 k-point 48 :  -0.4545 0.3636 0.0909  plane waves:    1194
 k-point 49 :  -0.3636 0.3636 0.0909  plane waves:    1188
 k-point 50 :  -0.2727 0.3636 0.0909  plane waves:    1189
 k-point 51 :  -0.4545 0.4545 0.0909  plane waves:    1199
 k-point 52 :  -0.3636 0.4545 0.0909  plane waves:    1191
 k-point 53 :  -0.4545 0.3636 0.1818  plane waves:    1196
 k-point 54 :  -0.3636 0.3636 0.1818  plane waves:    1202
 k-point 55 :  -0.3636 0.4545 0.1818  plane waves:    1194
 k-point 56 :  -0.2727 0.4545 0.1818  plane waves:    1193

 maximum and minimum number of plane-waves per node :       313      289

 maximum number of plane-waves:      1243
 maximum index in each direction: 
   IXMAX=    7   IYMAX=    7   IZMAX=    7
   IXMIN=   -7   IYMIN=   -7   IZMIN=   -7

 NGX is ok and might be reduce to  30
 NGY is ok and might be reduce to  30
 NGZ is ok and might be reduce to  30

 parallel 3D FFT for wavefunctions:
    minimum data exchange during FFTs selected (reduces bandwidth)
 parallel 3D FFT for charge:
    minimum data exchange during FFTs selected (reduces bandwidth)


 total amount of memory used by VASP on root node    33402. kBytes
========================================================================

   base      :      30000. kBytes
   nonl-proj :       1128. kBytes
   fftplans  :        700. kBytes
   grid      :        998. kBytes
   one-center:          3. kBytes
   wavefun   :        573. kBytes
 
 Broyden mixing: mesh for mixing (old mesh)
   NGX = 15   NGY = 15   NGZ = 15
  (NGX  = 60   NGY  = 60   NGZ  = 60)
  gives a total of   3375 points

 initial charge density was supplied:
 charge density of overlapping atoms calculated
 number of electron       8.0000000 magnetization 
 keeping initial charge density in first step


--------------------------------------------------------------------------------------------------------


 Maximum index for augmentation-charges         1526 (set IRDMAX)


--------------------------------------------------------------------------------------------------------


 First call to EWALD:  gamma=   0.514
 Maximum number of real-space cells 3x 3x 3
 Maximum number of reciprocal cells 3x 3x 3

 FEWALD executed in parallel
    FEWALD:  cpu time    0.00: real time    0.00


----------------------------------------- Iteration    1(   1)  ---------------------------------------


vdW kernel read from vdw_kernel.bindat
  0.0000  0.2424  0.5071  0.7962  1.1119  1.4567  1.8333  2.2446  2.6937  3.1842
  3.7199  4.3049  4.9438  5.6415  6.4036  7.2358  8.1446  9.1372 10.2212 11.4050
 12.6979 14.1099 15.6519 17.3360 19.1751 21.1837 23.3773 25.7729 28.3892 31.2465
 34.3669 37.7748 41.4965 45.5611 50.0000
 
    POTLOK:  cpu time    2.21: real time    3.88
    SETDIJ:  cpu time    0.00: real time    0.00
     EDDAV:  cpu time    0.33: real time    0.33
       DOS:  cpu time    0.00: real time    0.00
    --------------------------------------------
      LOOP:  cpu time    2.55: real time    6.52

 eigenvalue-minimisations  :   896
 total energy-change (2. order) : 0.9019490E+01  (-0.3354964E+03)
 number of electron       8.0000000 magnetization 
 augmentation part        8.0000000 magnetization 

 Free energy of the ion-electron system (eV)
  ---------------------------------------------------
  alpha Z        PSCENC =         3.29317992
  Ewald energy   TEWEN  =      -226.94489173
  -1/2 Hartree   DENC   =       -11.32339116
  -exchange  EXHF       =         0.00000000
  -V(xc)+E(xc)   XCENC  =       -20.24410379
  PAW double counting   =       189.40224250     -152.61488262
  entropy T*S    EENTRO =        -0.01222880
  eigenvalues    EBANDS =        18.86940274
  atomic energy  EATOM  =       208.59416316
  ---------------------------------------------------
  free energy    TOTEN  =         9.01949020 eV

  energy without entropy =        9.03171901  energy(sigma->0) =        9.02560460


--------------------------------------------------------------------------------------------------------




----------------------------------------- Iteration    1(   2)  ---------------------------------------


     EDDAV:  cpu time    0.47: real time    0.48
       DOS:  cpu time    0.00: real time    0.00
    --------------------------------------------
      LOOP:  cpu time    0.48: real time    1.10

 eigenvalue-minimisations  :  1312
 total energy-change (2. order) :-0.1718656E+02  (-0.1671416E+02)
 number of electron       8.0000000 magnetization 
 augmentation part        8.0000000 magnetization 

 Free energy of the ion-electron system (eV)
  ---------------------------------------------------
  alpha Z        PSCENC =         3.29317992
  Ewald energy   TEWEN  =      -226.94489173
  -1/2 Hartree   DENC   =       -11.32339116
  -exchange  EXHF       =         0.00000000
  -V(xc)+E(xc)   XCENC  =       -20.24410379
  PAW double counting   =       189.40224250     -152.61488262
  entropy T*S    EENTRO =        -0.00000231
  eigenvalues    EBANDS =         1.67062019
  atomic energy  EATOM  =       208.59416316
  ---------------------------------------------------
  free energy    TOTEN  =        -8.16706585 eV

  energy without entropy =       -8.16706354  energy(sigma->0) =       -8.16706470


--------------------------------------------------------------------------------------------------------




----------------------------------------- Iteration    1(   3)  ---------------------------------------


     EDDAV:  cpu time    0.46: real time    0.47
       DOS:  cpu time    0.00: real time    0.00
    --------------------------------------------
      LOOP:  cpu time    0.47: real time    1.44

 eigenvalue-minimisations  :  1224
 total energy-change (2. order) :-0.2463225E+00  (-0.2463224E+00)
 number of electron       8.0000000 magnetization 
 augmentation part        8.0000000 magnetization 

 Free energy of the ion-electron system (eV)
  ---------------------------------------------------
  alpha Z        PSCENC =         3.29317992
  Ewald energy   TEWEN  =      -226.94489173
  -1/2 Hartree   DENC   =       -11.32339116
  -exchange  EXHF       =         0.00000000
  -V(xc)+E(xc)   XCENC  =       -20.24410379
  PAW double counting   =       189.40224250     -152.61488262
  entropy T*S    EENTRO =        -0.00000192
  eigenvalues    EBANDS =         1.42429731
  atomic energy  EATOM  =       208.59416316
  ---------------------------------------------------
  free energy    TOTEN  =        -8.41338834 eV

  energy without entropy =       -8.41338642  energy(sigma->0) =       -8.41338738


--------------------------------------------------------------------------------------------------------




----------------------------------------- Iteration    1(   4)  ---------------------------------------


     EDDAV:  cpu time    0.51: real time    0.52
       DOS:  cpu time    0.00: real time    0.00
    --------------------------------------------
      LOOP:  cpu time    0.51: real time    0.98

 eigenvalue-minimisations  :  1384
 total energy-change (2. order) :-0.1166530E-02  (-0.1166530E-02)
 number of electron       8.0000000 magnetization 
 augmentation part        8.0000000 magnetization 

 Free energy of the ion-electron system (eV)
  ---------------------------------------------------
  alpha Z        PSCENC =         3.29317992
  Ewald energy   TEWEN  =      -226.94489173
  -1/2 Hartree   DENC   =       -11.32339116
  -exchange  EXHF       =         0.00000000
  -V(xc)+E(xc)   XCENC  =       -20.24410379
  PAW double counting   =       189.40224250     -152.61488262
  entropy T*S    EENTRO =        -0.00000192
  eigenvalues    EBANDS =         1.42313078
  atomic energy  EATOM  =       208.59416316
  ---------------------------------------------------
  free energy    TOTEN  =        -8.41455487 eV

  energy without entropy =       -8.41455295  energy(sigma->0) =       -8.41455391


--------------------------------------------------------------------------------------------------------




----------------------------------------- Iteration    1(   5)  ---------------------------------------


     EDDAV:  cpu time    0.43: real time    0.43
       DOS:  cpu time    0.00: real time    0.00
    CHARGE:  cpu time    0.05: real time    0.07
    MIXING:  cpu time    0.00: real time    0.00
    --------------------------------------------
      LOOP:  cpu time    0.48: real time    1.35

 eigenvalue-minimisations  :  1272
 total energy-change (2. order) :-0.1314702E-05  (-0.1314924E-05)
 number of electron       8.0000000 magnetization 
 augmentation part       -0.4831005 magnetization 

 Broyden mixing:
  rms(total) = 0.37369E+00    rms(broyden)= 0.37369E+00
  rms(prec ) = 0.89818E+00
  weight for this iteration     100.00

 Free energy of the ion-electron system (eV)
  ---------------------------------------------------
  alpha Z        PSCENC =         3.29317992
  Ewald energy   TEWEN  =      -226.94489173
  -1/2 Hartree   DENC   =       -11.32339116
  -exchange  EXHF       =         0.00000000
  -V(xc)+E(xc)   XCENC  =       -20.24410379
  PAW double counting   =       189.40224250     -152.61488262
  entropy T*S    EENTRO =        -0.00000192
  eigenvalues    EBANDS =         1.42312947
  atomic energy  EATOM  =       208.59416316
  ---------------------------------------------------
  free energy    TOTEN  =        -8.41455618 eV

  energy without entropy =       -8.41455427  energy(sigma->0) =       -8.41455523


--------------------------------------------------------------------------------------------------------




----------------------------------------- Iteration    1(   6)  ---------------------------------------


    POTLOK:  cpu time    1.08: real time    1.09
    SETDIJ:  cpu time    0.00: real time    0.00
     EDDAV:  cpu time    0.38: real time    0.38
       DOS:  cpu time    0.00: real time    0.00
    CHARGE:  cpu time    0.02: real time    0.02
    MIXING:  cpu time    0.00: real time    0.00
    --------------------------------------------
      LOOP:  cpu time    1.49: real time    3.27

 eigenvalue-minimisations  :  1080
 total energy-change (2. order) : 0.5332008E-01  (-0.8884441E-02)
 number of electron       8.0000000 magnetization 
 augmentation part       -0.4761728 magnetization 

 Broyden mixing:
  rms(total) = 0.22933E+00    rms(broyden)= 0.22933E+00
  rms(prec ) = 0.54176E+00
  weight for this iteration     100.00

 eigenvalues of (default mixing * dielectric matrix)
  average eigenvalue GAMMA=   2.5726
  2.5726

 Free energy of the ion-electron system (eV)
  ---------------------------------------------------
  alpha Z        PSCENC =         3.29317992
  Ewald energy   TEWEN  =      -226.94489173
  -1/2 Hartree   DENC   =       -12.87051680
  -exchange  EXHF       =         0.00000000
  -V(xc)+E(xc)   XCENC  =       -20.00579604
  PAW double counting   =       308.82294031     -272.17029331
  entropy T*S    EENTRO =        -0.00000844
  eigenvalues    EBANDS =         2.91998684
  atomic energy  EATOM  =       208.59416316
  ---------------------------------------------------
  free energy    TOTEN  =        -8.36123610 eV

  energy without entropy =       -8.36122766  energy(sigma->0) =       -8.36123188


--------------------------------------------------------------------------------------------------------




----------------------------------------- Iteration    1(   7)  ---------------------------------------


    POTLOK:  cpu time    1.05: real time    1.06
    SETDIJ:  cpu time    0.00: real time    0.00
     EDDAV:  cpu time    0.36: real time    0.36
       DOS:  cpu time    0.00: real time    0.00
    CHARGE:  cpu time    0.02: real time    0.02
    MIXING:  cpu time    0.00: real time    0.00
    --------------------------------------------
      LOOP:  cpu time    1.44: real time    3.17

 eigenvalue-minimisations  :  1120
 total energy-change (2. order) : 0.5333511E-02  (-0.2026398E-01)
 number of electron       8.0000000 magnetization 
 augmentation part       -0.4667855 magnetization 

 Broyden mixing:
  rms(total) = 0.18556E-01    rms(broyden)= 0.18556E-01
  rms(prec ) = 0.48583E-01
  weight for this iteration     100.00

 eigenvalues of (default mixing * dielectric matrix)
  average eigenvalue GAMMA=   2.3172
  2.3172  2.3172

 Free energy of the ion-electron system (eV)
  ---------------------------------------------------
  alpha Z        PSCENC =         3.29317992
  Ewald energy   TEWEN  =      -226.94489173
  -1/2 Hartree   DENC   =       -15.47926891
  -exchange  EXHF       =         0.00000000
  -V(xc)+E(xc)   XCENC  =       -19.58097411
  PAW double counting   =       559.32423143     -522.84674911
  entropy T*S    EENTRO =        -0.00006084
  eigenvalues    EBANDS =         5.28446762
  atomic energy  EATOM  =       208.59416316
  ---------------------------------------------------
  free energy    TOTEN  =        -8.35590259 eV

  energy without entropy =       -8.35584175  energy(sigma->0) =       -8.35587217


--------------------------------------------------------------------------------------------------------




----------------------------------------- Iteration    1(   8)  ---------------------------------------


    POTLOK:  cpu time    1.03: real time    1.03
    SETDIJ:  cpu time    0.00: real time    0.00
     EDDAV:  cpu time    0.33: real time    0.33
       DOS:  cpu time    0.00: real time    0.00
    CHARGE:  cpu time    0.02: real time    0.02
    MIXING:  cpu time    0.00: real time    0.00
    --------------------------------------------
      LOOP:  cpu time    1.38: real time    3.05

 eigenvalue-minimisations  :  1104
 total energy-change (2. order) : 0.1679820E-01  (-0.6282370E-03)
 number of electron       8.0000000 magnetization 
 augmentation part       -0.4684202 magnetization 

 Broyden mixing:
  rms(total) = 0.99071E-02    rms(broyden)= 0.99071E-02
  rms(prec ) = 0.23743E-01
  weight for this iteration     100.00

 eigenvalues of (default mixing * dielectric matrix)
  average eigenvalue GAMMA=   2.0584
  2.7123  1.7314  1.7314

 Free energy of the ion-electron system (eV)
  ---------------------------------------------------
  alpha Z        PSCENC =         3.29317992
  Ewald energy   TEWEN  =      -226.94489173
  -1/2 Hartree   DENC   =       -15.24803959
  -exchange  EXHF       =         0.00000000
  -V(xc)+E(xc)   XCENC  =       -19.59573858
  PAW double counting   =       543.44470833     -506.90147692
  entropy T*S    EENTRO =        -0.00004248
  eigenvalues    EBANDS =         5.01903351
  atomic energy  EATOM  =       208.59416316
  ---------------------------------------------------
  free energy    TOTEN  =        -8.33910439 eV

  energy without entropy =       -8.33906191  energy(sigma->0) =       -8.33908315


--------------------------------------------------------------------------------------------------------




----------------------------------------- Iteration    1(   9)  ---------------------------------------


    POTLOK:  cpu time    1.04: real time    1.05
    SETDIJ:  cpu time    0.00: real time    0.00
     EDDAV:  cpu time    0.38: real time    0.38
       DOS:  cpu time    0.00: real time    0.00
    CHARGE:  cpu time    0.02: real time    0.02
    MIXING:  cpu time    0.00: real time    0.00
    --------------------------------------------
      LOOP:  cpu time    1.45: real time    2.45

 eigenvalue-minimisations  :  1208
 total energy-change (2. order) :-0.1667541E-02  (-0.5743114E-04)
 number of electron       8.0000000 magnetization 
 augmentation part       -0.4680792 magnetization 

 Broyden mixing:
  rms(total) = 0.73430E-02    rms(broyden)= 0.73430E-02
  rms(prec ) = 0.81397E-02
  weight for this iteration     100.00

 eigenvalues of (default mixing * dielectric matrix)
  average eigenvalue GAMMA=   2.4030
  3.6555  0.9798  2.6743  2.3025

 Free energy of the ion-electron system (eV)
  ---------------------------------------------------
  alpha Z        PSCENC =         3.29317992
  Ewald energy   TEWEN  =      -226.94489173
  -1/2 Hartree   DENC   =       -15.38436063
  -exchange  EXHF       =         0.00000000
  -V(xc)+E(xc)   XCENC  =       -19.57397188
  PAW double counting   =       550.25678098     -513.72262250
  entropy T*S    EENTRO =        -0.00004645
  eigenvalues    EBANDS =         5.14099722
  atomic energy  EATOM  =       208.59416316
  ---------------------------------------------------
  free energy    TOTEN  =        -8.34077193 eV

  energy without entropy =       -8.34072548  energy(sigma->0) =       -8.34074870


--------------------------------------------------------------------------------------------------------




----------------------------------------- Iteration    1(  10)  ---------------------------------------


    POTLOK:  cpu time    1.06: real time    1.06
    SETDIJ:  cpu time    0.00: real time    0.00
     EDDAV:  cpu time    0.42: real time    0.42
       DOS:  cpu time    0.00: real time    0.00
    CHARGE:  cpu time    0.02: real time    0.02
    MIXING:  cpu time    0.00: real time    0.00
    --------------------------------------------
      LOOP:  cpu time    1.50: real time    3.01

 eigenvalue-minimisations  :  1216
 total energy-change (2. order) : 0.6706648E-03  (-0.3830360E-05)
 number of electron       8.0000000 magnetization 
 augmentation part       -0.4681043 magnetization 

 Broyden mixing:
  rms(total) = 0.30571E-02    rms(broyden)= 0.30571E-02
  rms(prec ) = 0.31631E-02
  weight for this iteration     100.00

 eigenvalues of (default mixing * dielectric matrix)
  average eigenvalue GAMMA=   1.9036
  2.9631  2.4173  2.2751  0.9312  0.9312

 Free energy of the ion-electron system (eV)
  ---------------------------------------------------
  alpha Z        PSCENC =         3.29317992
  Ewald energy   TEWEN  =      -226.94489173
  -1/2 Hartree   DENC   =       -15.37107711
  -exchange  EXHF       =         0.00000000
  -V(xc)+E(xc)   XCENC  =       -19.57695851
  PAW double counting   =       534.19638968     -497.65996570
  entropy T*S    EENTRO =        -0.00004538
  eigenvalues    EBANDS =         5.12910441
  atomic energy  EATOM  =       208.59416316
  ---------------------------------------------------
  free energy    TOTEN  =        -8.34010126 eV

  energy without entropy =       -8.34005589  energy(sigma->0) =       -8.34007857


--------------------------------------------------------------------------------------------------------




----------------------------------------- Iteration    1(  11)  ---------------------------------------


    POTLOK:  cpu time    1.10: real time    1.11
    SETDIJ:  cpu time    0.00: real time    0.00
     EDDAV:  cpu time    0.44: real time    0.44
       DOS:  cpu time    0.00: real time    0.00
    CHARGE:  cpu time    0.02: real time    0.03
    MIXING:  cpu time    0.00: real time    0.00
    --------------------------------------------
      LOOP:  cpu time    1.58: real time    4.03

 eigenvalue-minimisations  :  1192
 total energy-change (2. order) : 0.2728657E-04  (-0.8065534E-07)
 number of electron       8.0000000 magnetization 
 augmentation part       -0.4681170 magnetization 

 Broyden mixing:
  rms(total) = 0.31204E-03    rms(broyden)= 0.31204E-03
  rms(prec ) = 0.34816E-03
  weight for this iteration     100.00

 eigenvalues of (default mixing * dielectric matrix)
  average eigenvalue GAMMA=   2.0318
  2.9792  2.7388  2.2969  2.1913  0.9923  0.9923

 Free energy of the ion-electron system (eV)
  ---------------------------------------------------
  alpha Z        PSCENC =         3.29317992
  Ewald energy   TEWEN  =      -226.94489173
  -1/2 Hartree   DENC   =       -15.37378419
  -exchange  EXHF       =         0.00000000
  -V(xc)+E(xc)   XCENC  =       -19.57603288
  PAW double counting   =       538.23131676     -501.69475474
  entropy T*S    EENTRO =        -0.00004548
  eigenvalues    EBANDS =         5.13077521
  atomic energy  EATOM  =       208.59416316
  ---------------------------------------------------
  free energy    TOTEN  =        -8.34007398 eV

  energy without entropy =       -8.34002850  energy(sigma->0) =       -8.34005124


--------------------------------------------------------------------------------------------------------




----------------------------------------- Iteration    1(  12)  ---------------------------------------


    POTLOK:  cpu time    1.05: real time    1.06
    SETDIJ:  cpu time    0.00: real time    0.00
     EDDAV:  cpu time    0.40: real time    0.40
       DOS:  cpu time    0.00: real time    0.00
    CHARGE:  cpu time    0.02: real time    0.02
    MIXING:  cpu time    0.00: real time    0.00
    --------------------------------------------
      LOOP:  cpu time    1.48: real time    2.23

 eigenvalue-minimisations  :  1176
 total energy-change (2. order) : 0.1075627E-05  (-0.7373054E-08)
 number of electron       8.0000000 magnetization 
 augmentation part       -0.4681179 magnetization 

 Broyden mixing:
  rms(total) = 0.92337E-04    rms(broyden)= 0.92337E-04
  rms(prec ) = 0.94758E-04
  weight for this iteration     100.00

 eigenvalues of (default mixing * dielectric matrix)
  average eigenvalue GAMMA=   1.9375
  2.9769  2.7174  2.4675  2.1848  0.9840  0.9840  1.2480

 Free energy of the ion-electron system (eV)
  ---------------------------------------------------
  alpha Z        PSCENC =         3.29317992
  Ewald energy   TEWEN  =      -226.94489173
  -1/2 Hartree   DENC   =       -15.37373085
  -exchange  EXHF       =         0.00000000
  -V(xc)+E(xc)   XCENC  =       -19.57606444
  PAW double counting   =       538.56758255     -502.03099475
  entropy T*S    EENTRO =        -0.00004545
  eigenvalues    EBANDS =         5.13072869
  atomic energy  EATOM  =       208.59416316
  ---------------------------------------------------
  free energy    TOTEN  =        -8.34007290 eV

  energy without entropy =       -8.34002745  energy(sigma->0) =       -8.34005017


--------------------------------------------------------------------------------------------------------




----------------------------------------- Iteration    1(  13)  ---------------------------------------


    POTLOK:  cpu time    1.10: real time    1.12
    SETDIJ:  cpu time    0.00: real time    0.00
     EDDAV:  cpu time    0.24: real time    0.25
       DOS:  cpu time    0.00: real time    0.00
    CHARGE:  cpu time    0.03: real time    0.03
    MIXING:  cpu time    0.00: real time    0.00
    --------------------------------------------
      LOOP:  cpu time    1.38: real time    4.21

 eigenvalue-minimisations  :   632
 total energy-change (2. order) : 0.2959711E-05  (-0.2085182E-09)
 number of electron       8.0000000 magnetization 
 augmentation part       -0.4681186 magnetization 

 Broyden mixing:
  rms(total) = 0.57329E-05    rms(broyden)= 0.57329E-05
  rms(prec ) = 0.71952E-05
  weight for this iteration     100.00

 eigenvalues of (default mixing * dielectric matrix)
  average eigenvalue GAMMA=   2.0325
  3.0840  2.8631  2.7604  2.3909  2.2023  0.9936  0.9936  0.9723

 Free energy of the ion-electron system (eV)
  ---------------------------------------------------
  alpha Z        PSCENC =         3.29317992
  Ewald energy   TEWEN  =      -226.94489173
  -1/2 Hartree   DENC   =       -15.37367066
  -exchange  EXHF       =         0.00000000
  -V(xc)+E(xc)   XCENC  =       -19.57606725
  PAW double counting   =       538.69690122     -502.16029654
  entropy T*S    EENTRO =        -0.00004545
  eigenvalues    EBANDS =         5.13065740
  atomic energy  EATOM  =       208.59416316
  ---------------------------------------------------
  free energy    TOTEN  =        -8.34006994 eV

  energy without entropy =       -8.34002449  energy(sigma->0) =       -8.34004722


--------------------------------------------------------------------------------------------------------




----------------------------------------- Iteration    1(  14)  ---------------------------------------


    POTLOK:  cpu time    1.05: real time    1.06
    SETDIJ:  cpu time    0.00: real time    0.00
     EDDAV:  cpu time    0.26: real time    0.26
       DOS:  cpu time    0.00: real time    0.00
    CHARGE:  cpu time    0.03: real time    0.03
    MIXING:  cpu time    0.00: real time    0.00
    --------------------------------------------
      LOOP:  cpu time    1.35: real time    2.53

 eigenvalue-minimisations  :   616
 total energy-change (2. order) : 0.2239501E-06  (-0.2725396E-10)
 number of electron       8.0000000 magnetization 
 augmentation part       -0.4681186 magnetization 

 Broyden mixing:
  rms(total) = 0.22063E-05    rms(broyden)= 0.22063E-05
  rms(prec ) = 0.28165E-05
  weight for this iteration     100.00

 eigenvalues of (default mixing * dielectric matrix)
  average eigenvalue GAMMA=   1.9041
  3.0352  2.9000  2.6229  2.5070  2.1782  1.0280  0.9773  0.9442  0.9442

 Free energy of the ion-electron system (eV)
  ---------------------------------------------------
  alpha Z        PSCENC =         3.29317992
  Ewald energy   TEWEN  =      -226.94489173
  -1/2 Hartree   DENC   =       -15.37369871
  -exchange  EXHF       =         0.00000000
  -V(xc)+E(xc)   XCENC  =       -19.57606204
  PAW double counting   =       538.70186437     -502.16525974
  entropy T*S    EENTRO =        -0.00004545
  eigenvalues    EBANDS =         5.13068050
  atomic energy  EATOM  =       208.59416316
  ---------------------------------------------------
  free energy    TOTEN  =        -8.34006972 eV

  energy without entropy =       -8.34002427  energy(sigma->0) =       -8.34004699


--------------------------------------------------------------------------------------------------------




----------------------------------------- Iteration    1(  15)  ---------------------------------------


    POTLOK:  cpu time    1.08: real time    1.11
    SETDIJ:  cpu time    0.00: real time    0.00
     EDDAV:  cpu time    0.27: real time    0.27
       DOS:  cpu time    0.00: real time    0.00
    CHARGE:  cpu time    0.02: real time    0.03
    MIXING:  cpu time    0.00: real time    0.00
    --------------------------------------------
      LOOP:  cpu time    1.38: real time    3.53

 eigenvalue-minimisations  :   600
 total energy-change (2. order) : 0.3858938E-06  (-0.2943656E-11)
 number of electron       8.0000000 magnetization 
 augmentation part       -0.4681187 magnetization 

 Broyden mixing:
  rms(total) = 0.10578E-05    rms(broyden)= 0.10578E-05
  rms(prec ) = 0.10972E-05
  weight for this iteration     100.00

 eigenvalues of (default mixing * dielectric matrix)
  average eigenvalue GAMMA=   1.8374
  3.0526  2.8983  2.6057  2.5406  2.1821  0.9551  0.9758  1.0408  1.0613  1.0613

 Free energy of the ion-electron system (eV)
  ---------------------------------------------------
  alpha Z        PSCENC =         3.29317992
  Ewald energy   TEWEN  =      -226.94489173
  -1/2 Hartree   DENC   =       -15.37368796
  -exchange  EXHF       =         0.00000000
  -V(xc)+E(xc)   XCENC  =       -19.57606339
  PAW double counting   =       538.69858343     -502.16197743
  entropy T*S    EENTRO =        -0.00004545
  eigenvalues    EBANDS =         5.13067012
  atomic energy  EATOM  =       208.59416316
  ---------------------------------------------------
  free energy    TOTEN  =        -8.34006933 eV

  energy without entropy =       -8.34002388  energy(sigma->0) =       -8.34004661


--------------------------------------------------------------------------------------------------------




----------------------------------------- Iteration    1(  16)  ---------------------------------------


    POTLOK:  cpu time    1.10: real time    1.10
    SETDIJ:  cpu time    0.00: real time    0.00
     EDDAV:  cpu time    0.26: real time    0.25
       DOS:  cpu time    0.00: real time    0.00
    --------------------------------------------
      LOOP:  cpu time    1.35: real time    2.09

 eigenvalue-minimisations  :   560
 total energy-change (2. order) :-0.5971583E-07  (-0.6673771E-12)
 number of electron       8.0000000 magnetization 
 augmentation part       -0.4681187 magnetization 

 Free energy of the ion-electron system (eV)
  ---------------------------------------------------
  alpha Z        PSCENC =         3.29317992
  Ewald energy   TEWEN  =      -226.94489173
  -1/2 Hartree   DENC   =       -15.37368982
  -exchange  EXHF       =         0.00000000
  -V(xc)+E(xc)   XCENC  =       -19.57606337
  PAW double counting   =       538.69722349     -502.16061783
  entropy T*S    EENTRO =        -0.00004545
  eigenvalues    EBANDS =         5.13067225
  atomic energy  EATOM  =       208.59416316
  ---------------------------------------------------
  free energy    TOTEN  =        -8.34006939 eV

  energy without entropy =       -8.34002394  energy(sigma->0) =       -8.34004667


--------------------------------------------------------------------------------------------------------




 average (electrostatic) potential at core
  the test charge radii are     0.9892
  (the norm of the test charge is              1.0000)
       1 -83.7677       2 -83.7677
 
 
 
 E-fermi :   5.9283     XC(G=0):  -9.3078     alpha+bet :-11.7317


 k-point   1 :       0.0000    0.0000    0.0000
  band No.  band energies     occupation 
      1      -6.1470      2.00000
      2       5.5937      1.98201
      3       5.5937      1.98201
      4       5.5937      1.98200
      5       8.2163      0.00000
      6       8.2163      0.00000
      7       8.2164      0.00000
      8       8.8217      0.00000

 k-point   2 :       0.0909    0.0000    0.0000
  band No.  band energies     occupation 
      1      -6.0409      2.00000
      2       4.6315      2.00000
      3       5.4346      1.99952
      4       5.4346      1.99952
      5       8.2097      0.00000
[...]

 k-point  21 :      -0.4545    0.1818    0.0000
  band No.  band energies     occupation 
      1      -3.5109      2.00000
      2      -1.0612      2.00000
      3       2.5981      2.00000
      4       3.8855      2.00000
      5       7.6863      0.00000
      6       9.9077      0.00000
      7      10.3250      0.00000
      8      12.4907      0.00000

 k-point  22 :      -0.3636    0.1818    0.0000
  band No.  band energies     occupation 
      1      -3.7879      2.00000
      2      -0.6608      2.00000
      3       2.4505      2.00000
      4       4.1551      2.00000
      5       7.9305      0.00000
      6       9.8990      0.00000
      7      10.1068      0.00000
      8      13.2929      0.00000

 k-point  23 :      -0.2727    0.1818    0.0000
  band No.  band energies     occupation 
      1      -4.4433      2.00000
      2       0.4292      2.00000
      3       2.5347      2.00000
      4       4.5305      2.00000
      5       8.2865      0.00000
      6       9.8652      0.00000
      7       9.9461      0.00000
      8      11.9217      0.00000

 k-point  24 :      -0.1818    0.1818    0.0000
  band No.  band energies     occupation 
      1      -5.0468      2.00000
      2       1.5955      2.00000
      3       3.0111      2.00000
      4       4.9307      2.00000
      5       8.6025      0.00000
      6       9.3802      0.00000
      7       9.6321      0.00000
      8      11.2605      0.00000

 k-point  25 :       0.2727    0.2727    0.0000
  band No.  band energies     occupation 
      1      -4.8885      2.00000
      2       1.7191      2.00000
      3       3.6167      2.00000
      4       3.6167      2.00000
      5       6.6885      0.00000
      6       8.4743      0.00000
      7      11.7111      0.00000
      8      11.7111      0.00000

 k-point  26 :       0.3636    0.2727    0.0000
  band No.  band energies     occupation 
      1      -4.3852      2.00000
      2       0.7828      2.00000
      3       3.0965      2.00000
      4       3.3900      2.00000
      5       6.8167      0.00000
      6       8.1864      0.00000
      7      11.9920      0.00000
      8      12.1783      0.00000

 k-point  27 :       0.4545    0.2727    0.0000
  band No.  band energies     occupation 
      1      -3.7399      2.00000
      2      -0.2244      2.00000
      3       2.3901      2.00000
      4       3.3294      2.00000
      5       7.0183      0.00000
      6       8.9147      0.00000
      7      11.8333      0.00000
      8      12.0588      0.00000

 k-point  28 :      -0.4545    0.2727    0.0000
  band No.  band energies     occupation 
      1      -3.1414      2.00000
      2      -1.0062      2.00000
      3       1.8313      2.00000
      4       3.4384      2.00000
      5       7.1518      0.00000
      6      10.3621      0.00000
      7      11.6713      0.00000
      8      11.7446      0.00000

 k-point  29 :      -0.3636    0.2727    0.0000
  band No.  band energies     occupation 
      1      -3.1970      2.00000
      2      -0.9281      2.00000
      3       1.5545      2.00000
      4       3.7052      2.00000
      5       7.4353      0.00000
      6      11.3831      0.00000
      7      11.4030      0.00000
      8      12.3049      0.00000

 k-point  30 :      -0.2727    0.2727    0.0000
  band No.  band energies     occupation 
      1      -3.8164      2.00000
      2      -0.1854      2.00000
      3       1.7134      2.00000
      4       4.0959      2.00000
      5       7.8686      0.00000
      6      10.8146      0.00000
      7      11.1058      0.00000
      8      11.9827      0.00000

 k-point  31 :       0.3636    0.3636    0.0000
  band No.  band energies     occupation 
      1      -3.9375      2.00000
      2       0.1315      2.00000
      3       3.1216      2.00000
      4       3.1216      2.00000
      5       6.3396      0.00363
      6       7.3558      0.00000
      7      13.3479      0.00000
      8      13.3479      0.00000

 k-point  32 :       0.4545    0.3636    0.0000
  band No.  band energies     occupation 
      1      -3.3282      2.00000
      2      -0.6678      2.00000
      3       2.6059      2.00000
      4       3.0185      2.00000
      5       6.5456      0.00001
      6       7.3613      0.00000
      7      13.6711      0.00000
      8      13.6855      0.00000

 k-point  33 :      -0.4545    0.3636    0.0000
  band No.  band energies     occupation 
      1      -2.6697      2.00000
      2      -1.3704      2.00000
      3       1.8526      2.00000
      4       3.0894      2.00000
      5       6.7162      0.00000
      6       8.5155      0.00000
      7      13.4194      0.00000
      8      13.5403      0.00000

 k-point  34 :      -0.3636    0.3636    0.0000
  band No.  band energies     occupation 
      1      -2.6102      2.00000
      2      -1.3993      2.00000
      3       1.3816      2.00000
      4       3.3274      2.00000
      5       6.9886      0.00000
      6      10.2066      0.00000
      7      12.7603      0.00000
      8      13.2433      0.00000

 k-point  35 :       0.4545    0.4545    0.0000
  band No.  band energies     occupation 
      1      -2.7556      2.00000
      2      -1.3814      2.00000
      3       2.8682      2.00000
      4       2.8682      2.00000
      5       6.3032      0.00804
      6       6.6300      0.00000
      7      15.0228      0.00000
      8      15.0228      0.00000

 k-point  36 :      -0.4545    0.4545    0.0000
  band No.  band energies     occupation 
      1      -2.1242      2.00000
      2      -2.0126      2.00000
      3       2.4441      2.00000
      4       2.8927      2.00000
      5       6.4838      0.00009
      6       7.0510      0.00000
      7      14.9719      0.00000
      8      15.2027      0.00000

 k-point  37 :       0.2727    0.1818    0.0909
  band No.  band energies     occupation 
      1      -5.4478      2.00000
      2       2.6200      2.00000
      3       3.8323      2.00000
      4       4.8008      2.00000
      5       7.9878      0.00000
      6       9.2122      0.00000
      7       9.9739      0.00000
      8      10.4095      0.00000

 k-point  38 :       0.3636    0.1818    0.0909
  band No.  band energies     occupation 
      1      -4.9452      2.00000
      2       1.3284      2.00000
      3       3.2807      2.00000
      4       4.4923      2.00000
      5       8.2885      0.00000
      6       9.1747      0.00000
      7      10.3165      0.00000
      8      10.5121      0.00000

 k-point  39 :       0.4545    0.1818    0.0909
  band No.  band energies     occupation 
      1      -4.3012      2.00000
      2       0.0152      2.00000
      3       3.0252      2.00000
      4       4.1595      2.00000
      5       8.3146      0.00000
      6       8.9922      0.00000
      7      10.4072      0.00000
      8      11.3474      0.00000

 k-point  40 :      -0.4545    0.1818    0.0909
  band No.  band energies     occupation 
      1      -3.7027      2.00000
      2      -0.9422      2.00000
      3       2.9253      2.00000
      4       3.9557      2.00000
      5       8.2845      0.00000
      6       8.8020      0.00000
      7      10.3437      0.00000
      8      12.7921      0.00000

 k-point  41 :       0.3636    0.2727    0.0909
  band No.  band energies     occupation 
      1      -4.7632      2.00000
      2       1.3464      2.00000
      3       3.1341      2.00000
      4       3.8271      2.00000
      5       7.4369      0.00000
      6       8.9621      0.00000
      7      10.5728      0.00000
      8      11.5965      0.00000

 k-point  42 :       0.4545    0.2727    0.0909
  band No.  band energies     occupation 
      1      -4.1584      2.00000
      2       0.2888      2.00000
      3       2.5718      2.00000
      4       3.5243      2.00000
      5       7.7939      0.00000
      6       9.3612      0.00000
      7      10.2676      0.00000
      8      11.9863      0.00000

 k-point  43 :      -0.4545    0.2727    0.0909
  band No.  band energies     occupation 
      1      -3.5014      2.00000
      2      -0.6960      2.00000
      3       2.1931      2.00000
      4       3.3738      2.00000
      5       7.9277      0.00000
      6       9.8827      0.00000
      7      10.7014      0.00000
      8      11.9477      0.00000

 k-point  44 :      -0.3636    0.2727    0.0909
  band No.  band energies     occupation 
      1      -3.2426      2.00000
      2      -1.0352      2.00000
      3       1.9688      2.00000
      4       3.4605      2.00000
      5       8.1361      0.00000
      6       9.6254      0.00000
      7      11.8368      0.00000
      8      12.3540      0.00000

 k-point  45 :      -0.2727    0.2727    0.0909
  band No.  band energies     occupation 
      1      -3.7356      2.00000
      2      -0.3643      2.00000
      3       1.9618      2.00000
      4       3.7470      2.00000
      5       8.4886      0.00000
      6       9.4397      0.00000
      7      11.1548      0.00000
      8      11.7593      0.00000

 k-point  46 :      -0.1818    0.2727    0.0909
  band No.  band energies     occupation 
      1      -4.3960      2.00000
      2       0.5962      2.00000
      3       2.3337      2.00000
      4       4.1482      2.00000
      5       8.9137      0.00000
      6       9.0270      0.00000
      7      10.2865      0.00000
      8      11.3091      0.00000

 k-point  47 :       0.4545    0.3636    0.0909
  band No.  band energies     occupation 
      1      -3.8309      2.00000
      2      -0.0029      2.00000
      3       2.6694      2.00000
      4       3.0499      2.00000
      5       7.0879      0.00000
      6       7.9424      0.00000
      7      11.9335      0.00000
      8      13.3142      0.00000

 k-point  48 :      -0.4545    0.3636    0.0909
  band No.  band energies     occupation 
      1      -3.1652      2.00000
      2      -0.8097      2.00000
      3       2.0459      2.00000
      4       2.8773      2.00000
      5       7.4315      0.00000
      6       8.7325      0.00000
      7      11.5930      0.00000
      8      13.6802      0.00000

 k-point  49 :      -0.3636    0.3636    0.0909
  band No.  band energies     occupation 
      1      -2.7089      2.00000
      2      -1.2961      2.00000
      3       1.5393      2.00000
      4       2.9901      2.00000
      5       7.6433      0.00000
      6      10.2713      0.00000
      7      11.3035      0.00000
      8      12.8856      0.00000

 k-point  50 :      -0.2727    0.3636    0.0909
  band No.  band energies     occupation 
      1      -3.0868      2.00000
      2      -0.9031      2.00000
      3       1.4379      2.00000
      4       3.3044      2.00000
      5       8.0072      0.00000
      6      10.6777      0.00000
      7      11.4128      0.00000
      8      12.2890      0.00000

 k-point  51 :      -0.4545    0.4545    0.0909
  band No.  band energies     occupation 
      1      -2.6846      2.00000
      2      -1.3800      2.00000
      3       2.4822      2.00000
      4       2.6008      2.00000
      5       7.0234      0.00000
      6       7.2952      0.00000
      7      13.4494      0.00000
      8      14.8565      0.00000

 k-point  52 :      -0.3636    0.4545    0.0909
  band No.  band energies     occupation 
      1      -2.1927      2.00000
      2      -1.8173      2.00000
      3       1.8444      2.00000
      4       2.6714      2.00000
      5       7.3024      0.00000
      6       8.5260      0.00000
      7      13.0077      0.00000
      8      13.2356      0.00000

 k-point  53 :      -0.4545    0.3636    0.1818
  band No.  band energies     occupation 
      1      -3.5282      2.00000
      2      -0.3881      2.00000
      3       1.9349      2.00000
      4       3.0756      2.00000
      5       8.7129      0.00000
      6       9.3607      0.00000
      7       9.9080      0.00000
      8      13.2128      0.00000

 k-point  54 :      -0.3636    0.3636    0.1818
  band No.  band energies     occupation 
      1      -2.9085      2.00000
      2      -1.0743      2.00000
      3       1.6610      2.00000
      4       2.7653      2.00000
      5       9.0837      0.00000
      6       9.4330      0.00000
      7      10.6900      0.00000
      8      12.5307      0.00000

 k-point  55 :      -0.3636    0.4545    0.1818
  band No.  band energies     occupation 
      1      -2.5047      2.00000
      2      -1.4245      2.00000
      3       1.8876      2.00000
      4       2.2611      2.00000
      5       8.6348      0.00000
      6       8.8444      0.00000
      7      11.1947      0.00000
      8      12.7641      0.00000

 k-point  56 :      -0.2727    0.4545    0.1818
  band No.  band energies     occupation 
      1      -2.3108      2.00000
      2      -1.5854      2.00000
      3       1.6170      2.00000
      4       2.2965      2.00000
      5       8.9799      0.00000
      6      10.2364      0.00000
      7      10.9770      0.00000
      8      10.9790      0.00000


--------------------------------------------------------------------------------------------------------


 soft charge-density along one line, spin component           1
         0         1         2         3         4         5         6         7         8         9
 total charge-density along one line
 
 pseudopotential strength for first ion, spin component:           1
 18.530  25.848   0.000   0.000   0.000   0.000   0.000   0.000
 25.848  36.061   0.000   0.000   0.000   0.000   0.000   0.000
  0.000   0.000   4.199   0.000   0.000   7.816   0.000   0.000
  0.000   0.000   0.000   4.199   0.000   0.000   7.816   0.000
  0.000   0.000   0.000   0.000   4.199   0.000   0.000   7.816
  0.000   0.000   7.816   0.000   0.000  14.561   0.000   0.000
  0.000   0.000   0.000   7.816   0.000   0.000  14.561   0.000
  0.000   0.000   0.000   0.000   7.816   0.000   0.000  14.561
 total augmentation occupancy for first ion, spin component:           1
  3.252  -0.963   0.000   0.000   0.000   0.000   0.000   0.000
 -0.963   0.489   0.000   0.000   0.000   0.000   0.000   0.000
  0.000   0.000   2.262   0.000   0.000  -0.407   0.000   0.000
  0.000   0.000   0.000   2.262   0.000   0.000  -0.407   0.000
  0.000   0.000   0.000   0.000   2.262   0.000   0.000  -0.407
  0.000   0.000  -0.407   0.000   0.000   0.084   0.000   0.000
  0.000   0.000   0.000  -0.407   0.000   0.000   0.084   0.000
  0.000   0.000   0.000   0.000  -0.407   0.000   0.000   0.084


------------------------ aborting loop because EDIFF is reached ----------------------------------------


    CHARGE:  cpu time    0.03: real time    0.03
    FORLOC:  cpu time    0.00: real time    0.00
    FORNL :  cpu time    0.03: real time    0.03
    STRESS:  cpu time    0.12: real time    0.13
    FORCOR:  cpu time    1.08: real time    1.10
    FORHAR:  cpu time    0.01: real time    0.01
    MIXING:  cpu time    0.00: real time    0.00

  FORCE on cell =-STRESS in cart. coord.  units (eV):
  Direction    XX          YY          ZZ          XY          YZ          ZX
  --------------------------------------------------------------------------------------
  Alpha Z     3.29318     3.29318     3.29318
  Ewald     -75.64832   -75.64835   -75.64832    -0.00001     0.00001     0.00001
  Hartree     5.12456     5.12456     5.12456     0.00000     0.00000     0.00000
  E(xc)     -25.38056   -25.38055   -25.38055     0.00000     0.00000     0.00000
  Local     -29.55412   -29.55412   -29.55412     0.00001     0.00000     0.00000
  n-local    74.21386    77.63539    81.72857    -0.91632    -0.87694    -0.02812
  augment   -11.97972   -11.97972   -11.97973     0.00000     0.00000     0.00000
  Kinetic    53.38192    55.38517    61.02927     0.84381     1.17569    -0.53684
  Fock        0.00000     0.00000     0.00000     0.00000     0.00000     0.00000
  -------------------------------------------------------------------------------------
  Total       0.31307     0.31307     0.31307     0.00000     0.00000     0.00000
  in kB      12.26744    12.26744    12.26744     0.00000     0.00000     0.00000
  external pressure =       12.27 kB  Pullay stress =        0.00 kB


 VOLUME and BASIS-vectors are now :
 -----------------------------------------------------------------------------
  energy-cutoff  :      550.00
  volume of cell :       40.89
      direct lattice vectors                 reciprocal lattice vectors
     3.348898000  0.000000000  1.933487000     0.298605691 -0.105573000  0.000000000
     1.116299000  3.157372000  1.933487000     0.000000000  0.316719094  0.000000000
     0.000000000  0.000000000  3.866975000    -0.149302807 -0.105573020  0.258600069

  length of vectors
     3.866974243  3.866974707  3.866975000     0.316719145  0.316719094  0.316719096


 FORCES acting on ions
    electron-ion (+dipol)            ewald-force                    non-local-force                 convergence-correction
 -----------------------------------------------------------------------------------------------
   -.378E-05 0.692E-05 0.844E-05   0.634E-05 -.116E-04 -.142E-04   -.416E-16 0.763E-16 0.139E-16   0.111E-11 0.296E-11 0.532E-11
   0.378E-05 -.692E-05 -.844E-05   -.634E-05 0.116E-04 0.142E-04   0.139E-16 -.347E-16 -.555E-16   -.111E-11 -.296E-11 -.532E-11
 -----------------------------------------------------------------------------------------------
   0.178E-12 -.571E-13 -.726E-14   -.469E-16 0.276E-16 -.294E-16   -.278E-16 0.416E-16 -.416E-16   0.103E-15 -.174E-16 -.206E-14
 
 
 POSITION                                       TOTAL-FORCE (eV/Angst)
 -----------------------------------------------------------------------------------
      3.90705      2.76270      6.76721         0.000000      0.000000      0.000000
      0.55815      0.39467      0.96674         0.000000      0.000000      0.000000
 -----------------------------------------------------------------------------------
    total drift:                                0.000000      0.000000      0.000000


--------------------------------------------------------------------------------------------------------



  FREE ENERGIE OF THE ION-ELECTRON SYSTEM (eV)
  ---------------------------------------------------
  free  energy   TOTEN  =        -8.34006939 eV

  energy  without entropy=       -8.34002394  energy(sigma->0) =       -8.34004667
 


--------------------------------------------------------------------------------------------------------


    POTLOK:  cpu time    1.09: real time    1.10


--------------------------------------------------------------------------------------------------------




--------------------------------------------------------------------------------------------------------


  
 reached required accuracy - stopping structural energy minimisation
     LOOP+:  cpu time   22.63: real time   49.11
    4ORBIT:  cpu time    0.00: real time    0.00

 total amount of memory used by VASP on root node    33402. kBytes
========================================================================

   base      :      30000. kBytes
   nonl-proj :       1128. kBytes
   fftplans  :        700. kBytes
   grid      :        998. kBytes
   one-center:          3. kBytes
   wavefun   :        573. kBytes
 
  
  
 General timing and accounting informations for this job:
 ========================================================
  
                  Total CPU time used (sec):       28.306
                            User time (sec):       28.042
                          System time (sec):        0.264
                         Elapsed time (sec):       88.689
  
                   Maximum memory used (kb):      104480.
                   Average memory used (kb):           0.
  
                          Minor page faults:        62921
                          Major page faults:            6
                 Voluntary context switches:          793
