 running on   16 total cores
 distrk:  each k-point on   16 cores,    1 groups
 distr:  one band on    4 cores,    4 groups
 using from now: INCAR     
 vasp.5.3.3 18Dez12 (build Jan 30 2013 10:57:47) complex                        
  
 POSCAR found type information on POSCAR  Si
 POSCAR found :  1 types and       2 ions

 ----------------------------------------------------------------------------- 
|                                                                             |
|  ADVICE TO THIS USER RUNNING 'VASP/VAMP'   (HEAR YOUR MASTER'S VOICE ...):  |
|                                                                             |
|      You have switched on vdW-DFT.                                          |
|      This routine was written and supplied by Jiri Klimes.                  |
|      We recommed that you carefully read and cite the following             |
|      publication                                                            |
|      J. Klimes, D.R. Bowler, A. Michelides                                  |
|        J. Phys.: Cond Matt. 22 022201 (2010)                                |
|      J. Klimes, D.R. Bowler, A. Michelides                                  |
|        Phys. Rev. B. 83, 195131 (2011)                                      |
|      and references therein.                                                |
|                                                                             |
 ----------------------------------------------------------------------------- 


 ----------------------------------------------------------------------------- 
|                                                                             |
|  ADVICE TO THIS USER RUNNING 'VASP/VAMP'   (HEAR YOUR MASTER'S VOICE ...):  |
|                                                                             |
|      You enforced a specific xc-type in the INCAR file,                     |
|      a different type was found on the POTCAR file                          |
|          I HOPE YOU KNOW, WHAT YOU ARE  DOING                               |
|                                                                             |
 ----------------------------------------------------------------------------- 

 LDA part: xc-table for Pade appr. of Perdew
 POSCAR, INCAR and KPOINTS ok, starting setup
 FFT: planning ...
 WAVECAR not read
 entering main loop
       N       E                     dE             d eps       ncg     rms          rms(c)
Total vdW correction in eV:      1.0792472
DAV:   1     0.901949020282E+01    0.90195E+01   -0.33550E+03   896   0.837E+02
DAV:   2    -0.816706585498E+01   -0.17187E+02   -0.16714E+02  1312   0.802E+01
DAV:   3    -0.841338833992E+01   -0.24632E+00   -0.24632E+00  1224   0.122E+01
DAV:   4    -0.841455487019E+01   -0.11665E-02   -0.11665E-02  1384   0.874E-01
DAV:   5    -0.841455618489E+01   -0.13147E-05   -0.13149E-05  1272   0.248E-02    0.374E+00
Total vdW correction in eV:      1.1274255
DAV:   6    -0.836123610035E+01    0.53320E-01   -0.88844E-02  1080   0.176E+00    0.229E+00
Total vdW correction in eV:      1.2190521
DAV:   7    -0.835590258911E+01    0.53335E-02   -0.20264E-01  1120   0.263E+00    0.186E-01
Total vdW correction in eV:      1.2141824
DAV:   8    -0.833910438615E+01    0.16798E-01   -0.62824E-03  1104   0.550E-01    0.991E-02
Total vdW correction in eV:      1.2195683
DAV:   9    -0.834077192669E+01   -0.16675E-02   -0.57431E-04  1208   0.160E-01    0.734E-02
Total vdW correction in eV:      1.2197671
DAV:  10    -0.834010126192E+01    0.67066E-03   -0.38304E-05  1216   0.542E-02    0.306E-02
Total vdW correction in eV:      1.2197707
DAV:  11    -0.834007397535E+01    0.27287E-04   -0.80655E-07  1192   0.821E-03    0.312E-03
Total vdW correction in eV:      1.2197996
DAV:  12    -0.834007289972E+01    0.10756E-05   -0.73731E-08  1176   0.270E-03    0.923E-04
Total vdW correction in eV:      1.2198009
DAV:  13    -0.834006994001E+01    0.29597E-05   -0.20852E-09   632   0.418E-04    0.573E-05
Total vdW correction in eV:      1.2198022
DAV:  14    -0.834006971606E+01    0.22395E-06   -0.27254E-10   616   0.176E-04    0.221E-05
Total vdW correction in eV:      1.2198017
DAV:  15    -0.834006933017E+01    0.38589E-06   -0.29437E-11   600   0.470E-05    0.106E-05
Total vdW correction in eV:      1.2198018
DAV:  16    -0.834006938988E+01   -0.59716E-07   -0.66738E-12   560   0.218E-05
Total vdW correction in eV:      1.2198017
Total vdW correction in eV:      1.2198018
   1 F= -.83400694E+01 E0= -.83400467E+01  d E =-.834007E+01
 curvature:   0.00 expect dE= 0.000E+00 dE for cont linesearch  0.000E+00
 trial: gam= 0.00000 g(F)=  0.473E-44 g(S)=  0.000E+00 ort = 0.000E+00 (trialstep = 0.100E+01)
 search vector abs. value=  0.100E-09
 reached required accuracy - stopping structural energy minimisation
