<?xml version="1.0" encoding="ISO-8859-1"?>
<modeling>
 <generator>
  <i name="program" type="string">vasp </i>
  <i name="version" type="string">5.3.3  </i>
  <i name="subversion" type="string">18Dez12 (build Jan 30 2013 10:57:47) complex                          parallel </i>
  <i name="platform" type="string">LinuxIFC </i>
  <i name="date" type="string">2016 06 21 </i>
  <i name="time" type="string">12:52:29 </i>
 </generator>
 <incar>
  <i type="string" name="PREC">accurate</i>
  <i type="int" name="NELM">   400</i>
  <i type="int" name="IBRION">     2</i>
  <i name="EDIFF">      0.00000010</i>
  <i type="int" name="NSW">     1</i>
  <i name="ENCUT">    550.00000000</i>
  <i type="int" name="ISMEAR">     0</i>
  <i type="logical" name="LWAVE"> F  </i>
  <i type="logical" name="LCHARG"> F  </i>
  <i type="int" name="NELM">   400</i>
  <i type="string" name="GGA"> BO</i>
  <i name="PARAM1">      0.18333333</i>
  <i name="PARAM2">      0.22000000</i>
  <i type="logical" name="LUSE_VDW"> T  </i>
  <i name="AGGAC">      0.00000000</i>
 </incar>
 <kpoints>
  <generation param="Gamma">
   <v type="int" name="divisions">      11       11       11 </v>
   <v name="usershift">      0.00000000       0.00000000       0.00000000 </v>
   <v name="genvec1">      0.09090909       0.00000000       0.00000000 </v>
   <v name="genvec2">      0.00000000       0.09090909       0.00000000 </v>
   <v name="genvec3">      0.00000000       0.00000000       0.09090909 </v>
   <v name="shift">      0.00000000       0.00000000       0.00000000 </v>
  </generation>
  <varray name="kpointlist" >
   <v>       0.00000000       0.00000000       0.00000000 </v>
   <v>       0.09090909       0.00000000       0.00000000 </v>
   <v>       0.18181818       0.00000000       0.00000000 </v>
   <v>       0.27272727       0.00000000       0.00000000 </v>
   <v>       0.36363636       0.00000000       0.00000000 </v>
   <v>       0.45454545       0.00000000       0.00000000 </v>
   <v>       0.09090909       0.09090909       0.00000000 </v>
   <v>       0.18181818       0.09090909       0.00000000 </v>
   <v>       0.27272727       0.09090909       0.00000000 </v>
   <v>       0.36363636       0.09090909       0.00000000 </v>
   <v>       0.45454545       0.09090909       0.00000000 </v>
   <v>      -0.45454545       0.09090909       0.00000000 </v>
   <v>      -0.36363636       0.09090909       0.00000000 </v>
   <v>      -0.27272727       0.09090909       0.00000000 </v>
   <v>      -0.18181818       0.09090909       0.00000000 </v>
   <v>      -0.09090909       0.09090909       0.00000000 </v>
   <v>       0.18181818       0.18181818       0.00000000 </v>
   <v>       0.27272727       0.18181818       0.00000000 </v>
   <v>       0.36363636       0.18181818       0.00000000 </v>
   <v>       0.45454545       0.18181818       0.00000000 </v>
   <v>      -0.45454545       0.18181818       0.00000000 </v>
   <v>      -0.36363636       0.18181818       0.00000000 </v>
   <v>      -0.27272727       0.18181818       0.00000000 </v>
   <v>      -0.18181818       0.18181818       0.00000000 </v>
   <v>       0.27272727       0.27272727       0.00000000 </v>
   <v>       0.36363636       0.27272727       0.00000000 </v>
   <v>       0.45454545       0.27272727       0.00000000 </v>
   <v>      -0.45454545       0.27272727       0.00000000 </v>
   <v>      -0.36363636       0.27272727       0.00000000 </v>
   <v>      -0.27272727       0.27272727       0.00000000 </v>
   <v>       0.36363636       0.36363636       0.00000000 </v>
   <v>       0.45454545       0.36363636       0.00000000 </v>
   <v>      -0.45454545       0.36363636       0.00000000 </v>
   <v>      -0.36363636       0.36363636       0.00000000 </v>
   <v>       0.45454545       0.45454545       0.00000000 </v>
   <v>      -0.45454545       0.45454545       0.00000000 </v>
   <v>       0.27272727       0.18181818       0.09090909 </v>
   <v>       0.36363636       0.18181818       0.09090909 </v>
   <v>       0.45454545       0.18181818       0.09090909 </v>
   <v>      -0.45454545       0.18181818       0.09090909 </v>
   <v>       0.36363636       0.27272727       0.09090909 </v>
   <v>       0.45454545       0.27272727       0.09090909 </v>
   <v>      -0.45454545       0.27272727       0.09090909 </v>
   <v>      -0.36363636       0.27272727       0.09090909 </v>
   <v>      -0.27272727       0.27272727       0.09090909 </v>
   <v>      -0.18181818       0.27272727       0.09090909 </v>
   <v>       0.45454545       0.36363636       0.09090909 </v>
   <v>      -0.45454545       0.36363636       0.09090909 </v>
   <v>      -0.36363636       0.36363636       0.09090909 </v>
   <v>      -0.27272727       0.36363636       0.09090909 </v>
   <v>      -0.45454545       0.45454545       0.09090909 </v>
   <v>      -0.36363636       0.45454545       0.09090909 </v>
   <v>      -0.45454545       0.36363636       0.18181818 </v>
   <v>      -0.36363636       0.36363636       0.18181818 </v>
   <v>      -0.36363636       0.45454545       0.18181818 </v>
   <v>      -0.27272727       0.45454545       0.18181818 </v>
  </varray>
  <varray name="weights" >
   <v>       0.00075131 </v>
   <v>       0.00601052 </v>
   <v>       0.00601052 </v>
   <v>       0.00601052 </v>
   <v>       0.00601052 </v>
   <v>       0.00601052 </v>
   <v>       0.00450789 </v>
   <v>       0.01803156 </v>
   <v>       0.01803156 </v>
   <v>       0.01803156 </v>
   <v>       0.01803156 </v>
   <v>       0.01803156 </v>
   <v>       0.01803156 </v>
   <v>       0.01803156 </v>
   <v>       0.01803156 </v>
   <v>       0.00901578 </v>
   <v>       0.00450789 </v>
   <v>       0.01803156 </v>
   <v>       0.01803156 </v>
   <v>       0.01803156 </v>
   <v>       0.01803156 </v>
   <v>       0.01803156 </v>
   <v>       0.01803156 </v>
   <v>       0.00901578 </v>
   <v>       0.00450789 </v>
   <v>       0.01803156 </v>
   <v>       0.01803156 </v>
   <v>       0.01803156 </v>
   <v>       0.01803156 </v>
   <v>       0.00901578 </v>
   <v>       0.00450789 </v>
   <v>       0.01803156 </v>
   <v>       0.01803156 </v>
   <v>       0.00901578 </v>
   <v>       0.00450789 </v>
   <v>       0.00901578 </v>
   <v>       0.01803156 </v>
   <v>       0.03606311 </v>
   <v>       0.03606311 </v>
   <v>       0.03606311 </v>
   <v>       0.01803156 </v>
   <v>       0.03606311 </v>
   <v>       0.03606311 </v>
   <v>       0.03606311 </v>
   <v>       0.03606311 </v>
   <v>       0.01803156 </v>
   <v>       0.01803156 </v>
   <v>       0.03606311 </v>
   <v>       0.03606311 </v>
   <v>       0.01803156 </v>
   <v>       0.01803156 </v>
   <v>       0.01803156 </v>
   <v>       0.01803156 </v>
   <v>       0.03606311 </v>
   <v>       0.01803156 </v>
   <v>       0.01803156 </v>
  </varray>
 </kpoints>
 <parameters>
  <separator name="general" >
   <i type="string" name="SYSTEM">unknown system</i>
   <i type="logical" name="LCOMPAT"> F  </i>
  </separator>
  <separator name="electronic" >
   <i type="string" name="PREC">accura</i>
   <i name="ENMAX">    550.00000000</i>
   <i name="ENAUG">    322.06900000</i>
   <i name="EDIFF">      0.00000010</i>
   <i type="int" name="IALGO">    38</i>
   <i type="int" name="IWAVPR">    11</i>
   <i type="int" name="NBANDS">     8</i>
   <i name="NELECT">      8.00000000</i>
   <i type="int" name="TURBO">     0</i>
   <i type="int" name="IRESTART">     0</i>
   <i type="int" name="NREBOOT">     0</i>
   <i type="int" name="NMIN">     0</i>
   <i name="EREF">      0.00000000</i>
   <separator name="electronic smearing" >
    <i type="int" name="ISMEAR">     0</i>
    <i name="SIGMA">      0.20000000</i>
    <i name="KSPACING">      0.50000000</i>
    <i type="logical" name="KGAMMA"> T  </i>
   </separator>
   <separator name="electronic projectors" >
    <i type="logical" name="LREAL"> F  </i>
    <v name="ROPT">      0.00000000</v>
    <i type="int" name="LMAXPAW">  -100</i>
    <i type="int" name="LMAXMIX">     2</i>
    <i type="logical" name="NLSPLINE"> F  </i>
   </separator>
   <separator name="electronic startup" >
    <i type="int" name="ISTART">     0</i>
    <i type="int" name="ICHARG">     2</i>
    <i type="int" name="INIWAV">     1</i>
   </separator>
   <separator name="electronic spin" >
    <i type="int" name="ISPIN">     1</i>
    <i type="logical" name="LNONCOLLINEAR"> F  </i>
    <v name="MAGMOM">      1.00000000      1.00000000</v>
    <i name="NUPDOWN">     -1.00000000</i>
    <i type="logical" name="LSORBIT"> F  </i>
    <v name="SAXIS">      0.00000000      0.00000000      1.00000000</v>
    <i type="logical" name="LSPIRAL"> F  </i>
    <v name="QSPIRAL">      0.00000000      0.00000000      0.00000000</v>
    <i type="logical" name="LZEROZ"> F  </i>
   </separator>
   <separator name="electronic exchange-correlation" >
    <i type="logical" name="LASPH"> F  </i>
    <i type="logical" name="LMETAGGA"> F  </i>
   </separator>
   <separator name="electronic convergence" >
    <i type="int" name="NELM">   400</i>
    <i type="int" name="NELMDL">    -5</i>
    <i type="int" name="NELMIN">     2</i>
    <i name="ENINI">    550.00000000</i>
    <separator name="electronic convergence detail" >
     <i type="logical" name="LDIAG"> T  </i>
     <i type="logical" name="LSUBROT"> T  </i>
     <i name="WEIMIN">      0.00100000</i>
     <i name="EBREAK">      0.00000000</i>
     <i name="DEPER">      0.30000000</i>
     <i type="int" name="NRMM">     4</i>
     <i name="TIME">      0.40000000</i>
    </separator>
   </separator>
   <separator name="electronic mixer" >
    <i name="AMIX">      0.40000000</i>
    <i name="BMIX">      1.00000000</i>
    <i name="AMIN">      0.10000000</i>
    <i name="AMIX_MAG">      1.60000000</i>
    <i name="BMIX_MAG">      1.00000000</i>
    <separator name="electronic mixer details" >
     <i type="int" name="IMIX">     4</i>
     <i type="int" name="MAXMIX">   -45</i>
     <i name="WC">    100.00000000</i>
     <i type="int" name="INIMIX">     1</i>
     <i type="int" name="MIXPRE">     1</i>
     <i type="int" name="MREMOVE">     5</i>
    </separator>
   </separator>
   <separator name="electronic dipolcorrection" >
    <i type="logical" name="LDIPOL"> F  </i>
    <i type="logical" name="LMONO"> F  </i>
    <i type="int" name="IDIPOL">     0</i>
    <i name="EPSILON">      1.00000000</i>
    <v name="DIPOL">   -100.00000000   -100.00000000   -100.00000000</v>
    <i name="EFIELD">      0.00000000</i>
   </separator>
  </separator>
  <separator name="grids" >
   <i type="int" name="NGX">    30</i>
   <i type="int" name="NGY">    30</i>
   <i type="int" name="NGZ">    30</i>
   <i type="int" name="NGXF">    60</i>
   <i type="int" name="NGYF">    60</i>
   <i type="int" name="NGZF">    60</i>
   <i type="logical" name="ADDGRID"> F  </i>
  </separator>
  <separator name="ionic" >
   <i type="int" name="NSW">     1</i>
   <i type="int" name="IBRION">     2</i>
   <i type="int" name="ISIF">     2</i>
   <i name="PSTRESS">      0.00000000</i>
   <i name="EDIFFG">      0.00000100</i>
   <i type="int" name="NFREE">     1</i>
   <i name="POTIM">      0.50000000</i>
   <i name="SMASS">     -3.00000000</i>
   <i name="SCALEE">      1.00000000</i>
  </separator>
  <separator name="ionic md" >
   <i name="TEBEG">      0.00010000</i>
   <i name="TEEND">      0.00010000</i>
   <i type="int" name="NBLOCK">     1</i>
   <i type="int" name="KBLOCK">     1</i>
   <i type="int" name="NPACO">   256</i>
   <i name="APACO">     16.00000000</i>
  </separator>
  <separator name="symmetry" >
   <i type="int" name="ISYM">     2</i>
   <i name="SYMPREC">      0.00001000</i>
  </separator>
  <separator name="dos" >
   <i type="logical" name="LORBIT"> F  </i>
   <v name="RWIGS">     -1.00000000</v>
   <i type="int" name="NEDOS">   301</i>
   <i name="EMIN">     10.00000000</i>
   <i name="EMAX">    -10.00000000</i>
   <i name="EFERMI">      0.00000000</i>
  </separator>
  <separator name="writing" >
   <i type="int" name="NWRITE">     2</i>
   <i type="logical" name="LWAVE"> F  </i>
   <i type="logical" name="LCHARG"> F  </i>
   <i type="logical" name="LPARD"> F  </i>
   <i type="logical" name="LVTOT"> F  </i>
   <i type="logical" name="LVHAR"> F  </i>
   <i type="logical" name="LELF"> F  </i>
   <i type="logical" name="LOPTICS"> F  </i>
   <v name="STM">      0.00000000      0.00000000      0.00000000      0.00000000      0.00000000      0.00000000      0.00000000</v>
  </separator>
  <separator name="performance" >
   <i type="int" name="NPAR">     4</i>
   <i type="int" name="NSIM">     4</i>
   <i type="int" name="NBLK">    -1</i>
   <i type="logical" name="LPLANE"> T  </i>
   <i type="logical" name="LSCALAPACK"> F  </i>
   <i type="logical" name="LSCAAWARE"> F  </i>
   <i type="logical" name="LSCALU"> F  </i>
   <i type="logical" name="LASYNC"> F  </i>
   <i type="logical" name="LORBITALREAL"> F  </i>
  </separator>
  <separator name="miscellaneous" >
   <i type="int" name="IDIOT">     3</i>
   <i type="logical" name="LMUSIC"> F  </i>
   <v name="POMASS">     28.08500000</v>
   <v name="DARWINR">      0.00000000</v>
   <v name="DARWINV">      1.00000000</v>
   <i type="logical" name="LCORR"> T  </i>
  </separator>
  <i type="logical" name="GGA_COMPAT"> T  </i>
  <i type="logical" name="LBERRY"> F  </i>
  <i type="int" name="ICORELEVEL">     0</i>
  <i type="logical" name="LDAU"> F  </i>
  <i type="int" name="I_CONSTRAINED_M">     0</i>
  <separator name="electronic exchange-correlation" >
   <i type="string" name="GGA">BO</i>
   <i type="int" name="VOSKOWN">     0</i>
   <i type="logical" name="LHFCALC"> F  </i>
   <i type="string" name="PRECFOCK"></i>
   <i type="logical" name="LSYMGRAD"> F  </i>
   <i type="logical" name="LHFONE"> F  </i>
   <i type="logical" name="LRHFCALC"> F  </i>
   <i type="logical" name="LTHOMAS"> F  </i>
   <i type="logical" name="LMODELHF"> F  </i>
   <i name="ENCUT4O">     -1.00000000</i>
   <i type="int" name="EXXOEP">     0</i>
   <i type="int" name="FOURORBIT">     0</i>
   <i name="AEXX">      0.00000000</i>
   <i name="HFALPHA">      0.00000000</i>
   <i name="MCALPHA">      0.00000000</i>
   <i name="ALDAX">      1.00000000</i>
   <i name="AGGAX">      1.00000000</i>
   <i name="ALDAC">      1.00000000</i>
   <i name="AGGAC">      0.00000000</i>
   <i type="int" name="NKREDX">     1</i>
   <i type="int" name="NKREDY">     1</i>
   <i type="int" name="NKREDZ">     1</i>
   <i type="logical" name="SHIFTRED"> F  </i>
   <i type="logical" name="ODDONLY"> F  </i>
   <i type="logical" name="EVENONLY"> F  </i>
   <i type="int" name="LMAXFOCK">     0</i>
   <i type="int" name="NMAXFOCKAE">     0</i>
   <i type="logical" name="LFOCKAEDFT"> F  </i>
   <i name="HFSCREEN">      0.00000000</i>
   <i name="HFSCREENC">      0.00000000</i>
   <i type="int" name="NBANDSGWLOW">     0</i>
  </separator>
  <separator name="vdW DFT" >
   <i type="logical" name="LUSE_VDW"> T  </i>
   <i name="Zab_VDW">     -0.84910000</i>
   <i name="PARAM1">      0.18333333</i>
   <i name="PARAM2">      0.22000000</i>
   <i name="PARAM3">      0.00000000</i>
  </separator>
  <separator name="model GW" >
   <i type="int" name="MODEL_GW">     0</i>
   <i name="MODEL_EPS0">     12.26648953</i>
   <i name="MODEL_ALPHA">      1.00000000</i>
  </separator>
  <separator name="linear response parameters" >
   <i type="logical" name="LEPSILON"> F  </i>
   <i type="logical" name="LRPA"> F  </i>
   <i type="logical" name="LNABLA"> F  </i>
   <i type="logical" name="LVEL"> F  </i>
   <i type="int" name="KINTER">     0</i>
   <i name="CSHIFT">      0.10000000</i>
   <i name="OMEGAMAX">     -1.00000000</i>
   <i name="DEG_THRESHOLD">      0.00200000</i>
  </separator>
  <separator name="orbital magnetization" >
   <i type="logical" name="NUCIND"> F  </i>
   <v name="MAGPOS">      0.00000000      0.00000000      0.00000000</v>
   <i type="logical" name="LNICSALL"> T  </i>
   <i type="logical" name="ORBITALMAG"> F  </i>
   <i type="logical" name="LMAGBLOCH"> F  </i>
   <i type="logical" name="LCHIMAG"> F  </i>
   <i type="logical" name="LGAUGE"> T  </i>
   <i type="int" name="MAGATOM">     0</i>
   <v name="MAGDIPOL">      0.00000000      0.00000000      0.00000000</v>
   <v name="AVECCONST">      0.00000000      0.00000000      0.00000000</v>
  </separator>
  <separator name="response functions" >
   <i type="logical" name="LADDER"> F  </i>
   <i type="logical" name="LFXC"> F  </i>
   <i type="logical" name="LHARTREE"> T  </i>
   <i type="int" name="IBSE">     0</i>
   <i type="logical" name="LTCTE"> F  </i>
   <i type="logical" name="LTETE"> F  </i>
   <i type="logical" name="LTRIPLET"> F  </i>
   <i type="logical" name="LFXCEPS"> F  </i>
   <i type="logical" name="L2ORDER"> F  </i>
   <i type="logical" name="LUSEW"> F  </i>
   <i name="ENCUTGW">     -2.00000000</i>
   <i name="ENCUTGWSOFT">     -2.00000000</i>
   <i name="ENCUTLF">     -1.00000000</i>
   <i type="int" name="LMAXMP2">    -1</i>
   <i name="SCISSOR">      0.00000000</i>
   <i type="int" name="NOMEGA">     0</i>
   <i type="int" name="NOMEGAR">     0</i>
   <i type="int" name="NBANDSGW">    -1</i>
   <i type="int" name="NBANDSO">    -1</i>
   <i type="int" name="NBANDSV">    -1</i>
   <i type="int" name="NELM">   400</i>
   <i type="int" name="DIM">     3</i>
   <i type="int" name="ANTIRES">     0</i>
   <i name="OMEGAMAX">    -30.00000000</i>
   <i name="OMEGATL">   -200.00000000</i>
   <i type="int" name="OMEGAGRID">     0</i>
   <i name="CSHIFT">     -0.10000000</i>
   <i type="logical" name="SELFENERGY"> F  </i>
   <i type="logical" name="LSPECTRAL"> F  </i>
   <i type="logical" name="ODDONLYGW"> F  </i>
   <i type="logical" name="EVENONLYGW"> F  </i>
   <i type="int" name="NKREDLFX">     1</i>
   <i type="int" name="NKREDLFY">     1</i>
   <i type="int" name="NKREDLFZ">     1</i>
   <i type="int" name="MAXMEM">  1800</i>
   <i type="int" name="TELESCOPE">     0</i>
  </separator>
 </parameters>
 <atominfo>
  <atoms>       2 </atoms>
  <types>       1 </types>
  <array name="atoms" >
   <dimension dim="1">ion</dimension>
   <field type="string">element</field>
   <field type="int">atomtype</field>
   <set>
    <rc><c>Si</c><c>   1</c></rc>
    <rc><c>Si</c><c>   1</c></rc>
   </set>
  </array>
  <array name="atomtypes" >
   <dimension dim="1">type</dimension>
   <field type="int">atomspertype</field>
   <field type="string">element</field>
   <field>mass</field>
   <field>valence</field>
   <field type="string">pseudopotential</field>
   <set>
    <rc><c>   2</c><c>Si</c><c>     28.08500000</c><c>      4.00000000</c><c>  PAW_PBE Si 05Jan2001                  </c></rc>
   </set>
  </array>
 </atominfo>
 <structure name="initialpos" >
  <crystal>
   <varray name="basis" >
    <v>       3.34889800       0.00000000       1.93348700 </v>
    <v>       1.11629900       3.15737200       1.93348700 </v>
    <v>       0.00000000       0.00000000       3.86697500 </v>
   </varray>
   <i name="volume">     40.88829843 </i>
   <varray name="rec_basis" >
    <v>       0.29860569      -0.10557300       0.00000000 </v>
    <v>       0.00000000       0.31671909       0.00000000 </v>
    <v>      -0.14930281      -0.10557302       0.25860007 </v>
   </varray>
  </crystal>
  <varray name="positions" >
   <v>       0.87500000       0.87500000       0.87500000 </v>
   <v>       0.12500000       0.12500000       0.12500000 </v>
  </varray>
 </structure>
 <calculation>
  <scstep>
   <time name="dav">    0.33    0.33</time>
   <time name="total">    2.55    6.52</time>
   <energy>
    <i name="alphaZ">      3.29317992 </i>
    <i name="ewald">   -226.94489173 </i>
    <i name="hartreedc">    -11.32339116 </i>
    <i name="XCdc">    -20.24410379 </i>
    <i name="pawpsdc">    189.40224250 </i>
    <i name="pawaedc">   -152.61488262 </i>
    <i name="eentropy">     -0.01222880 </i>
    <i name="bandstr">     18.86940274 </i>
    <i name="atom">    208.59416316 </i>
    <i name="e_fr_energy">      9.01949020 </i>
    <i name="e_wo_entrp">      9.03171901 </i>
    <i name="e_0_energy">      9.02560460 </i>
   </energy>
  </scstep>
  <scstep>
   <time name="dav">    0.47    0.48</time>
   <time name="total">    0.48    1.10</time>
   <energy>
    <i name="e_fr_energy">     -8.16706585 </i>
    <i name="e_wo_entrp">     -8.16706354 </i>
    <i name="e_0_energy">     -8.16706470 </i>
   </energy>
  </scstep>
  <scstep>
   <time name="dav">    0.46    0.47</time>
   <time name="total">    0.47    1.44</time>
   <energy>
    <i name="e_fr_energy">     -8.41338834 </i>
    <i name="e_wo_entrp">     -8.41338642 </i>
    <i name="e_0_energy">     -8.41338738 </i>
   </energy>
  </scstep>
  <scstep>
   <time name="dav">    0.51    0.52</time>
   <time name="total">    0.51    0.98</time>
   <energy>
    <i name="e_fr_energy">     -8.41455487 </i>
    <i name="e_wo_entrp">     -8.41455295 </i>
    <i name="e_0_energy">     -8.41455391 </i>
   </energy>
  </scstep>
  <scstep>
   <time name="dav">    0.43    0.43</time>
   <time name="total">    0.48    1.35</time>
   <energy>
    <i name="e_fr_energy">     -8.41455618 </i>
    <i name="e_wo_entrp">     -8.41455427 </i>
    <i name="e_0_energy">     -8.41455523 </i>
   </energy>
  </scstep>
  <scstep>
   <time name="dav">    0.38    0.38</time>
   <time name="total">    1.49    3.27</time>
   <energy>
    <i name="e_fr_energy">     -8.36123610 </i>
    <i name="e_wo_entrp">     -8.36122766 </i>
    <i name="e_0_energy">     -8.36123188 </i>
   </energy>
  </scstep>
  <scstep>
   <time name="dav">    0.36    0.36</time>
   <time name="total">    1.44    3.17</time>
   <energy>
    <i name="e_fr_energy">     -8.35590259 </i>
    <i name="e_wo_entrp">     -8.35584175 </i>
    <i name="e_0_energy">     -8.35587217 </i>
   </energy>
  </scstep>
  <scstep>
   <time name="dav">    0.33    0.33</time>
   <time name="total">    1.38    3.05</time>
   <energy>
    <i name="e_fr_energy">     -8.33910439 </i>
    <i name="e_wo_entrp">     -8.33906191 </i>
    <i name="e_0_energy">     -8.33908315 </i>
   </energy>
  </scstep>
  <scstep>
   <time name="dav">    0.38    0.38</time>
   <time name="total">    1.45    2.45</time>
   <energy>
    <i name="e_fr_energy">     -8.34077193 </i>
    <i name="e_wo_entrp">     -8.34072548 </i>
    <i name="e_0_energy">     -8.34074870 </i>
   </energy>
  </scstep>
  <scstep>
   <time name="dav">    0.42    0.42</time>
   <time name="total">    1.50    3.01</time>
   <energy>
    <i name="e_fr_energy">     -8.34010126 </i>
    <i name="e_wo_entrp">     -8.34005589 </i>
    <i name="e_0_energy">     -8.34007857 </i>
   </energy>
  </scstep>
  <scstep>
   <time name="dav">    0.44    0.44</time>
   <time name="total">    1.58    4.03</time>
   <energy>
    <i name="e_fr_energy">     -8.34007398 </i>
    <i name="e_wo_entrp">     -8.34002850 </i>
    <i name="e_0_energy">     -8.34005124 </i>
   </energy>
  </scstep>
  <scstep>
   <time name="dav">    0.40    0.40</time>
   <time name="total">    1.48    2.23</time>
   <energy>
    <i name="e_fr_energy">     -8.34007290 </i>
    <i name="e_wo_entrp">     -8.34002745 </i>
    <i name="e_0_energy">     -8.34005017 </i>
   </energy>
  </scstep>
  <scstep>
   <time name="dav">    0.24    0.25</time>
   <time name="total">    1.38    4.21</time>
   <energy>
    <i name="e_fr_energy">     -8.34006994 </i>
    <i name="e_wo_entrp">     -8.34002449 </i>
    <i name="e_0_energy">     -8.34004722 </i>
   </energy>
  </scstep>
  <scstep>
   <time name="dav">    0.26    0.26</time>
   <time name="total">    1.35    2.53</time>
   <energy>
    <i name="e_fr_energy">     -8.34006972 </i>
    <i name="e_wo_entrp">     -8.34002427 </i>
    <i name="e_0_energy">     -8.34004699 </i>
   </energy>
  </scstep>
  <scstep>
   <time name="dav">    0.27    0.27</time>
   <time name="total">    1.38    3.53</time>
   <energy>
    <i name="e_fr_energy">     -8.34006933 </i>
    <i name="e_wo_entrp">     -8.34002388 </i>
    <i name="e_0_energy">     -8.34004661 </i>
   </energy>
  </scstep>
  <scstep>
   <time name="dav">    0.26    0.25</time>
   <time name="total">    1.35    2.09</time>
   <energy>
    <i name="alphaZ">      3.29317992 </i>
    <i name="ewald">   -226.94489173 </i>
    <i name="hartreedc">    -15.37368982 </i>
    <i name="XCdc">    -19.57606337 </i>
    <i name="pawpsdc">    538.69722349 </i>
    <i name="pawaedc">   -502.16061783 </i>
    <i name="eentropy">     -0.00004545 </i>
    <i name="bandstr">      5.13067225 </i>
    <i name="atom">    208.59416316 </i>
    <i name="e_fr_energy">     -8.34006939 </i>
    <i name="e_wo_entrp">     -8.34002394 </i>
    <i name="e_0_energy">     -8.34004667 </i>
   </energy>
  </scstep>
  <structure>
   <crystal>
    <varray name="basis" >
     <v>       3.34889800       0.00000000       1.93348700 </v>
     <v>       1.11629900       3.15737200       1.93348700 </v>
     <v>       0.00000000       0.00000000       3.86697500 </v>
    </varray>
    <i name="volume">     40.88829843 </i>
    <varray name="rec_basis" >
     <v>       0.29860569      -0.10557300       0.00000000 </v>
     <v>       0.00000000       0.31671909       0.00000000 </v>
     <v>      -0.14930281      -0.10557302       0.25860007 </v>
    </varray>
   </crystal>
   <varray name="positions" >
    <v>       0.87500000       0.87500000       0.87500000 </v>
    <v>       0.12500000       0.12500000       0.12500000 </v>
   </varray>
  </structure>
  <varray name="forces" >
   <v>       0.00000000       0.00000000       0.00000000 </v>
   <v>       0.00000000       0.00000000       0.00000000 </v>
  </varray>
  <varray name="stress" >
   <v>      12.26743891      -0.00000130      -0.00000183 </v>
   <v>      -0.00000130      12.26744424      -0.00000130 </v>
   <v>      -0.00000183      -0.00000130      12.26744320 </v>
  </varray>
  <energy>
   <i name="e_fr_energy">     -8.34006939 </i>
   <i name="e_wo_entrp">     -8.34004667 </i>
   <i name="e_0_energy">     -0.00004545 </i>
  </energy>
  <time name="totalsc">   22.63   49.11</time>
  <eigenvalues>
   <array>
    <dimension dim="1">band</dimension>
    <dimension dim="2">kpoint</dimension>
    <dimension dim="3">spin</dimension>
    <field>eigene</field>
    <field>occ</field>
    <set>
     <set comment="spin 1">
      <set comment="kpoint 1">
       <r>   -6.1470    1.0000 </r>
       <r>    5.5937    0.9910 </r>
       <r>    5.5937    0.9910 </r>
       <r>    5.5937    0.9910 </r>
       <r>    8.2163    0.0000 </r>
       <r>    8.2163    0.0000 </r>
       <r>    8.2164    0.0000 </r>
       <r>    8.8217    0.0000 </r>
      </set>
      <set comment="kpoint 2">
       <r>   -6.0409    1.0000 </r>
       <r>    4.6315    1.0000 </r>
       <r>    5.4346    0.9998 </r>
       <r>    5.4346    0.9998 </r>
       <r>    8.2097    0.0000 </r>
       <r>    8.4537    0.0000 </r>
       <r>    8.4537    0.0000 </r>
       <r>    9.6178    0.0000 </r>
      </set>
      <set comment="kpoint 3">
       <r>   -5.7268    1.0000 </r>
       <r>    2.9887    1.0000 </r>
       <r>    5.1064    1.0000 </r>
       <r>    5.1064    1.0000 </r>
       <r>    7.8919    0.0000 </r>
       <r>    8.9163    0.0000 </r>
       <r>    8.9163    0.0000 </r>
       <r>   11.1942    0.0000 </r>
      </set>
      <set comment="kpoint 4">
       <r>   -5.2214    1.0000 </r>
       <r>    1.3621    1.0000 </r>
       <r>    4.7916    1.0000 </r>
       <r>    4.7916    1.0000 </r>
       <r>    7.5463    0.0000 </r>
       <r>    9.1705    0.0000 </r>
       <r>    9.1705    0.0000 </r>
       <r>   12.7543    0.0000 </r>
      </set>
      <set comment="kpoint 5">
       <r>   -4.5759    1.0000 </r>
       <r>   -0.0640    1.0000 </r>
       <r>    4.5649    1.0000 </r>
       <r>    4.5649    1.0000 </r>
       <r>    7.2874    0.0000 </r>
       <r>    9.1232    0.0000 </r>
       <r>    9.1232    0.0000 </r>
       <r>   13.5035    0.0000 </r>
      </set>
      <set comment="kpoint 6">
       <r>   -3.9822    1.0000 </r>
       <r>   -1.0554    1.0000 </r>
       <r>    4.4489    1.0000 </r>
       <r>    4.4489    1.0000 </r>
       <r>    7.1525    0.0000 </r>
       <r>    9.0224    0.0000 </r>
       <r>    9.0224    0.0000 </r>
       <r>   13.3965    0.0000 </r>
      </set>
      <set comment="kpoint 7">
       <r>   -6.0054    1.0000 </r>
       <r>    4.7942    1.0000 </r>
       <r>    5.1242    1.0000 </r>
       <r>    5.1242    1.0000 </r>
       <r>    7.9033    0.0000 </r>
       <r>    8.8597    0.0000 </r>
       <r>    8.8597    0.0000 </r>
       <r>    9.5536    0.0000 </r>
      </set>
      <set comment="kpoint 8">
       <r>   -5.7598    1.0000 </r>
       <r>    3.4704    1.0000 </r>
       <r>    4.7405    1.0000 </r>
       <r>    4.9123    1.0000 </r>
       <r>    7.9305    0.0000 </r>
       <r>    8.8969    0.0000 </r>
       <r>    9.4379    0.0000 </r>
       <r>   10.5175    0.0000 </r>
      </set>
      <set comment="kpoint 9">
       <r>   -5.3156    1.0000 </r>
       <r>    1.8838    1.0000 </r>
       <r>    4.4291    1.0000 </r>
       <r>    4.5501    1.0000 </r>
       <r>    8.0316    0.0000 </r>
       <r>    8.9079    0.0000 </r>
       <r>    9.7911    0.0000 </r>
       <r>   10.9754    0.0000 </r>
      </set>
      <set comment="kpoint 10">
       <r>   -4.7070    1.0000 </r>
       <r>    0.4067    1.0000 </r>
       <r>    4.1777    1.0000 </r>
       <r>    4.2452    1.0000 </r>
       <r>    7.8712    0.0000 </r>
       <r>    8.9606    0.0000 </r>
       <r>    9.7376    0.0000 </r>
       <r>   11.7360    0.0000 </r>
      </set>
      <set comment="kpoint 11">
       <r>   -4.0541    1.0000 </r>
       <r>   -0.7595    1.0000 </r>
       <r>    3.8868    1.0000 </r>
       <r>    4.2039    1.0000 </r>
       <r>    7.7302    0.0000 </r>
       <r>    8.9264    0.0000 </r>
       <r>    9.5132    0.0000 </r>
       <r>   12.9661    0.0000 </r>
      </set>
      <set comment="kpoint 12">
       <r>   -3.7926    1.0000 </r>
       <r>   -1.1500    1.0000 </r>
       <r>    3.7143    1.0000 </r>
       <r>    4.3011    1.0000 </r>
       <r>    7.7027    0.0000 </r>
       <r>    8.9819    0.0000 </r>
       <r>    9.3348    0.0000 </r>
       <r>   13.6960    0.0000 </r>
      </set>
      <set comment="kpoint 13">
       <r>   -4.2619    1.0000 </r>
       <r>   -0.4203    1.0000 </r>
       <r>    3.6810    1.0000 </r>
       <r>    4.5213    1.0000 </r>
       <r>    7.8019    0.0000 </r>
       <r>    9.1665    0.0000 </r>
       <r>    9.2581    0.0000 </r>
       <r>   13.3521    0.0000 </r>
      </set>
      <set comment="kpoint 14">
       <r>   -4.9255    1.0000 </r>
       <r>    0.8793    1.0000 </r>
       <r>    3.8021    1.0000 </r>
       <r>    4.8358    1.0000 </r>
       <r>    8.0169    0.0000 </r>
       <r>    9.1872    0.0000 </r>
       <r>    9.3667    0.0000 </r>
       <r>   12.2859    0.0000 </r>
      </set>
      <set comment="kpoint 15">
       <r>   -5.4855    1.0000 </r>
       <r>    2.3976    1.0000 </r>
       <r>    4.0952    1.0000 </r>
       <r>    5.1888    1.0000 </r>
       <r>    8.3133    0.0000 </r>
       <r>    8.9038    0.0000 </r>
       <r>    9.2312    0.0000 </r>
       <r>   11.3958    0.0000 </r>
      </set>
      <set comment="kpoint 16">
       <r>   -5.8652    1.0000 </r>
       <r>    3.8374    1.0000 </r>
       <r>    4.6468    1.0000 </r>
       <r>    5.4545    0.9996 </r>
       <r>    8.5084    0.0000 </r>
       <r>    8.5528    0.0000 </r>
       <r>    8.6484    0.0000 </r>
       <r>   10.4963    0.0000 </r>
      </set>
      <set comment="kpoint 17">
       <r>   -5.5830    1.0000 </r>
       <r>    3.3135    1.0000 </r>
       <r>    4.3200    1.0000 </r>
       <r>    4.3200    1.0000 </r>
       <r>    7.2682    0.0000 </r>
       <r>    9.7375    0.0000 </r>
       <r>   10.1760    0.0000 </r>
       <r>   10.1760    0.0000 </r>
      </set>
      <set comment="kpoint 18">
       <r>   -5.2035    1.0000 </r>
       <r>    2.1807    1.0000 </r>
       <r>    3.9116    1.0000 </r>
       <r>    3.9851    1.0000 </r>
       <r>    7.3153    0.0000 </r>
       <r>    9.3440    0.0000 </r>
       <r>   10.4595    0.0000 </r>
       <r>   10.7535    0.0000 </r>
      </set>
      <set comment="kpoint 19">
       <r>   -4.6442    1.0000 </r>
       <r>    0.8393    1.0000 </r>
       <r>    3.3919    1.0000 </r>
       <r>    3.7920    1.0000 </r>
       <r>    7.5479    0.0000 </r>
       <r>    9.6967    0.0000 </r>
       <r>   10.2591    0.0000 </r>
       <r>   10.8446    0.0000 </r>
      </set>
      <set comment="kpoint 20">
       <r>   -3.9798    1.0000 </r>
       <r>   -0.3702    1.0000 </r>
       <r>    2.9257    1.0000 </r>
       <r>    3.7591    1.0000 </r>
       <r>    7.5893    0.0000 </r>
       <r>   10.0337    0.0000 </r>
       <r>   10.6054    0.0000 </r>
       <r>   10.8887    0.0000 </r>
      </set>
      <set comment="kpoint 21">
       <r>   -3.5109    1.0000 </r>
       <r>   -1.0612    1.0000 </r>
       <r>    2.5981    1.0000 </r>
       <r>    3.8855    1.0000 </r>
       <r>    7.6863    0.0000 </r>
       <r>    9.9077    0.0000 </r>
       <r>   10.3250    0.0000 </r>
       <r>   12.4907    0.0000 </r>
      </set>
      <set comment="kpoint 22">
       <r>   -3.7879    1.0000 </r>
       <r>   -0.6608    1.0000 </r>
       <r>    2.4505    1.0000 </r>
       <r>    4.1551    1.0000 </r>
       <r>    7.9305    0.0000 </r>
       <r>    9.8990    0.0000 </r>
       <r>   10.1068    0.0000 </r>
       <r>   13.2929    0.0000 </r>
      </set>
      <set comment="kpoint 23">
       <r>   -4.4433    1.0000 </r>
       <r>    0.4292    1.0000 </r>
       <r>    2.5347    1.0000 </r>
       <r>    4.5305    1.0000 </r>
       <r>    8.2865    0.0000 </r>
       <r>    9.8652    0.0000 </r>
       <r>    9.9461    0.0000 </r>
       <r>   11.9217    0.0000 </r>
      </set>
      <set comment="kpoint 24">
       <r>   -5.0468    1.0000 </r>
       <r>    1.5955    1.0000 </r>
       <r>    3.0111    1.0000 </r>
       <r>    4.9307    1.0000 </r>
       <r>    8.6025    0.0000 </r>
       <r>    9.3802    0.0000 </r>
       <r>    9.6321    0.0000 </r>
       <r>   11.2605    0.0000 </r>
      </set>
      <set comment="kpoint 25">
       <r>   -4.8885    1.0000 </r>
       <r>    1.7191    1.0000 </r>
       <r>    3.6167    1.0000 </r>
       <r>    3.6167    1.0000 </r>
       <r>    6.6885    0.0000 </r>
       <r>    8.4743    0.0000 </r>
       <r>   11.7111    0.0000 </r>
       <r>   11.7111    0.0000 </r>
      </set>
      <set comment="kpoint 26">
       <r>   -4.3852    1.0000 </r>
       <r>    0.7828    1.0000 </r>
       <r>    3.0965    1.0000 </r>
       <r>    3.3900    1.0000 </r>
       <r>    6.8167    0.0000 </r>
       <r>    8.1864    0.0000 </r>
       <r>   11.9920    0.0000 </r>
       <r>   12.1783    0.0000 </r>
      </set>
      <set comment="kpoint 27">
       <r>   -3.7399    1.0000 </r>
       <r>   -0.2244    1.0000 </r>
       <r>    2.3901    1.0000 </r>
       <r>    3.3294    1.0000 </r>
       <r>    7.0183    0.0000 </r>
       <r>    8.9147    0.0000 </r>
       <r>   11.8333    0.0000 </r>
       <r>   12.0588    0.0000 </r>
      </set>
      <set comment="kpoint 28">
       <r>   -3.1414    1.0000 </r>
       <r>   -1.0062    1.0000 </r>
       <r>    1.8313    1.0000 </r>
       <r>    3.4384    1.0000 </r>
       <r>    7.1518    0.0000 </r>
       <r>   10.3621    0.0000 </r>
       <r>   11.6713    0.0000 </r>
       <r>   11.7446    0.0000 </r>
      </set>
      <set comment="kpoint 29">
       <r>   -3.1970    1.0000 </r>
       <r>   -0.9281    1.0000 </r>
       <r>    1.5545    1.0000 </r>
       <r>    3.7052    1.0000 </r>
       <r>    7.4353    0.0000 </r>
       <r>   11.3831    0.0000 </r>
       <r>   11.4030    0.0000 </r>
       <r>   12.3049    0.0000 </r>
      </set>
      <set comment="kpoint 30">
       <r>   -3.8164    1.0000 </r>
       <r>   -0.1854    1.0000 </r>
       <r>    1.7134    1.0000 </r>
       <r>    4.0959    1.0000 </r>
       <r>    7.8686    0.0000 </r>
       <r>   10.8146    0.0000 </r>
       <r>   11.1058    0.0000 </r>
       <r>   11.9827    0.0000 </r>
      </set>
      <set comment="kpoint 31">
       <r>   -3.9375    1.0000 </r>
       <r>    0.1315    1.0000 </r>
       <r>    3.1216    1.0000 </r>
       <r>    3.1216    1.0000 </r>
       <r>    6.3396    0.0018 </r>
       <r>    7.3558    0.0000 </r>
       <r>   13.3479    0.0000 </r>
       <r>   13.3479    0.0000 </r>
      </set>
      <set comment="kpoint 32">
       <r>   -3.3282    1.0000 </r>
       <r>   -0.6678    1.0000 </r>
       <r>    2.6059    1.0000 </r>
       <r>    3.0185    1.0000 </r>
       <r>    6.5456    0.0000 </r>
       <r>    7.3613    0.0000 </r>
       <r>   13.6711    0.0000 </r>
       <r>   13.6855    0.0000 </r>
      </set>
      <set comment="kpoint 33">
       <r>   -2.6697    1.0000 </r>
       <r>   -1.3704    1.0000 </r>
       <r>    1.8526    1.0000 </r>
       <r>    3.0894    1.0000 </r>
       <r>    6.7162    0.0000 </r>
       <r>    8.5155    0.0000 </r>
       <r>   13.4194    0.0000 </r>
       <r>   13.5403    0.0000 </r>
      </set>
      <set comment="kpoint 34">
       <r>   -2.6102    1.0000 </r>
       <r>   -1.3993    1.0000 </r>
       <r>    1.3816    1.0000 </r>
       <r>    3.3274    1.0000 </r>
       <r>    6.9886    0.0000 </r>
       <r>   10.2066    0.0000 </r>
       <r>   12.7603    0.0000 </r>
       <r>   13.2433    0.0000 </r>
      </set>
      <set comment="kpoint 35">
       <r>   -2.7556    1.0000 </r>
       <r>   -1.3814    1.0000 </r>
       <r>    2.8682    1.0000 </r>
       <r>    2.8682    1.0000 </r>
       <r>    6.3032    0.0040 </r>
       <r>    6.6300    0.0000 </r>
       <r>   15.0228    0.0000 </r>
       <r>   15.0228    0.0000 </r>
      </set>
      <set comment="kpoint 36">
       <r>   -2.1242    1.0000 </r>
       <r>   -2.0126    1.0000 </r>
       <r>    2.4441    1.0000 </r>
       <r>    2.8927    1.0000 </r>
       <r>    6.4838    0.0000 </r>
       <r>    7.0510    0.0000 </r>
       <r>   14.9719    0.0000 </r>
       <r>   15.2027    0.0000 </r>
      </set>
      <set comment="kpoint 37">
       <r>   -5.4478    1.0000 </r>
       <r>    2.6200    1.0000 </r>
       <r>    3.8323    1.0000 </r>
       <r>    4.8008    1.0000 </r>
       <r>    7.9878    0.0000 </r>
       <r>    9.2122    0.0000 </r>
       <r>    9.9739    0.0000 </r>
       <r>   10.4095    0.0000 </r>
      </set>
      <set comment="kpoint 38">
       <r>   -4.9452    1.0000 </r>
       <r>    1.3284    1.0000 </r>
       <r>    3.2807    1.0000 </r>
       <r>    4.4923    1.0000 </r>
       <r>    8.2885    0.0000 </r>
       <r>    9.1747    0.0000 </r>
       <r>   10.3165    0.0000 </r>
       <r>   10.5121    0.0000 </r>
      </set>
      <set comment="kpoint 39">
       <r>   -4.3012    1.0000 </r>
       <r>    0.0152    1.0000 </r>
       <r>    3.0252    1.0000 </r>
       <r>    4.1595    1.0000 </r>
       <r>    8.3146    0.0000 </r>
       <r>    8.9922    0.0000 </r>
       <r>   10.4072    0.0000 </r>
       <r>   11.3474    0.0000 </r>
      </set>
      <set comment="kpoint 40">
       <r>   -3.7027    1.0000 </r>
       <r>   -0.9422    1.0000 </r>
       <r>    2.9253    1.0000 </r>
       <r>    3.9557    1.0000 </r>
       <r>    8.2845    0.0000 </r>
       <r>    8.8020    0.0000 </r>
       <r>   10.3437    0.0000 </r>
       <r>   12.7921    0.0000 </r>
      </set>
      <set comment="kpoint 41">
       <r>   -4.7632    1.0000 </r>
       <r>    1.3464    1.0000 </r>
       <r>    3.1341    1.0000 </r>
       <r>    3.8271    1.0000 </r>
       <r>    7.4369    0.0000 </r>
       <r>    8.9621    0.0000 </r>
       <r>   10.5728    0.0000 </r>
       <r>   11.5965    0.0000 </r>
      </set>
      <set comment="kpoint 42">
       <r>   -4.1584    1.0000 </r>
       <r>    0.2888    1.0000 </r>
       <r>    2.5718    1.0000 </r>
       <r>    3.5243    1.0000 </r>
       <r>    7.7939    0.0000 </r>
       <r>    9.3612    0.0000 </r>
       <r>   10.2676    0.0000 </r>
       <r>   11.9863    0.0000 </r>
      </set>
      <set comment="kpoint 43">
       <r>   -3.5014    1.0000 </r>
       <r>   -0.6960    1.0000 </r>
       <r>    2.1931    1.0000 </r>
       <r>    3.3738    1.0000 </r>
       <r>    7.9277    0.0000 </r>
       <r>    9.8827    0.0000 </r>
       <r>   10.7014    0.0000 </r>
       <r>   11.9477    0.0000 </r>
      </set>
      <set comment="kpoint 44">
       <r>   -3.2426    1.0000 </r>
       <r>   -1.0352    1.0000 </r>
       <r>    1.9688    1.0000 </r>
       <r>    3.4605    1.0000 </r>
       <r>    8.1361    0.0000 </r>
       <r>    9.6254    0.0000 </r>
       <r>   11.8368    0.0000 </r>
       <r>   12.3540    0.0000 </r>
      </set>
      <set comment="kpoint 45">
       <r>   -3.7356    1.0000 </r>
       <r>   -0.3643    1.0000 </r>
       <r>    1.9618    1.0000 </r>
       <r>    3.7470    1.0000 </r>
       <r>    8.4886    0.0000 </r>
       <r>    9.4397    0.0000 </r>
       <r>   11.1548    0.0000 </r>
       <r>   11.7593    0.0000 </r>
      </set>
      <set comment="kpoint 46">
       <r>   -4.3960    1.0000 </r>
       <r>    0.5962    1.0000 </r>
       <r>    2.3337    1.0000 </r>
       <r>    4.1482    1.0000 </r>
       <r>    8.9137    0.0000 </r>
       <r>    9.0270    0.0000 </r>
       <r>   10.2865    0.0000 </r>
       <r>   11.3091    0.0000 </r>
      </set>
      <set comment="kpoint 47">
       <r>   -3.8309    1.0000 </r>
       <r>   -0.0029    1.0000 </r>
       <r>    2.6694    1.0000 </r>
       <r>    3.0499    1.0000 </r>
       <r>    7.0879    0.0000 </r>
       <r>    7.9424    0.0000 </r>
       <r>   11.9335    0.0000 </r>
       <r>   13.3142    0.0000 </r>
      </set>
      <set comment="kpoint 48">
       <r>   -3.1652    1.0000 </r>
       <r>   -0.8097    1.0000 </r>
       <r>    2.0459    1.0000 </r>
       <r>    2.8773    1.0000 </r>
       <r>    7.4315    0.0000 </r>
       <r>    8.7325    0.0000 </r>
       <r>   11.5930    0.0000 </r>
       <r>   13.6802    0.0000 </r>
      </set>
      <set comment="kpoint 49">
       <r>   -2.7089    1.0000 </r>
       <r>   -1.2961    1.0000 </r>
       <r>    1.5393    1.0000 </r>
       <r>    2.9901    1.0000 </r>
       <r>    7.6433    0.0000 </r>
       <r>   10.2713    0.0000 </r>
       <r>   11.3035    0.0000 </r>
       <r>   12.8856    0.0000 </r>
      </set>
      <set comment="kpoint 50">
       <r>   -3.0868    1.0000 </r>
       <r>   -0.9031    1.0000 </r>
       <r>    1.4379    1.0000 </r>
       <r>    3.3044    1.0000 </r>
       <r>    8.0072    0.0000 </r>
       <r>   10.6777    0.0000 </r>
       <r>   11.4128    0.0000 </r>
       <r>   12.2890    0.0000 </r>
      </set>
      <set comment="kpoint 51">
       <r>   -2.6846    1.0000 </r>
       <r>   -1.3800    1.0000 </r>
       <r>    2.4822    1.0000 </r>
       <r>    2.6008    1.0000 </r>
       <r>    7.0234    0.0000 </r>
       <r>    7.2952    0.0000 </r>
       <r>   13.4494    0.0000 </r>
       <r>   14.8565    0.0000 </r>
      </set>
      <set comment="kpoint 52">
       <r>   -2.1927    1.0000 </r>
       <r>   -1.8173    1.0000 </r>
       <r>    1.8444    1.0000 </r>
       <r>    2.6714    1.0000 </r>
       <r>    7.3024    0.0000 </r>
       <r>    8.5260    0.0000 </r>
       <r>   13.0077    0.0000 </r>
       <r>   13.2356    0.0000 </r>
      </set>
      <set comment="kpoint 53">
       <r>   -3.5282    1.0000 </r>
       <r>   -0.3881    1.0000 </r>
       <r>    1.9349    1.0000 </r>
       <r>    3.0756    1.0000 </r>
       <r>    8.7129    0.0000 </r>
       <r>    9.3607    0.0000 </r>
       <r>    9.9080    0.0000 </r>
       <r>   13.2128    0.0000 </r>
      </set>
      <set comment="kpoint 54">
       <r>   -2.9085    1.0000 </r>
       <r>   -1.0743    1.0000 </r>
       <r>    1.6610    1.0000 </r>
       <r>    2.7653    1.0000 </r>
       <r>    9.0837    0.0000 </r>
       <r>    9.4330    0.0000 </r>
       <r>   10.6900    0.0000 </r>
       <r>   12.5307    0.0000 </r>
      </set>
      <set comment="kpoint 55">
       <r>   -2.5047    1.0000 </r>
       <r>   -1.4245    1.0000 </r>
       <r>    1.8876    1.0000 </r>
       <r>    2.2611    1.0000 </r>
       <r>    8.6348    0.0000 </r>
       <r>    8.8444    0.0000 </r>
       <r>   11.1947    0.0000 </r>
       <r>   12.7641    0.0000 </r>
      </set>
      <set comment="kpoint 56">
       <r>   -2.3108    1.0000 </r>
       <r>   -1.5854    1.0000 </r>
       <r>    1.6170    1.0000 </r>
       <r>    2.2965    1.0000 </r>
       <r>    8.9799    0.0000 </r>
       <r>   10.2364    0.0000 </r>
       <r>   10.9770    0.0000 </r>
       <r>   10.9790    0.0000 </r>
      </set>
     </set>
    </set>
   </array>
  </eigenvalues>
  <separator name="orbital magnetization" >
   <v name="MAGDIPOLOUT">      0.00000000      0.00000000      0.00000000</v>
  </separator>
  <dos>
   <i name="efermi">      5.92831285 </i>
   <total>
    <array>
     <dimension dim="1">gridpoints</dimension>
     <dimension dim="2">spin</dimension>
     <field>energy</field>
     <field>total</field>
     <field>integrated</field>
     <set>
      <set comment="spin 1">
       <r>    -8.1470     0.0000     0.0000 </r>
       <r>    -8.0625     0.0000     0.0000 </r>
       <r>    -7.9780     0.0000     0.0000 </r>
       <r>    -7.8935     0.0000     0.0000 </r>
       <r>    -7.8090     0.0000     0.0000 </r>
       <r>    -7.7245     0.0000     0.0000 </r>
       <r>    -7.6400     0.0000     0.0000 </r>
       <r>    -7.5555     0.0000     0.0000 </r>
       <r>    -7.4710     0.0000     0.0000 </r>
       <r>    -7.3865     0.0000     0.0000 </r>
       <r>    -7.3020     0.0000     0.0000 </r>
       <r>    -7.2175     0.0000     0.0000 </r>
       <r>    -7.1330     0.0000     0.0000 </r>
       <r>    -7.0485     0.0000     0.0000 </r>
       <r>    -6.9640     0.0000     0.0000 </r>
       <r>    -6.8795     0.0000     0.0000 </r>
       <r>    -6.7950     0.0000     0.0000 </r>
       <r>    -6.7105     0.0000     0.0000 </r>
       <r>    -6.6260     0.0000     0.0000 </r>
       <r>    -6.5415     0.0001     0.0000 </r>
       <r>    -6.4570     0.0005     0.0000 </r>
       <r>    -6.3725     0.0023     0.0002 </r>
       <r>    -6.2881     0.0085     0.0010 </r>
       <r>    -6.2036     0.0234     0.0029 </r>
       <r>    -6.1191     0.0499     0.0071 </r>
       <r>    -6.0346     0.0857     0.0144 </r>
       <r>    -5.9501     0.1264     0.0251 </r>
       <r>    -5.8656     0.1685     0.0393 </r>
       <r>    -5.7811     0.2036     0.0565 </r>
       <r>    -5.6966     0.2240     0.0754 </r>
       <r>    -5.6121     0.2403     0.0957 </r>
       <r>    -5.5276     0.2723     0.1188 </r>
       <r>    -5.4431     0.3140     0.1453 </r>
       <r>    -5.3586     0.3401     0.1740 </r>
       <r>    -5.2741     0.3410     0.2028 </r>
       <r>    -5.1896     0.3324     0.2309 </r>
       <r>    -5.1051     0.3430     0.2599 </r>
       <r>    -5.0206     0.3916     0.2930 </r>
       <r>    -4.9361     0.4553     0.3315 </r>
       <r>    -4.8516     0.4884     0.3728 </r>
       <r>    -4.7671     0.4784     0.4132 </r>
       <r>    -4.6826     0.4495     0.4512 </r>
       <r>    -4.5981     0.4308     0.4876 </r>
       <r>    -4.5136     0.4550     0.5260 </r>
       <r>    -4.4291     0.5386     0.5715 </r>
       <r>    -4.3446     0.6414     0.6257 </r>
       <r>    -4.2601     0.6950     0.6844 </r>
       <r>    -4.1756     0.6759     0.7416 </r>
       <r>    -4.0911     0.6236     0.7943 </r>
       <r>    -4.0066     0.6024     0.8452 </r>
       <r>    -3.9221     0.6648     0.9013 </r>
       <r>    -3.8376     0.8091     0.9697 </r>
       <r>    -3.7531     0.9463     1.0497 </r>
       <r>    -3.6686     0.9702     1.1317 </r>
       <r>    -3.5841     0.8782     1.2059 </r>
       <r>    -3.4996     0.7554     1.2697 </r>
       <r>    -3.4151     0.6741     1.3266 </r>
       <r>    -3.3306     0.6717     1.3834 </r>
       <r>    -3.2461     0.7381     1.4458 </r>
       <r>    -3.1616     0.7860     1.5122 </r>
       <r>    -3.0771     0.7316     1.5740 </r>
       <r>    -2.9926     0.6049     1.6251 </r>
       <r>    -2.9081     0.5094     1.6682 </r>
       <r>    -2.8236     0.5030     1.7107 </r>
       <r>    -2.7391     0.5543     1.7575 </r>
       <r>    -2.6546     0.5790     1.8064 </r>
       <r>    -2.5701     0.5189     1.8503 </r>
       <r>    -2.4856     0.4014     1.8842 </r>
       <r>    -2.4011     0.3020     1.9097 </r>
       <r>    -2.3166     0.2608     1.9318 </r>
       <r>    -2.2321     0.2584     1.9536 </r>
       <r>    -2.1476     0.2532     1.9750 </r>
       <r>    -2.0631     0.2255     1.9940 </r>
       <r>    -1.9786     0.1888     2.0100 </r>
       <r>    -1.8941     0.1650     2.0239 </r>
       <r>    -1.8096     0.1595     2.0374 </r>
       <r>    -1.7251     0.1685     2.0516 </r>
       <r>    -1.6406     0.2038     2.0689 </r>
       <r>    -1.5561     0.2903     2.0934 </r>
       <r>    -1.4716     0.4318     2.1299 </r>
       <r>    -1.3871     0.5842     2.1792 </r>
       <r>    -1.3026     0.6917     2.2377 </r>
       <r>    -1.2181     0.7700     2.3028 </r>
       <r>    -1.1336     0.8932     2.3782 </r>
       <r>    -1.0491     1.0624     2.4680 </r>
       <r>    -0.9646     1.1756     2.5673 </r>
       <r>    -0.8801     1.1641     2.6657 </r>
       <r>    -0.7956     1.0640     2.7556 </r>
       <r>    -0.7111     0.9282     2.8341 </r>
       <r>    -0.6266     0.7742     2.8995 </r>
       <r>    -0.5421     0.6448     2.9540 </r>
       <r>    -0.4576     0.6035     3.0050 </r>
       <r>    -0.3731     0.6282     3.0581 </r>
       <r>    -0.2886     0.6207     3.1105 </r>
       <r>    -0.2041     0.5491     3.1569 </r>
       <r>    -0.1196     0.4782     3.1973 </r>
       <r>    -0.0351     0.4529     3.2356 </r>
       <r>     0.0494     0.4409     3.2728 </r>
       <r>     0.1339     0.4100     3.3075 </r>
       <r>     0.2184     0.3870     3.3402 </r>
       <r>     0.3029     0.3985     3.3738 </r>
       <r>     0.3874     0.4130     3.4088 </r>
       <r>     0.4719     0.3887     3.4416 </r>
       <r>     0.5564     0.3338     3.4698 </r>
       <r>     0.6409     0.2942     3.4947 </r>
       <r>     0.7254     0.2983     3.5199 </r>
       <r>     0.8099     0.3227     3.5471 </r>
       <r>     0.8944     0.3114     3.5734 </r>
       <r>     0.9789     0.2426     3.5939 </r>
       <r>     1.0634     0.1670     3.6081 </r>
       <r>     1.1479     0.1645     3.6220 </r>
       <r>     1.2324     0.2750     3.6452 </r>
       <r>     1.3169     0.4648     3.6845 </r>
       <r>     1.4014     0.6560     3.7399 </r>
       <r>     1.4859     0.7963     3.8072 </r>
       <r>     1.5704     0.8814     3.8817 </r>
       <r>     1.6549     0.9269     3.9600 </r>
       <r>     1.7394     0.9742     4.0423 </r>
       <r>     1.8239     1.0731     4.1330 </r>
       <r>     1.9084     1.1921     4.2337 </r>
       <r>     1.9929     1.2234     4.3371 </r>
       <r>     2.0774     1.1312     4.4327 </r>
       <r>     2.1619     1.0083     4.5179 </r>
       <r>     2.2464     0.9550     4.5986 </r>
       <r>     2.3309     0.9888     4.6821 </r>
       <r>     2.4154     1.0846     4.7738 </r>
       <r>     2.4999     1.2095     4.8760 </r>
       <r>     2.5844     1.3036     4.9861 </r>
       <r>     2.6689     1.3118     5.0970 </r>
       <r>     2.7534     1.2768     5.2049 </r>
       <r>     2.8379     1.3224     5.3166 </r>
       <r>     2.9224     1.4842     5.4420 </r>
       <r>     3.0069     1.6291     5.5797 </r>
       <r>     3.0914     1.6096     5.7157 </r>
       <r>     3.1759     1.4616     5.8392 </r>
       <r>     3.2603     1.3637     5.9544 </r>
       <r>     3.3448     1.3925     6.0721 </r>
       <r>     3.4293     1.4315     6.1931 </r>
       <r>     3.5138     1.3681     6.3087 </r>
       <r>     3.5983     1.2714     6.4161 </r>
       <r>     3.6828     1.2848     6.5247 </r>
       <r>     3.7673     1.4077     6.6436 </r>
       <r>     3.8518     1.4911     6.7696 </r>
       <r>     3.9363     1.4398     6.8913 </r>
       <r>     4.0208     1.3186     7.0027 </r>
       <r>     4.1053     1.2318     7.1068 </r>
       <r>     4.1898     1.1753     7.2061 </r>
       <r>     4.2743     1.0864     7.2979 </r>
       <r>     4.3588     0.9871     7.3813 </r>
       <r>     4.4433     0.9468     7.4613 </r>
       <r>     4.5278     0.9425     7.5409 </r>
       <r>     4.6123     0.8930     7.6164 </r>
       <r>     4.6968     0.7952     7.6836 </r>
       <r>     4.7813     0.7038     7.7431 </r>
       <r>     4.8658     0.6219     7.7956 </r>
       <r>     4.9503     0.5203     7.8396 </r>
       <r>     5.0348     0.4131     7.8745 </r>
       <r>     5.1193     0.3338     7.9027 </r>
       <r>     5.2038     0.2790     7.9263 </r>
       <r>     5.2883     0.2300     7.9457 </r>
       <r>     5.3728     0.1903     7.9618 </r>
       <r>     5.4573     0.1627     7.9755 </r>
       <r>     5.5418     0.1310     7.9866 </r>
       <r>     5.6263     0.0875     7.9940 </r>
       <r>     5.7108     0.0455     7.9978 </r>
       <r>     5.7953     0.0183     7.9994 </r>
       <r>     5.8798     0.0059     7.9999 </r>
       <r>     5.9643     0.0025     8.0001 </r>
       <r>     6.0488     0.0052     8.0005 </r>
       <r>     6.1333     0.0159     8.0019 </r>
       <r>     6.2178     0.0388     8.0052 </r>
       <r>     6.3023     0.0761     8.0116 </r>
       <r>     6.3868     0.1268     8.0223 </r>
       <r>     6.4713     0.1869     8.0381 </r>
       <r>     6.5558     0.2458     8.0589 </r>
       <r>     6.6403     0.2907     8.0834 </r>
       <r>     6.7248     0.3178     8.1103 </r>
       <r>     6.8093     0.3407     8.1391 </r>
       <r>     6.8938     0.3894     8.1720 </r>
       <r>     6.9783     0.4823     8.2127 </r>
       <r>     7.0628     0.5946     8.2630 </r>
       <r>     7.1473     0.6938     8.3216 </r>
       <r>     7.2318     0.7943     8.3887 </r>
       <r>     7.3163     0.9157     8.4661 </r>
       <r>     7.4008     1.0200     8.5523 </r>
       <r>     7.4853     1.0643     8.6422 </r>
       <r>     7.5698     1.0777     8.7333 </r>
       <r>     7.6543     1.1252     8.8283 </r>
       <r>     7.7388     1.2307     8.9323 </r>
       <r>     7.8233     1.3680     9.0479 </r>
       <r>     7.9078     1.4748     9.1726 </r>
       <r>     7.9923     1.4806     9.2977 </r>
       <r>     8.0768     1.3918     9.4153 </r>
       <r>     8.1613     1.3149     9.5264 </r>
       <r>     8.2458     1.3173     9.6377 </r>
       <r>     8.3303     1.3347     9.7505 </r>
       <r>     8.4148     1.2898     9.8595 </r>
       <r>     8.4993     1.2047     9.9613 </r>
       <r>     8.5838     1.1461    10.0581 </r>
       <r>     8.6683     1.1725    10.1572 </r>
       <r>     8.7528     1.3383    10.2703 </r>
       <r>     8.8373     1.6391    10.4088 </r>
       <r>     8.9218     1.9474    10.5733 </r>
       <r>     9.0063     2.0914    10.7500 </r>
       <r>     9.0908     2.0327    10.9218 </r>
       <r>     9.1753     1.8965    11.0820 </r>
       <r>     9.2598     1.8071    11.2347 </r>
       <r>     9.3443     1.7612    11.3835 </r>
       <r>     9.4288     1.6615    11.5239 </r>
       <r>     9.5133     1.4522    11.6466 </r>
       <r>     9.5978     1.2090    11.7488 </r>
       <r>     9.6823     1.0594    11.8383 </r>
       <r>     9.7668     1.0512    11.9272 </r>
       <r>     9.8513     1.1230    12.0220 </r>
       <r>     9.9358     1.1603    12.1201 </r>
       <r>    10.0203     1.1216    12.2149 </r>
       <r>    10.1048     1.1261    12.3100 </r>
       <r>    10.1893     1.3210    12.4216 </r>
       <r>    10.2738     1.6525    12.5613 </r>
       <r>    10.3583     1.8806    12.7202 </r>
       <r>    10.4428     1.8521    12.8767 </r>
       <r>    10.5273     1.6468    13.0158 </r>
       <r>    10.6118     1.4272    13.1364 </r>
       <r>    10.6963     1.2558    13.2425 </r>
       <r>    10.7808     1.1026    13.3357 </r>
       <r>    10.8653     0.9537    13.4163 </r>
       <r>    10.9498     0.8394    13.4872 </r>
       <r>    11.0343     0.7911    13.5541 </r>
       <r>    11.1188     0.8292    13.6241 </r>
       <r>    11.2033     0.9546    13.7048 </r>
       <r>    11.2878     1.1075    13.7984 </r>
       <r>    11.3723     1.1773    13.8979 </r>
       <r>    11.4568     1.1136    13.9920 </r>
       <r>    11.5413     1.0077    14.0771 </r>
       <r>    11.6258     0.9958    14.1613 </r>
       <r>    11.7103     1.1055    14.2547 </r>
       <r>    11.7948     1.2558    14.3608 </r>
       <r>    11.8793     1.3502    14.4749 </r>
       <r>    11.9638     1.3191    14.5863 </r>
       <r>    12.0483     1.1476    14.6833 </r>
       <r>    12.1328     0.9216    14.7612 </r>
       <r>    12.2173     0.7729    14.8265 </r>
       <r>    12.3018     0.7338    14.8885 </r>
       <r>    12.3863     0.7214    14.9495 </r>
       <r>    12.4708     0.6669    15.0058 </r>
       <r>    12.5553     0.5871    15.0554 </r>
       <r>    12.6398     0.5450    15.1015 </r>
       <r>    12.7243     0.5814    15.1506 </r>
       <r>    12.8087     0.6596    15.2063 </r>
       <r>    12.8932     0.6896    15.2646 </r>
       <r>    12.9777     0.6317    15.3180 </r>
       <r>    13.0622     0.5483    15.3643 </r>
       <r>    13.1467     0.5398    15.4099 </r>
       <r>    13.2312     0.6373    15.4638 </r>
       <r>    13.3157     0.7636    15.5283 </r>
       <r>    13.4002     0.8203    15.5976 </r>
       <r>    13.4847     0.7968    15.6649 </r>
       <r>    13.5692     0.7556    15.7288 </r>
       <r>    13.6537     0.7177    15.7894 </r>
       <r>    13.7382     0.6243    15.8422 </r>
       <r>    13.8227     0.4417    15.8795 </r>
       <r>    13.9072     0.2358    15.8994 </r>
       <r>    13.9917     0.0917    15.9072 </r>
       <r>    14.0762     0.0256    15.9093 </r>
       <r>    14.1607     0.0051    15.9098 </r>
       <r>    14.2452     0.0007    15.9098 </r>
       <r>    14.3297     0.0001    15.9098 </r>
       <r>    14.4142     0.0003    15.9099 </r>
       <r>    14.4987     0.0022    15.9101 </r>
       <r>    14.5832     0.0097    15.9109 </r>
       <r>    14.6677     0.0313    15.9135 </r>
       <r>    14.7522     0.0738    15.9198 </r>
       <r>    14.8367     0.1297    15.9307 </r>
       <r>    14.9212     0.1740    15.9454 </r>
       <r>    15.0057     0.1845    15.9610 </r>
       <r>    15.0902     0.1621    15.9747 </r>
       <r>    15.1747     0.1245    15.9852 </r>
       <r>    15.2592     0.0859    15.9925 </r>
       <r>    15.3437     0.0516    15.9968 </r>
       <r>    15.4282     0.0251    15.9990 </r>
       <r>    15.5127     0.0093    15.9997 </r>
       <r>    15.5972     0.0025    16.0000 </r>
       <r>    15.6817     0.0005    16.0000 </r>
       <r>    15.7662     0.0001    16.0000 </r>
       <r>    15.8507     0.0000    16.0000 </r>
       <r>    15.9352     0.0000    16.0000 </r>
       <r>    16.0197     0.0000    16.0000 </r>
       <r>    16.1042     0.0000    16.0000 </r>
       <r>    16.1887     0.0000    16.0000 </r>
       <r>    16.2732     0.0000    16.0000 </r>
       <r>    16.3577     0.0000    16.0000 </r>
       <r>    16.4422     0.0000    16.0000 </r>
       <r>    16.5267     0.0000    16.0000 </r>
       <r>    16.6112     0.0000    16.0000 </r>
       <r>    16.6957     0.0000    16.0000 </r>
       <r>    16.7802     0.0000    16.0000 </r>
       <r>    16.8647     0.0000    16.0000 </r>
       <r>    16.9492     0.0000    16.0000 </r>
       <r>    17.0337     0.0000    16.0000 </r>
       <r>    17.1182     0.0000    16.0000 </r>
       <r>    17.2027     0.0000    16.0000 </r>
      </set>
     </set>
    </array>
   </total>
  </dos>
 </calculation>
 <structure name="finalpos" >
  <crystal>
   <varray name="basis" >
    <v>       3.34889800       0.00000000       1.93348700 </v>
    <v>       1.11629900       3.15737200       1.93348700 </v>
    <v>       0.00000000       0.00000000       3.86697500 </v>
   </varray>
   <i name="volume">     40.88829843 </i>
   <varray name="rec_basis" >
    <v>       0.29860569      -0.10557300       0.00000000 </v>
    <v>       0.00000000       0.31671909       0.00000000 </v>
    <v>      -0.14930281      -0.10557302       0.25860007 </v>
   </varray>
  </crystal>
  <varray name="positions" >
   <v>       0.87500000       0.87500000       0.87500000 </v>
   <v>       0.12500000       0.12500000       0.12500000 </v>
  </varray>
 </structure>
</modeling>
