    2    2    1    1
  0.2044415E+02  0.3866974E-09  0.3866975E-09  0.3866975E-09  0.5000000E-15
  1.000000000000000E-004
  CAR 
 unknown system                          
    8    4    8
 
  0.0000000E+00  0.0000000E+00  0.0000000E+00  0.3703704E-01
   1       -6.067578
   2        5.693709
   3        5.693709
   4        5.693711
   5        8.280204
   6        8.280206
   7        8.280208
   8        8.938246
 
  0.3333333E+00  0.4163336E-16  0.0000000E+00  0.2962963E+00
   1       -4.716410
   2        0.460015
   3        4.720878
   4        4.720880
   5        7.441011
   6        9.215614
   7        9.215617
   8       13.497431
 
  0.3333333E+00  0.3333333E+00  0.0000000E+00  0.2222222E+00
   1       -4.197407
   2        0.754071
   3        3.340499
   4        3.340499
   5        6.474806
   6        7.730518
   7       12.879740
   8       12.879740
 
 -0.3333333E+00  0.3333333E+00  0.0000000E+00  0.4444444E+00
   1       -2.867189
   2       -0.969127
   3        1.397399
   4        3.638242
   5        7.302569
   6       11.462158
   7       12.132317
   8       12.684106
