 vasp.5.3.3 18Dez12 (build Jan 30 2013 10:57:47) complex                        
  
 executed on             LinuxIFC date 2016.06.21  11:23:27
 running on   16 total cores
 distrk:  each k-point on   16 cores,    1 groups
 distr:  one band on NCORES_PER_BAND=   4 cores,    4 groups


--------------------------------------------------------------------------------------------------------


 INCAR:
 POTCAR:    PAW_PBE Si 05Jan2001                  

 ----------------------------------------------------------------------------- 
|                                                                             |
|  ADVICE TO THIS USER RUNNING 'VASP/VAMP'   (HEAR YOUR MASTER'S VOICE ...):  |
|                                                                             |
|      You have switched on vdW-DFT.                                          |
|      This routine was written and supplied by Jiri Klimes.                  |
|      We recommed that you carefully read and cite the following             |
|      publication                                                            |
|      J. Klimes, D.R. Bowler, A. Michelides                                  |
|        J. Phys.: Cond Matt. 22 022201 (2010)                                |
|      J. Klimes, D.R. Bowler, A. Michelides                                  |
|        Phys. Rev. B. 83, 195131 (2011)                                      |
|      and references therein.                                                |
|                                                                             |
 ----------------------------------------------------------------------------- 

 POTCAR:    PAW_PBE Si 05Jan2001                  
   VRHFIN =Si: s2p2                                                             
   LEXCH  = PE                                                                  
   EATOM  =   103.0669 eV,    7.5752 Ry                                         
                                                                                
   TITEL  = PAW_PBE Si 05Jan2001                                                
   LULTRA =        F    use ultrasoft PP ?                                      
   IUNSCR =        1    unscreen: 0-lin 1-nonlin 2-no                           
   RPACOR =    1.500    partial core radius                                     
   POMASS =   28.085; ZVAL   =    4.000    mass and valenz                      
   RCORE  =    1.900    outmost cutoff radius                                   
   RWIGS  =    2.480; RWIGS  =    1.312    wigner-seitz radius (au A)           
   ENMAX  =  245.345; ENMIN  =  184.009 eV                                      
   ICORE  =        2    local potential                                         
   LCOR   =        T    correct aug charges                                     
   LPAW   =        T    paw PP                                                  
   EAUG   =  322.069                                                            
   DEXC   =    0.000                                                            
   RMAX   =    1.950    core radius for proj-oper                               
   RAUG   =    1.300    factor for augmentation sphere                          
   RDEP   =    1.993    radius for radial grids                                 
   RDEPT  =    1.837    core radius for aug-charge                              
                                                                                
   Atomic configuration                                                         
    6 entries                                                                   
     n  l   j            E        occ.                                          
     1  0  0.50     -1785.8828   2.0000                                         
     2  0  0.50      -139.4969   2.0000                                         
     2  1  1.50       -95.5546   6.0000                                         
     3  0  0.50       -10.8127   2.0000                                         
     3  1  0.50        -4.0811   2.0000                                         
     3  2  1.50        -4.0817   0.0000                                         
   Description                                                                  
     l       E           TYP  RCUT    TYP  RCUT                                 
     0    -10.8127223     23  1.900                                             
     0     -7.6451159     23  1.900                                             
     1     -4.0811372     23  1.900                                             
     1      2.4879257     23  1.900                                             
     2     -4.0817478      7  1.900                                             
  local pseudopotential read in
  partial core-charges read in
  partial kinetic energy density read in
  atomic valenz-charges read in
  non local Contribution for L=           0  read in
    real space projection operators read in
  non local Contribution for L=           0  read in
    real space projection operators read in
  non local Contribution for L=           1  read in
    real space projection operators read in
  non local Contribution for L=           1  read in
    real space projection operators read in
    PAW grid and wavefunctions read in
 
   number of l-projection  operators is LMAX  =           4
   number of lm-projection operators is LMMAX =           8
 

 ----------------------------------------------------------------------------- 
|                                                                             |
|  ADVICE TO THIS USER RUNNING 'VASP/VAMP'   (HEAR YOUR MASTER'S VOICE ...):  |
|                                                                             |
|      You enforced a specific xc-type in the INCAR file,                     |
|      a different type was found on the POTCAR file                          |
|          I HOPE YOU KNOW, WHAT YOU ARE  DOING                               |
|                                                                             |
 ----------------------------------------------------------------------------- 

  PAW_PBE Si 05Jan2001                  :
 energy of atom  1       EATOM= -103.0669
 kinetic energy error for atom=    0.0003 (will be added to EATOM!!)
 
 
 POSCAR: bulk@mp_149                             
  positions in direct lattice
  No initial velocities read in
 exchange correlation table for  LEXCH =       42
   RHO(1)=    0.500       N(1)  =     2000
   RHO(2)=  100.500       N(2)  =     4000
 


--------------------------------------------------------------------------------------------------------


 ion  position               nearest neighbor table
   1  0.875  0.875  0.875-   2 2.37   2 2.37   2 2.37   2 2.37
   2  0.125  0.125  0.125-   1 2.37   1 2.37   1 2.37   1 2.37
 
  LATTYP: Found a face centered cubic cell.
 ALAT       =     5.4687284904
  
  Lattice vectors:
  
 A1 = (   3.3488980000,   0.0000000000,   1.9334870000)
 A2 = (   1.1162990000,   3.1573720000,   1.9334870000)
 A3 = (   0.0000000000,   0.0000000000,   3.8669750000)


Analysis of symmetry for initial positions (statically):
=====================================================================
 Subroutine PRICEL returns:
 Original cell was already a primitive cell.
 

 Routine SETGRP: Setting up the symmetry group for a 
 face centered cubic supercell.


 Subroutine GETGRP returns: Found 48 space group operations
 (whereof 12 operations were pure point group operations)
 out of a pool of 48 trial point group operations.


The static configuration has the point symmetry D_3d.
 The point group associated with its full space group is O_h .


Analysis of symmetry for dynamics (positions and initial velocities):
=====================================================================
 Subroutine PRICEL returns:
 Original cell was already a primitive cell.
 

 Routine SETGRP: Setting up the symmetry group for a 
 face centered cubic supercell.


 Subroutine GETGRP returns: Found 48 space group operations
 (whereof 12 operations were pure point group operations)
 out of a pool of 48 trial point group operations.


The dynamic configuration has the point symmetry D_3d.
 The point group associated with its full space group is O_h .


 irot  :   1
 --------------------------------------------------------------------
 isymop:   1   0   0
           0   1   0
           0   0   1

 gtrans:     0.0000000     0.0000000     0.0000000

 ptrans:     0.0000000     0.0000000     0.0000000
 rotmap:
 (   1->   1)  (   2->   2) 


 irot  :   2
 --------------------------------------------------------------------
 isymop:  -1   0   0
           0  -1   0
           0   0  -1

 gtrans:     0.0000000     0.0000000     0.0000000

 ptrans:     0.0000000     0.0000000     0.0000000
 rotmap:
 (   1->   2)  (   2->   1) 


 irot  :   3
 --------------------------------------------------------------------
 isymop:   0   0   1
           1   0   0
           0   1   0

 gtrans:     0.0000000     0.0000000     0.0000000

 ptrans:     0.0000000     0.0000000     0.0000000
 rotmap:
 (   1->   1)  (   2->   2) 


 irot  :   4
 --------------------------------------------------------------------
 isymop:   0   0  -1
          -1   0   0
           0  -1   0

 gtrans:     0.0000000     0.0000000     0.0000000

 ptrans:     0.0000000     0.0000000     0.0000000
 rotmap:
 (   1->   2)  (   2->   1) 


 irot  :   5
 --------------------------------------------------------------------
 isymop:   0   1   0
           0   0   1
           1   0   0

 gtrans:     0.0000000     0.0000000     0.0000000

 ptrans:     0.0000000     0.0000000     0.0000000
 rotmap:
 (   1->   1)  (   2->   2) 


 irot  :   6
 --------------------------------------------------------------------
 isymop:   0  -1   0
           0   0  -1
          -1   0   0

 gtrans:     0.0000000     0.0000000     0.0000000

 ptrans:     0.0000000     0.0000000     0.0000000
 rotmap:
 (   1->   2)  (   2->   1) 


 irot  :   7
 --------------------------------------------------------------------
 isymop:  -1   0   0
           0   0  -1
           0  -1   0

 gtrans:     0.0000000     0.0000000     0.0000000

 ptrans:     0.0000000     0.0000000     0.0000000
 rotmap:
 (   1->   2)  (   2->   1) 


 irot  :   8
 --------------------------------------------------------------------
 isymop:   1   0   0
           0   0   1
           0   1   0

 gtrans:     0.0000000     0.0000000     0.0000000

 ptrans:     0.0000000     0.0000000     0.0000000
 rotmap:
 (   1->   1)  (   2->   2) 


 irot  :   9
 --------------------------------------------------------------------
 isymop:   0  -1   0
          -1   0   0
           0   0  -1

 gtrans:     0.0000000     0.0000000     0.0000000

 ptrans:     0.0000000     0.0000000     0.0000000
 rotmap:
 (   1->   2)  (   2->   1) 


 irot  :  10
 --------------------------------------------------------------------
 isymop:   0   1   0
           1   0   0
           0   0   1

 gtrans:     0.0000000     0.0000000     0.0000000

 ptrans:     0.0000000     0.0000000     0.0000000
 rotmap:
 (   1->   1)  (   2->   2) 


 irot  :  11
 --------------------------------------------------------------------
 isymop:   0   0  -1
           0  -1   0
          -1   0   0

 gtrans:     0.0000000     0.0000000     0.0000000

 ptrans:     0.0000000     0.0000000     0.0000000
 rotmap:
 (   1->   2)  (   2->   1) 


 irot  :  12
 --------------------------------------------------------------------
 isymop:   0   0   1
           0   1   0
           1   0   0

 gtrans:     0.0000000     0.0000000     0.0000000

 ptrans:     0.0000000     0.0000000     0.0000000
 rotmap:
 (   1->   1)  (   2->   2) 


 irot  :  13
 --------------------------------------------------------------------
 isymop:   1   1   1
           0   0  -1
          -1   0   0

 gtrans:     0.5000000     0.0000000     0.0000000

 ptrans:     0.0000000     0.0000000     0.0000000
 rotmap:
 (   1->   2)  (   2->   1) 


 irot  :  14
 --------------------------------------------------------------------
 isymop:  -1  -1  -1
           0   0   1
           1   0   0

 gtrans:     0.5000000     0.0000000     0.0000000

 ptrans:     0.0000000     0.0000000     0.0000000
 rotmap:
 (   1->   1)  (   2->   2) 


 irot  :  15
 --------------------------------------------------------------------
 isymop:   1   1   1
           0  -1   0
           0   0  -1

 gtrans:     0.5000000     0.0000000     0.0000000

 ptrans:     0.0000000     0.0000000     0.0000000
 rotmap:
 (   1->   2)  (   2->   1) 


 irot  :  16
 --------------------------------------------------------------------
 isymop:  -1  -1  -1
           0   1   0
           0   0   1

 gtrans:     0.5000000     0.0000000     0.0000000

 ptrans:     0.0000000     0.0000000     0.0000000
 rotmap:
 (   1->   1)  (   2->   2) 


 irot  :  17
 --------------------------------------------------------------------
 isymop:   1   1   1
          -1   0   0
           0  -1   0

 gtrans:     0.5000000     0.0000000     0.0000000

 ptrans:     0.0000000     0.0000000     0.0000000
 rotmap:
 (   1->   2)  (   2->   1) 


 irot  :  18
 --------------------------------------------------------------------
 isymop:  -1  -1  -1
           1   0   0
           0   1   0

 gtrans:     0.5000000     0.0000000     0.0000000

 ptrans:     0.0000000     0.0000000     0.0000000
 rotmap:
 (   1->   1)  (   2->   2) 


 irot  :  19
 --------------------------------------------------------------------
 isymop:   0   1   0
           1   0   0
          -1  -1  -1

 gtrans:     0.0000000     0.0000000     0.5000000

 ptrans:     0.0000000     0.0000000     0.0000000
 rotmap:
 (   1->   1)  (   2->   2) 


 irot  :  20
 --------------------------------------------------------------------
 isymop:   0  -1   0
          -1   0   0
           1   1   1

 gtrans:     0.0000000     0.0000000     0.5000000

 ptrans:     0.0000000     0.0000000     0.0000000
 rotmap:
 (   1->   2)  (   2->   1) 


 irot  :  21
 --------------------------------------------------------------------
 isymop:   1   0   0
           0   0   1
          -1  -1  -1

 gtrans:     0.0000000     0.0000000     0.5000000

 ptrans:     0.0000000     0.0000000     0.0000000
 rotmap:
 (   1->   1)  (   2->   2) 


 irot  :  22
 --------------------------------------------------------------------
 isymop:  -1   0   0
           0   0  -1
           1   1   1

 gtrans:     0.0000000     0.0000000     0.5000000

 ptrans:     0.0000000     0.0000000     0.0000000
 rotmap:
 (   1->   2)  (   2->   1) 


 irot  :  23
 --------------------------------------------------------------------
 isymop:   0   0   1
           0   1   0
          -1  -1  -1

 gtrans:     0.0000000     0.0000000     0.5000000

 ptrans:     0.0000000     0.0000000     0.0000000
 rotmap:
 (   1->   1)  (   2->   2) 


 irot  :  24
 --------------------------------------------------------------------
 isymop:   0   0  -1
           0  -1   0
           1   1   1

 gtrans:     0.0000000     0.0000000     0.5000000

 ptrans:     0.0000000     0.0000000     0.0000000
 rotmap:
 (   1->   2)  (   2->   1) 


 irot  :  25
 --------------------------------------------------------------------
 isymop:   0   0  -1
           1   1   1
           0  -1   0

 gtrans:     0.0000000     0.5000000     0.0000000

 ptrans:     0.0000000     0.0000000     0.0000000
 rotmap:
 (   1->   2)  (   2->   1) 


 irot  :  26
 --------------------------------------------------------------------
 isymop:   0   0   1
          -1  -1  -1
           0   1   0

 gtrans:     0.0000000     0.5000000     0.0000000

 ptrans:     0.0000000     0.0000000     0.0000000
 rotmap:
 (   1->   1)  (   2->   2) 


 irot  :  27
 --------------------------------------------------------------------
 isymop:   0  -1   0
           1   1   1
          -1   0   0

 gtrans:     0.0000000     0.5000000     0.0000000

 ptrans:     0.0000000     0.0000000     0.0000000
 rotmap:
 (   1->   2)  (   2->   1) 


 irot  :  28
 --------------------------------------------------------------------
 isymop:   0   1   0
          -1  -1  -1
           1   0   0

 gtrans:     0.0000000     0.5000000     0.0000000

 ptrans:     0.0000000     0.0000000     0.0000000
 rotmap:
 (   1->   1)  (   2->   2) 


 irot  :  29
 --------------------------------------------------------------------
 isymop:  -1   0   0
           1   1   1
           0   0  -1

 gtrans:     0.0000000     0.5000000     0.0000000

 ptrans:     0.0000000     0.0000000     0.0000000
 rotmap:
 (   1->   2)  (   2->   1) 


 irot  :  30
 --------------------------------------------------------------------
 isymop:   1   0   0
          -1  -1  -1
           0   0   1

 gtrans:     0.0000000     0.5000000     0.0000000

 ptrans:     0.0000000     0.0000000     0.0000000
 rotmap:
 (   1->   1)  (   2->   2) 


 irot  :  31
 --------------------------------------------------------------------
 isymop:  -1  -1  -1
           0   1   0
           1   0   0

 gtrans:     0.5000000     0.0000000     0.0000000

 ptrans:     0.0000000     0.0000000     0.0000000
 rotmap:
 (   1->   1)  (   2->   2) 


 irot  :  32
 --------------------------------------------------------------------
 isymop:   1   1   1
           0  -1   0
          -1   0   0

 gtrans:     0.5000000     0.0000000     0.0000000

 ptrans:     0.0000000     0.0000000     0.0000000
 rotmap:
 (   1->   2)  (   2->   1) 


 irot  :  33
 --------------------------------------------------------------------
 isymop:  -1  -1  -1
           1   0   0
           0   0   1

 gtrans:     0.5000000     0.0000000     0.0000000

 ptrans:     0.0000000     0.0000000     0.0000000
 rotmap:
 (   1->   1)  (   2->   2) 


 irot  :  34
 --------------------------------------------------------------------
 isymop:   1   1   1
          -1   0   0
           0   0  -1

 gtrans:     0.5000000     0.0000000     0.0000000

 ptrans:     0.0000000     0.0000000     0.0000000
 rotmap:
 (   1->   2)  (   2->   1) 


 irot  :  35
 --------------------------------------------------------------------
 isymop:  -1  -1  -1
           0   0   1
           0   1   0

 gtrans:     0.5000000     0.0000000     0.0000000

 ptrans:     0.0000000     0.0000000     0.0000000
 rotmap:
 (   1->   1)  (   2->   2) 


 irot  :  36
 --------------------------------------------------------------------
 isymop:   1   1   1
           0   0  -1
           0  -1   0

 gtrans:     0.5000000     0.0000000     0.0000000

 ptrans:     0.0000000     0.0000000     0.0000000
 rotmap:
 (   1->   2)  (   2->   1) 


 irot  :  37
 --------------------------------------------------------------------
 isymop:   0  -1   0
           0   0  -1
           1   1   1

 gtrans:     0.0000000     0.0000000     0.5000000

 ptrans:     0.0000000     0.0000000     0.0000000
 rotmap:
 (   1->   2)  (   2->   1) 


 irot  :  38
 --------------------------------------------------------------------
 isymop:   0   1   0
           0   0   1
          -1  -1  -1

 gtrans:     0.0000000     0.0000000     0.5000000

 ptrans:     0.0000000     0.0000000     0.0000000
 rotmap:
 (   1->   1)  (   2->   2) 


 irot  :  39
 --------------------------------------------------------------------
 isymop:  -1   0   0
           0  -1   0
           1   1   1

 gtrans:     0.0000000     0.0000000     0.5000000

 ptrans:     0.0000000     0.0000000     0.0000000
 rotmap:
 (   1->   2)  (   2->   1) 


 irot  :  40
 --------------------------------------------------------------------
 isymop:   1   0   0
           0   1   0
          -1  -1  -1

 gtrans:     0.0000000     0.0000000     0.5000000

 ptrans:     0.0000000     0.0000000     0.0000000
 rotmap:
 (   1->   1)  (   2->   2) 


 irot  :  41
 --------------------------------------------------------------------
 isymop:   0   0  -1
          -1   0   0
           1   1   1

 gtrans:     0.0000000     0.0000000     0.5000000

 ptrans:     0.0000000     0.0000000     0.0000000
 rotmap:
 (   1->   2)  (   2->   1) 


 irot  :  42
 --------------------------------------------------------------------
 isymop:   0   0   1
           1   0   0
          -1  -1  -1

 gtrans:     0.0000000     0.0000000     0.5000000

 ptrans:     0.0000000     0.0000000     0.0000000
 rotmap:
 (   1->   1)  (   2->   2) 


 irot  :  43
 --------------------------------------------------------------------
 isymop:   1   0   0
          -1  -1  -1
           0   1   0

 gtrans:     0.0000000     0.5000000     0.0000000

 ptrans:     0.0000000     0.0000000     0.0000000
 rotmap:
 (   1->   1)  (   2->   2) 


 irot  :  44
 --------------------------------------------------------------------
 isymop:  -1   0   0
           1   1   1
           0  -1   0

 gtrans:     0.0000000     0.5000000     0.0000000

 ptrans:     0.0000000     0.0000000     0.0000000
 rotmap:
 (   1->   2)  (   2->   1) 


 irot  :  45
 --------------------------------------------------------------------
 isymop:   0   0   1
          -1  -1  -1
           1   0   0

 gtrans:     0.0000000     0.5000000     0.0000000

 ptrans:     0.0000000     0.0000000     0.0000000
 rotmap:
 (   1->   1)  (   2->   2) 


 irot  :  46
 --------------------------------------------------------------------
 isymop:   0   0  -1
           1   1   1
          -1   0   0

 gtrans:     0.0000000     0.5000000     0.0000000

 ptrans:     0.0000000     0.0000000     0.0000000
 rotmap:
 (   1->   2)  (   2->   1) 


 irot  :  47
 --------------------------------------------------------------------
 isymop:   0   1   0
          -1  -1  -1
           0   0   1

 gtrans:     0.0000000     0.5000000     0.0000000

 ptrans:     0.0000000     0.0000000     0.0000000
 rotmap:
 (   1->   1)  (   2->   2) 


 irot  :  48
 --------------------------------------------------------------------
 isymop:   0  -1   0
           1   1   1
           0   0  -1

 gtrans:     0.0000000     0.5000000     0.0000000

 ptrans:     0.0000000     0.0000000     0.0000000
 rotmap:
 (   1->   2)  (   2->   1) 
 
 
 KPOINTS: Automatic kpoint scheme                 

Automatic generation of k-mesh.
Space group operators:
 irot       det(A)        alpha          n_x          n_y          n_z        tau_x        tau_y        tau_z
    1     1.000000     0.000000     1.000000     0.000000     0.000000     0.000000     0.000000     0.000000
    2    -1.000000     0.000000     1.000000     0.000000     0.000000     0.000000     0.000000     0.000000
    3     1.000000   120.000000    -0.471405    -0.333333    -0.816497     0.000000     0.000000     0.000000
    4    -1.000000   120.000000    -0.471405    -0.333333    -0.816497     0.000000     0.000000     0.000000
    5     1.000000   120.000000     0.471405     0.333334     0.816496     0.000000     0.000000     0.000000
    6    -1.000000   120.000000     0.471405     0.333334     0.816496     0.000000     0.000000     0.000000
    7     1.000000   180.000000     0.288675     0.816497    -0.500000     0.000000     0.000000     0.000000
    8    -1.000000   180.000000     0.288675     0.816497    -0.500000     0.000000     0.000000     0.000000
    9     1.000000   180.000000     0.577350    -0.816497     0.000000     0.000000     0.000000     0.000000
   10    -1.000000   180.000000     0.577350    -0.816497     0.000000     0.000000     0.000000     0.000000
   11     1.000000   180.000000     0.866025     0.000000    -0.500000     0.000000     0.000000     0.000000
   12    -1.000000   180.000000     0.866025     0.000000    -0.500000     0.000000     0.000000     0.000000
   13     1.000000    90.000000    -0.816496    -0.577350     0.000000     0.500000     0.000000     0.000000
   14    -1.000000    90.000000    -0.816496    -0.577350     0.000000     0.500000     0.000000     0.000000
   15     1.000000   180.000000     0.866025     0.000000     0.500000     0.500000     0.000000     0.000000
   16    -1.000000   180.000000     0.866025     0.000000     0.500000     0.500000     0.000000     0.000000
   17     1.000000    90.000000     0.408248    -0.577350     0.707107     0.500000     0.000000     0.000000
   18    -1.000000    90.000000     0.408248    -0.577350     0.707107     0.500000     0.000000     0.000000
   19     1.000000   180.000000     0.816497     0.577350     0.000000     0.000000     0.000000     0.500000
   20    -1.000000   180.000000     0.816497     0.577350     0.000000     0.000000     0.000000     0.500000
   21     1.000000   120.000000     0.942809    -0.333333     0.000000     0.000000     0.000000     0.500000
   22    -1.000000   120.000000     0.942809    -0.333333     0.000000     0.000000     0.000000     0.500000
   23     1.000000   120.000000     0.000000    -1.000000     0.000000     0.000000     0.000000     0.500000
   24    -1.000000   120.000000     0.000000    -1.000000     0.000000     0.000000     0.000000     0.500000
   25     1.000000    90.000000     0.816497     0.577350     0.000000     0.000000     0.500000     0.000000
   26    -1.000000    90.000000     0.816497     0.577350     0.000000     0.000000     0.500000     0.000000
   27     1.000000    90.000000     0.408248    -0.577350    -0.707107     0.000000     0.500000     0.000000
   28    -1.000000    90.000000     0.408248    -0.577350    -0.707107     0.000000     0.500000     0.000000
   29     1.000000   180.000000     0.288675     0.816497     0.500000     0.000000     0.500000     0.000000
   30    -1.000000   180.000000     0.288675     0.816497     0.500000     0.000000     0.500000     0.000000
   31     1.000000   120.000000     0.000000     1.000000     0.000000     0.500000     0.000000     0.000000
   32    -1.000000   120.000000     0.000000     1.000000     0.000000     0.500000     0.000000     0.000000
   33     1.000000   120.000000     0.471404     0.333333    -0.816497     0.500000     0.000000     0.000000
   34    -1.000000   120.000000     0.471404     0.333333    -0.816497     0.500000     0.000000     0.000000
   35     1.000000   180.000000    -0.408248     0.577350     0.707107     0.500000     0.000000     0.000000
   36    -1.000000   180.000000    -0.408248     0.577350     0.707107     0.500000     0.000000     0.000000
   37     1.000000    90.000000    -0.408248     0.577350    -0.707107     0.000000     0.000000     0.500000
   38    -1.000000    90.000000    -0.408248     0.577350    -0.707107     0.000000     0.000000     0.500000
   39     1.000000   180.000000     0.000000     0.000000     1.000000     0.000000     0.000000     0.500000
   40    -1.000000   180.000000     0.000000     0.000000     1.000000     0.000000     0.000000     0.500000
   41     1.000000    90.000000    -0.408248     0.577350     0.707107     0.000000     0.000000     0.500000
   42    -1.000000    90.000000    -0.408248     0.577350     0.707107     0.000000     0.000000     0.500000
   43     1.000000   120.000000    -0.942809     0.333333     0.000000     0.000000     0.500000     0.000000
   44    -1.000000   120.000000    -0.942809     0.333333     0.000000     0.000000     0.500000     0.000000
   45     1.000000   179.999999    -0.408248     0.577350    -0.707107     0.000000     0.500000     0.000000
   46    -1.000000   179.999999    -0.408248     0.577350    -0.707107     0.000000     0.500000     0.000000
   47     1.000000   120.000000    -0.471404    -0.333333     0.816497     0.000000     0.500000     0.000000
   48    -1.000000   120.000000    -0.471404    -0.333333     0.816497     0.000000     0.500000     0.000000
 
 Subroutine IBZKPT returns following result:
 ===========================================
 
 Found      4 irreducible k-points:
 
 Following reciprocal coordinates:
            Coordinates               Weight
  0.000000  0.000000  0.000000      1.000000
  0.333333  0.000000  0.000000      8.000000
  0.333333  0.333333  0.000000      6.000000
 -0.333333  0.333333  0.000000     12.000000
 
 Following cartesian coordinates:
            Coordinates               Weight
  0.000000  0.000000  0.000000      1.000000
  0.099535 -0.035191  0.000000      8.000000
  0.099535  0.070382  0.000000      6.000000
 -0.099535  0.140764  0.000000     12.000000
 


--------------------------------------------------------------------------------------------------------




 Dimension of arrays:
   k-points           NKPTS =      4   k-points in BZ     NKDIM =      4   number of bands    NBANDS=      8
   number of dos      NEDOS =    301   number of ions     NIONS =      2
   non local maximal  LDIM  =      4   non local SUM 2l+1 LMDIM =      8
   total plane-waves  NPLWV =  46656
   max r-space proj   IRMAX =      1   max aug-charges    IRDMAX=  38346
   dimension x,y,z NGX =    36 NGY =   36 NGZ =   36
   dimension x,y,z NGXF=    72 NGYF=   72 NGZF=   72
   support grid    NGXF=    72 NGYF=   72 NGZF=   72
   ions per type =               2
 NGX,Y,Z   is equivalent  to a cutoff of  15.48, 15.48, 15.48 a.u.
 NGXF,Y,Z  is equivalent  to a cutoff of  30.95, 30.95, 30.95 a.u.


 I would recommend the setting:
   dimension x,y,z NGX =    33 NGY =   33 NGZ =   33
 SYSTEM =  unknown system                          
 POSCAR =  bulk@mp_149                             

 Startparameter for this run:
   NWRITE =      2    write-flag & timer
   PREC   = accura    normal or accurate (medium, high low for compatibility)
   ISTART =      0    job   : 0-new  1-cont  2-samecut
   ICHARG =      2    charge: 1-file 2-atom 10-const
   ISPIN  =      1    spin polarized calculation?
   LNONCOLLINEAR =      F non collinear calculations
   LSORBIT =      F    spin-orbit coupling
   INIWAV =      1    electr: 0-lowe 1-rand  2-diag
   LASPH  =      F    aspherical Exc in radial PAW
   METAGGA=      F    non-selfconsistent MetaGGA calc.

 Electronic Relaxation 1
   ENCUT  =  700.0 eV  51.45 Ry    7.17 a.u.   8.34  8.34  8.34*2*pi/ulx,y,z
   ENINI  =  700.0     initial cutoff
   ENAUG  =  322.1 eV  augmentation charge cutoff
   NELM   =    400;   NELMIN=  2; NELMDL= -5     # of ELM steps 
   EDIFF  = 0.1E-06   stopping-criterion for ELM
   LREAL  =      F    real-space projection
   NLSPLINE    = F    spline interpolate recip. space projectors
   LCOMPAT=      F    compatible to vasp.4.4
   GGA_COMPAT  = T    GGA compatible to vasp.4.4-vasp.4.6
   LMAXPAW     = -100 max onsite density
   LMAXMIX     =    2 max onsite mixed and CHGCAR
   VOSKOWN=      0    Vosko Wilk Nusair interpolation
   ROPT   =    0.00000
 Ionic relaxation
   EDIFFG = 0.1E-05   stopping-criterion for IOM
   NSW    =      1    number of steps for IOM
   NBLOCK =      1;   KBLOCK =      1    inner block; outer block 
   IBRION =      2    ionic relax: 0-MD 1-quasi-New 2-CG
   NFREE  =      1    steps in history (QN), initial steepest desc. (CG)
   ISIF   =      2    stress and relaxation
   IWAVPR =     11    prediction:  0-non 1-charg 2-wave 3-comb
   ISYM   =      2    0-nonsym 1-usesym 2-fastsym
   LCORR  =      T    Harris-Foulkes like correction to forces

   POTIM  = 0.5000    time-step for ionic-motion
   TEIN   =    0.0    initial temperature
   TEBEG  =    0.0;   TEEND  =   0.0 temperature during run
   SMASS  =  -3.00    Nose mass-parameter (am)
   estimated Nose-frequenzy (Omega)   =  0.10E-29 period in steps =****** mass=  -0.342E-27a.u.
   SCALEE = 1.0000    scale energy and forces
   NPACO  =    256;   APACO  = 16.0  distance and # of slots for P.C.
   PSTRESS=    0.0 pullay stress

  Mass of Ions in am
   POMASS =  28.09
  Ionic Valenz
   ZVAL   =   4.00
  Atomic Wigner-Seitz radii
   RWIGS  =  -1.00
  virtual crystal weights 
   VCA    =   1.00
   NELECT =       8.0000    total number of electrons
   NUPDOWN=      -1.0000    fix difference up-down

 DOS related values:
   EMIN   =  10.00;   EMAX   =-10.00  energy-range for DOS
   EFERMI =   0.00
   ISMEAR =     0;   SIGMA  =   0.20  broadening in eV -4-tet -1-fermi 0-gaus

 Electronic relaxation 2 (details)
   IALGO  =     38    algorithm
   LDIAG  =      T    sub-space diagonalisation (order eigenvalues)
   LSUBROT=      T    optimize rotation matrix (better conditioning)
   TURBO    =      0    0=normal 1=particle mesh
   IRESTART =      0    0=no restart 2=restart with 2 vectors
   NREBOOT  =      0    no. of reboots
   NMIN     =      0    reboot dimension
   EREF     =   0.00    reference energy to select bands
   IMIX   =      4    mixing-type and parameters
     AMIX     =   0.40;   BMIX     =  1.00
     AMIX_MAG =   1.60;   BMIX_MAG =  1.00
     AMIN     =   0.10
     WC   =   100.;   INIMIX=   1;  MIXPRE=   1;  MAXMIX= -45

 Intra band minimization:
   WEIMIN = 0.0010     energy-eigenvalue tresh-hold
   EBREAK =  0.31E-08  absolut break condition
   DEPER  =   0.30     relativ break condition  

   TIME   =   0.40     timestep for ELM

  volume/ion in A,a.u.               =      20.44       137.96
  Fermi-wavevector in a.u.,A,eV,Ry     =   0.950397  1.795990 12.289528  0.903255
  Thomas-Fermi vector in A             =   2.078770
 
 Write flags
   LWAVE  =      F    write WAVECAR
   LCHARG =      F    write CHGCAR
   LVTOT  =      F    write LOCPOT, total local potential
   LVHAR  =      F    write LOCPOT, Hartree potential only
   LELF   =      F    write electronic localiz. function (ELF)
   LORBIT =      0    0 simple, 1 ext, 2 COOP (PROOUT)


 Dipole corrections
   LMONO  =      F    monopole corrections only (constant potential shift)
   LDIPOL =      F    correct potential (dipole corrections)
   IDIPOL =      0    1-x, 2-y, 3-z, 4-all directions 
   EPSILON=  1.0000000 bulk dielectric constant

 Exchange correlation treatment:
   GGA     =    BO    GGA type
   LEXCH   =    42    internal setting for exchange type
   VOSKOWN=      0    Vosko Wilk Nusair interpolation
   LHFCALC =     F    Hartree Fock is set to
   LHFONE  =     F    Hartree Fock one center treatment
   AEXX    =    0.0000 exact exchange contribution

 vdW DFT:
   LUSE_VDW   =     T    switch on vdW DFT
   Zab_VDW    =-.8491    correlation parameter
   PARAM1     =0.1833
   PARAM2     =0.2200
   PARAM3     =0.0000

 Linear response parameters
   LEPSILON=     F    determine dielectric tensor
   LRPA    =     F    only Hartree local field effects (RPA)
   LNABLA  =     F    use nabla operator in PAW spheres
   LVEL    =     F    velocity operator in full k-point grid
   LINTERFAST=   F  fast interpolation
   KINTER  =     0    interpolate to denser k-point grid
   CSHIFT  =0.1000    complex shift for real part using Kramers Kronig
   OMEGAMAX=  -1.0    maximum frequency
   DEG_THRESHOLD= 0.2000000E-02 threshold for treating states as degnerate
   RTIME   =    0.100 relaxation time in fs

 Orbital magnetization related:
   ORBITALMAG=     F  switch on orbital magnetization
   LCHIMAG   =     F  perturbation theory with respect to B field
   DQ        =  0.001000  dq finite difference perturbation B field



--------------------------------------------------------------------------------------------------------


 conjugate gradient relaxation of ions
 charge density and potential will be updated during run
 non-spin polarized calculation
 Variant of blocked Davidson
 Davidson routine will perform the subspace rotation
 perform sub-space diagonalisation
    after iterative eigenvector-optimisation
 modified Broyden-mixing scheme, WC =      100.0
 initial mixing is a Kerker type mixing with AMIX =  0.4000 and BMIX =      1.0000
 Hartree-type preconditioning will be used
 using additional bands            4
 reciprocal scheme for non local part
 use partial core corrections
 calculate Harris-corrections to forces 
   (improved forces if not selfconsistent)
 use gradient corrections 
 use of overlap-Matrix (Vanderbilt PP)
 Gauss-broadening in eV      SIGMA  =   0.20


--------------------------------------------------------------------------------------------------------


  energy-cutoff  :      700.00
  volume of cell :       40.89
      direct lattice vectors                 reciprocal lattice vectors
     3.348898000  0.000000000  1.933487000     0.298605691 -0.105573000  0.000000000
     1.116299000  3.157372000  1.933487000     0.000000000  0.316719094  0.000000000
     0.000000000  0.000000000  3.866975000    -0.149302807 -0.105573020  0.258600069

  length of vectors
     3.866974243  3.866974707  3.866975000     0.316719145  0.316719094  0.316719096


 
 k-points in units of 2pi/SCALE and weight: Automatic kpoint scheme                 
   0.00000000  0.00000000  0.00000000       0.037
   0.09953523 -0.03519100  0.00000000       0.296
   0.09953523  0.07038203  0.00000000       0.222
  -0.09953523  0.14076403  0.00000000       0.444
 
 k-points in reciprocal lattice and weights: Automatic kpoint scheme                 
   0.00000000  0.00000000  0.00000000       0.037
   0.33333333  0.00000000  0.00000000       0.296
   0.33333333  0.33333333  0.00000000       0.222
  -0.33333333  0.33333333  0.00000000       0.444
 
 position of ions in fractional coordinates (direct lattice) 
   0.87500000  0.87500000  0.87500000
   0.12500000  0.12500000  0.12500000
 
 position of ions in cartesian coordinates  (Angst):
   3.90704738  2.76270050  6.76720537
   0.55814962  0.39467150  0.96674362
 


--------------------------------------------------------------------------------------------------------


 k-point  1 :   0.0000 0.0000 0.0000  plane waves:    1759
 k-point  2 :   0.3333 0.0000 0.0000  plane waves:    1730
 k-point  3 :   0.3333 0.3333 0.0000  plane waves:    1728
 k-point  4 :  -0.3333 0.3333 0.0000  plane waves:    1700

 maximum and minimum number of plane-waves per node :       444      424

 maximum number of plane-waves:      1759
 maximum index in each direction: 
   IXMAX=    8   IYMAX=    8   IZMAX=    8
   IXMIN=   -8   IYMIN=   -8   IZMIN=   -8

 NGX is ok and might be reduce to  34
 NGY is ok and might be reduce to  34
 NGZ is ok and might be reduce to  34

 parallel 3D FFT for wavefunctions:
    minimum data exchange during FFTs selected (reduces bandwidth)
 parallel 3D FFT for charge:
    minimum data exchange during FFTs selected (reduces bandwidth)


 total amount of memory used by VASP on root node    33140. kBytes
========================================================================

   base      :      30000. kBytes
   nonl-proj :        126. kBytes
   fftplans  :       1216. kBytes
   grid      :       1738. kBytes
   one-center:          3. kBytes
   wavefun   :         57. kBytes
 
 Broyden mixing: mesh for mixing (old mesh)
   NGX = 17   NGY = 17   NGZ = 17
  (NGX  = 72   NGY  = 72   NGZ  = 72)
  gives a total of   4913 points

 initial charge density was supplied:
 charge density of overlapping atoms calculated
 number of electron       8.0000000 magnetization 
 keeping initial charge density in first step


--------------------------------------------------------------------------------------------------------


 Maximum index for augmentation-charges         2945 (set IRDMAX)


--------------------------------------------------------------------------------------------------------


 First call to EWALD:  gamma=   0.514
 Maximum number of real-space cells 3x 3x 3
 Maximum number of reciprocal cells 3x 3x 3

 FEWALD executed in parallel
    FEWALD:  cpu time    0.00: real time    0.00


----------------------------------------- Iteration    1(   1)  ---------------------------------------


vdW kernel read from vdw_kernel.bindat
  0.0000  0.2424  0.5071  0.7962  1.1119  1.4567  1.8333  2.2446  2.6937  3.1842
  3.7199  4.3049  4.9438  5.6415  6.4036  7.2358  8.1446  9.1372 10.2212 11.4050
 12.6979 14.1099 15.6519 17.3360 19.1751 21.1837 23.3773 25.7729 28.3892 31.2465
 34.3669 37.7748 41.4965 45.5611 50.0000
 
    POTLOK:  cpu time    3.56: real time    4.75
    SETDIJ:  cpu time    0.01: real time    0.00
     EDDAV:  cpu time    0.03: real time    0.03
       DOS:  cpu time    0.00: real time    0.00
    --------------------------------------------
      LOOP:  cpu time    3.61: real time    5.62

 eigenvalue-minimisations  :    64
 total energy-change (2. order) : 0.1197240E+02  (-0.3900731E+03)
 number of electron       8.0000000 magnetization 
 augmentation part        8.0000000 magnetization 

 Free energy of the ion-electron system (eV)
  ---------------------------------------------------
  alpha Z        PSCENC =         3.29317992
  Ewald energy   TEWEN  =      -226.94489173
  -1/2 Hartree   DENC   =       -11.32339116
  -exchange  EXHF       =         0.00000000
  -V(xc)+E(xc)   XCENC  =       -20.24410343
  PAW double counting   =       189.40224250     -152.61488262
  entropy T*S    EENTRO =        -0.00337407
  eigenvalues    EBANDS =        21.81314504
  atomic energy  EATOM  =       208.59447219
  ---------------------------------------------------
  free energy    TOTEN  =        11.97239662 eV

  energy without entropy =       11.97577069  energy(sigma->0) =       11.97408366


--------------------------------------------------------------------------------------------------------




----------------------------------------- Iteration    1(   2)  ---------------------------------------


     EDDAV:  cpu time    0.14: real time    0.17
       DOS:  cpu time    0.00: real time    0.00
    --------------------------------------------
      LOOP:  cpu time    0.14: real time    0.49

 eigenvalue-minimisations  :   104
 total energy-change (2. order) :-0.1952340E+02  (-0.1951761E+02)
 number of electron       8.0000000 magnetization 
 augmentation part        8.0000000 magnetization 

 Free energy of the ion-electron system (eV)
  ---------------------------------------------------
  alpha Z        PSCENC =         3.29317992
  Ewald energy   TEWEN  =      -226.94489173
  -1/2 Hartree   DENC   =       -11.32339116
  -exchange  EXHF       =         0.00000000
  -V(xc)+E(xc)   XCENC  =       -20.24410343
  PAW double counting   =       189.40224250     -152.61488262
  entropy T*S    EENTRO =        -0.00001239
  eigenvalues    EBANDS =         2.28638803
  atomic energy  EATOM  =       208.59447219
  ---------------------------------------------------
  free energy    TOTEN  =        -7.55099871 eV

  energy without entropy =       -7.55098632  energy(sigma->0) =       -7.55099251


--------------------------------------------------------------------------------------------------------




----------------------------------------- Iteration    1(   3)  ---------------------------------------


     EDDAV:  cpu time    0.05: real time    0.05
       DOS:  cpu time    0.00: real time    0.00
    --------------------------------------------
      LOOP:  cpu time    0.05: real time    0.69

 eigenvalue-minimisations  :    96
 total energy-change (2. order) :-0.3238941E+00  (-0.3238938E+00)
 number of electron       8.0000000 magnetization 
 augmentation part        8.0000000 magnetization 

 Free energy of the ion-electron system (eV)
  ---------------------------------------------------
  alpha Z        PSCENC =         3.29317992
  Ewald energy   TEWEN  =      -226.94489173
  -1/2 Hartree   DENC   =       -11.32339116
  -exchange  EXHF       =         0.00000000
  -V(xc)+E(xc)   XCENC  =       -20.24410343
  PAW double counting   =       189.40224250     -152.61488262
  entropy T*S    EENTRO =        -0.00002055
  eigenvalues    EBANDS =         1.96250210
  atomic energy  EATOM  =       208.59447219
  ---------------------------------------------------
  free energy    TOTEN  =        -7.87489279 eV

  energy without entropy =       -7.87487224  energy(sigma->0) =       -7.87488252


--------------------------------------------------------------------------------------------------------




----------------------------------------- Iteration    1(   4)  ---------------------------------------


     EDDAV:  cpu time    0.04: real time    0.04
       DOS:  cpu time    0.00: real time    0.00
    --------------------------------------------
      LOOP:  cpu time    0.04: real time    0.91

 eigenvalue-minimisations  :    80
 total energy-change (2. order) :-0.4440115E-03  (-0.4440118E-03)
 number of electron       8.0000000 magnetization 
 augmentation part        8.0000000 magnetization 

 Free energy of the ion-electron system (eV)
  ---------------------------------------------------
  alpha Z        PSCENC =         3.29317992
  Ewald energy   TEWEN  =      -226.94489173
  -1/2 Hartree   DENC   =       -11.32339116
  -exchange  EXHF       =         0.00000000
  -V(xc)+E(xc)   XCENC  =       -20.24410343
  PAW double counting   =       189.40224250     -152.61488262
  entropy T*S    EENTRO =        -0.00002052
  eigenvalues    EBANDS =         1.96205806
  atomic energy  EATOM  =       208.59447219
  ---------------------------------------------------
  free energy    TOTEN  =        -7.87533680 eV

  energy without entropy =       -7.87531628  energy(sigma->0) =       -7.87532654


--------------------------------------------------------------------------------------------------------




----------------------------------------- Iteration    1(   5)  ---------------------------------------


     EDDAV:  cpu time    0.04: real time    0.04
       DOS:  cpu time    0.00: real time    0.00
    CHARGE:  cpu time    0.02: real time    0.03
    MIXING:  cpu time    0.00: real time    0.00
    --------------------------------------------
      LOOP:  cpu time    0.06: real time    0.82

 eigenvalue-minimisations  :    88
 total energy-change (2. order) :-0.2134110E-05  (-0.2133860E-05)
 number of electron       8.0000000 magnetization 
 augmentation part       -0.4727433 magnetization 

 Broyden mixing:
  rms(total) = 0.39976E+00    rms(broyden)= 0.39976E+00
  rms(prec ) = 0.10073E+01
  weight for this iteration     100.00

 Free energy of the ion-electron system (eV)
  ---------------------------------------------------
  alpha Z        PSCENC =         3.29317992
  Ewald energy   TEWEN  =      -226.94489173
  -1/2 Hartree   DENC   =       -11.32339116
  -exchange  EXHF       =         0.00000000
  -V(xc)+E(xc)   XCENC  =       -20.24410343
  PAW double counting   =       189.40224250     -152.61488262
  entropy T*S    EENTRO =        -0.00002052
  eigenvalues    EBANDS =         1.96205593
  atomic energy  EATOM  =       208.59447219
  ---------------------------------------------------
  free energy    TOTEN  =        -7.87533893 eV

  energy without entropy =       -7.87531842  energy(sigma->0) =       -7.87532868


--------------------------------------------------------------------------------------------------------




----------------------------------------- Iteration    1(   6)  ---------------------------------------


    POTLOK:  cpu time    1.93: real time    1.95
    SETDIJ:  cpu time    0.00: real time    0.00
     EDDAV:  cpu time    0.04: real time    0.04
       DOS:  cpu time    0.00: real time    0.00
    CHARGE:  cpu time    0.02: real time    0.02
    MIXING:  cpu time    0.00: real time    0.00
    --------------------------------------------
      LOOP:  cpu time    2.00: real time    3.26

 eigenvalue-minimisations  :    80
 total energy-change (2. order) : 0.8600147E-01  (-0.1127419E-01)
 number of electron       8.0000000 magnetization 
 augmentation part       -0.4644244 magnetization 

 Broyden mixing:
  rms(total) = 0.24652E+00    rms(broyden)= 0.24652E+00
  rms(prec ) = 0.60989E+00
  weight for this iteration     100.00

 eigenvalues of (default mixing * dielectric matrix)
  average eigenvalue GAMMA=   2.5895
  2.5895

 Free energy of the ion-electron system (eV)
  ---------------------------------------------------
  alpha Z        PSCENC =         3.29317992
  Ewald energy   TEWEN  =      -226.94489173
  -1/2 Hartree   DENC   =       -13.12377176
  -exchange  EXHF       =         0.00000000
  -V(xc)+E(xc)   XCENC  =       -19.97493614
  PAW double counting   =       310.56885511     -273.92753431
  entropy T*S    EENTRO =        -0.00011288
  eigenvalues    EBANDS =         3.72540213
  atomic energy  EATOM  =       208.59447219
  ---------------------------------------------------
  free energy    TOTEN  =        -7.78933747 eV

  energy without entropy =       -7.78922459  energy(sigma->0) =       -7.78928103


--------------------------------------------------------------------------------------------------------




----------------------------------------- Iteration    1(   7)  ---------------------------------------


    POTLOK:  cpu time    1.91: real time    1.94
    SETDIJ:  cpu time    0.00: real time    0.00
     EDDAV:  cpu time    0.04: real time    0.04
       DOS:  cpu time    0.00: real time    0.00
    CHARGE:  cpu time    0.02: real time    0.02
    MIXING:  cpu time    0.00: real time    0.00
    --------------------------------------------
      LOOP:  cpu time    1.97: real time    3.17

 eigenvalue-minimisations  :    80
 total energy-change (2. order) : 0.2184907E-01  (-0.2677663E-01)
 number of electron       8.0000000 magnetization 
 augmentation part       -0.4528903 magnetization 

 Broyden mixing:
  rms(total) = 0.21393E-01    rms(broyden)= 0.21393E-01
  rms(prec ) = 0.55538E-01
  weight for this iteration     100.00

 eigenvalues of (default mixing * dielectric matrix)
  average eigenvalue GAMMA=   2.2986
  2.2986  2.2986

 Free energy of the ion-electron system (eV)
  ---------------------------------------------------
  alpha Z        PSCENC =         3.29317992
  Ewald energy   TEWEN  =      -226.94489173
  -1/2 Hartree   DENC   =       -16.24637602
  -exchange  EXHF       =         0.00000000
  -V(xc)+E(xc)   XCENC  =       -19.47995540
  PAW double counting   =       570.76950718     -534.31936955
  entropy T*S    EENTRO =        -0.00107571
  eigenvalues    EBANDS =         6.56702073
  atomic energy  EATOM  =       208.59447219
  ---------------------------------------------------
  free energy    TOTEN  =        -7.76748840 eV

  energy without entropy =       -7.76641268  energy(sigma->0) =       -7.76695054


--------------------------------------------------------------------------------------------------------




----------------------------------------- Iteration    1(   8)  ---------------------------------------


    POTLOK:  cpu time    1.80: real time    1.82
    SETDIJ:  cpu time    0.00: real time    0.00
     EDDAV:  cpu time    0.03: real time    0.03
       DOS:  cpu time    0.00: real time    0.00
    CHARGE:  cpu time    0.01: real time    0.01
    MIXING:  cpu time    0.00: real time    0.00
    --------------------------------------------
      LOOP:  cpu time    1.85: real time    2.79

 eigenvalue-minimisations  :    80
 total energy-change (2. order) : 0.1877682E-01  (-0.7633103E-03)
 number of electron       8.0000000 magnetization 
 augmentation part       -0.4548707 magnetization 

 Broyden mixing:
  rms(total) = 0.10752E-01    rms(broyden)= 0.10752E-01
  rms(prec ) = 0.27922E-01
  weight for this iteration     100.00

 eigenvalues of (default mixing * dielectric matrix)
  average eigenvalue GAMMA=   2.1126
  2.8278  1.7550  1.7550

 Free energy of the ion-electron system (eV)
  ---------------------------------------------------
  alpha Z        PSCENC =         3.29317992
  Ewald energy   TEWEN  =      -226.94489173
  -1/2 Hartree   DENC   =       -15.97339040
  -exchange  EXHF       =         0.00000000
  -V(xc)+E(xc)   XCENC  =       -19.49871478
  PAW double counting   =       554.46980722     -517.94360240
  entropy T*S    EENTRO =        -0.00072064
  eigenvalues    EBANDS =         6.25514905
  atomic energy  EATOM  =       208.59447219
  ---------------------------------------------------
  free energy    TOTEN  =        -7.74871157 eV

  energy without entropy =       -7.74799094  energy(sigma->0) =       -7.74835126


--------------------------------------------------------------------------------------------------------




----------------------------------------- Iteration    1(   9)  ---------------------------------------


    POTLOK:  cpu time    1.65: real time    1.66
    SETDIJ:  cpu time    0.00: real time    0.00
     EDDAV:  cpu time    0.03: real time    0.03
       DOS:  cpu time    0.00: real time    0.00
    CHARGE:  cpu time    0.01: real time    0.01
    MIXING:  cpu time    0.00: real time    0.00
    --------------------------------------------
      LOOP:  cpu time    1.70: real time    2.77

 eigenvalue-minimisations  :    96
 total energy-change (2. order) :-0.1847727E-02  (-0.9097509E-04)
 number of electron       8.0000000 magnetization 
 augmentation part       -0.4544256 magnetization 

 Broyden mixing:
  rms(total) = 0.78271E-02    rms(broyden)= 0.78271E-02
  rms(prec ) = 0.95364E-02
  weight for this iteration     100.00

 eigenvalues of (default mixing * dielectric matrix)
  average eigenvalue GAMMA=   2.4380
  3.8929  0.9475  2.4558  2.4558

 Free energy of the ion-electron system (eV)
  ---------------------------------------------------
  alpha Z        PSCENC =         3.29317992
  Ewald energy   TEWEN  =      -226.94489173
  -1/2 Hartree   DENC   =       -16.15423851
  -exchange  EXHF       =         0.00000000
  -V(xc)+E(xc)   XCENC  =       -19.47006553
  PAW double counting   =       562.82338207     -526.30788765
  entropy T*S    EENTRO =        -0.00080257
  eigenvalues    EBANDS =         6.41629251
  atomic energy  EATOM  =       208.59447219
  ---------------------------------------------------
  free energy    TOTEN  =        -7.75055930 eV

  energy without entropy =       -7.74975673  energy(sigma->0) =       -7.75015801


--------------------------------------------------------------------------------------------------------




----------------------------------------- Iteration    1(  10)  ---------------------------------------


    POTLOK:  cpu time    1.64: real time    1.65
    SETDIJ:  cpu time    0.00: real time    0.00
     EDDAV:  cpu time    0.02: real time    0.02
       DOS:  cpu time    0.00: real time    0.00
    CHARGE:  cpu time    0.01: real time    0.01
    MIXING:  cpu time    0.00: real time    0.00
    --------------------------------------------
      LOOP:  cpu time    1.69: real time    2.23

 eigenvalue-minimisations  :    72
 total energy-change (2. order) : 0.7099004E-03  (-0.5079998E-05)
 number of electron       8.0000000 magnetization 
 augmentation part       -0.4544888 magnetization 

 Broyden mixing:
  rms(total) = 0.31216E-02    rms(broyden)= 0.31216E-02
  rms(prec ) = 0.32005E-02
  weight for this iteration     100.00

 eigenvalues of (default mixing * dielectric matrix)
  average eigenvalue GAMMA=   1.8995
  2.8941  2.3449  2.2099  1.0242  1.0242

 Free energy of the ion-electron system (eV)
  ---------------------------------------------------
  alpha Z        PSCENC =         3.29317992
  Ewald energy   TEWEN  =      -226.94489173
  -1/2 Hartree   DENC   =       -16.12897749
  -exchange  EXHF       =         0.00000000
  -V(xc)+E(xc)   XCENC  =       -19.47494900
  PAW double counting   =       545.79579997     -509.27772612
  entropy T*S    EENTRO =        -0.00077770
  eigenvalues    EBANDS =         6.39402057
  atomic energy  EATOM  =       208.59447219
  ---------------------------------------------------
  free energy    TOTEN  =        -7.74984940 eV

  energy without entropy =       -7.74907171  energy(sigma->0) =       -7.74946055


--------------------------------------------------------------------------------------------------------




----------------------------------------- Iteration    1(  11)  ---------------------------------------


    POTLOK:  cpu time    1.65: real time    1.65
    SETDIJ:  cpu time    0.00: real time    0.00
     EDDAV:  cpu time    0.04: real time    0.04
       DOS:  cpu time    0.00: real time    0.00
    CHARGE:  cpu time    0.01: real time    0.01
    MIXING:  cpu time    0.00: real time    0.00
    --------------------------------------------
      LOOP:  cpu time    1.70: real time    4.10

 eigenvalue-minimisations  :   112
 total energy-change (2. order) : 0.9486375E-04  (-0.1242773E-06)
 number of electron       8.0000000 magnetization 
 augmentation part       -0.4545081 magnetization 

 Broyden mixing:
  rms(total) = 0.13256E-03    rms(broyden)= 0.13256E-03
  rms(prec ) = 0.27996E-03
  weight for this iteration     100.00

 eigenvalues of (default mixing * dielectric matrix)
  average eigenvalue GAMMA=   2.0600
  3.0331  2.5789  2.5789  2.2140  0.9912  0.9642

 Free energy of the ion-electron system (eV)
  ---------------------------------------------------
  alpha Z        PSCENC =         3.29317992
  Ewald energy   TEWEN  =      -226.94489173
  -1/2 Hartree   DENC   =       -16.13097984
  -exchange  EXHF       =         0.00000000
  -V(xc)+E(xc)   XCENC  =       -19.47404814
  PAW double counting   =       550.34833074     -513.82982329
  entropy T*S    EENTRO =        -0.00077917
  eigenvalues    EBANDS =         6.39478479
  atomic energy  EATOM  =       208.59447219
  ---------------------------------------------------
  free energy    TOTEN  =        -7.74975454 eV

  energy without entropy =       -7.74897537  energy(sigma->0) =       -7.74936495


--------------------------------------------------------------------------------------------------------




----------------------------------------- Iteration    1(  12)  ---------------------------------------


    POTLOK:  cpu time    1.51: real time    1.51
    SETDIJ:  cpu time    0.00: real time    0.00
     EDDAV:  cpu time    0.02: real time    0.02
       DOS:  cpu time    0.00: real time    0.00
    CHARGE:  cpu time    0.01: real time    0.01
    MIXING:  cpu time    0.00: real time    0.00
    --------------------------------------------
      LOOP:  cpu time    1.54: real time    3.19

 eigenvalue-minimisations  :    64
 total energy-change (2. order) :-0.5250680E-05  (-0.8191531E-08)
 number of electron       8.0000000 magnetization 
 augmentation part       -0.4545090 magnetization 

 Broyden mixing:
  rms(total) = 0.28355E-04    rms(broyden)= 0.28355E-04
  rms(prec ) = 0.69101E-04
  weight for this iteration     100.00

 eigenvalues of (default mixing * dielectric matrix)
  average eigenvalue GAMMA=   1.9142
  2.9703  2.7448  2.4387  2.1833  1.1244  0.9851  0.9527

 Free energy of the ion-electron system (eV)
  ---------------------------------------------------
  alpha Z        PSCENC =         3.29317992
  Ewald energy   TEWEN  =      -226.94489173
  -1/2 Hartree   DENC   =       -16.13068523
  -exchange  EXHF       =         0.00000000
  -V(xc)+E(xc)   XCENC  =       -19.47414423
  PAW double counting   =       550.44926787     -513.93074972
  entropy T*S    EENTRO =        -0.00077853
  eigenvalues    EBANDS =         6.39456969
  atomic energy  EATOM  =       208.59447219
  ---------------------------------------------------
  free energy    TOTEN  =        -7.74975979 eV

  energy without entropy =       -7.74898126  energy(sigma->0) =       -7.74937052


--------------------------------------------------------------------------------------------------------




----------------------------------------- Iteration    1(  13)  ---------------------------------------


    POTLOK:  cpu time    1.50: real time    1.50
    SETDIJ:  cpu time    0.00: real time    0.00
     EDDAV:  cpu time    0.02: real time    0.03
       DOS:  cpu time    0.00: real time    0.00
    CHARGE:  cpu time    0.01: real time    0.01
    MIXING:  cpu time    0.00: real time    0.00
    --------------------------------------------
      LOOP:  cpu time    1.55: real time    2.04

 eigenvalue-minimisations  :    80
 total energy-change (2. order) :-0.1778600E-05  (-0.3816823E-09)
 number of electron       8.0000000 magnetization 
 augmentation part       -0.4545097 magnetization 

 Broyden mixing:
  rms(total) = 0.87824E-05    rms(broyden)= 0.87823E-05
  rms(prec ) = 0.95581E-05
  weight for this iteration     100.00

 eigenvalues of (default mixing * dielectric matrix)
  average eigenvalue GAMMA=   1.9624
  3.0267  2.8167  2.5038  2.2460  2.1339  1.0294  0.9764  0.9662

 Free energy of the ion-electron system (eV)
  ---------------------------------------------------
  alpha Z        PSCENC =         3.29317992
  Ewald energy   TEWEN  =      -226.94489173
  -1/2 Hartree   DENC   =       -16.13040663
  -exchange  EXHF       =         0.00000000
  -V(xc)+E(xc)   XCENC  =       -19.47420416
  PAW double counting   =       550.42834196     -513.90982138
  entropy T*S    EENTRO =        -0.00077835
  eigenvalues    EBANDS =         6.39434662
  atomic energy  EATOM  =       208.59447219
  ---------------------------------------------------
  free energy    TOTEN  =        -7.74976157 eV

  energy without entropy =       -7.74898321  energy(sigma->0) =       -7.74937239


--------------------------------------------------------------------------------------------------------




----------------------------------------- Iteration    1(  14)  ---------------------------------------


    POTLOK:  cpu time    1.52: real time    1.52
    SETDIJ:  cpu time    0.00: real time    0.00
     EDDAV:  cpu time    0.02: real time    0.02
       DOS:  cpu time    0.00: real time    0.00
    CHARGE:  cpu time    0.01: real time    0.01
    MIXING:  cpu time    0.00: real time    0.00
    --------------------------------------------
      LOOP:  cpu time    1.55: real time    2.12

 eigenvalue-minimisations  :    48
 total energy-change (2. order) : 0.5359263E-06  (-0.1651437E-10)
 number of electron       8.0000000 magnetization 
 augmentation part       -0.4545097 magnetization 

 Broyden mixing:
  rms(total) = 0.11276E-05    rms(broyden)= 0.11276E-05
  rms(prec ) = 0.15481E-05
  weight for this iteration     100.00

 eigenvalues of (default mixing * dielectric matrix)
  average eigenvalue GAMMA=   1.9207
  2.9639  2.9639  2.6572  2.5132  2.1974  0.9668  0.9911  1.0162  1.0162

 Free energy of the ion-electron system (eV)
  ---------------------------------------------------
  alpha Z        PSCENC =         3.29317992
  Ewald energy   TEWEN  =      -226.94489173
  -1/2 Hartree   DENC   =       -16.13042463
  -exchange  EXHF       =         0.00000000
  -V(xc)+E(xc)   XCENC  =       -19.47420055
  PAW double counting   =       550.43897050     -513.92044812
  entropy T*S    EENTRO =        -0.00077836
  eigenvalues    EBANDS =         6.39435974
  atomic energy  EATOM  =       208.59447219
  ---------------------------------------------------
  free energy    TOTEN  =        -7.74976103 eV

  energy without entropy =       -7.74898267  energy(sigma->0) =       -7.74937185


--------------------------------------------------------------------------------------------------------




----------------------------------------- Iteration    1(  15)  ---------------------------------------


    POTLOK:  cpu time    1.75: real time    1.75
    SETDIJ:  cpu time    0.00: real time    0.00
     EDDAV:  cpu time    0.02: real time    0.02
       DOS:  cpu time    0.00: real time    0.00
    CHARGE:  cpu time    0.01: real time    0.01
    MIXING:  cpu time    0.00: real time    0.00
    --------------------------------------------
      LOOP:  cpu time    1.79: real time    3.05

 eigenvalue-minimisations  :    56
 total energy-change (2. order) : 0.4860365E-06  (-0.2103743E-11)
 number of electron       8.0000000 magnetization 
 augmentation part       -0.4545097 magnetization 

 Broyden mixing:
  rms(total) = 0.55489E-06    rms(broyden)= 0.55489E-06
  rms(prec ) = 0.61887E-06
  weight for this iteration     100.00

 eigenvalues of (default mixing * dielectric matrix)
  average eigenvalue GAMMA=   1.8799
  3.0507  2.8825  2.6999  2.4815  2.2077  1.5934  1.0252  0.9821  0.9702  0.9057

 Free energy of the ion-electron system (eV)
  ---------------------------------------------------
  alpha Z        PSCENC =         3.29317992
  Ewald energy   TEWEN  =      -226.94489173
  -1/2 Hartree   DENC   =       -16.13041900
  -exchange  EXHF       =         0.00000000
  -V(xc)+E(xc)   XCENC  =       -19.47420093
  PAW double counting   =       550.43816710     -513.91964304
  entropy T*S    EENTRO =        -0.00077835
  eigenvalues    EBANDS =         6.39435331
  atomic energy  EATOM  =       208.59447219
  ---------------------------------------------------
  free energy    TOTEN  =        -7.74976054 eV

  energy without entropy =       -7.74898219  energy(sigma->0) =       -7.74937137


--------------------------------------------------------------------------------------------------------




----------------------------------------- Iteration    1(  16)  ---------------------------------------


    POTLOK:  cpu time    1.56: real time    1.57
    SETDIJ:  cpu time    0.00: real time    0.00
     EDDAV:  cpu time    0.02: real time    0.02
       DOS:  cpu time    0.00: real time    0.00
    CHARGE:  cpu time    0.01: real time    0.01
    MIXING:  cpu time    0.00: real time    0.00
    --------------------------------------------
      LOOP:  cpu time    1.60: real time    4.19

 eigenvalue-minimisations  :    40
 total energy-change (2. order) :-0.1455115E-06  (-0.5396817E-12)
 number of electron       8.0000000 magnetization 
 augmentation part       -0.4545097 magnetization 

 Broyden mixing:
  rms(total) = 0.15675E-06    rms(broyden)= 0.15675E-06
  rms(prec ) = 0.25320E-06
  weight for this iteration     100.00

 eigenvalues of (default mixing * dielectric matrix)
  average eigenvalue GAMMA=   1.8039
  3.0541  2.9366  2.7359  2.4899  2.2099  1.9239  1.0242  0.9762  0.9747  0.8585
  0.6588

 Free energy of the ion-electron system (eV)
  ---------------------------------------------------
  alpha Z        PSCENC =         3.29317992
  Ewald energy   TEWEN  =      -226.94489173
  -1/2 Hartree   DENC   =       -16.13042135
  -exchange  EXHF       =         0.00000000
  -V(xc)+E(xc)   XCENC  =       -19.47420074
  PAW double counting   =       550.43795500     -513.91943149
  entropy T*S    EENTRO =        -0.00077835
  eigenvalues    EBANDS =         6.39435587
  atomic energy  EATOM  =       208.59447219
  ---------------------------------------------------
  free energy    TOTEN  =        -7.74976069 eV

  energy without entropy =       -7.74898234  energy(sigma->0) =       -7.74937151


--------------------------------------------------------------------------------------------------------




----------------------------------------- Iteration    1(  17)  ---------------------------------------


    POTLOK:  cpu time    1.64: real time    1.74
    SETDIJ:  cpu time    0.00: real time    0.00
     EDDAV:  cpu time    0.01: real time    0.01
       DOS:  cpu time    0.00: real time    0.00
    --------------------------------------------
      LOOP:  cpu time    1.66: real time    2.36

 eigenvalue-minimisations  :    32
 total energy-change (2. order) :-0.1395165E-08  (-0.1346232E-12)
 number of electron       8.0000000 magnetization 
 augmentation part       -0.4545097 magnetization 

 Free energy of the ion-electron system (eV)
  ---------------------------------------------------
  alpha Z        PSCENC =         3.29317992
  Ewald energy   TEWEN  =      -226.94489173
  -1/2 Hartree   DENC   =       -16.13042019
  -exchange  EXHF       =         0.00000000
  -V(xc)+E(xc)   XCENC  =       -19.47420088
  PAW double counting   =       550.43776208     -513.91923857
  entropy T*S    EENTRO =        -0.00077835
  eigenvalues    EBANDS =         6.39435485
  atomic energy  EATOM  =       208.59447219
  ---------------------------------------------------
  free energy    TOTEN  =        -7.74976069 eV

  energy without entropy =       -7.74898234  energy(sigma->0) =       -7.74937151


--------------------------------------------------------------------------------------------------------




 average (electrostatic) potential at core
  the test charge radii are     0.9892
  (the norm of the test charge is              1.0000)
       1 -83.6113       2 -83.6113
 
 
 
 E-fermi :   6.0683     XC(G=0):  -9.2651     alpha+bet :-11.7317


 k-point   1 :       0.0000    0.0000    0.0000
  band No.  band energies     occupation 
      1      -6.0676      2.00000
      2       5.6937      1.99191
      3       5.6937      1.99191
      4       5.6937      1.99191
      5       8.2802      0.00000
      6       8.2802      0.00000
      7       8.2802      0.00000
      8       8.9382      0.00000

 k-point   2 :       0.3333    0.0000    0.0000
  band No.  band energies     occupation 
      1      -4.7164      2.00000
      2       0.4600      2.00000
      3       4.7209      2.00000
      4       4.7209      2.00000
      5       7.4410      0.00000
      6       9.2156      0.00000
      7       9.2156      0.00000
      8      13.4974      0.00000

 k-point   3 :       0.3333    0.3333    0.0000
  band No.  band energies     occupation 
      1      -4.1974      2.00000
      2       0.7541      2.00000
      3       3.3405      2.00000
      4       3.3405      2.00000
      5       6.4748      0.00404
      6       7.7305      0.00000
      7      12.8797      0.00000
      8      12.8797      0.00000

 k-point   4 :      -0.3333    0.3333    0.0000
  band No.  band energies     occupation 
      1      -2.8672      2.00000
      2      -0.9691      2.00000
      3       1.3974      2.00000
      4       3.6382      2.00000
      5       7.3026      0.00000
      6      11.4622      0.00000
      7      12.1323      0.00000
      8      12.6841      0.00000


--------------------------------------------------------------------------------------------------------


 soft charge-density along one line, spin component           1
         0         1         2         3         4         5         6         7         8         9
 total charge-density along one line
 
 pseudopotential strength for first ion, spin component:           1
 18.516  25.828   0.000   0.000   0.000   0.000   0.000   0.000
 25.828  36.033   0.000   0.000   0.000   0.000   0.000   0.000
  0.000   0.000   4.198   0.000   0.000   7.814   0.000   0.000
  0.000   0.000   0.000   4.198   0.000   0.000   7.814   0.000
  0.000   0.000   0.000   0.000   4.198   0.000   0.000   7.814
  0.000   0.000   7.814   0.000   0.000  14.557   0.000   0.000
  0.000   0.000   0.000   7.814   0.000   0.000  14.557   0.000
  0.000   0.000   0.000   0.000   7.814   0.000   0.000  14.557
 total augmentation occupancy for first ion, spin component:           1
  3.263  -0.925   0.000   0.000   0.000   0.000   0.000   0.000
 -0.925   0.389   0.000   0.000   0.000   0.000   0.000   0.000
  0.000   0.000   2.303   0.000   0.000  -0.406   0.000   0.000
  0.000   0.000   0.000   2.303   0.000   0.000  -0.406   0.000
  0.000   0.000   0.000   0.000   2.303   0.000   0.000  -0.406
  0.000   0.000  -0.406   0.000   0.000   0.085   0.000   0.000
  0.000   0.000   0.000  -0.406   0.000   0.000   0.085   0.000
  0.000   0.000   0.000   0.000  -0.406   0.000   0.000   0.085


------------------------ aborting loop because EDIFF is reached ----------------------------------------


    CHARGE:  cpu time    0.02: real time    0.02
    FORLOC:  cpu time    0.00: real time    0.00
    FORNL :  cpu time    0.01: real time    0.01
    STRESS:  cpu time    0.04: real time    0.04
    FORCOR:  cpu time    1.52: real time    1.52
    FORHAR:  cpu time    0.00: real time    0.01
    MIXING:  cpu time    0.00: real time    0.00

  FORCE on cell =-STRESS in cart. coord.  units (eV):
  Direction    XX          YY          ZZ          XY          YZ          ZX
  --------------------------------------------------------------------------------------
  Alpha Z     3.29318     3.29318     3.29318
  Ewald     -75.64832   -75.64835   -75.64832    -0.00001     0.00001     0.00001
  Hartree     5.37681     5.37681     5.37681     0.00000     0.00000     0.00000
  E(xc)     -25.49503   -25.49503   -25.49503     0.00000     0.00000     0.00000
  Local     -29.94112   -29.94112   -29.94113     0.00001     0.00000     0.00000
  n-local    72.39599    76.73268    81.96993    -0.87360     0.00000     0.00000
  augment   -11.63529   -11.63529   -11.63529     0.00000     0.00000     0.00000
  Kinetic    52.26303    57.04687    63.96723     0.56114     0.00000     0.00000
  Fock        0.00000     0.00000     0.00000     0.00000     0.00000     0.00000
  -------------------------------------------------------------------------------------
  Total       0.74212     0.74212     0.74212     0.00000     0.00000     0.00000
  in kB      29.07952    29.07953    29.07953     0.00000     0.00000     0.00000
  external pressure =       29.08 kB  Pullay stress =        0.00 kB


 VOLUME and BASIS-vectors are now :
 -----------------------------------------------------------------------------
  energy-cutoff  :      700.00
  volume of cell :       40.89
      direct lattice vectors                 reciprocal lattice vectors
     3.348898000  0.000000000  1.933487000     0.298605691 -0.105573000  0.000000000
     1.116299000  3.157372000  1.933487000     0.000000000  0.316719094  0.000000000
     0.000000000  0.000000000  3.866975000    -0.149302807 -0.105573020  0.258600069

  length of vectors
     3.866974243  3.866974707  3.866975000     0.316719145  0.316719094  0.316719096


 FORCES acting on ions
    electron-ion (+dipol)            ewald-force                    non-local-force                 convergence-correction
 -----------------------------------------------------------------------------------------------
   -.394E-05 0.721E-05 0.879E-05   0.634E-05 -.116E-04 -.142E-04   -.208E-15 -.902E-16 -.167E-15   -.119E-12 0.188E-12 0.219E-12
   0.394E-05 -.721E-05 -.879E-05   -.634E-05 0.116E-04 0.142E-04   0.215E-15 0.902E-16 0.111E-15   0.117E-12 -.188E-12 -.220E-12
 -----------------------------------------------------------------------------------------------
   0.160E-12 -.638E-13 0.745E-13   -.469E-16 0.276E-16 -.294E-16   0.694E-17 0.000E+00 -.555E-16   -.161E-14 0.814E-16 -.574E-15
 
 
 POSITION                                       TOTAL-FORCE (eV/Angst)
 -----------------------------------------------------------------------------------
      3.90705      2.76270      6.76721         0.000000      0.000000      0.000000
      0.55815      0.39467      0.96674         0.000000      0.000000      0.000000
 -----------------------------------------------------------------------------------
    total drift:                                0.000000      0.000000      0.000000


--------------------------------------------------------------------------------------------------------



  FREE ENERGIE OF THE ION-ELECTRON SYSTEM (eV)
  ---------------------------------------------------
  free  energy   TOTEN  =        -7.74976069 eV

  energy  without entropy=       -7.74898234  energy(sigma->0) =       -7.74937151
 


--------------------------------------------------------------------------------------------------------


    POTLOK:  cpu time    1.54: real time    2.15


--------------------------------------------------------------------------------------------------------




--------------------------------------------------------------------------------------------------------


  
 reached required accuracy - stopping structural energy minimisation
     LOOP+:  cpu time   27.63: real time   58.15
    4ORBIT:  cpu time    0.00: real time    0.00

 total amount of memory used by VASP on root node    33140. kBytes
========================================================================

   base      :      30000. kBytes
   nonl-proj :        126. kBytes
   fftplans  :       1216. kBytes
   grid      :       1738. kBytes
   one-center:          3. kBytes
   wavefun   :         57. kBytes
 
  
  
 General timing and accounting informations for this job:
 ========================================================
  
                  Total CPU time used (sec):       28.078
                            User time (sec):       27.694
                          System time (sec):        0.384
                         Elapsed time (sec):       83.225
  
                   Maximum memory used (kb):      112344.
                   Average memory used (kb):           0.
  
                          Minor page faults:       109019
                          Major page faults:            5
                 Voluntary context switches:         1570
