 running on   16 total cores
 distrk:  each k-point on   16 cores,    1 groups
 distr:  one band on    4 cores,    4 groups
 using from now: INCAR     
 vasp.5.3.3 18Dez12 (build Jan 30 2013 10:57:47) complex                        
  
 POSCAR found type information on POSCAR  Si
 POSCAR found :  1 types and       2 ions

 ----------------------------------------------------------------------------- 
|                                                                             |
|  ADVICE TO THIS USER RUNNING 'VASP/VAMP'   (HEAR YOUR MASTER'S VOICE ...):  |
|                                                                             |
|      You have switched on vdW-DFT.                                          |
|      This routine was written and supplied by Jiri Klimes.                  |
|      We recommed that you carefully read and cite the following             |
|      publication                                                            |
|      J. Klimes, D.R. Bowler, A. Michelides                                  |
|        J. Phys.: Cond Matt. 22 022201 (2010)                                |
|      J. Klimes, D.R. Bowler, A. Michelides                                  |
|        Phys. Rev. B. 83, 195131 (2011)                                      |
|      and references therein.                                                |
|                                                                             |
 ----------------------------------------------------------------------------- 


 ----------------------------------------------------------------------------- 
|                                                                             |
|  ADVICE TO THIS USER RUNNING 'VASP/VAMP'   (HEAR YOUR MASTER'S VOICE ...):  |
|                                                                             |
|      You enforced a specific xc-type in the INCAR file,                     |
|      a different type was found on the POTCAR file                          |
|          I HOPE YOU KNOW, WHAT YOU ARE  DOING                               |
|                                                                             |
 ----------------------------------------------------------------------------- 

 LDA part: xc-table for Pade appr. of Perdew
 POSCAR, INCAR and KPOINTS ok, starting setup
 FFT: planning ...
 WAVECAR not read
 entering main loop
       N       E                     dE             d eps       ncg     rms          rms(c)
Total vdW correction in eV:      1.0792472
DAV:   1     0.119723966229E+02    0.11972E+02   -0.39007E+03    64   0.103E+03
DAV:   2    -0.755099870960E+01   -0.19523E+02   -0.19518E+02   104   0.858E+01
DAV:   3    -0.787489278880E+01   -0.32389E+00   -0.32389E+00    96   0.143E+01
DAV:   4    -0.787533680027E+01   -0.44401E-03   -0.44401E-03    80   0.549E-01
DAV:   5    -0.787533893438E+01   -0.21341E-05   -0.21339E-05    88   0.302E-02    0.400E+00
Total vdW correction in eV:      1.1365139
DAV:   6    -0.778933746923E+01    0.86001E-01   -0.11274E-01    80   0.198E+00    0.247E+00
Total vdW correction in eV:      1.2497743
DAV:   7    -0.776748839656E+01    0.21849E-01   -0.26777E-01    80   0.303E+00    0.214E-01
Total vdW correction in eV:      1.2452208
DAV:   8    -0.774871157365E+01    0.18777E-01   -0.76331E-03    80   0.622E-01    0.108E-01
Total vdW correction in eV:      1.2527034
DAV:   9    -0.775055930081E+01   -0.18477E-02   -0.90975E-04    96   0.203E-01    0.783E-02
Total vdW correction in eV:      1.2526222
DAV:  10    -0.774984940043E+01    0.70990E-03   -0.50800E-05    72   0.597E-02    0.312E-02
Total vdW correction in eV:      1.2525641
DAV:  11    -0.774975453668E+01    0.94864E-04   -0.12428E-06   112   0.100E-02    0.133E-03
Total vdW correction in eV:      1.2525952
DAV:  12    -0.774975978736E+01   -0.52507E-05   -0.81915E-08    64   0.286E-03    0.284E-04
Total vdW correction in eV:      1.2525899
DAV:  13    -0.774976156596E+01   -0.17786E-05   -0.38168E-09    80   0.599E-04    0.878E-05
Total vdW correction in eV:      1.2525906
DAV:  14    -0.774976103003E+01    0.53593E-06   -0.16514E-10    48   0.116E-04    0.113E-05
Total vdW correction in eV:      1.2525904
DAV:  15    -0.774976054400E+01    0.48604E-06   -0.21037E-11    56   0.356E-05    0.555E-06
Total vdW correction in eV:      1.2525905
DAV:  16    -0.774976068951E+01   -0.14551E-06   -0.53968E-12    40   0.120E-05    0.157E-06
Total vdW correction in eV:      1.2525904
DAV:  17    -0.774976069090E+01   -0.13952E-08   -0.13462E-12    32   0.579E-06
Total vdW correction in eV:      1.2525905
Total vdW correction in eV:      1.2525905
   1 F= -.77497607E+01 E0= -.77493715E+01  d E =-.774976E+01
 curvature:   0.00 expect dE= 0.000E+00 dE for cont linesearch  0.000E+00
 trial: gam= 0.00000 g(F)=  0.137E-43 g(S)=  0.000E+00 ort = 0.000E+00 (trialstep = 0.100E+01)
 search vector abs. value=  0.100E-09
 reached required accuracy - stopping structural energy minimisation
