LAMMPS data file via write_data, version 13 Jan 2016, timestep = 1022

720 atoms
1 atom types

1.6286637270402865e-01 2.0087133465295981e+01 xlo xhi
2.0020935972712051e-01 2.9004755737272866e+01 ylo yhi
-5.7367802841530188e-02 4.7234619112841521e+01 zlo zhi
0.0000000000000000e+00 0.0000000000000000e+00 0.0000000000000000e+00 xy xz yz

Masses

1 26.982

Atoms # charge

1 1 0.0000000000000000e+00 2.0087133465197894e+01 2.3432552822003167e+01 1.5720785887209244e+01 -1 0 0
2 1 0.0000000000000000e+00 2.0087133465197848e+01 9.0302796332303217e+00 1.5720785887209265e+01 -1 0 0
3 1 0.0000000000000000e+00 4.1477197911243042e+00 2.3432552822003199e+01 1.5720785887209230e+01 0 0 0
4 1 0.0000000000000000e+00 4.1477197911243096e+00 9.0302796332303021e+00 1.5720785887209269e+01 0 0 0
5 1 0.0000000000000000e+00 8.1325732096427217e+00 2.3432552822003156e+01 1.5720785887209244e+01 0 0 0
6 1 0.0000000000000000e+00 8.1325732096426790e+00 9.0302796332303306e+00 1.5720785887209260e+01 0 0 0
7 1 0.0000000000000000e+00 1.2117426628161097e+01 2.3432552822003199e+01 1.5720785887209232e+01 0 0 0
8 1 0.0000000000000000e+00 1.2117426628161084e+01 9.0302796332303075e+00 1.5720785887209269e+01 0 0 0
9 1 0.0000000000000000e+00 1.6102280046679489e+01 2.3432552822003171e+01 1.5720785887209239e+01 0 0 0
10 1 0.0000000000000000e+00 1.6102280046679475e+01 9.0302796332303181e+00 1.5720785887209269e+01 0 0 0
11 1 0.0000000000000000e+00 2.0087133465197706e+01 2.0168925037090098e+01 1.3636655893223338e+01 -1 0 0
12 1 0.0000000000000000e+00 2.0087133465197713e+01 5.7666518483172355e+00 1.3636655893223361e+01 -1 0 0
13 1 0.0000000000000000e+00 4.1477197911241506e+00 2.0168925037090091e+01 1.3636655893223342e+01 0 0 0
14 1 0.0000000000000000e+00 4.1477197911241399e+00 5.7666518483172426e+00 1.3636655893223358e+01 0 0 0
15 1 0.0000000000000000e+00 8.1325732096425352e+00 2.0168925037090098e+01 1.3636655893223333e+01 0 0 0
16 1 0.0000000000000000e+00 8.1325732096425423e+00 5.7666518483172355e+00 1.3636655893223361e+01 0 0 0
17 1 0.0000000000000000e+00 1.2117426628160935e+01 2.0168925037090094e+01 1.3636655893223340e+01 0 0 0
18 1 0.0000000000000000e+00 1.2117426628160933e+01 5.7666518483172418e+00 1.3636655893223361e+01 0 0 0
19 1 0.0000000000000000e+00 1.6102280046679322e+01 2.0168925037090094e+01 1.3636655893223342e+01 0 0 0
20 1 0.0000000000000000e+00 1.6102280046679319e+01 5.7666518483172364e+00 1.3636655893223361e+01 0 0 0
21 1 0.0000000000000000e+00 2.0087133465197702e+01 2.8981352283999886e+01 1.4619321392183442e+01 -1 0 0
22 1 0.0000000000000000e+00 2.0087133465197681e+01 1.4579079095227002e+01 1.4619321392183448e+01 -1 0 0
23 1 0.0000000000000000e+00 4.1477197911241275e+00 2.8981352283999897e+01 1.4619321392183434e+01 0 0 0
24 1 0.0000000000000000e+00 4.1477197911241239e+00 1.4579079095226996e+01 1.4619321392183453e+01 0 0 0
25 1 0.0000000000000000e+00 8.1325732096425298e+00 2.8981352283999879e+01 1.4619321392183439e+01 0 0 0
26 1 0.0000000000000000e+00 8.1325732096425085e+00 1.4579079095227010e+01 1.4619321392183448e+01 0 0 0
27 1 0.0000000000000000e+00 1.2117426628160915e+01 2.8981352283999897e+01 1.4619321392183437e+01 0 0 0
28 1 0.0000000000000000e+00 1.2117426628160908e+01 1.4579079095226998e+01 1.4619321392183450e+01 0 0 0
29 1 0.0000000000000000e+00 1.6102280046679304e+01 2.8981352283999890e+01 1.4619321392183439e+01 0 0 0
30 1 0.0000000000000000e+00 1.6102280046679294e+01 1.4579079095227000e+01 1.4619321392183453e+01 0 0 0
31 1 0.0000000000000000e+00 2.1552930818646332e+00 2.1785486238711005e+01 1.4638766992989728e+01 0 0 0
32 1 0.0000000000000000e+00 2.1552930818646501e+00 7.3832130499381012e+00 1.4638766992989741e+01 0 0 0
33 1 0.0000000000000000e+00 6.1401465003830431e+00 2.1785486238710988e+01 1.4638766992989726e+01 0 0 0
34 1 0.0000000000000000e+00 6.1401465003830316e+00 7.3832130499381252e+00 1.4638766992989741e+01 0 0 0
35 1 0.0000000000000000e+00 1.0124999918901414e+01 2.1785486238711002e+01 1.4638766992989726e+01 0 0 0
36 1 0.0000000000000000e+00 1.0124999918901436e+01 7.3832130499381101e+00 1.4638766992989739e+01 0 0 0
37 1 0.0000000000000000e+00 1.4109853337419821e+01 2.1785486238710998e+01 1.4638766992989726e+01 0 0 0
38 1 0.0000000000000000e+00 1.4109853337419821e+01 7.3832130499381119e+00 1.4638766992989741e+01 0 0 0
39 1 0.0000000000000000e+00 1.8094706755938205e+01 2.1785486238710995e+01 1.4638766992989730e+01 0 0 0
40 1 0.0000000000000000e+00 1.8094706755938208e+01 7.3832130499381252e+00 1.4638766992989741e+01 0 0 0
41 1 0.0000000000000000e+00 2.1552930818645994e+00 1.8573835464946979e+00 1.5675040388329361e+01 0 0 0
42 1 0.0000000000000000e+00 2.1552930818646043e+00 1.6259656735267605e+01 1.5675040388329364e+01 0 0 0
43 1 0.0000000000000000e+00 6.1401465003829667e+00 1.8573835464947286e+00 1.5675040388329350e+01 0 0 0
44 1 0.0000000000000000e+00 6.1401465003830156e+00 1.6259656735267583e+01 1.5675040388329366e+01 0 0 0
45 1 0.0000000000000000e+00 1.0124999918901382e+01 1.8573835464947055e+00 1.5675040388329355e+01 0 0 0
46 1 0.0000000000000000e+00 1.0124999918901382e+01 1.6259656735267608e+01 1.5675040388329361e+01 0 0 0
47 1 0.0000000000000000e+00 1.4109853337419759e+01 1.8573835464947086e+00 1.5675040388329359e+01 0 0 0
48 1 0.0000000000000000e+00 1.4109853337419791e+01 1.6259656735267587e+01 1.5675040388329370e+01 0 0 0
49 1 0.0000000000000000e+00 1.8094706755938148e+01 1.8573835464947264e+00 1.5675040388329355e+01 0 0 0
50 1 0.0000000000000000e+00 1.8094706755938176e+01 1.6259656735267601e+01 1.5675040388329370e+01 0 0 0
51 1 0.0000000000000000e+00 2.1552930818645741e+00 2.5153289685213984e+01 1.6807044955211925e+01 0 0 0
52 1 0.0000000000000000e+00 2.1552930818645870e+00 1.0751016496441132e+01 1.6807044955211943e+01 0 0 0
53 1 0.0000000000000000e+00 6.1401465003829365e+00 2.5153289685214016e+01 1.6807044955211925e+01 0 0 0
54 1 0.0000000000000000e+00 6.1401465003829934e+00 1.0751016496441103e+01 1.6807044955211939e+01 0 0 0
55 1 0.0000000000000000e+00 1.0124999918901358e+01 2.5153289685213984e+01 1.6807044955211921e+01 0 0 0
56 1 0.0000000000000000e+00 1.0124999918901368e+01 1.0751016496441128e+01 1.6807044955211936e+01 0 0 0
57 1 0.0000000000000000e+00 1.4109853337419732e+01 2.5153289685214006e+01 1.6807044955211925e+01 0 0 0
58 1 0.0000000000000000e+00 1.4109853337419770e+01 1.0751016496441114e+01 1.6807044955211943e+01 0 0 0
59 1 0.0000000000000000e+00 1.8094706755938123e+01 2.5153289685214013e+01 1.6807044955211929e+01 0 0 0
60 1 0.0000000000000000e+00 1.8094706755938159e+01 1.0751016496441112e+01 1.6807044955211939e+01 0 0 0
61 1 0.0000000000000000e+00 2.1552930818647309e+00 2.4487521634813177e+01 1.4150770227520274e+01 0 0 0
62 1 0.0000000000000000e+00 2.1552930818647300e+00 1.0085248446040326e+01 1.4150770227520290e+01 0 0 0
63 1 0.0000000000000000e+00 6.1401465003831079e+00 2.4487521634813181e+01 1.4150770227520265e+01 0 0 0
64 1 0.0000000000000000e+00 6.1401465003831284e+00 1.0085248446040310e+01 1.4150770227520294e+01 0 0 0
65 1 0.0000000000000000e+00 1.0124999918901516e+01 2.4487521634813177e+01 1.4150770227520271e+01 0 0 0
66 1 0.0000000000000000e+00 1.0124999918901516e+01 1.0085248446040323e+01 1.4150770227520292e+01 0 0 0
67 1 0.0000000000000000e+00 1.4109853337419898e+01 2.4487521634813177e+01 1.4150770227520274e+01 0 0 0
68 1 0.0000000000000000e+00 1.4109853337419912e+01 1.0085248446040318e+01 1.4150770227520294e+01 0 0 0
69 1 0.0000000000000000e+00 1.8094706755938283e+01 2.4487521634813177e+01 1.4150770227520265e+01 0 0 0
70 1 0.0000000000000000e+00 1.8094706755938301e+01 1.0085248446040312e+01 1.4150770227520299e+01 0 0 0
71 1 0.0000000000000000e+00 2.1552930818645724e+00 1.9014035613666532e+01 1.5181530208370024e+01 0 0 0
72 1 0.0000000000000000e+00 2.1552930818645382e+00 4.6117624248937155e+00 1.5181530208370015e+01 0 0 0
73 1 0.0000000000000000e+00 6.1401465003829303e+00 1.9014035613666554e+01 1.5181530208370011e+01 0 0 0
74 1 0.0000000000000000e+00 6.1401465003829525e+00 4.6117624248936862e+00 1.5181530208370019e+01 0 0 0
75 1 0.0000000000000000e+00 1.0124999918901358e+01 1.9014035613666529e+01 1.5181530208370019e+01 0 0 0
76 1 0.0000000000000000e+00 1.0124999918901322e+01 4.6117624248937084e+00 1.5181530208370019e+01 0 0 0
77 1 0.0000000000000000e+00 1.4109853337419723e+01 1.9014035613666554e+01 1.5181530208370019e+01 0 0 0
78 1 0.0000000000000000e+00 1.4109853337419727e+01 4.6117624248937075e+00 1.5181530208370019e+01 0 0 0
79 1 0.0000000000000000e+00 1.8094706755938116e+01 1.9014035613666550e+01 1.5181530208370019e+01 0 0 0
80 1 0.0000000000000000e+00 1.8094706755938113e+01 4.6117624248936862e+00 1.5181530208370027e+01 0 0 0
81 1 0.0000000000000000e+00 2.1552930818645861e+00 2.7895515499109734e+01 1.6209522937111888e+01 0 0 0
82 1 0.0000000000000000e+00 2.1552930818646407e+00 1.3493242310336827e+01 1.6209522937111924e+01 0 0 0
83 1 0.0000000000000000e+00 6.1401465003830094e+00 2.7895515499109706e+01 1.6209522937111895e+01 0 0 0
84 1 0.0000000000000000e+00 6.1401465003830111e+00 1.3493242310336852e+01 1.6209522937111913e+01 0 0 0
85 1 0.0000000000000000e+00 1.0124999918901368e+01 2.7895515499109731e+01 1.6209522937111888e+01 0 0 0
86 1 0.0000000000000000e+00 1.0124999918901425e+01 1.3493242310336827e+01 1.6209522937111920e+01 0 0 0
87 1 0.0000000000000000e+00 1.4109853337419786e+01 2.7895515499109717e+01 1.6209522937111895e+01 0 0 0
88 1 0.0000000000000000e+00 1.4109853337419798e+01 1.3493242310336843e+01 1.6209522937111920e+01 0 0 0
89 1 0.0000000000000000e+00 1.8094706755938169e+01 2.7895515499109706e+01 1.6209522937111899e+01 0 0 0
90 1 0.0000000000000000e+00 1.8094706755938194e+01 1.3493242310336841e+01 1.6209522937111920e+01 0 0 0
91 1 0.0000000000000000e+00 2.0087133465197901e+01 2.0703856617268748e+01 1.6285391586311057e+01 -1 0 0
92 1 0.0000000000000000e+00 2.0087133465197912e+01 6.3015834284958370e+00 1.6285391586311047e+01 -1 0 0
93 1 0.0000000000000000e+00 4.1477197911243495e+00 2.0703856617268713e+01 1.6285391586311054e+01 0 0 0
94 1 0.0000000000000000e+00 4.1477197911243273e+00 6.3015834284958636e+00 1.6285391586311039e+01 0 0 0
95 1 0.0000000000000000e+00 8.1325732096427235e+00 2.0703856617268759e+01 1.6285391586311050e+01 0 0 0
96 1 0.0000000000000000e+00 8.1325732096427359e+00 6.3015834284958290e+00 1.6285391586311043e+01 0 0 0
97 1 0.0000000000000000e+00 1.2117426628161130e+01 2.0703856617268713e+01 1.6285391586311057e+01 0 0 0
98 1 0.0000000000000000e+00 1.2117426628161120e+01 6.3015834284958547e+00 1.6285391586311043e+01 0 0 0
99 1 0.0000000000000000e+00 1.6102280046679518e+01 2.0703856617268741e+01 1.6285391586311054e+01 0 0 0
100 1 0.0000000000000000e+00 1.6102280046679507e+01 6.3015834284958450e+00 1.6285391586311047e+01 0 0 0
101 1 0.0000000000000000e+00 2.0087133465197706e+01 2.9934484756369177e+00 1.4104094840686480e+01 -1 0 0
102 1 0.0000000000000000e+00 2.0087133465197706e+01 1.7395721664409777e+01 1.4104094840686495e+01 -1 0 0
103 1 0.0000000000000000e+00 4.1477197911241523e+00 2.9934484756369066e+00 1.4104094840686480e+01 0 0 0
104 1 0.0000000000000000e+00 4.1477197911241372e+00 1.7395721664409784e+01 1.4104094840686493e+01 0 0 0
105 1 0.0000000000000000e+00 8.1325732096425369e+00 2.9934484756369213e+00 1.4104094840686475e+01 0 0 0
106 1 0.0000000000000000e+00 8.1325732096425387e+00 1.7395721664409766e+01 1.4104094840686489e+01 0 0 0
107 1 0.0000000000000000e+00 1.2117426628160935e+01 2.9934484756369093e+00 1.4104094840686477e+01 0 0 0
108 1 0.0000000000000000e+00 1.2117426628160924e+01 1.7395721664409784e+01 1.4104094840686493e+01 0 0 0
109 1 0.0000000000000000e+00 1.6102280046679326e+01 2.9934484756369133e+00 1.4104094840686480e+01 0 0 0
110 1 0.0000000000000000e+00 1.6102280046679319e+01 1.7395721664409781e+01 1.4104094840686495e+01 0 0 0
111 1 0.0000000000000000e+00 2.0087133465197738e+01 2.6210370222840748e+01 1.5135963151021077e+01 -1 0 0
112 1 0.0000000000000000e+00 2.0087133465197727e+01 1.1808097034067854e+01 1.5135963151021100e+01 -1 0 0
113 1 0.0000000000000000e+00 4.1477197911241834e+00 2.6210370222840719e+01 1.5135963151021071e+01 0 0 0
114 1 0.0000000000000000e+00 4.1477197911241550e+00 1.1808097034067865e+01 1.5135963151021096e+01 0 0 0
115 1 0.0000000000000000e+00 8.1325732096425654e+00 2.6210370222840755e+01 1.5135963151021071e+01 0 0 0
116 1 0.0000000000000000e+00 8.1325732096425565e+00 1.1808097034067845e+01 1.5135963151021096e+01 0 0 0
117 1 0.0000000000000000e+00 1.2117426628160961e+01 2.6210370222840723e+01 1.5135963151021071e+01 0 0 0
118 1 0.0000000000000000e+00 1.2117426628160940e+01 1.1808097034067861e+01 1.5135963151021096e+01 0 0 0
119 1 0.0000000000000000e+00 1.6102280046679354e+01 2.6210370222840734e+01 1.5135963151021077e+01 0 0 0
120 1 0.0000000000000000e+00 1.6102280046679333e+01 1.1808097034067858e+01 1.5135963151021100e+01 0 0 0
121 1 0.0000000000000000e+00 2.0087133465197830e+01 2.1258992468580171e+01 1.9044423653038010e+01 -1 0 0
122 1 0.0000000000000000e+00 2.0087133465197830e+01 6.8567192798072965e+00 1.9044423653038042e+01 -1 0 0
123 1 0.0000000000000000e+00 4.1477197911242740e+00 2.1258992468580157e+01 1.9044423653038017e+01 0 0 0
124 1 0.0000000000000000e+00 4.1477197911242518e+00 6.8567192798073107e+00 1.9044423653038034e+01 0 0 0
125 1 0.0000000000000000e+00 8.1325732096426488e+00 2.1258992468580193e+01 1.9044423653038002e+01 0 0 0
126 1 0.0000000000000000e+00 8.1325732096426542e+00 6.8567192798072893e+00 1.9044423653038042e+01 0 0 0
127 1 0.0000000000000000e+00 1.2117426628161057e+01 2.1258992468580161e+01 1.9044423653038013e+01 0 0 0
128 1 0.0000000000000000e+00 1.2117426628161040e+01 6.8567192798073116e+00 1.9044423653038038e+01 0 0 0
129 1 0.0000000000000000e+00 1.6102280046679436e+01 2.1258992468580175e+01 1.9044423653038013e+01 0 0 0
130 1 0.0000000000000000e+00 1.6102280046679429e+01 6.8567192798072982e+00 1.9044423653038042e+01 0 0 0
131 1 0.0000000000000000e+00 2.0087133465197887e+01 1.7931993329541008e+01 1.6801815285779266e+01 -1 0 0
132 1 0.0000000000000000e+00 2.0087133465197891e+01 3.5297201407681622e+00 1.6801815285779277e+01 -1 0 0
133 1 0.0000000000000000e+00 4.1477197911243122e+00 1.7931993329541040e+01 1.6801815285779252e+01 0 0 0
134 1 0.0000000000000000e+00 4.1477197911243531e+00 3.5297201407681333e+00 1.6801815285779277e+01 0 0 0
135 1 0.0000000000000000e+00 8.1325732096427235e+00 1.7931993329541005e+01 1.6801815285779263e+01 0 0 0
136 1 0.0000000000000000e+00 8.1325732096427217e+00 3.5297201407681733e+00 1.6801815285779270e+01 0 0 0
137 1 0.0000000000000000e+00 1.2117426628161095e+01 1.7931993329541040e+01 1.6801815285779256e+01 0 0 0
138 1 0.0000000000000000e+00 1.2117426628161123e+01 3.5297201407681422e+00 1.6801815285779277e+01 0 0 0
139 1 0.0000000000000000e+00 1.6102280046679496e+01 1.7931993329541015e+01 1.6801815285779263e+01 0 0 0
140 1 0.0000000000000000e+00 1.6102280046679521e+01 3.5297201407681560e+00 1.6801815285779277e+01 0 0 0
141 1 0.0000000000000000e+00 2.0087133465197844e+01 2.6802662519977748e+01 1.7875222446225106e+01 -1 0 0
142 1 0.0000000000000000e+00 2.0087133465197816e+01 1.2400389331204869e+01 1.7875222446225134e+01 -1 0 0
143 1 0.0000000000000000e+00 4.1477197911242998e+00 2.6802662519977716e+01 1.7875222446225113e+01 0 0 0
144 1 0.0000000000000000e+00 4.1477197911242438e+00 1.2400389331204885e+01 1.7875222446225127e+01 0 0 0
145 1 0.0000000000000000e+00 8.1325732096426684e+00 2.6802662519977755e+01 1.7875222446225102e+01 0 0 0
146 1 0.0000000000000000e+00 8.1325732096426506e+00 1.2400389331204858e+01 1.7875222446225138e+01 0 0 0
147 1 0.0000000000000000e+00 1.2117426628161075e+01 2.6802662519977719e+01 1.7875222446225113e+01 0 0 0
148 1 0.0000000000000000e+00 1.2117426628161025e+01 1.2400389331204886e+01 1.7875222446225131e+01 0 0 0
149 1 0.0000000000000000e+00 1.6102280046679464e+01 2.6802662519977744e+01 1.7875222446225109e+01 0 0 0
150 1 0.0000000000000000e+00 1.6102280046679425e+01 1.2400389331204870e+01 1.7875222446225134e+01 0 0 0
151 1 0.0000000000000000e+00 2.1552930818645581e+00 1.9594123056508341e+01 1.7891310037970616e+01 0 0 0
152 1 0.0000000000000000e+00 2.1552930818645337e+00 5.1918498677354652e+00 1.7891310037970623e+01 0 0 0
153 1 0.0000000000000000e+00 6.1401465003829259e+00 1.9594123056508359e+01 1.7891310037970612e+01 0 0 0
154 1 0.0000000000000000e+00 6.1401465003829481e+00 5.1918498677354341e+00 1.7891310037970623e+01 0 0 0
155 1 0.0000000000000000e+00 1.0124999918901347e+01 1.9594123056508330e+01 1.7891310037970616e+01 0 0 0
156 1 0.0000000000000000e+00 1.0124999918901317e+01 5.1918498677354554e+00 1.7891310037970619e+01 0 0 0
157 1 0.0000000000000000e+00 1.4109853337419713e+01 1.9594123056508359e+01 1.7891310037970616e+01 0 0 0
158 1 0.0000000000000000e+00 1.4109853337419718e+01 5.1918498677354492e+00 1.7891310037970623e+01 0 0 0
159 1 0.0000000000000000e+00 1.8094706755938113e+01 1.9594123056508355e+01 1.7891310037970619e+01 0 0 0
160 1 0.0000000000000000e+00 1.8094706755938109e+01 5.1918498677354412e+00 1.7891310037970623e+01 0 0 0
161 1 0.0000000000000000e+00 2.1552930818645981e+00 2.8450292242265906e+01 1.8992255007617818e+01 0 0 0
162 1 0.0000000000000000e+00 2.1552930818646483e+00 1.4048019053493023e+01 1.8992255007617828e+01 0 0 0
163 1 0.0000000000000000e+00 6.1401465003830067e+00 2.8450292242265885e+01 1.8992255007617818e+01 0 0 0
164 1 0.0000000000000000e+00 6.1401465003830245e+00 1.4048019053493036e+01 1.8992255007617825e+01 0 0 0
165 1 0.0000000000000000e+00 1.0124999918901377e+01 2.8450292242265895e+01 1.8992255007617814e+01 0 0 0
166 1 0.0000000000000000e+00 1.0124999918901432e+01 1.4048019053493011e+01 1.8992255007617828e+01 0 0 0
167 1 0.0000000000000000e+00 1.4109853337419786e+01 2.8450292242265888e+01 1.8992255007617818e+01 0 0 0
168 1 0.0000000000000000e+00 1.4109853337419812e+01 1.4048019053493032e+01 1.8992255007617825e+01 0 0 0
169 1 0.0000000000000000e+00 1.8094706755938169e+01 2.8450292242265888e+01 1.8992255007617821e+01 0 0 0
170 1 0.0000000000000000e+00 1.8094706755938205e+01 1.4048019053493023e+01 1.8992255007617828e+01 0 0 0
171 1 0.0000000000000000e+00 2.1552930818646345e+00 2.2920372311178539e+01 2.0169455568536577e+01 0 0 0
172 1 0.0000000000000000e+00 2.1552930818646661e+00 8.5180991224056335e+00 2.0169455568536581e+01 0 0 0
173 1 0.0000000000000000e+00 6.1401465003830404e+00 2.2920372311178529e+01 2.0169455568536574e+01 0 0 0
174 1 0.0000000000000000e+00 6.1401465003830475e+00 8.5180991224056459e+00 2.0169455568536577e+01 0 0 0
175 1 0.0000000000000000e+00 1.0124999918901414e+01 2.2920372311178539e+01 2.0169455568536570e+01 0 0 0
176 1 0.0000000000000000e+00 1.0124999918901446e+01 8.5180991224056299e+00 2.0169455568536581e+01 0 0 0
177 1 0.0000000000000000e+00 1.4109853337419818e+01 2.2920372311178529e+01 2.0169455568536574e+01 0 0 0
178 1 0.0000000000000000e+00 1.4109853337419830e+01 8.5180991224056442e+00 2.0169455568536577e+01 0 0 0
179 1 0.0000000000000000e+00 1.8094706755938201e+01 2.2920372311178532e+01 2.0169455568536577e+01 0 0 0
180 1 0.0000000000000000e+00 1.8094706755938223e+01 8.5180991224056370e+00 2.0169455568536581e+01 0 0 0
181 1 0.0000000000000000e+00 2.1552930818645035e+00 2.2374647662219193e+01 1.7349540774585932e+01 0 0 0
182 1 0.0000000000000000e+00 2.1552930818645448e+00 7.9723744734463180e+00 1.7349540774585968e+01 0 0 0
183 1 0.0000000000000000e+00 6.1401465003829321e+00 2.2374647662219179e+01 1.7349540774585940e+01 0 0 0
184 1 0.0000000000000000e+00 6.1401465003829170e+00 7.9723744734463438e+00 1.7349540774585957e+01 0 0 0
185 1 0.0000000000000000e+00 1.0124999918901281e+01 2.2374647662219196e+01 1.7349540774585932e+01 0 0 0
186 1 0.0000000000000000e+00 1.0124999918901329e+01 7.9723744734463242e+00 1.7349540774585964e+01 0 0 0
187 1 0.0000000000000000e+00 1.4109853337419700e+01 2.2374647662219186e+01 1.7349540774585940e+01 0 0 0
188 1 0.0000000000000000e+00 1.4109853337419704e+01 7.9723744734463322e+00 1.7349540774585964e+01 0 0 0
189 1 0.0000000000000000e+00 1.8094706755938084e+01 2.2374647662219186e+01 1.7349540774585940e+01 0 0 0
190 1 0.0000000000000000e+00 1.8094706755938098e+01 7.9723744734463393e+00 1.7349540774585964e+01 0 0 0
191 1 0.0000000000000000e+00 2.1552930818645919e+00 1.6815157761800943e+01 1.8436325336384709e+01 0 0 0
192 1 0.0000000000000000e+00 2.1552930818645835e+00 2.4128845730280544e+00 1.8436325336384698e+01 0 0 0
193 1 0.0000000000000000e+00 6.1401465003830067e+00 1.6815157761800926e+01 1.8436325336384709e+01 0 0 0
194 1 0.0000000000000000e+00 6.1401465003829525e+00 2.4128845730280823e+00 1.8436325336384694e+01 0 0 0
195 1 0.0000000000000000e+00 1.0124999918901370e+01 1.6815157761800947e+01 1.8436325336384705e+01 0 0 0
196 1 0.0000000000000000e+00 1.0124999918901366e+01 2.4128845730280624e+00 1.8436325336384698e+01 0 0 0
197 1 0.0000000000000000e+00 1.4109853337419786e+01 1.6815157761800926e+01 1.8436325336384712e+01 0 0 0
198 1 0.0000000000000000e+00 1.4109853337419741e+01 2.4128845730280681e+00 1.8436325336384698e+01 0 0 0
199 1 0.0000000000000000e+00 1.8094706755938166e+01 1.6815157761800943e+01 1.8436325336384709e+01 0 0 0
200 1 0.0000000000000000e+00 1.8094706755938134e+01 2.4128845730280779e+00 1.8436325336384698e+01 0 0 0
201 1 0.0000000000000000e+00 2.1552930818646332e+00 2.5691418334103243e+01 1.9590070078794955e+01 0 0 0
202 1 0.0000000000000000e+00 2.1552930818646541e+00 1.1289145145330393e+01 1.9590070078794984e+01 0 0 0
203 1 0.0000000000000000e+00 6.1401465003830022e+00 2.5691418334103258e+01 1.9590070078794952e+01 0 0 0
204 1 0.0000000000000000e+00 6.1401465003830573e+00 1.1289145145330382e+01 1.9590070078794984e+01 0 0 0
205 1 0.0000000000000000e+00 1.0124999918901416e+01 2.5691418334103247e+01 1.9590070078794959e+01 0 0 0
206 1 0.0000000000000000e+00 1.0124999918901432e+01 1.1289145145330398e+01 1.9590070078794984e+01 0 0 0
207 1 0.0000000000000000e+00 1.4109853337419789e+01 2.5691418334103250e+01 1.9590070078794955e+01 0 0 0
208 1 0.0000000000000000e+00 1.4109853337419834e+01 1.1289145145330382e+01 1.9590070078794987e+01 0 0 0
209 1 0.0000000000000000e+00 1.8094706755938184e+01 2.5691418334103250e+01 1.9590070078794955e+01 0 0 0
210 1 0.0000000000000000e+00 1.8094706755938223e+01 1.1289145145330387e+01 1.9590070078794987e+01 0 0 0
211 1 0.0000000000000000e+00 2.0087133465197788e+01 1.8478748475034077e+01 1.9600020271841981e+01 -1 0 0
212 1 0.0000000000000000e+00 2.0087133465197798e+01 4.0764752862612026e+00 1.9600020271841966e+01 -1 0 0
213 1 0.0000000000000000e+00 4.1477197911242216e+00 1.8478748475034095e+01 1.9600020271841977e+01 0 0 0
214 1 0.0000000000000000e+00 4.1477197911242456e+00 4.0764752862611884e+00 1.9600020271841966e+01 0 0 0
215 1 0.0000000000000000e+00 8.1325732096426222e+00 1.8478748475034063e+01 1.9600020271841977e+01 0 0 0
216 1 0.0000000000000000e+00 8.1325732096426240e+00 4.0764752862612061e+00 1.9600020271841959e+01 0 0 0
217 1 0.0000000000000000e+00 1.2117426628160999e+01 1.8478748475034095e+01 1.9600020271841974e+01 0 0 0
218 1 0.0000000000000000e+00 1.2117426628161024e+01 4.0764752862611866e+00 1.9600020271841966e+01 0 0 0
219 1 0.0000000000000000e+00 1.6102280046679400e+01 1.8478748475034077e+01 1.9600020271841981e+01 0 0 0
220 1 0.0000000000000000e+00 1.6102280046679411e+01 4.0764752862611973e+00 1.9600020271841966e+01 0 0 0
221 1 0.0000000000000000e+00 2.0087133465197869e+01 7.6478792976397958e-01 1.7335776148492254e+01 -1 0 0
222 1 0.0000000000000000e+00 2.0087133465197823e+01 1.5167061118536873e+01 1.7335776148492279e+01 -1 0 0
223 1 0.0000000000000000e+00 4.1477197911242838e+00 7.6478792976401222e-01 1.7335776148492247e+01 0 0 0
224 1 0.0000000000000000e+00 4.1477197911242696e+00 1.5167061118536846e+01 1.7335776148492275e+01 0 0 0
225 1 0.0000000000000000e+00 8.1325732096426950e+00 7.6478792976397059e-01 1.7335776148492251e+01 0 0 0
226 1 0.0000000000000000e+00 8.1325732096426435e+00 1.5167061118536882e+01 1.7335776148492268e+01 0 0 0
227 1 0.0000000000000000e+00 1.2117426628161075e+01 7.6478792976400467e-01 1.7335776148492247e+01 0 0 0
228 1 0.0000000000000000e+00 1.2117426628161052e+01 1.5167061118536846e+01 1.7335776148492275e+01 0 0 0
229 1 0.0000000000000000e+00 1.6102280046679461e+01 7.6478792976398668e-01 1.7335776148492254e+01 0 0 0
230 1 0.0000000000000000e+00 1.6102280046679432e+01 1.5167061118536866e+01 1.7335776148492275e+01 0 0 0
231 1 0.0000000000000000e+00 2.0087133465197859e+01 2.4037078550253483e+01 1.8445256625958425e+01 -1 0 0
232 1 0.0000000000000000e+00 2.0087133465197823e+01 9.6348053614806002e+00 1.8445256625958436e+01 -1 0 0
233 1 0.0000000000000000e+00 4.1477197911242847e+00 2.4037078550253511e+01 1.8445256625958422e+01 0 0 0
234 1 0.0000000000000000e+00 4.1477197911242696e+00 9.6348053614805842e+00 1.8445256625958436e+01 0 0 0
235 1 0.0000000000000000e+00 8.1325732096426897e+00 2.4037078550253462e+01 1.8445256625958422e+01 0 0 0
236 1 0.0000000000000000e+00 8.1325732096426471e+00 9.6348053614806073e+00 1.8445256625958429e+01 0 0 0
237 1 0.0000000000000000e+00 1.2117426628161070e+01 2.4037078550253504e+01 1.8445256625958422e+01 0 0 0
238 1 0.0000000000000000e+00 1.2117426628161049e+01 9.6348053614805842e+00 1.8445256625958436e+01 0 0 0
239 1 0.0000000000000000e+00 1.6102280046679464e+01 2.4037078550253483e+01 1.8445256625958429e+01 0 0 0
240 1 0.0000000000000000e+00 1.6102280046679432e+01 9.6348053614805984e+00 1.8445256625958436e+01 0 0 0
241 1 0.0000000000000000e+00 2.0087133465197702e+01 1.9033233095952784e+01 2.2455462911028501e+01 -1 0 0
242 1 0.0000000000000000e+00 2.0087133465197716e+01 4.6309599071798901e+00 2.2455462911028512e+01 -1 0 0
243 1 0.0000000000000000e+00 4.1477197911241390e+00 1.9033233095952788e+01 2.2455462911028498e+01 0 0 0
244 1 0.0000000000000000e+00 4.1477197911241577e+00 4.6309599071798875e+00 2.2455462911028512e+01 0 0 0
245 1 0.0000000000000000e+00 8.1325732096425369e+00 1.9033233095952770e+01 2.2455462911028501e+01 0 0 0
246 1 0.0000000000000000e+00 8.1325732096425423e+00 4.6309599071798964e+00 2.2455462911028512e+01 0 0 0
247 1 0.0000000000000000e+00 1.2117426628160915e+01 1.9033233095952788e+01 2.2455462911028501e+01 0 0 0
248 1 0.0000000000000000e+00 1.2117426628160940e+01 4.6309599071798875e+00 2.2455462911028512e+01 0 0 0
249 1 0.0000000000000000e+00 1.6102280046679315e+01 1.9033233095952774e+01 2.2455462911028505e+01 0 0 0
250 1 0.0000000000000000e+00 1.6102280046679326e+01 4.6309599071798955e+00 2.2455462911028512e+01 0 0 0
251 1 0.0000000000000000e+00 2.0087133465197752e+01 1.5708080466789072e+01 2.0156048024029129e+01 -1 0 0
252 1 0.0000000000000000e+00 2.0087133465197788e+01 1.3058072780161729e+00 2.0156048024029133e+01 -1 0 0
253 1 0.0000000000000000e+00 4.1477197911241905e+00 1.5708080466789060e+01 2.0156048024029133e+01 0 0 0
254 1 0.0000000000000000e+00 4.1477197911242136e+00 1.3058072780161871e+00 2.0156048024029126e+01 0 0 0
255 1 0.0000000000000000e+00 8.1325732096425707e+00 1.5708080466789085e+01 2.0156048024029129e+01 0 0 0
256 1 0.0000000000000000e+00 8.1325732096426151e+00 1.3058072780161671e+00 2.0156048024029133e+01 0 0 0
257 1 0.0000000000000000e+00 1.2117426628160976e+01 1.5708080466789060e+01 2.0156048024029136e+01 0 0 0
258 1 0.0000000000000000e+00 1.2117426628160997e+01 1.3058072780161889e+00 2.0156048024029129e+01 0 0 0
259 1 0.0000000000000000e+00 1.6102280046679354e+01 1.5708080466789072e+01 2.0156048024029133e+01 0 0 0
260 1 0.0000000000000000e+00 1.6102280046679390e+01 1.3058072780161765e+00 2.0156048024029133e+01 0 0 0
261 1 0.0000000000000000e+00 2.0087133465197756e+01 2.4577210148155423e+01 2.1301840768608802e+01 -1 0 0
262 1 0.0000000000000000e+00 2.0087133465197720e+01 1.0174936959382572e+01 2.1301840768608816e+01 -1 0 0
263 1 0.0000000000000000e+00 4.1477197911241870e+00 2.4577210148155444e+01 2.1301840768608798e+01 0 0 0
264 1 0.0000000000000000e+00 4.1477197911241621e+00 1.0174936959382562e+01 2.1301840768608820e+01 0 0 0
265 1 0.0000000000000000e+00 8.1325732096425867e+00 2.4577210148155423e+01 2.1301840768608805e+01 0 0 0
266 1 0.0000000000000000e+00 8.1325732096425440e+00 1.0174936959382576e+01 2.1301840768608816e+01 0 0 0
267 1 0.0000000000000000e+00 1.2117426628160967e+01 2.4577210148155448e+01 2.1301840768608798e+01 0 0 0
268 1 0.0000000000000000e+00 1.2117426628160942e+01 1.0174936959382563e+01 2.1301840768608820e+01 0 0 0
269 1 0.0000000000000000e+00 1.6102280046679365e+01 2.4577210148155427e+01 2.1301840768608802e+01 0 0 0
270 1 0.0000000000000000e+00 1.6102280046679326e+01 1.0174936959382574e+01 2.1301840768608820e+01 0 0 0
271 1 0.0000000000000000e+00 2.1552930818646989e+00 1.7368727554989189e+01 2.1302012570830723e+01 0 0 0
272 1 0.0000000000000000e+00 2.1552930818646812e+00 2.9664543662162886e+00 2.1302012570830730e+01 0 0 0
273 1 0.0000000000000000e+00 6.1401465003831017e+00 1.7368727554989185e+01 2.1302012570830723e+01 0 0 0
274 1 0.0000000000000000e+00 6.1401465003830626e+00 2.9664543662162983e+00 2.1302012570830726e+01 0 0 0
275 1 0.0000000000000000e+00 1.0124999918901477e+01 1.7368727554989192e+01 2.1302012570830719e+01 0 0 0
276 1 0.0000000000000000e+00 1.0124999918901462e+01 2.9664543662162846e+00 2.1302012570830726e+01 0 0 0
277 1 0.0000000000000000e+00 1.4109853337419878e+01 1.7368727554989185e+01 2.1302012570830726e+01 0 0 0
278 1 0.0000000000000000e+00 1.4109853337419850e+01 2.9664543662162965e+00 2.1302012570830726e+01 0 0 0
279 1 0.0000000000000000e+00 1.8094706755938262e+01 1.7368727554989189e+01 2.1302012570830723e+01 0 0 0
280 1 0.0000000000000000e+00 1.8094706755938240e+01 2.9664543662162925e+00 2.1302012570830730e+01 0 0 0
281 1 0.0000000000000000e+00 2.1552930818646971e+00 2.6237144155475065e+01 2.2441931784655296e+01 0 0 0
282 1 0.0000000000000000e+00 2.1552930818647398e+00 1.1834870966702191e+01 2.2441931784655292e+01 0 0 0
283 1 0.0000000000000000e+00 6.1401465003830831e+00 2.6237144155475079e+01 2.2441931784655292e+01 0 0 0
284 1 0.0000000000000000e+00 6.1401465003831355e+00 1.1834870966702185e+01 2.2441931784655289e+01 0 0 0
285 1 0.0000000000000000e+00 1.0124999918901482e+01 2.6237144155475058e+01 2.2441931784655296e+01 0 0 0