datafile (written by JARVIS-FF) 

720 	 atoms 
1  atom types
0.0 20.249999838  xlo xhi
0.0 29.204965097  ylo yhi
0.0 47.177251310  zlo zhi
0E-9 0E-9 0E-9  xy xz yz


Atoms 

     1   1 0.000000 0E-9 23.588625655 15.725750437
     2   1 0.000000 0E-9 8.986143107 15.725750437
     3   1 0.000000 4.049999968 23.588625655 15.725750437
     4   1 0.000000 4.049999968 8.986143107 15.725750437
     5   1 0.000000 8.099999935 23.588625655 15.725750437
     6   1 0.000000 8.099999935 8.986143107 15.725750437
     7   1 0.000000 12.149999903 23.588625655 15.725750437
     8   1 0.000000 12.149999903 8.986143107 15.725750437
     9   1 0.000000 16.199999870 23.588625655 15.725750437
    10   1 0.000000 16.199999870 8.986143107 15.725750437
    11   1 0.000000 0E-9 20.218821990 13.479214660
    12   1 0.000000 0E-9 5.616339442 13.479214660
    13   1 0.000000 4.049999968 20.218821990 13.479214660
    14   1 0.000000 4.049999968 5.616339442 13.479214660
    15   1 0.000000 8.099999935 20.218821990 13.479214660
    16   1 0.000000 8.099999935 5.616339442 13.479214660
    17   1 0.000000 12.149999903 20.218821990 13.479214660
    18   1 0.000000 12.149999903 5.616339442 13.479214660
    19   1 0.000000 16.199999870 20.218821990 13.479214660
    20   1 0.000000 16.199999870 5.616339442 13.479214660
    21   1 0.000000 0E-9 29.204965097 14.602482549
    22   1 0.000000 0E-9 14.602482549 14.602482549
    23   1 0.000000 4.049999968 29.204965097 14.602482549
    24   1 0.000000 4.049999968 14.602482549 14.602482549
    25   1 0.000000 8.099999935 29.204965097 14.602482549
    26   1 0.000000 8.099999935 14.602482549 14.602482549
    27   1 0.000000 12.149999903 29.204965097 14.602482549
    28   1 0.000000 12.149999903 14.602482549 14.602482549
    29   1 0.000000 16.199999870 29.204965097 14.602482549
    30   1 0.000000 16.199999870 14.602482549 14.602482549
    31   1 0.000000 2.024999984 21.903723823 14.602482549
    32   1 0.000000 2.024999984 7.301241274 14.602482549
    33   1 0.000000 6.074999951 21.903723823 14.602482549
    34   1 0.000000 6.074999951 7.301241274 14.602482549
    35   1 0.000000 10.124999919 21.903723823 14.602482549
    36   1 0.000000 10.124999919 7.301241274 14.602482549
    37   1 0.000000 14.174999886 21.903723823 14.602482549
    38   1 0.000000 14.174999886 7.301241274 14.602482549
    39   1 0.000000 18.224999854 21.903723823 14.602482549
    40   1 0.000000 18.224999854 7.301241274 14.602482549
    41   1 0.000000 2.024999984 1.684901833 15.725750437
    42   1 0.000000 2.024999984 16.287384381 15.725750437
    43   1 0.000000 6.074999951 1.684901833 15.725750437
    44   1 0.000000 6.074999951 16.287384381 15.725750437
    45   1 0.000000 10.124999919 1.684901833 15.725750437
    46   1 0.000000 10.124999919 16.287384381 15.725750437
    47   1 0.000000 14.174999886 1.684901833 15.725750437
    48   1 0.000000 14.174999886 16.287384381 15.725750437
    49   1 0.000000 18.224999854 1.684901833 15.725750437
    50   1 0.000000 18.224999854 16.287384381 15.725750437
    51   1 0.000000 2.024999984 25.273527488 16.849018325
    52   1 0.000000 2.024999984 10.671044939 16.849018325
    53   1 0.000000 6.074999951 25.273527488 16.849018325
    54   1 0.000000 6.074999951 10.671044939 16.849018325
    55   1 0.000000 10.124999919 25.273527488 16.849018325
    56   1 0.000000 10.124999919 10.671044939 16.849018325
    57   1 0.000000 14.174999886 25.273527488 16.849018325
    58   1 0.000000 14.174999886 10.671044939 16.849018325
    59   1 0.000000 18.224999854 25.273527488 16.849018325
    60   1 0.000000 18.224999854 10.671044939 16.849018325
    61   1 0.000000 2.024999984 24.711893544 14.040848604
    62   1 0.000000 2.024999984 10.109410995 14.040848604
    63   1 0.000000 6.074999951 24.711893544 14.040848604
    64   1 0.000000 6.074999951 10.109410995 14.040848604
    65   1 0.000000 10.124999919 24.711893544 14.040848604
    66   1 0.000000 10.124999919 10.109410995 14.040848604
    67   1 0.000000 14.174999886 24.711893544 14.040848604
    68   1 0.000000 14.174999886 10.109410995 14.040848604
    69   1 0.000000 18.224999854 24.711893544 14.040848604
    70   1 0.000000 18.224999854 10.109410995 14.040848604
    71   1 0.000000 2.024999984 19.095554102 15.164116493
    72   1 0.000000 2.024999984 4.493071553 15.164116493
    73   1 0.000000 6.074999951 19.095554102 15.164116493
    74   1 0.000000 6.074999951 4.493071553 15.164116493
    75   1 0.000000 10.124999919 19.095554102 15.164116493
    76   1 0.000000 10.124999919 4.493071553 15.164116493
    77   1 0.000000 14.174999886 19.095554102 15.164116493
    78   1 0.000000 14.174999886 4.493071553 15.164116493
    79   1 0.000000 18.224999854 19.095554102 15.164116493
    80   1 0.000000 18.224999854 4.493071553 15.164116493
    81   1 0.000000 2.024999984 28.081697209 16.287384381
    82   1 0.000000 2.024999984 13.479214660 16.287384381
    83   1 0.000000 6.074999951 28.081697209 16.287384381
    84   1 0.000000 6.074999951 13.479214660 16.287384381
    85   1 0.000000 10.124999919 28.081697209 16.287384381
    86   1 0.000000 10.124999919 13.479214660 16.287384381
    87   1 0.000000 14.174999886 28.081697209 16.287384381
    88   1 0.000000 14.174999886 13.479214660 16.287384381
    89   1 0.000000 18.224999854 28.081697209 16.287384381
    90   1 0.000000 18.224999854 13.479214660 16.287384381
    91   1 0.000000 0E-9 20.780455935 16.287384381
    92   1 0.000000 0E-9 6.177973386 16.287384381
    93   1 0.000000 4.049999968 20.780455935 16.287384381
    94   1 0.000000 4.049999968 6.177973386 16.287384381
    95   1 0.000000 8.099999935 20.780455935 16.287384381
    96   1 0.000000 8.099999935 6.177973386 16.287384381
    97   1 0.000000 12.149999903 20.780455935 16.287384381
    98   1 0.000000 12.149999903 6.177973386 16.287384381
    99   1 0.000000 16.199999870 20.780455935 16.287384381
   100   1 0.000000 16.199999870 6.177973386 16.287384381
   101   1 0.000000 0E-9 2.808169721 14.040848604
   102   1 0.000000 0E-9 17.410652269 14.040848604
   103   1 0.000000 4.049999968 2.808169721 14.040848604
   104   1 0.000000 4.049999968 17.410652269 14.040848604
   105   1 0.000000 8.099999935 2.808169721 14.040848604
   106   1 0.000000 8.099999935 17.410652269 14.040848604
   107   1 0.000000 12.149999903 2.808169721 14.040848604
   108   1 0.000000 12.149999903 17.410652269 14.040848604
   109   1 0.000000 16.199999870 2.808169721 14.040848604
   110   1 0.000000 16.199999870 17.410652269 14.040848604
   111   1 0.000000 0E-9 26.396795376 15.164116493
   112   1 0.000000 0E-9 11.794312828 15.164116493
   113   1 0.000000 4.049999968 26.396795376 15.164116493
   114   1 0.000000 4.049999968 11.794312828 15.164116493
   115   1 0.000000 8.099999935 26.396795376 15.164116493
   116   1 0.000000 8.099999935 11.794312828 15.164116493
   117   1 0.000000 12.149999903 26.396795376 15.164116493
   118   1 0.000000 12.149999903 11.794312828 15.164116493
   119   1 0.000000 16.199999870 26.396795376 15.164116493
   120   1 0.000000 16.199999870 11.794312828 15.164116493
   121   1 0.000000 0E-9 21.342089879 19.095554102
   122   1 0.000000 0E-9 6.739607330 19.095554102
   123   1 0.000000 4.049999968 21.342089879 19.095554102
   124   1 0.000000 4.049999968 6.739607330 19.095554102
   125   1 0.000000 8.099999935 21.342089879 19.095554102
   126   1 0.000000 8.099999935 6.739607330 19.095554102
   127   1 0.000000 12.149999903 21.342089879 19.095554102
   128   1 0.000000 12.149999903 6.739607330 19.095554102
   129   1 0.000000 16.199999870 21.342089879 19.095554102
   130   1 0.000000 16.199999870 6.739607330 19.095554102
   131   1 0.000000 0E-9 17.972286214 16.849018325
   132   1 0.000000 0E-9 3.369803665 16.849018325
   133   1 0.000000 4.049999968 17.972286214 16.849018325
   134   1 0.000000 4.049999968 3.369803665 16.849018325
   135   1 0.000000 8.099999935 17.972286214 16.849018325
   136   1 0.000000 8.099999935 3.369803665 16.849018325
   137   1 0.000000 12.149999903 17.972286214 16.849018325
   138   1 0.000000 12.149999903 3.369803665 16.849018325
   139   1 0.000000 16.199999870 17.972286214 16.849018325
   140   1 0.000000 16.199999870 3.369803665 16.849018325
   141   1 0.000000 0E-9 26.958429320 17.972286214
   142   1 0.000000 0E-9 12.355946772 17.972286214
   143   1 0.000000 4.049999968 26.958429320 17.972286214
   144   1 0.000000 4.049999968 12.355946772 17.972286214
   145   1 0.000000 8.099999935 26.958429320 17.972286214
   146   1 0.000000 8.099999935 12.355946772 17.972286214
   147   1 0.000000 12.149999903 26.958429320 17.972286214
   148   1 0.000000 12.149999903 12.355946772 17.972286214
   149   1 0.000000 16.199999870 26.958429320 17.972286214
   150   1 0.000000 16.199999870 12.355946772 17.972286214
   151   1 0.000000 2.024999984 19.657188046 17.972286214
   152   1 0.000000 2.024999984 5.054705498 17.972286214
   153   1 0.000000 6.074999951 19.657188046 17.972286214
   154   1 0.000000 6.074999951 5.054705498 17.972286214
   155   1 0.000000 10.124999919 19.657188046 17.972286214
   156   1 0.000000 10.124999919 5.054705498 17.972286214
   157   1 0.000000 14.174999886 19.657188046 17.972286214
   158   1 0.000000 14.174999886 5.054705498 17.972286214
   159   1 0.000000 18.224999854 19.657188046 17.972286214
   160   1 0.000000 18.224999854 5.054705498 17.972286214
   161   1 0.000000 2.024999984 28.643331153 19.095554102
   162   1 0.000000 2.024999984 14.040848604 19.095554102
   163   1 0.000000 6.074999951 28.643331153 19.095554102
   164   1 0.000000 6.074999951 14.040848604 19.095554102
   165   1 0.000000 10.124999919 28.643331153 19.095554102
   166   1 0.000000 10.124999919 14.040848604 19.095554102
   167   1 0.000000 14.174999886 28.643331153 19.095554102
   168   1 0.000000 14.174999886 14.040848604 19.095554102
   169   1 0.000000 18.224999854 28.643331153 19.095554102
   170   1 0.000000 18.224999854 14.040848604 19.095554102
   171   1 0.000000 2.024999984 23.026991711 20.218821990
   172   1 0.000000 2.024999984 8.424509163 20.218821990
   173   1 0.000000 6.074999951 23.026991711 20.218821990
   174   1 0.000000 6.074999951 8.424509163 20.218821990
   175   1 0.000000 10.124999919 23.026991711 20.218821990
   176   1 0.000000 10.124999919 8.424509163 20.218821990
   177   1 0.000000 14.174999886 23.026991711 20.218821990
   178   1 0.000000 14.174999886 8.424509163 20.218821990
   179   1 0.000000 18.224999854 23.026991711 20.218821990
   180   1 0.000000 18.224999854 8.424509163 20.218821990
   181   1 0.000000 2.024999984 22.465357767 17.410652269
   182   1 0.000000 2.024999984 7.862875218 17.410652269
   183   1 0.000000 6.074999951 22.465357767 17.410652269
   184   1 0.000000 6.074999951 7.862875218 17.410652269
   185   1 0.000000 10.124999919 22.465357767 17.410652269
   186   1 0.000000 10.124999919 7.862875218 17.410652269
   187   1 0.000000 14.174999886 22.465357767 17.410652269
   188   1 0.000000 14.174999886 7.862875218 17.410652269
   189   1 0.000000 18.224999854 22.465357767 17.410652269
   190   1 0.000000 18.224999854 7.862875218 17.410652269
   191   1 0.000000 2.024999984 16.849018325 18.533920158
   192   1 0.000000 2.024999984 2.246535777 18.533920158
   193   1 0.000000 6.074999951 16.849018325 18.533920158
   194   1 0.000000 6.074999951 2.246535777 18.533920158
   195   1 0.000000 10.124999919 16.849018325 18.533920158
   196   1 0.000000 10.124999919 2.246535777 18.533920158
   197   1 0.000000 14.174999886 16.849018325 18.533920158
   198   1 0.000000 14.174999886 2.246535777 18.533920158
   199   1 0.000000 18.224999854 16.849018325 18.533920158
   200   1 0.000000 18.224999854 2.246535777 18.533920158
   201   1 0.000000 2.024999984 25.835161432 19.657188046
   202   1 0.000000 2.024999984 11.232678884 19.657188046
   203   1 0.000000 6.074999951 25.835161432 19.657188046
   204   1 0.000000 6.074999951 11.232678884 19.657188046
   205   1 0.000000 10.124999919 25.835161432 19.657188046
   206   1 0.000000 10.124999919 11.232678884 19.657188046
   207   1 0.000000 14.174999886 25.835161432 19.657188046
   208   1 0.000000 14.174999886 11.232678884 19.657188046
   209   1 0.000000 18.224999854 25.835161432 19.657188046
   210   1 0.000000 18.224999854 11.232678884 19.657188046
   211   1 0.000000 0E-9 18.533920158 19.657188046
   212   1 0.000000 0E-9 3.931437609 19.657188046
   213   1 0.000000 4.049999968 18.533920158 19.657188046
   214   1 0.000000 4.049999968 3.931437609 19.657188046
   215   1 0.000000 8.099999935 18.533920158 19.657188046
   216   1 0.000000 8.099999935 3.931437609 19.657188046
   217   1 0.000000 12.149999903 18.533920158 19.657188046
   218   1 0.000000 12.149999903 3.931437609 19.657188046
   219   1 0.000000 16.199999870 18.533920158 19.657188046
   220   1 0.000000 16.199999870 3.931437609 19.657188046
   221   1 0.000000 0E-9 0.561633944 17.410652269
   222   1 0.000000 0E-9 15.164116493 17.410652269
   223   1 0.000000 4.049999968 0.561633944 17.410652269
   224   1 0.000000 4.049999968 15.164116493 17.410652269
   225   1 0.000000 8.099999935 0.561633944 17.410652269
   226   1 0.000000 8.099999935 15.164116493 17.410652269
   227   1 0.000000 12.149999903 0.561633944 17.410652269
   228   1 0.000000 12.149999903 15.164116493 17.410652269
   229   1 0.000000 16.199999870 0.561633944 17.410652269
   230   1 0.000000 16.199999870 15.164116493 17.410652269
   231   1 0.000000 0E-9 24.150259600 18.533920158
   232   1 0.000000 0E-9 9.547777051 18.533920158
   233   1 0.000000 4.049999968 24.150259600 18.533920158
   234   1 0.000000 4.049999968 9.547777051 18.533920158
   235   1 0.000000 8.099999935 24.150259600 18.533920158
   236   1 0.000000 8.099999935 9.547777051 18.533920158
   237   1 0.000000 12.149999903 24.150259600 18.533920158
   238   1 0.000000 12.149999903 9.547777051 18.533920158
   239   1 0.000000 16.199999870 24.150259600 18.533920158
   240   1 0.000000 16.199999870 9.547777051 18.533920158
   241   1 0.000000 0E-9 19.095554102 22.465357767
   242   1 0.000000 0E-9 4.493071553 22.465357767
   243   1 0.000000 4.049999968 19.095554102 22.465357767
   244   1 0.000000 4.049999968 4.493071553 22.465357767
   245   1 0.000000 8.099999935 19.095554102 22.465357767
   246   1 0.000000 8.099999935 4.493071553 22.465357767
   247   1 0.000000 12.149999903 19.095554102 22.465357767
   248   1 0.000000 12.149999903 4.493071553 22.465357767
   249   1 0.000000 16.199999870 19.095554102 22.465357767
   250   1 0.000000 16.199999870 4.493071553 22.465357767
   251   1 0.000000 0E-9 15.725750437 20.218821990
   252   1 0.000000 0E-9 1.123267888 20.218821990
   253   1 0.000000 4.049999968 15.725750437 20.218821990
   254   1 0.000000 4.049999968 1.123267888 20.218821990
   255   1 0.000000 8.099999935 15.725750437 20.218821990
   256   1 0.000000 8.099999935 1.123267888 20.218821990
   257   1 0.000000 12.149999903 15.725750437 20.218821990
   258   1 0.000000 12.149999903 1.123267888 20.218821990
   259   1 0.000000 16.199999870 15.725750437 20.218821990
   260   1 0.000000 16.199999870 1.123267888 20.218821990
   261   1 0.000000 0E-9 24.711893544 21.342089879
   262   1 0.000000 0E-9 10.109410995 21.342089879
   263   1 0.000000 4.049999968 24.711893544 21.342089879
   264   1 0.000000 4.049999968 10.109410995 21.342089879
   265   1 0.000000 8.099999935 24.711893544 21.342089879
   266   1 0.000000 8.099999935 10.109410995 21.342089879
   267   1 0.000000 12.149999903 24.711893544 21.342089879
   268   1 0.000000 12.149999903 10.109410995 21.342089879
   269   1 0.000000 16.199999870 24.711893544 21.342089879
   270   1 0.000000 16.199999870 10.109410995 21.342089879
   271   1 0.000000 2.024999984 17.410652269 21.342089879
   272   1 0.000000 2.024999984 2.808169721 21.342089879
   273   1 0.000000 6.074999951 17.410652269 21.342089879
   274   1 0.000000 6.074999951 2.808169721 21.342089879
   275   1 0.000000 10.124999919 17.410652269 21.342089879
   276   1 0.000000 10.124999919 2.808169721 21.342089879
   277   1 0.000000 14.174999886 17.410652269 21.342089879
   278   1 0.000000 14.174999886 2.808169721 21.342089879
   279   1 0.000000 18.224999854 17.410652269 21.342089879
   280   1 0.000000 18.224999854 2.808169721 21.342089879
   281   1 0.000000 2.024999984 26.396795376 22.465357767
   282   1 0.000000 2.024999984 11.794312828 22.465357767
   283   1 0.000000 6.074999951 26.396795376 22.465357767
   284   1 0.000000 6.074999951 11.794312828 22.465357767
   285   1 0.000000 10.124999919 26.396795376 22.465357767
   286   1 0.000000 10.124999919 11.794312828 22.465357767
   287   1 0.000000 14.174999886 26.396795376 22.465357767
   288   1 0.000000 14.174999886 11.794312828 22.465357767
   289   1 0.000000 18.224999854 26.396795376 22.465357767
   290   1 0.000000 18.224999854 11.794312828 22.465357767
   291   1 0.000000 2.024999984 20.780455935 23.588625655
   292   1 0.000000 2.024999984 6.177973386 23.588625655
   293   1 0.000000 6.074999951 20.780455935 23.588625655
   294   1 0.000000 6.074999951 6.177973386 23.588625655
   295   1 0.000000 10.124999919 20.780455935 23.588625655
   296   1 0.000000 10.124999919 6.177973386 23.588625655
   297   1 0.000000 14.174999886 20.780455935 23.588625655
   298   1 0.000000 14.174999886 6.177973386 23.588625655
   299   1 0.000000 18.224999854 20.780455935 23.588625655
   300   1 0.000000 18.224999854 6.177973386 23.588625655
   301   1 0.000000 2.024999984 20.218821990 20.780455935
   302   1 0.000000 2.024999984 5.616339442 20.780455935
   303   1 0.000000 6.074999951 20.218821990 20.780455935
   304   1 0.000000 6.074999951 5.616339442 20.780455935
   305   1 0.000000 10.124999919 20.218821990 20.780455935
   306   1 0.000000 10.124999919 5.616339442 20.780455935
   307   1 0.000000 14.174999886 20.218821990 20.780455935
   308   1 0.000000 14.174999886 5.616339442 20.780455935
   309   1 0.000000 18.224999854 20.218821990 20.780455935
   310   1 0.000000 18.224999854 5.616339442 20.780455935
   311   1 0.000000 2.024999984 14.602482549 21.903723823
   312   1 0.000000 2.024999984 29.204965097 21.903723823
   313   1 0.000000 6.074999951 14.602482549 21.903723823
   314   1 0.000000 6.074999951 29.204965097 21.903723823
   315   1 0.000000 10.124999919 14.602482549 21.903723823
   316   1 0.000000 10.124999919 29.204965097 21.903723823
   317   1 0.000000 14.174999886 14.602482549 21.903723823
   318   1 0.000000 14.174999886 29.204965097 21.903723823
   319   1 0.000000 18.224999854 14.602482549 21.903723823
   320   1 0.000000 18.224999854 29.204965097 21.903723823
   321   1 0.000000 2.024999984 23.588625655 23.026991711
   322   1 0.000000 2.024999984 8.986143107 23.026991711
   323   1 0.000000 6.074999951 23.588625655 23.026991711
   324   1 0.000000 6.074999951 8.986143107 23.026991711
   325   1 0.000000 10.124999919 23.588625655 23.026991711
   326   1 0.000000 10.124999919 8.986143107 23.026991711
   327   1 0.000000 14.174999886 23.588625655 23.026991711
   328   1 0.000000 14.174999886 8.986143107 23.026991711
   329   1 0.000000 18.224999854 23.588625655 23.026991711
   330   1 0.000000 18.224999854 8.986143107 23.026991711
   331   1 0.000000 0E-9 16.287384381 23.026991711
   332   1 0.000000 0E-9 1.684901833 23.026991711
   333   1 0.000000 4.049999968 16.287384381 23.026991711
   334   1 0.000000 4.049999968 1.684901833 23.026991711
   335   1 0.000000 8.099999935 16.287384381 23.026991711
   336   1 0.000000 8.099999935 1.684901833 23.026991711
   337   1 0.000000 12.149999903 16.287384381 23.026991711
   338   1 0.000000 12.149999903 1.684901833 23.026991711
   339   1 0.000000 16.199999870 16.287384381 23.026991711
   340   1 0.000000 16.199999870 1.684901833 23.026991711
   341   1 0.000000 0E-9 27.520063265 20.780455935
   342   1 0.000000 0E-9 12.917580716 20.780455935
   343   1 0.000000 4.049999968 27.520063265 20.780455935
   344   1 0.000000 4.049999968 12.917580716 20.780455935
   345   1 0.000000 8.099999935 27.520063265 20.780455935
   346   1 0.000000 8.099999935 12.917580716 20.780455935
   347   1 0.000000 12.149999903 27.520063265 20.780455935
   348   1 0.000000 12.149999903 12.917580716 20.780455935
   349   1 0.000000 16.199999870 27.520063265 20.780455935
   350   1 0.000000 16.199999870 12.917580716 20.780455935
   351   1 0.000000 0E-9 21.903723823 21.903723823
   352   1 0.000000 0E-9 7.301241274 21.903723823
   353   1 0.000000 4.049999968 21.903723823 21.903723823
   354   1 0.000000 4.049999968 7.301241274 21.903723823
   355   1 0.000000 8.099999935 21.903723823 21.903723823
   356   1 0.000000 8.099999935 7.301241274 21.903723823
   357   1 0.000000 12.149999903 21.903723823 21.903723823
   358   1 0.000000 12.149999903 7.301241274 21.903723823
   359   1 0.000000 16.199999870 21.903723823 21.903723823
   360   1 0.000000 16.199999870 7.301241274 21.903723823
   361   1 0.000000 0E-9 16.849018325 25.835161432
   362   1 0.000000 0E-9 2.246535777 25.835161432
   363   1 0.000000 4.049999968 16.849018325 25.835161432
   364   1 0.000000 4.049999968 2.246535777 25.835161432
   365   1 0.000000 8.099999935 16.849018325 25.835161432
   366   1 0.000000 8.099999935 2.246535777 25.835161432
   367   1 0.000000 12.149999903 16.849018325 25.835161432
   368   1 0.000000 12.149999903 2.246535777 25.835161432
   369   1 0.000000 16.199999870 16.849018325 25.835161432
   370   1 0.000000 16.199999870 2.246535777 25.835161432
   371   1 0.000000 0E-9 13.479214660 23.588625655
   372   1 0.000000 0E-9 28.081697209 23.588625655
   373   1 0.000000 4.049999968 13.479214660 23.588625655
   374   1 0.000000 4.049999968 28.081697209 23.588625655
   375   1 0.000000 8.099999935 13.479214660 23.588625655
   376   1 0.000000 8.099999935 28.081697209 23.588625655
   377   1 0.000000 12.149999903 13.479214660 23.588625655
   378   1 0.000000 12.149999903 28.081697209 23.588625655
   379   1 0.000000 16.199999870 13.479214660 23.588625655
   380   1 0.000000 16.199999870 28.081697209 23.588625655
   381   1 0.000000 0E-9 22.465357767 24.711893544
   382   1 0.000000 0E-9 7.862875218 24.711893544
   383   1 0.000000 4.049999968 22.465357767 24.711893544
   384   1 0.000000 4.049999968 7.862875218 24.711893544
   385   1 0.000000 8.099999935 22.465357767 24.711893544
   386   1 0.000000 8.099999935 7.862875218 24.711893544
   387   1 0.000000 12.149999903 22.465357767 24.711893544
   388   1 0.000000 12.149999903 7.862875218 24.711893544
   389   1 0.000000 16.199999870 22.465357767 24.711893544
   390   1 0.000000 16.199999870 7.862875218 24.711893544
   391   1 0.000000 2.024999984 15.164116493 24.711893544
   392   1 0.000000 2.024999984 0.561633944 24.711893544
   393   1 0.000000 6.074999951 15.164116493 24.711893544
   394   1 0.000000 6.074999951 0.561633944 24.711893544
   395   1 0.000000 10.124999919 15.164116493 24.711893544
   396   1 0.000000 10.124999919 0.561633944 24.711893544
   397   1 0.000000 14.174999886 15.164116493 24.711893544
   398   1 0.000000 14.174999886 0.561633944 24.711893544
   399   1 0.000000 18.224999854 15.164116493 24.711893544
   400   1 0.000000 18.224999854 0.561633944 24.711893544
   401   1 0.000000 2.024999984 24.150259600 25.835161432
   402   1 0.000000 2.024999984 9.547777051 25.835161432
   403   1 0.000000 6.074999951 24.150259600 25.835161432
   404   1 0.000000 6.074999951 9.547777051 25.835161432
   405   1 0.000000 10.124999919 24.150259600 25.835161432
   406   1 0.000000 10.124999919 9.547777051 25.835161432
   407   1 0.000000 14.174999886 24.150259600 25.835161432
   408   1 0.000000 14.174999886 9.547777051 25.835161432
   409   1 0.000000 18.224999854 24.150259600 25.835161432
   410   1 0.000000 18.224999854 9.547777051 25.835161432
   411   1 0.000000 2.024999984 18.533920158 26.958429320
   412   1 0.000000 2.024999984 3.931437609 26.958429320
   413   1 0.000000 6.074999951 18.533920158 26.958429320
   414   1 0.000000 6.074999951 3.931437609 26.958429320
   415   1 0.000000 10.124999919 18.533920158 26.958429320
   416   1 0.000000 10.124999919 3.931437609 26.958429320
   417   1 0.000000 14.174999886 18.533920158 26.958429320
   418   1 0.000000 14.174999886 3.931437609 26.958429320
   419   1 0.000000 18.224999854 18.533920158 26.958429320
   420   1 0.000000 18.224999854 3.931437609 26.958429320
   421   1 0.000000 2.024999984 17.972286214 24.150259600
   422   1 0.000000 2.024999984 3.369803665 24.150259600
   423   1 0.000000 6.074999951 17.972286214 24.150259600
   424   1 0.000000 6.074999951 3.369803665 24.150259600
   425   1 0.000000 10.124999919 17.972286214 24.150259600
   426   1 0.000000 10.124999919 3.369803665 24.150259600
   427   1 0.000000 14.174999886 17.972286214 24.150259600
   428   1 0.000000 14.174999886 3.369803665 24.150259600
   429   1 0.000000 18.224999854 17.972286214 24.150259600
   430   1 0.000000 18.224999854 3.369803665 24.150259600
   431   1 0.000000 2.024999984 12.355946772 25.273527488
   432   1 0.000000 2.024999984 26.958429320 25.273527488
   433   1 0.000000 6.074999951 12.355946772 25.273527488
   434   1 0.000000 6.074999951 26.958429320 25.273527488
   435   1 0.000000 10.124999919 12.355946772 25.273527488
   436   1 0.000000 10.124999919 26.958429320 25.273527488
   437   1 0.000000 14.174999886 12.355946772 25.273527488
   438   1 0.000000 14.174999886 26.958429320 25.273527488
   439   1 0.000000 18.224999854 12.355946772 25.273527488
   440   1 0.000000 18.224999854 26.958429320 25.273527488
   441   1 0.000000 2.024999984 21.342089879 26.396795376
   442   1 0.000000 2.024999984 6.739607330 26.396795376
   443   1 0.000000 6.074999951 21.342089879 26.396795376
   444   1 0.000000 6.074999951 6.739607330 26.396795376
   445   1 0.000000 10.124999919 21.342089879 26.396795376
   446   1 0.000000 10.124999919 6.739607330 26.396795376
   447   1 0.000000 14.174999886 21.342089879 26.396795376
   448   1 0.000000 14.174999886 6.739607330 26.396795376
   449   1 0.000000 18.224999854 21.342089879 26.396795376
   450   1 0.000000 18.224999854 6.739607330 26.396795376
   451   1 0.000000 0E-9 14.040848604 26.396795376
   452   1 0.000000 0E-9 28.643331153 26.396795376
   453   1 0.000000 4.049999968 14.040848604 26.396795376
   454   1 0.000000 4.049999968 28.643331153 26.396795376
   455   1 0.000000 8.099999935 14.040848604 26.396795376
   456   1 0.000000 8.099999935 28.643331153 26.396795376
   457   1 0.000000 12.149999903 14.040848604 26.396795376
   458   1 0.000000 12.149999903 28.643331153 26.396795376
   459   1 0.000000 16.199999870 14.040848604 26.396795376
   460   1 0.000000 16.199999870 28.643331153 26.396795376
   461   1 0.000000 0E-9 25.273527488 24.150259600
   462   1 0.000000 0E-9 10.671044939 24.150259600
   463   1 0.000000 4.049999968 25.273527488 24.150259600
   464   1 0.000000 4.049999968 10.671044939 24.150259600
   465   1 0.000000 8.099999935 25.273527488 24.150259600
   466   1 0.000000 8.099999935 10.671044939 24.150259600
   467   1 0.000000 12.149999903 25.273527488 24.150259600
   468   1 0.000000 12.149999903 10.671044939 24.150259600
   469   1 0.000000 16.199999870 25.273527488 24.150259600
   470   1 0.000000 16.199999870 10.671044939 24.150259600
   471   1 0.000000 0E-9 19.657188046 25.273527488
   472   1 0.000000 0E-9 5.054705498 25.273527488
   473   1 0.000000 4.049999968 19.657188046 25.273527488
   474   1 0.000000 4.049999968 5.054705498 25.273527488
   475   1 0.000000 8.099999935 19.657188046 25.273527488
   476   1 0.000000 8.099999935 5.054705498 25.273527488
   477   1 0.000000 12.149999903 19.657188046 25.273527488
   478   1 0.000000 12.149999903 5.054705498 25.273527488
   479   1 0.000000 16.199999870 19.657188046 25.273527488
   480   1 0.000000 16.199999870 5.054705498 25.273527488
   481   1 0.000000 0E-9 14.602482549 29.204965097
   482   1 0.000000 0E-9 29.204965097 29.204965097
   483   1 0.000000 4.049999968 14.602482549 29.204965097
   484   1 0.000000 4.049999968 29.204965097 29.204965097
   485   1 0.000000 8.099999935 14.602482549 29.204965097
   486   1 0.000000 8.099999935 29.204965097 29.204965097
   487   1 0.000000 12.149999903 14.602482549 29.204965097
   488   1 0.000000 12.149999903 29.204965097 29.204965097
   489   1 0.000000 16.199999870 14.602482549 29.204965097
   490   1 0.000000 16.199999870 29.204965097 29.204965097
   491   1 0.000000 0E-9 11.232678884 26.958429320
   492   1 0.000000 0E-9 25.835161432 26.958429320
   493   1 0.000000 4.049999968 11.232678884 26.958429320
   494   1 0.000000 4.049999968 25.835161432 26.958429320
   495   1 0.000000 8.099999935 11.232678884 26.958429320
   496   1 0.000000 8.099999935 25.835161432 26.958429320
   497   1 0.000000 12.149999903 11.232678884 26.958429320
   498   1 0.000000 12.149999903 25.835161432 26.958429320
   499   1 0.000000 16.199999870 11.232678884 26.958429320
   500   1 0.000000 16.199999870 25.835161432 26.958429320
   501   1 0.000000 0E-9 20.218821990 28.081697209
   502   1 0.000000 0E-9 5.616339442 28.081697209
   503   1 0.000000 4.049999968 20.218821990 28.081697209
   504   1 0.000000 4.049999968 5.616339442 28.081697209
   505   1 0.000000 8.099999935 20.218821990 28.081697209
   506   1 0.000000 8.099999935 5.616339442 28.081697209
   507   1 0.000000 12.149999903 20.218821990 28.081697209
   508   1 0.000000 12.149999903 5.616339442 28.081697209
   509   1 0.000000 16.199999870 20.218821990 28.081697209
   510   1 0.000000 16.199999870 5.616339442 28.081697209
   511   1 0.000000 2.024999984 12.917580716 28.081697209
   512   1 0.000000 2.024999984 27.520063265 28.081697209
   513   1 0.000000 6.074999951 12.917580716 28.081697209
   514   1 0.000000 6.074999951 27.520063265 28.081697209
   515   1 0.000000 10.124999919 12.917580716 28.081697209
   516   1 0.000000 10.124999919 27.520063265 28.081697209
   517   1 0.000000 14.174999886 12.917580716 28.081697209
   518   1 0.000000 14.174999886 27.520063265 28.081697209
   519   1 0.000000 18.224999854 12.917580716 28.081697209