LAMMPS (13 Jan 2016)
include /users/knc6/inelast.mod
# Compute elastic constant tensor for a crystal
#
# Written by Aidan Thompson (Sandia, athomps@sandia.gov)
#
#  This script uses the following three include files.
#
#   init.mod      (must be modified for different crystal structures)
# 	       	  Define units, deformation parameters and initial
#		  configuration of the atoms and simulation cell.
#
#
#   potential.mod    (must be modified for different pair styles)
# 		     Define pair style and other attributes
#		     not stored in restart file
#
#
#   displace.mod    (displace.mod should not need to be modified)
# 		    Perform positive and negative box displacements
# 		    in direction ${dir} and size ${up}.
# 		    It uses the resultant changes
#		    in stress to compute one
# 		    row of the elastic stiffness tensor
#
#		    Inputs variables:
#		    	   dir = the Voigt deformation component
#		    		    (1,2,3,4,5,6)
#		    Global constants:
#       	    	   up = the deformation magnitude (strain units)
#       		   cfac = conversion from LAMMPS pressure units to
#               	   output units for elastic constants
#
#
#  To run this on a different system, it should only be necessary to
#  modify the files init.mod and potential.mod. In order to calculate
#  the elastic constants correctly, care must be taken to specify
#  the correct units in init.mod (units, cfac and cunits). It is also
#  important to verify that the minimization of energy w.r.t atom
#  positions in the deformed cell is fully converged.
#  One indication of this is that the elastic constants are insensitive
#  to the choice of the variable ${up} in init.mod. Another is to check
#  the final max and two-norm forces reported in the log file. If you know
#  that minimization is not required, you can set maxiter = 0.0 in
#  init.mod.
#
#  There are two alternate versions of displace.mod provided.
#  They are displace_restart.mod and displace_reverse.mod.
#  The former resets the box using a restart file while
#  the latter reverses the deformation. Copy whichever
#  one you like best to displace.mod.
#

include init.mod
variable dump_file string "None"
variable up  equal 1.0e-6
variable cfac  equal 1.0e-4
variable cunits  string GPa
variable etol  equal 0
variable ftol  equal 1.0e-10
variable maxiter equal 1000
variable maxeval equal 10000
variable dmax equal 1.0e-2
variable data_file string "data"
units metal
atom_style charge
boundary p p p
atom_modify sort 0 0.0

read_data data
  triclinic box = (0 0 0) to (20.25 29.205 47.1773) with tilt (0 0 0)
  1 by 1 by 1 MPI processor grid
  reading atoms ...
  720 atoms

### interactions
mass 1 26.98154
include potential.mod
pair_style eam/alloy
pair_coeff * * /users/knc6/Software/jarvis/jarvis/lammps/examples/Al03.eam.alloy  Al
neighbor 1.0 nsq
neigh_modify once no every 1 delay 0 check yes
min_style  cg
min_modify           dmax ${dmax} line quadratic
min_modify           dmax 0.01 line quadratic
thermo          1
thermo_style custom step temp press cpu pxx pyy pzz pxy pxz pyz ke pe etotal vol lx ly lz atoms
thermo_modify norm no
#fix 3 all nph aniso 0.0 0.0 1.0
#fix langevin all langevin 0.0 0.0 1.0 12233

#fix 3 all box/relax tri 0.0 vmax 0.001
fix            3 all box/relax aniso 0.0 vmax 0.001
#fix 3 all box/relax  aniso 0.0
#dump            2a all cfg 100 *.cfg mass type xs ys zs  vx vy vz fx fy fz
#dump_modify     2a element  Mo S

#fix 1a all qeq/comb 1 0.0001 file fq.out
#fix             2 all qeq/reax 1 0.0 10.0 1e-6 /scratch/lfs/kamal/JARVIS/All2/ReaxFF/param.qeq
minimize ${etol} ${ftol} ${maxiter} ${maxeval}
minimize 0 ${ftol} ${maxiter} ${maxeval}
minimize 0 1e-10 ${maxiter} ${maxeval}
minimize 0 1e-10 1000 ${maxeval}
minimize 0 1e-10 1000 10000
Neighbor list info ...
  1 neighbor list requests
  update every 1 steps, delay 0 steps, check yes
  max neighbors/atom: 2000, page size: 100000
  master list distance cutoff = 7.72488
  ghost atom cutoff = 7.72488
Memory usage per processor = 3.35208 Mbytes
Step Temp Press CPU Pxx Pyy Pzz Pxy Pxz Pyz KinEng PotEng TotEng Volume Lx Ly Lz Atoms 
       0            0   -12236.655            0   -14106.887   -12786.129   -9816.9503 1.8051593e-07 9.0748066e-07   -26.515193            0   -2352.2504   -2352.2504    27900.652        20.25    29.204965    47.177251      720 
       1            0   -11445.573 0.0024349689    -13270.97   -11978.052   -9087.6965 1.8244573e-07 9.1617337e-07   -22.747073            0   -2352.7985   -2352.7985    27828.109     20.22975    29.178494    47.144421      720 
       2            0   -10648.511 0.0048859119   -12426.962   -11163.094   -8355.4766 1.8437695e-07 9.2484286e-07   -19.032488            0   -2353.3069   -2353.3069    27756.113      20.2095    29.152137    47.112125      720 
       3            0   -9846.0671 0.0073418617   -11575.324   -10341.813   -7621.0646 1.8631387e-07 9.3348405e-07   -15.382361            0   -2353.7757   -2353.7757    27684.712     20.18925    29.125908    47.080424      720 
       4            0   -9038.9278 0.0098078251   -10716.564   -9514.8342    -6885.385 1.8815445e-07 9.4196286e-07   -11.813525            0    -2354.205    -2354.205    27613.962       20.169    29.099822    47.049392      720 
       5            0   -8228.0917  0.012267828   -9851.4933   -8683.1186   -6149.6634 1.9017066e-07 9.5043713e-07   -8.3317889            0   -2354.5947   -2354.5947    27543.932     20.14875    29.073903     47.01912      720 
       6            0   -7414.7822  0.014726877   -8981.0736    -7847.801    -5415.472 1.9208472e-07 9.5894555e-07   -4.9587729            0   -2354.9452   -2354.9452    27474.709      20.1285    29.048175    46.989719      720 
       7            0   -6600.5699  0.017198801   -8106.5769   -7010.3893   -4684.7434 1.9399232e-07 9.6726873e-07   -1.7105491            0   -2355.2567   -2355.2567    27406.403     20.10825    29.022671     46.96133      720 
       8            0   -5787.2924  0.019668818   -7229.4596    -6172.627   -3959.7906 1.9587802e-07 9.7541876e-07    1.3711228            0   -2355.5297   -2355.5297    27339.154       20.088    28.997435    46.934133      720 
       9            0   -4977.5139  0.022135973   -6351.7447   -5336.9567   -3243.8404 1.976809e-07 9.8347251e-07    4.2708753            0   -2355.7646   -2355.7646    27273.149     20.06775    28.972522    46.908366      720 
      10            0   -4174.8242  0.024607897   -5476.3517   -4506.8388    -2541.282 1.9974589e-07 9.9135231e-07    6.9637987            0   -2355.9623   -2355.9623     27208.64      20.0475    28.948008    46.884353      720 
      11            0   -3384.1706  0.027077913    -4607.238   -3687.0203   -1858.2536 2.0151055e-07 9.990054e-07    9.3873252            0    -2356.124    -2356.124    27145.983     20.02725    28.924003    46.862544      720 
      12            0   -2612.6541  0.029561996   -3750.1185   -2884.3564   -1203.4875 2.0323853e-07 1.0062523e-06    11.495822            0   -2356.2512   -2356.2512    27085.698       20.007    28.900664    46.843599      720 
      13            0   -1871.2239  0.032043934   -2913.7739   -2109.4498   -590.44797 2.051166e-07 1.0130852e-06    13.213903            0   -2356.3461   -2356.3461    27028.591     19.98675    28.878237    46.828534      720 
      14            0   -1177.9375  0.040288925   -2112.7466   -1379.8195   -41.246563 2.0686024e-07 1.0194707e-06    14.389321            0    -2356.412    -2356.412    26975.997      19.9665    28.857132    46.819028      720 
      15            0   -565.26082  0.042780876   -1373.1158    -727.1206    404.45399 2.0847104e-07 1.024676e-06    14.887829            0   -2356.4539   -2356.4539    26930.337     19.94625    28.838099    46.818112      720 
      16            0   -98.361577  0.045279026   -747.35992    -215.1439    667.41909 2.0982877e-07 1.0285385e-06    14.363567            0   -2356.4796   -2356.4796    26896.526       19.926    28.822672    46.831905      720 
      17            0    82.073067  0.047776937   -348.97991    17.115402    578.08371 2.1110615e-07 1.0291282e-06    12.462987            0      -2356.5      -2356.5    26885.332     19.90575     28.81429    46.873668      720 
      18            0   -37.308929  0.050284863   -289.58643   -70.240923    247.90057 2.1142271e-07  1.02695e-06    10.834849            0    -2356.512    -2356.512    26896.499    19.893394     28.81516    46.920845      720 
      19            0    144.40351  0.052796841    110.71725    148.48451    174.00876 2.1223013e-07 1.0267733e-06    10.764685            0   -2356.5197   -2356.5197    26885.381    19.873144    28.808107    46.960737      720 
      20            0   -181.51253  0.057744026   -163.85694    -180.7894   -199.89125 2.1153073e-07 1.0223055e-06    10.216063            0   -2356.5225   -2356.5225    26910.832    19.874153    28.816867    46.988518      720 
      21            0   -222.60053  0.060243845    6.4996059   -212.06573   -462.23545 2.1082613e-07 1.0144609e-06    11.472161            0    -2356.535    -2356.535    26916.983    19.858063    28.817874    47.035696      720 
      22            0    371.06836  0.065205812    554.78813    391.30038    167.11657 2.1073125e-07 1.0162801e-06    12.333641            0   -2356.5436   -2356.5436    26871.647    19.852632    28.801831     46.99548      720 
      23            0    479.66949  0.067713976    466.20734    484.46781    488.33333 2.0890376e-07 1.0112373e-06    11.991805            0   -2356.5589   -2356.5589     26861.67     19.86673    28.799618    46.948303      720 
      24            0   -122.25348  0.072675943   -190.90992   -135.26637    -40.58415 2.0729821e-07 1.0042585e-06    10.475066            0   -2356.5675   -2356.5675    26906.766    19.880502    28.816173    46.967543      720 
      25            0   -432.58032  0.075178862   -384.08391   -416.51487   -497.14218 2.0466818e-07 9.8909691e-07    8.8511439            0   -2356.5926   -2356.5926    26933.014    19.876086    28.821742     47.01472      720 
      26            0    413.03886  0.080156803    541.40283    456.12164     241.5921 2.0486134e-07 9.8912731e-07     10.82608            0   -2356.6097   -2356.6097    26870.277    19.856774    28.798253    46.989121      720 
      27            0     1398.219  0.085133791    1588.8578    1435.9443    1169.8549 2.0086324e-07 9.6966765e-07    14.674709            0   -2356.6328   -2356.6328    26799.048    19.837498    28.774422    46.948949      720 
      28            0    1283.6417  0.087648869    1406.4473    1104.2568    1340.2211 1.6252484e-07 7.9204142e-07    26.801849            0   -2357.0166   -2357.0166    26818.974    19.848816    28.796078    46.921751      720 
      29            0    294.67681    0.0901649    350.42401    133.87595    399.73048 1.613229e-07 7.8550398e-07    21.877263            0    -2357.054    -2357.054    26892.955    19.869066    28.818873    46.966056      720 
      30            0   -83.243664  0.095144987   -65.275216    -194.0624    9.6066212 1.6128341e-07 7.8287162e-07    17.707811            0   -2357.0575   -2357.0575    26921.759    19.877624    28.823561    46.988472      720 
      31            0   -2.2909617  0.097664833   -57.053375    172.68284   -122.50235 1.6177729e-07 7.8104236e-07    2.7543727            0   -2357.0629   -2357.0629    26917.427    19.880733    28.794356    47.021207      720 
      32            0    302.91008   0.10018682    471.00176    156.36842    281.36007 1.5735385e-07 7.6549575e-07    22.096003            0   -2357.1069   -2357.1069    26895.791    19.860483    28.817717    46.993192      720 
      33            0   -515.26624   0.10516787   -431.30796    -679.9938   -434.49698 1.5494282e-07 7.5259856e-07    19.796283            0    -2357.123    -2357.123    26958.027    19.879974    28.839755    47.019796      720 
      34            0   -1099.9374     0.107687   -1155.2955   -1212.0207   -932.49608 1.5150714e-07  7.36196e-07    14.434311            0   -2357.1346   -2357.1346     27003.43    19.900224    28.848993    47.035992      720 
      35            0   -758.50413   0.11020279   -1046.5828   -668.00265   -560.92698 1.4611211e-07 7.0863482e-07    4.5851394            0   -2357.2241   -2357.2241    26979.362    19.913181    28.819789    47.011081      720 
      36            0     26.02919   0.11272597   -161.01124    108.63759    130.46122 1.4706641e-07 7.1310121e-07    8.4218822            0   -2357.2401   -2357.2401    26920.258    19.892931    28.801213    46.986129      720 
      37            0   -29.027324   0.11524391    59.775233   -91.590556   -55.266649 1.4668167e-07 7.1116451e-07    17.296234            0   -2357.2455   -2357.2455    26926.458    19.872681    28.817469    47.018301      720 
      38            0    500.34895   0.11776686    570.37807    606.68944    323.97934 1.4616019e-07 7.0670836e-07    10.411971            0   -2357.2596   -2357.2596    26888.287    19.865409    28.788264    47.016485      720 
      39            0   -21.768959   0.12029195   -116.92039    334.31002   -282.69651 1.426711e-07 6.8573104e-07   -4.9332299            0   -2357.3104   -2357.3104    26930.507    19.885659    28.777054    47.060681      720 
      40            0   -73.787947   0.12280989   -89.849751   -12.579844   -118.93425 1.4069287e-07 6.8115884e-07    10.931121            0   -2357.3274   -2357.3274    26933.254    19.881857    28.806259    47.026756      720 
      41            0    181.28787   0.12780786    194.55205    188.35492    160.95664 1.4094933e-07 6.8184748e-07    14.855366            0   -2357.3291   -2357.3291    26913.751    19.875914    28.805065    47.008703      720 
      42            0    55.220339   0.13032198     122.6981   -212.30817    255.27108 1.3871039e-07 6.7610873e-07    29.272179            0   -2357.3399   -2357.3399    26922.267    19.875061     28.83427    46.977965      720 
      43            0   -324.43929   0.13284302   -368.71274     -327.529   -277.07613 1.3811936e-07 6.6965408e-07    13.563155            0   -2357.3532   -2357.3532    26952.799    19.888578    28.818411    47.025142      720 
      44            0    43.759641   0.13536191   -36.118977    251.48488   -84.086981 1.3856175e-07 6.6835691e-07    3.6879495            0   -2357.3641   -2357.3641    26926.507    19.884731    28.789206    47.036026      720 
      45            0    245.86618     0.137887    398.23388     98.06747    241.29718 1.3559152e-07 6.5719194e-07    24.700652            0   -2357.3969   -2357.3969    26912.144    19.865398    28.818411    47.008998      720 
      46            0   -515.15871   0.14287281   -417.16966   -718.62688   -409.67961 1.3293698e-07 6.4620135e-07    24.762989            0   -2357.4109   -2357.4109    26970.162    19.881842     28.84268     47.03177      720 
      47            0   -1119.3322   0.14787102    -1118.598    -1328.987   -910.41148 1.2994661e-07 6.3090306e-07    22.753363            0   -2357.4201   -2357.4201    27017.209    19.899335    28.858231    47.047028      720 
      48            0   -1001.9448     0.150388    -1270.279   -1066.5017   -669.05369 1.2093835e-07 5.8649107e-07    16.350358            0    -2357.544    -2357.544     27011.94    19.919585    28.839768    47.020117      720 
      49            0   -150.09885   0.15290785   -333.62845   -181.17064    64.502553 1.2189556e-07 5.9059892e-07    18.244093            0   -2357.5698   -2357.5698    26947.563    19.899335    28.815343    46.995593      720 
      50            0    158.05823   0.15790081    66.681858    150.11384    257.37898 1.2239574e-07 5.918021e-07    18.480896            0   -2357.5726   -2357.5726    26925.287    19.887154    28.805841    47.001005      720 
      51            0   -2.9229462   0.16043091    74.059535    12.832252   -95.660625 1.2242675e-07 5.9000667e-07    17.385352            0   -2357.5767   -2357.5767    26939.841    19.876171     28.80842    47.048183      720 
      52            0    -396.4559   0.16294885   -488.75565   -468.06594    -232.5461 1.1983831e-07 5.7968136e-07    20.202832            0   -2357.5972   -2357.5972    26968.514    19.896421    28.825728    47.022072      720 
      53            0    276.15266   0.16547179    130.54439    201.55056    496.36303 1.1890549e-07 5.7556078e-07    23.334132            0   -2357.6193   -2357.6193    26917.536    19.890504    28.808703    46.974894      720 
      54            0    530.32173   0.16800284    346.38865    693.23557    551.34097 1.0786829e-07 5.1829479e-07    14.327872            0   -2357.7816   -2357.7816    26908.122    19.890309    28.779498    47.006579      720 
      55            0   -365.79473   0.17052197   -512.20721   -275.16969   -310.00728 1.0542708e-07 5.0630604e-07    15.408568            0   -2357.8087   -2357.8087    26977.543    19.901794    28.808703    47.052905      720 
      56            0   -842.69046   0.17305183   -775.74456   -924.66297   -827.66386 1.0215605e-07 4.8975718e-07     24.56519            0   -2357.8353   -2357.8353    27017.457    19.893454    28.837908    47.094535      720 
      57            0   -470.33997   0.17557287    -210.1801   -655.63375   -545.20607 1.0002742e-07 4.7896649e-07    33.019114            0   -2357.8765   -2357.8765    26991.817    19.873204    28.839006    47.095991      720 
      58            0    76.896704   0.18057489    287.16383   -35.382813     -21.0909 1.0028217e-07 4.810452e-07    31.028888            0   -2357.8839   -2357.8839    26949.856    19.868513    28.818029    47.068117      720 
      59            0    6.4371283   0.18309402   -34.401647     53.26655   0.44648224 1.0030604e-07 4.8014997e-07    21.334545            0   -2357.8881   -2357.8881    26953.841    19.888763    28.803688    47.050561      720 
      60            0   -249.44579   0.18562388   -240.16681   -442.22613   -65.944444  9.85845e-08 4.7445443e-07    33.798923            0   -2357.9001   -2357.9001     26972.78    19.890119    28.832893    47.032722      720 
      61            0    520.29785   0.19061995    606.85144    286.93455    667.10754 9.8037821e-08 4.7157117e-07    39.856456            0   -2357.9144   -2357.9144    26915.616    19.872671    28.817528    46.999297      720 
      62            0    1386.7306   0.19314694    1572.3528    1197.5375    1390.3016 9.4771962e-08 4.5448535e-07    42.867381            0   -2357.9439   -2357.9439    26855.421    19.852421    28.791976     46.98368      720 
      63            0    956.21871    0.1956799    1149.5546    851.52282    867.57868 8.9400224e-08 4.2551219e-07    38.940182            0   -2358.0555   -2358.0555    26893.675    19.858974    28.794562    47.030857      720 
      64            0    55.738491   0.19820094    164.86337   -42.455492    44.807598 8.8685294e-08 4.221822e-07    34.793717            0   -2358.0778   -2358.0778    26961.281    19.879224    28.816079    47.065883      720 
      65            0   -145.70873   0.20319796   -142.45241   -151.96455   -142.70924 8.8664896e-08 4.2113753e-07    28.741512            0   -2358.0794   -2358.0794    26976.387    19.890271    28.811997    47.072766      720 
      66            0    49.731895   0.20820284   -97.415731    209.78718    36.824234 8.8719699e-08 4.2085283e-07    20.064609            0   -2358.0818   -2358.0818    26961.346    19.898428    28.790809    47.061843      720 
      67            0    72.388212   0.21072292   -169.58477    61.790855    324.95855 8.5646205e-08 4.0729709e-07    31.147891            0   -2358.1286   -2358.1286     26959.99    19.907171    28.805594    47.014666      720 
      68            0   -152.18672   0.21324682   -211.27281   -177.36872   -67.918631 8.536839e-08 4.0490001e-07    31.355316            0    -2358.139    -2358.139    26979.571    19.896242    28.813435    47.061843      720 
      69            0    167.07143   0.21824598    218.21791    163.51815    119.47822 8.5515986e-08 4.0518419e-07    31.827414            0   -2358.1422   -2358.1422    26956.774    19.882507    28.803891    47.070154      720 
      70            0    301.89378   0.22325492    526.01143    334.17094    45.498974 8.5509534e-08 4.0370628e-07    31.285358            0    -2358.145    -2358.145    26949.345    19.866605    28.797925    47.104605      720 
      71            0    -175.1429   0.22578597    131.89637   -132.49289   -524.83218 8.4853056e-08 3.9940242e-07    29.828512            0   -2358.1522   -2358.1522    26987.708    19.867224    28.809167    47.151783      720 
      72            0   -243.93262   0.22831488   -170.04842   -223.96161   -337.78783 8.2857215e-08 3.9085688e-07    30.474276            0   -2358.1886   -2358.1886     26991.75    19.887474    28.811891    47.106371      720 
      73            0    58.287073      0.23332    124.11321    78.905306   -28.157298 8.2994702e-08 3.9168344e-07    31.620359            0   -2358.1908   -2358.1908    26968.473    19.883523    28.804224    47.087631      720 
      74            0     28.75942   0.23831701   -84.305371   -18.618593    189.20222 8.243781e-08 3.9026227e-07    35.059765            0   -2358.1941   -2358.1941    26968.296    19.898641    28.810511    47.041279      720 
      75            0   -734.62403   0.24084187    -909.0745    -704.9916   -589.80598 8.0624441e-08 3.8057966e-07    28.270794            0   -2358.2094   -2358.2094    27028.852    19.915334    28.822095    47.088456      720 
      76            0   -592.24182   0.24336696   -721.88654   -343.65212    -711.1868 7.7771744e-08 3.6287483e-07    19.315134            0   -2358.2814   -2358.2814    27024.907    19.909323    28.797737    47.135634      720 
      77            0    49.501009   0.24837685   -12.567411    240.27877   -79.208334 7.8009313e-08 3.6476436e-07    25.272764            0   -2358.2915   -2358.2915     26975.72    19.894385    28.787512    47.101895      720 
      78            0   -2.4633641   0.25337982    29.409808   -68.632462    31.832562 7.7535616e-08 3.6416601e-07    39.509145            0   -2358.2944   -2358.2944    26978.547    19.889078    28.813347    47.077154      720 
      79            0     5.915338   0.25590992   -212.42055   -18.332879    248.49944 7.5200791e-08 3.5307721e-07     38.70154            0   -2358.3354   -2358.3354    26978.311    19.909328    28.807852    47.037831      720 
      80            0    31.995721   0.25843787    15.174909    47.762951    33.049304 7.5073002e-08 3.5102369e-07    36.992266            0   -2358.3485   -2358.3485     26979.66      19.8928    28.804339    47.085008      720 
      81            0   -189.04098   0.26344085   -185.97951   -210.27836   -170.86507 7.4813195e-08 3.4988854e-07    38.208582            0   -2358.3497   -2358.3497    26996.686    19.894813    28.813444    47.095066      720 
      82            0   -108.98291   0.26597095     150.5063   -347.46573   -129.98931 7.382394e-08 3.4509335e-07    51.673626            0   -2358.3677   -2358.3677    26993.088    19.874563    28.833049    47.104717      720 
      83            0    291.69775   0.26850486    396.87145    248.29797    229.92384 7.3965489e-08 3.4474256e-07     42.68006            0   -2358.3757   -2358.3757    26962.689    19.879888    28.803844    47.086762      720 
      84            0    113.38575    0.2710278   -14.091009    278.04455    76.203727 7.3550412e-08 3.4247571e-07    30.191209            0   -2358.3833   -2358.3833    26975.954    19.900138    28.787705    47.088372      720 
      85            0   -116.47551   0.27603388   -189.11598   -48.438418   -111.87212 7.3306114e-08 3.4168434e-07    34.745209            0   -2358.3849   -2358.3849    26993.405    19.899807    28.802735     47.09503      720 
      86            0    13.339998   0.28104091    84.293924   -85.860634    41.586705 7.3190688e-08 3.4169559e-07    44.868329            0   -2358.3867   -2358.3867    26983.725     19.88727     28.81587    47.086348      720 
      87            0    339.68679   0.28356695    457.71657    465.91314    95.430654 7.2477391e-08 3.3563286e-07    35.110548            0   -2358.4122   -2358.4122    26963.496     19.87782    28.786665    47.121174      720 
      88            0   -509.76541   0.28857994   -479.74186   -368.65361   -680.90076 7.100725e-08 3.2821844e-07    31.436681            0   -2358.4296   -2358.4296    27029.411    19.897985    28.805906    47.156976      720 
      89            0   -1102.3185   0.29110479   -1200.9146   -985.27705   -1120.7637 6.8722543e-08 3.1661869e-07    31.483652            0   -2358.4482   -2358.4482    27076.618    19.918235     28.82233    47.164419      720 
      90            0   -592.15293   0.29364491   -770.27226   -509.74065   -496.44588 6.6375113e-08 3.0502529e-07    37.706108            0   -2358.5197   -2358.5197    27039.402    19.917781     28.81219    47.117242      720 
      91            0    24.595534   0.29864883   -82.740562    99.200173    57.326991 6.6650544e-08 3.0669183e-07     41.00397            0   -2358.5289   -2358.5289    26992.594    19.902669     28.79781    47.094895      720 
      92            0    -3.892882   0.30365491    77.817198   -79.716416   -9.7794287 6.6594174e-08 3.0640657e-07    49.549299            0   -2358.5308   -2358.5308    26995.795    19.888825    28.813526    47.107556      720 
      93            0   -6.8296114   0.30618691    128.38093    102.97952   -251.84929 6.6104413e-08 3.0228313e-07    40.318627            0   -2358.5479   -2358.5479    26999.956    19.883891     28.79628    47.154733      720 
      94            0   -30.537019   0.30871701   -40.899125   -28.355283   -22.356648 6.5417735e-08 2.9997259e-07    46.284058            0   -2358.5603   -2358.5603    26999.656    19.896659      28.8063    47.107556      720 
      95            0    210.19583   0.31372595    219.37717    205.73075    205.47958 6.5421949e-08 3.0009776e-07    47.863749            0   -2358.5617   -2358.5617    26981.528    19.891514    28.800991    47.096786      720 
      96            0    958.81992   0.31626081    1098.5126    804.88126     973.0659 6.4167011e-08 2.9408262e-07    61.491925            0   -2358.5766   -2358.5766    26927.493    19.871264     28.79677    47.057263      720 
      97            0    806.90802   0.31878996    1072.3353    384.55513    963.83363 6.0777806e-08 2.7733773e-07    79.582169            0   -2358.6482   -2358.6482     26943.94    19.866222    28.825975    47.050237      720 
      98            0    2.3767613   0.32132101    158.88207   -320.08879      168.337 6.0458319e-08 2.7528136e-07     70.14478            0   -2358.6676   -2358.6676    27005.064    19.886472    28.836385     47.09195      720 
      99            0    10.132388   0.32385302    19.164198   -12.428395    23.661363 6.0706266e-08 2.7512033e-07    53.361465            0   -2358.6727   -2358.6727    27005.491    19.896578     28.80718    47.116492      720 
     100            0   -257.64907   0.32886887   -336.20295   -111.91231   -324.83194 6.0564697e-08 2.7335405e-07    42.842652            0   -2358.6757   -2358.6757    27027.143     19.90686      28.7976     47.14559      720 
     101            0    16.509887   0.33139992    -134.2841    397.53115   -213.71738 6.0459659e-08 2.7164257e-07      31.2033            0   -2358.6839   -2358.6839    27008.416    19.907364    28.768395    47.159558      720 
     102            0     185.1009   0.33393097    204.96304    216.99619    133.34346 5.9659614e-08 2.6920672e-07    52.714777            0   -2358.7038   -2358.7038     26995.35    19.893345      28.7976    47.122126      720 
     103            0    -113.8946   0.33893991   -98.284995   -138.26928   -105.12954 5.9417351e-08 2.6812675e-07    54.599737            0    -2358.706    -2358.706    27017.916    19.898558     28.81033    47.128326      720 
     104            0   -391.52841   0.34395385   -384.35303   -547.31971   -242.91249 5.8875044e-08 2.6596194e-07     61.08363            0   -2358.7088   -2358.7088    27038.641    19.904303    28.829677    47.119222      720 
     105            0   -146.18727   0.34647989   -131.99691   -502.22575    195.66087 5.8024225e-08 2.6287276e-07    74.761821            0    -2358.724    -2358.724    27019.498    19.901369    28.842391    47.072045      720 
     106            0    211.42349     0.349015    214.24859    68.142191    351.87969 5.8357303e-08 2.6350105e-07    64.392977            0   -2358.7303   -2358.7303    26993.876    19.895765    28.813186    47.088333      720 
     107            0    -41.48493   0.35403299    -74.15257   -3.1623252   -47.139895 5.846376e-08 2.6278656e-07    52.831959            0   -2358.7337   -2358.7337    27014.683    19.901497    28.802264    47.128923      720 
     108            0    99.718773   0.35904789    127.27205    223.07617   -51.191906 5.8571107e-08 2.6267176e-07    48.841678            0   -2358.7351   -2358.7351    27005.615    19.894107    28.791023    47.149005      720 
     109            0   -218.80258    0.3615799     -56.7156   -96.526301   -503.16585 5.8220762e-08 2.6024688e-07    48.327987            0   -2358.7402   -2358.7402    27032.744     19.88828    28.799572    47.196183      720 
     110            0    113.82816   0.36412001    482.33037     84.43729   -225.28318 5.7501252e-08 2.5643226e-07    59.860117            0   -2358.7614   -2358.7614    27010.366     19.86803    28.806391    47.194003      720 
     111            0   -154.43643   0.36664796    18.687166   -237.35926   -244.63718 5.6661271e-08 2.5309945e-07    61.866505            0   -2358.7802   -2358.7802    27029.095     19.88828    28.817223    47.160907      720 
     112            0    196.89854    0.3716588    238.55367    177.03953    175.10243 5.6651381e-08 2.5320861e-07     60.09905            0   -2358.7843   -2358.7843     27001.23    19.893233    28.801879    47.125651      720 
     113            0    211.21478   0.37667799    49.500389    269.88619    314.25777 5.6417002e-08 2.5224849e-07    56.074146            0   -2358.7865   -2358.7865    26998.731    19.908926    28.793198     47.09834      720 
     114            0   -89.457298   0.38168883   -272.15484   -38.988584    42.771532 5.6260916e-08 2.5129615e-07    55.166397            0   -2358.7886   -2358.7886    27021.665    19.915282    28.801356    47.109956      720 
     115            0   -108.86795   0.38422179   -27.856974   -155.11038    -143.6365 5.6192791e-08 2.5066543e-07    60.677274            0   -2358.7942   -2358.7942    27025.885    19.895032    28.812137    47.147623      720 
     116            0    87.873244   0.38924003    173.02028    59.471795    31.127659 5.6267932e-08 2.5099338e-07     60.64697            0   -2358.7951   -2358.7951    27011.013    19.891646     28.80555    47.140477      720 
     117            0    221.55097   0.39425492    25.790726    382.05968    256.80252 5.6051904e-08 2.4961358e-07    50.985873            0   -2358.7997   -2358.7997    26999.749    19.911217    28.783192     47.11107      720 
     118            0   -151.43931     0.399266   -447.12249    23.716219   -30.911656 5.5673336e-08 2.477241e-07    48.704225            0   -2358.8034   -2358.8034    27027.857    19.924971    28.790587    47.115454      720 
     119            0   -239.60935   0.40180087   -298.69843   -340.55022   -79.579407 5.4887407e-08 2.4426652e-07     65.07303            0   -2358.8237   -2358.8237    27036.588    19.909185    28.819792    47.120246      720 
     120            0    122.75018     0.406811    115.39527    50.448488    202.40677 5.5001491e-08 2.4480095e-07    65.263854            0    -2358.827    -2358.827    27009.703    19.899403    28.808226    47.115439      720 
     121            0    214.15327   0.41183186    288.35213    310.32471    43.782969 5.516831e-08 2.4427567e-07    56.307013            0   -2358.8302   -2358.8302    27005.766    19.890661    28.790475    47.158336      720 
     122            0   -98.170089    0.4168458   -22.554364    29.416418   -301.37232 5.5005413e-08 2.4308029e-07    53.276984            0   -2358.8327   -2358.8327    27030.424    19.895126    28.795257    47.182963      720 
     123            0   -202.12581   0.41937399   -206.33101   -279.95446   -120.09194 5.4317805e-08 2.409514e-07    64.931428            0    -2358.843    -2358.843    27036.289    19.904451    28.816825    47.135785      720 
     124            0    119.26782   0.42439079    113.50542    47.183119    197.11493 5.4367257e-08 2.4125973e-07    66.338199            0   -2358.8455   -2358.8455     27011.72    19.899703    28.808207    47.118276      720 
     125            0    489.15076   0.42692399    411.49999    626.61925    429.33302 5.4312632e-08 2.3993812e-07    56.759067            0   -2358.8511   -2358.8511    26985.525    19.898943    28.779002    47.122153      720 
     126            0     134.8702   0.42946696   -80.303218    555.92297   -71.009158 5.3627803e-08 2.3501124e-07    39.868824            0   -2358.8709   -2358.8709    27015.891    19.914187    28.760538     47.16933      720 
     127            0   -161.32789   0.43200088   -274.57707    30.198967   -239.60558 5.3266822e-08 2.3416202e-07    51.886837            0   -2358.8777   -2358.8777    27037.832    19.911845    28.789743    47.165298      720 
     128            0    88.944349   0.43701696    76.787023    127.35808    62.687942 5.3286413e-08 2.3464847e-07    61.927197            0   -2358.8803   -2358.8803    27018.331    19.900788    28.798367    47.143344      720 
     129            0   -5.1935092   0.44202781    31.243169   -73.224615    26.400919 5.3132264e-08 2.3435129e-07    67.575242            0    -2358.881    -2358.881    27025.226    19.898911    28.810957    47.139214      720 
     130            0   -481.41847   0.44456291   -617.74209    -330.3596   -496.15372 5.2585635e-08 2.3055996e-07    53.636154            0   -2358.8892   -2358.8892    27063.514    19.919161    28.801325    47.173779      720 
     131            0   -240.69544   0.44709396   -504.47504    150.51317   -368.12444 5.2133957e-08 2.2739676e-07    42.089883            0   -2358.9073   -2358.9073    27047.614    19.924803     28.77212    47.180556      720 
     132            0    184.10755   0.45212102    66.012983    391.69736    94.612316 5.2248693e-08 2.2840067e-07    54.858553            0   -2358.9133   -2358.9133    27014.822    19.907653    28.779491    47.151871      720 
     133            0   -4.2424741   0.45713186    2.2136166   -24.441285    9.5002462 5.1998558e-08 2.2801712e-07    67.054303            0   -2358.9163   -2358.9163      27028.7    19.901789    28.806107    47.146394      720 
     134            0    40.902013   0.45966983    261.72658    34.143778   -173.16432 5.1399419e-08 2.2406088e-07    67.999325            0    -2358.937    -2358.937    27030.547    19.884324    28.804555    47.193571      720 
     135            0   -215.36668   0.46219897   -196.48336   -211.00668   -238.60999 5.0863975e-08 2.217018e-07    66.682229            0   -2358.9481   -2358.9481    27048.785    19.904574    28.808948    47.170174      720 
     136            0    186.30976   0.46473098    64.250665    211.92643     282.7522 5.069342e-08 2.2107655e-07    68.236552            0   -2358.9547   -2358.9547    27016.966    19.909841    28.796247    47.122997      720 
     137            0     369.3809   0.46725988     56.57804    395.60506    655.95961 5.0151911e-08 2.1886255e-07    70.851003            0    -2358.959    -2358.959    27001.953    19.922581    28.790665     47.07582      720 
     138            0   -6.3421185   0.46979094   -492.47009   -10.996736    484.44047 4.919359e-08 2.1445118e-07    72.949035            0   -2358.9712   -2358.9712    27030.479    19.942831    28.801995    47.059182      720 
     139            0   -114.87278     0.472332   -394.35596   -130.73378    180.47141 4.896608e-08 2.1275545e-07    72.524523            0   -2358.9911   -2358.9911    27042.189    19.928232    28.806702    47.106359      720 
     140            0    200.39021   0.47734594    88.520338    202.22918    310.42112 4.9284174e-08 2.1355269e-07    72.576585            0   -2358.9953   -2358.9953    27020.134    19.909881    28.797948    47.125642      720 
     141            0   -6.6560692   0.48235989    9.4645673   -7.1342675   -22.298507 4.9310944e-08 2.1321895e-07    71.350254            0   -2358.9977   -2358.9977    27037.726    19.902768    28.803912    47.163411      720 
     142            0    326.25601   0.48490286      434.513    506.97315    37.281886 4.6531753e-08 1.974431e-07    69.271531            0   -2359.0837   -2359.0837    27025.705    19.891568    28.778529    47.210589      720 
     143            0   -439.73298   0.48743486   -400.19235   -372.08079   -546.92581 4.5565091e-08 1.9286224e-07    73.185814            0   -2359.0999   -2359.0999    27084.904    19.909685    28.807734    47.223025      720 
     144            0   -885.41021   0.48996902   -933.49205   -1012.7504   -709.98818 4.4201944e-08 1.8685304e-07    84.351369            0   -2359.1111   -2359.1111    27119.859    19.925362    28.836939    47.198917      720 
     145            0   -574.54646   0.49250293   -664.22126   -833.42091    -225.9972 4.3281688e-08 1.8273318e-07    96.206595            0   -2359.1402   -2359.1402     27096.76    19.925331    28.841252     47.15174      720 
     146            0    72.640576   0.49752283     27.26666   -91.786184    282.44125 4.3592464e-08 1.8395364e-07    94.187557            0   -2359.1508   -2359.1508    27048.014    19.911405    28.816144    47.140873      720 
     147            0  -0.36070552   0.50254202   -24.140491    27.820912   -4.7625382 4.3757511e-08 1.838418e-07    82.206416            0   -2359.1536   -2359.1536    27055.878    19.909715    28.799903    47.185176      720 
     148            0   -16.338561   0.50755882    102.58322   -88.868953   -62.729947 4.3719444e-08 1.8368298e-07    87.795446            0   -2359.1546   -2359.1546    27058.189    19.899066     28.81044    47.197188      720 
     149            0    812.11159   0.51258588    1009.2777    760.43548     666.6216 4.3004983e-08 1.7994508e-07    93.573493            0    -2359.172    -2359.172    27000.159    19.881275    28.788077     47.17473      720 
     150            0    653.51409   0.51512098    806.58724    643.16984     510.7852 3.943118e-08 1.6159321e-07    100.15704            0   -2359.2773   -2359.2773    27027.501    19.890115    28.787216    47.202927      720 
     151            0   -13.902165   0.52014995     71.82231   -40.066984   -73.461819 3.9198524e-08 1.604213e-07     97.45654            0    -2359.288    -2359.288    27077.986    19.905573     28.80493    47.225315      720 
     152            0   0.65903198   0.52517891   -21.279893    15.225723    8.0312661 3.9152896e-08 1.6028069e-07    95.535978            0   -2359.2886   -2359.2886    27075.879    19.913835    28.800237    47.209739      720 
     153            0    57.712334       0.5302    95.480716   -163.62559    241.28188 3.8806437e-08  1.59484e-07    110.26186            0   -2359.2914   -2359.2914    27070.742    19.909671    28.821343     47.17608      720 
     154            0   -750.91392   0.53273892   -738.19716   -1067.4107   -447.13393 3.7152389e-08 1.5210612e-07     113.8373            0   -2359.3092   -2359.3092    27138.311    19.925625    28.850548    47.208129      720 
     155            0   -537.64947   0.53527188   -515.22089   -780.07847   -317.64903 3.3715346e-08 1.3659388e-07    118.89826            0   -2359.3908   -2359.3908    27137.947    19.924271    28.837453    47.232144      720 
     156            0    41.051791   0.54029799    78.872269   -114.91448    159.19758 3.3937478e-08 1.3749757e-07    117.40083            0   -2359.3992   -2359.3992    27093.909    19.913832    28.814739    47.217408      720 
     157            0    0.1748295    0.5453279   -12.821851     8.480958    4.8653811 3.4023163e-08 1.3736662e-07    107.38372            0   -2359.4005   -2359.4005     27098.14     19.91761    28.799994    47.239997      720 
     158            0   -5.7110835   0.55035281    62.999156   -22.304583   -57.827823 3.3995982e-08 1.3726939e-07    108.46025            0   -2359.4009   -2359.4009    27099.595     19.91124    28.802854    47.252954      720 
     159            0    838.61499   0.55289602    944.09321     889.7389    682.01285 2.9885322e-08 1.2330586e-07     113.2324            0   -2359.4401   -2359.4401    27050.512    19.898158    28.775414    47.243387      720 
     160            0    94.343183   0.55543494    118.18971    134.31807    30.521772  2.57053e-08 1.0811385e-07    113.79113            0     -2359.49     -2359.49    27120.995    19.918408    28.793918    47.287922      720 
     161            0   -14.719024   0.56047487  -0.79462026    9.5818764   -52.944329 2.5674259e-08 1.0796226e-07    114.06484            0   -2359.4903   -2359.4903    27129.187    19.920936    28.798052    47.289415      720 
     162            0 -0.062094705   0.56551194    3.4689334   -6.7258582    3.0706407 2.5650911e-08 1.0796463e-07    116.16485            0   -2359.4904   -2359.4904    27127.559    19.921757    28.800573    47.280487      720 
     163            0    14.063711   0.57054782   -15.052731    37.854824     19.38904 2.5624609e-08 1.0790031e-07    114.54702            0   -2359.4905   -2359.4905    27126.372    19.924028    28.797201    47.278566      720 
     164            0   -58.649035   0.57558084   -104.77082   -26.673577   -44.502709 2.5555072e-08 1.0766479e-07    113.50526            0   -2359.4906   -2359.4906    27131.984    19.926462    28.798155    47.281005      720 
     165            0   -89.702897     0.578125   -107.84214   -133.36276   -27.903799 1.6930861e-08 8.9984302e-08    99.470886            0   -2359.5161   -2359.5161    27145.981    19.926637    28.806667    47.291002      720 
     166            0    32.917992   0.58316302    24.615971    8.3027694    65.835236 1.689484e-08 8.9976756e-08    98.940458            0   -2359.5165   -2359.5165    27136.852    19.923902    28.801868    47.289465      720 
     167            0    34.906686     0.588202    35.786772    58.259023    10.674262 1.6840424e-08 8.9794716e-08    95.651496            0   -2359.5167   -2359.5167    27137.484    19.922836    28.797326    47.300558      720 
     168            0   -10.731925   0.59324193   -9.9909047    10.517581   -32.722451 1.682785e-08 8.9730866e-08    95.416849            0   -2359.5167   -2359.5167    27141.043    19.923541    28.798653    47.302908      720 
     169            0   -11.067295   0.59827495   -4.8227649   -23.976631   -4.4024899 1.6783009e-08 8.9694689e-08    97.472586            0   -2359.5168   -2359.5168    27140.787    19.923313     28.80192    47.297635      720 
     170            0    8.8559632   0.60330987    13.807783   -2.5461795    15.306287 1.6770967e-08 8.9702922e-08    97.524841            0   -2359.5168   -2359.5168    27139.233    19.923114    28.801279    47.296452      720 
     171            0    5.3676276    0.6083529   -6.6684951    18.708779    4.0625987 1.677006e-08 8.9649376e-08    96.033956            0   -2359.5168   -2359.5168    27139.553    19.924402    28.798952    47.297775      720 
     172            0   -21.795232   0.61338902   -31.725041    -10.56027   -23.100386 1.6740047e-08 8.959213e-08    95.904739            0   -2359.5169   -2359.5169    27141.691    19.924648    28.799834    47.299467      720 
     173            0    -10.68889   0.61842895    28.364994   -37.394975   -23.036689 1.6657169e-08 8.9409668e-08    97.632438            0    -2359.517    -2359.517    27141.165    19.920725     28.80338    47.302041      720 
     174            0     66.67323   0.62346387    101.04166    49.533904    49.444124 1.6521101e-08 8.9244796e-08    97.267944            0   -2359.5171   -2359.5171    27135.237    19.919914    28.800556    47.298273      720 
     175            0    27.013506   0.62850785   -84.555844    110.72386    54.872503 1.5544502e-08 8.7131445e-08    88.952463            0   -2359.5183   -2359.5183    27137.961    19.931897    28.791507    47.289439      720 
     176            0   -180.70856   0.63354087   -272.49602   -153.24182   -116.38784 1.4473889e-08 8.482842e-08    87.700576            0   -2359.5195   -2359.5195    27154.469    19.933839    28.802194    47.296044      720 
     177            0   -28.107835   0.63857794    113.61111   -229.30684    31.372225 1.0427906e-08 7.6915785e-08    89.043183            0   -2359.5242   -2359.5242    27145.711    19.914279    28.821705    47.295189      720 
     178            0    215.97322   0.64362001    307.86761     175.4376    164.61444 8.1328574e-09 7.2225937e-08    74.080484            0    -2359.527    -2359.527    27129.157    19.913983     28.80053    47.301803      720 
     179            0  0.018088002   0.64866281   -14.667359    106.72948   -92.007854 6.1670595e-09 6.7786053e-08    58.024932            0   -2359.5294   -2359.5294    27147.378    19.925155    28.791771    47.321424      720 
     180            0    -95.17922   0.65370584   -113.80806   -86.796264   -84.933335 5.4351636e-09 6.6273616e-08    61.517078            0   -2359.5302   -2359.5302    27154.058    19.927594    28.803511    47.307984      720 
     181            0   0.88856042    0.6587429   -6.6047832   -27.448103    36.718567 5.1669991e-09 6.5812206e-08    63.679887            0   -2359.5305   -2359.5305    27146.443    19.925516      28.8047      47.2977      720 
     182            0    30.547076   0.66378999    30.076778    32.373514    29.190937  5.10635e-09 6.5693618e-08    61.674093            0   -2359.5306   -2359.5306    27144.608    19.924316    28.801151    47.303178      720 
     183            0   -1.1684586   0.66882992   -1.0374055    9.3423682   -11.810338 5.0807285e-09 6.560831e-08    60.790287            0   -2359.5306   -2359.5306    27147.208    19.924683    28.801119    47.306889      720 
     184            0   -12.857837   0.67386699   -9.9638994    -18.32587   -10.283743 5.0706525e-09 6.5586459e-08    61.641633            0   -2359.5306   -2359.5306    27147.982    19.924733    28.802935    47.305137      720 
     185            0    3.3502115   0.67891097    7.4090251   -7.1790727     9.820682 5.0577819e-09 6.5583874e-08    62.045163            0   -2359.5306   -2359.5306    27146.674    19.924429     28.80302    47.303438      720 
     186            0    14.969027   0.68395281    2.6064028     28.34966    13.951019 5.0481221e-09 6.5528873e-08    60.635631            0   -2359.5306   -2359.5306     27145.79     19.92545    28.800404    47.303772      720 
     187            0   -12.155576   0.68899488   -30.015896    7.5671907   -14.018022 5.0446883e-09 6.5475147e-08    59.984241            0   -2359.5307   -2359.5307    27147.896    19.926262    28.800454    47.305432      720 
     188            0   -40.575767   0.69403386      3.73263   -71.362007   -54.097923 4.8711721e-09 6.5071376e-08    61.151056            0   -2359.5309   -2359.5309     27150.33    19.921903    28.806257    47.310491      720 
     189            0    35.252478   0.69907379    97.495958   -3.3835881    11.645064 4.7693134e-09 6.4895245e-08    61.281256            0   -2359.5311   -2359.5311    27144.497    19.919359    28.805231    47.308053      720 
     190            0    79.571139   0.70412183   -10.742971    156.51013    92.946258 3.804658e-09 6.2260866e-08    47.967058            0   -2359.5326   -2359.5326    27139.376    19.930413    28.792861    47.293204      720 
     191            0   -65.381475    0.7091608   -171.55841    2.6771221   -27.263139 3.4473613e-09 6.1205611e-08    44.844311            0   -2359.5332   -2359.5332    27150.106    19.933913    28.797315    47.296278      720 
     192            0   -46.644827   0.71420383   -2.3852649   -123.70495   -13.844269 2.3520621e-09 5.8447522e-08    44.139101            0   -2359.5349   -2359.5349    27148.322    19.922181    28.811587    47.297582      720 
     193            0     45.80161   0.71924591    91.980295   -7.7627576    53.187293  2.21106e-09 5.8120408e-08    42.145208            0   -2359.5351   -2359.5351    27141.273      19.9205    28.807122     47.29662      720 
     194            0       10.537    0.7242949    9.5969642    35.976999   -13.962964 2.0358522e-09 5.7557294e-08    35.752822            0   -2359.5354   -2359.5354     27144.09    19.924367    28.800375    47.303427      720 
     195            0    -21.75992   0.72933483   -26.541939   -6.1939995   -32.543822 2.0172833e-09 5.7477935e-08    36.017308            0   -2359.5355   -2359.5355    27146.429    19.925223    28.802098    47.302642      720 
     196            0    -3.132958     0.734375   -5.4394736   -11.020001    7.0606009 1.9796266e-09 5.7410554e-08    37.409273            0   -2359.5355   -2359.5355    27144.715    19.924892    28.803878    47.297518      720 
     197            0    10.930181   0.73942995    10.358017    7.3419743    15.090551 1.9703354e-09 5.7418221e-08    37.187908            0   -2359.5355   -2359.5355    27143.685    19.924514    28.803133    47.297845      720 
     198            0   0.50970117   0.74447584    1.4574075    7.5511759   -7.4794798 1.9602579e-09 5.739698e-08    36.346809            0   -2359.5355   -2359.5355    27144.631    19.924474    28.802395    47.300799      720 
     199            0    -18.26625   0.74951887   -16.079605   -19.484122   -19.235024 1.9425408e-09 5.7351765e-08    36.647553            0   -2359.5355   -2359.5355    27146.007    19.924702    28.803652    47.300591      720 
     200            0    1.2723095   0.75455999    9.1994293   -22.667713    17.285213 1.8840178e-09 5.7293061e-08    37.938948            0   -2359.5356   -2359.5356    27144.247     19.92408    28.805364    47.296189      720 
     201            0    53.359241   0.75960183    39.283942     61.84101     58.95277 1.694365e-09 5.703111e-08    35.682197            0   -2359.5357   -2359.5357    27140.039    19.924879    28.800976    47.294166      720 
     202            0   -7.7203535   0.76464796   -57.936922    45.420616   -10.644755 1.3807893e-09 5.648482e-08    31.343953            0   -2359.5359   -2359.5359    27144.473    19.928419    28.798215    47.298025      720 
     203            0   -91.239032   0.76968884   -66.820794    -106.2196   -100.67671 3.2037269e-10 5.4864923e-08    29.747518            0   -2359.5365   -2359.5365    27150.241    19.923841    28.807408    47.303845      720 
     204            0    7.2110799   0.77473402    65.474925   -29.579887   -14.261798 -1.85706e-10 5.417915e-08    29.320144            0   -2359.5369   -2359.5369    27142.268    19.919684    28.807356    47.299907      720 
     205            0    37.727968     0.779778    29.045005    49.676282    34.462616 -6.4253389e-10 5.3484149e-08    25.168355            0   -2359.5371   -2359.5371    27139.006    19.924344    28.801855    47.292192      720 
     206            0   -3.0127425    0.7848258   -21.178188    10.752584    1.3873765 -7.0789017e-10 5.3353344e-08    24.558204            0   -2359.5372   -2359.5372    27142.004    19.925705    28.802672    47.292846      720 
     207            0   -10.046768   0.78986502   -8.1988227   -16.431314   -5.5101678 -7.4854474e-10 5.3292087e-08    25.401499            0   -2359.5372   -2359.5372    27142.571    19.924293    28.804853    47.293602      720 
     208            0    2.3329693   0.79490685    7.0839509   -4.3568757    4.2718327 -7.5712606e-10 5.3289789e-08    25.454749            0   -2359.5372   -2359.5372    27141.635    19.923873     28.80459      47.2934      720 
     209            0     3.085373   0.79995394     2.850608    7.0062096   -0.6006987 -7.6043954e-10 5.328031e-08    24.804622            0   -2359.5372   -2359.5372    27141.617    19.924201    28.803548    47.294301      720 
     210            0   -4.0778325   0.80499387   -5.5926163 -0.048088778   -6.5927925 -7.5825455e-10 5.3276526e-08     24.75187            0   -2359.5372   -2359.5372    27142.158    19.924411     28.80371    47.294479      720 
     211            0   -3.2503488    0.8100369   -5.1819314    -10.40866    5.8395452 -7.5245421e-10 5.3251738e-08    25.445217            0   -2359.5372   -2359.5372    27141.949    19.924503    28.804749    47.292192      720 
     212            0    12.398535   0.81507897    11.737984    5.8941853    19.563436 -7.4968296e-10 5.3259356e-08    25.483527            0   -2359.5372   -2359.5372    27140.744    19.924161    28.804307    47.291629      720 
     213            0     8.100362   0.82013083     11.94673    30.891329   -18.536974 -6.8005172e-10 5.3101227e-08    23.276606            0   -2359.5373   -2359.5373     27141.39    19.923656    28.801674    47.298276      720 
     214            0   -36.596856   0.82517195   -31.943596   -20.815611   -57.031362 -6.3729515e-10 5.2955335e-08    23.200822            0   -2359.5374   -2359.5374     27144.75    19.924288    28.803456    47.299705      720 
     215            0   -11.100117   0.83021188    7.3738159   -57.347153    16.672986 -3.9867104e-10 5.2377519e-08    26.201883            0   -2359.5376   -2359.5376    27141.891    19.923121    28.808816    47.288695      720 
     216            0    43.991431   0.83525681    49.322221    23.200267    59.451806 -2.956051e-10 5.2168577e-08    24.736338            0   -2359.5378   -2359.5378    27137.548    19.923198    28.805007    47.287196      720 
     217            0     3.339241   0.84029984   -15.892172    22.088051    3.8218446 -1.7391125e-10 5.1867633e-08    21.724011            0   -2359.5379   -2359.5379    27140.662    19.925538     28.80219    47.291695      720 
     218            0   -19.276489   0.84534383   -24.069871   -14.465841   -19.293754 -1.4536671e-10 5.1820192e-08    22.199837            0   -2359.5379   -2359.5379    27142.445    19.924775    28.804135    47.293418      720 
     219            0   -1.0559827   0.85038495    6.0912972   -5.5538557   -3.7053897 -1.315429e-10 5.1783918e-08    22.746823            0   -2359.5379   -2359.5379    27141.068    19.923584     28.80462     47.29305      720 
     220            0    6.9238086   0.85542703    8.3559098    6.8575262    5.5579897 -1.3021154e-10 5.1789658e-08     22.57124            0   -2359.5379   -2359.5379    27140.408    19.923904     28.80398     47.29219      720 
     221            0  -0.10510599   0.86047697   -3.3181898    2.2116108   0.79126106 -1.1913834e-10 5.1780432e-08     22.40945            0   -2359.5379   -2359.5379    27140.915    19.924374    28.803908    47.292078      720 
     222            0   -6.3020689   0.86551595    -5.138138   -9.2628137   -4.5052548 -1.2145059e-10 5.1784805e-08    22.648714            0   -2359.5379   -2359.5379    27141.401    19.924141     28.80458    47.292374      720 
     223            0    1.7171918   0.87056279    7.6280044   -4.6742187    2.1977898 -1.1874529e-10 5.1782389e-08    22.869916            0   -2359.5379   -2359.5379    27140.803    19.923655    28.804728    47.292243      720 
     224            0    13.120552   0.87560701    12.857134    24.373825    2.1306979 -1.1105407e-10 5.1818377e-08    21.846002            0   -2359.5379   -2359.5379    27140.015    19.923878    28.802753    47.293581      720 
     225            0   -9.0684703     0.880656   -15.410353    9.3959177   -21.190976 -1.0717587e-10 5.1816255e-08    21.247124            0    -2359.538    -2359.538    27141.736    19.924658    28.802596    47.294986      720 
     226            0   -27.646559   0.88569784   -37.357096   -48.688181    3.1055983 -1.2648838e-10 5.1996227e-08    23.326721            0   -2359.5381   -2359.5381    27142.627    19.925456    28.806812    47.287725      720 
     227            0    18.064877   0.89073801    12.342743   -6.7266408    48.578529 -1.1716674e-10 5.2105825e-08    23.719811            0   -2359.5381   -2359.5381    27139.044    19.924472    28.806065    47.285043      720 
     228            0    15.708641     0.895787    18.498484    30.185199   -1.5577589 -9.6485112e-11 5.2322768e-08    20.692401            0   -2359.5383   -2359.5383    27139.724    19.923555     28.80248     47.29429      720 
     229            0   -8.8361042   0.90082693   -6.6575785    2.8244238   -22.675158 -9.6691457e-11 5.2317139e-08    20.661174            0   -2359.5383   -2359.5383    27141.595    19.923987    28.803354     47.29509      720 
     230            0   -4.7273428   0.90586996    -1.980323   -11.291438  -0.91026757 -9.6090396e-11 5.2344114e-08    21.795857            0   -2359.5383   -2359.5383    27141.064    19.923995    28.804985     47.29147      720 
     231            0     3.600489   0.91091084    5.4504825   -1.1864324    6.5374168 -9.1809355e-11 5.2345013e-08    21.748313            0   -2359.5383   -2359.5383     27140.42    19.923933    28.804607    47.291112      720 
     232            0    1.1169162   0.91595984   -1.0928779    3.4432171    1.0004094 -9.8981474e-11 5.2347084e-08    21.312766            0   -2359.5383   -2359.5383    27140.635    19.924257    28.803979     47.29175      720 
     233            0   -2.9825611   0.92100501   -4.3247453    -1.511881   -3.1110571 -9.4198967e-11 5.2350257e-08    21.328217            0   -2359.5384   -2359.5384    27140.958    19.924253    28.804165    47.292018      720 
     234            0  -0.54974417   0.92604995    2.6298581   -2.7822836    -1.496807 -9.7145003e-11 5.2335014e-08    21.535704            0   -2359.5384   -2359.5384    27140.791     19.92387    28.804475    47.292125      720 
     235            0    6.8715294   0.93112397     8.492954    6.2238022     5.897832 -1.0553317e-10 5.2318194e-08    21.506888            0   -2359.5384   -2359.5384    27140.205    19.923878    28.804135    47.291643      720 
     236            0   0.82794496   0.93616581    -8.428532    6.9500625    3.9623043 -1.1681996e-10 5.2188457e-08    21.153738            0   -2359.5384   -2359.5384    27140.594    19.924818      28.8036    47.290968      720 
     237            0   -21.290275   0.94121194   -25.691174   -23.289973   -14.889679 -1.3941919e-10 5.1879098e-08    21.486935            0   -2359.5384   -2359.5384    27142.293    19.924808    28.804943    47.291749      720 
     238            0  -0.60160937   0.94625401    20.257042   -24.745526     2.683656 -2.6198943e-10 5.0910459e-08    22.877293            0   -2359.5384   -2359.5384    27140.763    19.922597    28.806659    47.291513      720 
     239            0    33.972363   0.95129585    43.490097    38.168849    20.258143 -4.1485851e-10 4.951605e-08    21.563291            0   -2359.5385   -2359.5385    27138.183    19.922867    28.803104    47.292211      720 
     240            0   -2.9293931   0.95634389   -8.6222876    18.491763   -18.657655 -5.1311422e-10 4.8447371e-08    20.446012            0   -2359.5386   -2359.5386    27141.015    19.924576    28.802345    47.294338      720 
     241            0   -15.430603   0.96138287   -19.313418   -17.827906   -9.1504853 -5.9241729e-10 4.7687422e-08    21.928783            0   -2359.5386   -2359.5386    27141.728    19.924784    28.804932     47.29084      720 
     242            0    1.4464182    0.9664259  -0.13130332   -4.4182053    8.8887632 -6.268959e-10 4.7542299e-08    22.263897            0   -2359.5386   -2359.5386    27140.399     19.92437    28.804856     47.28963      720 
     243            0    4.7030039   0.97146583    5.0868506    6.1410854    2.8810757 -6.2038529e-10 4.7469624e-08    21.808405            0   -2359.5386   -2359.5386    27140.254    19.924117    28.804095    47.291227      720 
     244            0  -0.69364564   0.97651482  -0.34045202     1.231429   -2.9719139 -6.2373769e-10 4.7461288e-08    21.739786            0   -2359.5386   -2359.5386    27140.681    19.924197    28.804183    47.291637      720 
     245            0   -2.0255777   0.98155189   -1.6008181   -3.8142992  -0.66161572 -6.145437e-10 4.7460075e-08    21.969407            0   -2359.5386   -2359.5386    27140.744    19.924235    28.804567    47.291025      720 
     246            0    1.3802367   0.98658991    1.7419096  -0.66812398    3.0669245 -6.1868238e-10 4.7461295e-08    22.012523            0   -2359.5386   -2359.5386    27140.474    19.924192    28.804508    47.290756      720 
     247            0    2.3296582   0.99163198  -0.94165671    6.7605294    1.1701019 -5.7841907e-10 4.7514488e-08    21.650395            0   -2359.5386   -2359.5386    27140.423    19.924435    28.803855     47.29116      720 
     248            0   -5.3384448   0.99667501   -8.8004791   -0.4946788   -6.7201766 -5.5800009e-10 4.7541969e-08    21.576555            0   -2359.5386   -2359.5386    27141.026    19.924563    28.804005    47.291662      720 
     249            0   -5.6478417     1.001719    6.7682735   -14.366372    -9.345427 -3.1218931e-10 4.8003742e-08    22.345202            0   -2359.5386   -2359.5386    27141.144    19.923367    28.805362     47.29248      720 
     250            0    14.449609    1.0067589    26.988531    6.7011358    9.6591592 -1.3605702e-10 4.8307427e-08    22.473923            0   -2359.5386   -2359.5386    27139.599    19.923061    28.804772    47.291482      720 
     251            0    6.1035867     1.011807   -8.9066627    16.285261    10.932162 7.3035351e-10 4.9857349e-08    21.785841            0   -2359.5387   -2359.5387    27140.124     19.92537    28.803155    47.289572      720 
     252            0   -13.662691    1.0168459   -24.702031   -8.7998082   -7.4862322 9.3812639e-10 5.0203842e-08    21.995982            0   -2359.5387   -2359.5387    27141.681    19.925382    28.804161    47.290604      720 
     253            0   -2.3251736    1.0218859    3.2467813   -9.0132198   -1.2090822 1.2602218e-09 5.0796775e-08    22.734076            0   -2359.5387   -2359.5387    27140.929    19.923943    28.805043    47.291261      720 
     254            0    5.2340056    1.0269289    8.8500325    2.7115942    4.1403902 1.2960718e-09 5.0848155e-08    22.552418            0   -2359.5387   -2359.5387     27140.36    19.923966    28.804453    47.291183      720 
     255            0   0.27133668    1.0319719  -0.30662546    2.5598607   -1.4392252 1.3197993e-09 5.0898459e-08    22.260599            0   -2359.5387   -2359.5387    27140.745    19.924354    28.804102    47.291509      720 
     256            0   -2.1630732     1.037014   -2.7717082   -1.6972559   -2.0202554 1.324622e-09 5.0891358e-08    22.362054            0   -2359.5387   -2359.5387    27140.915    19.924405    28.804334    47.291304      720 
     257            0  0.065095093    1.0420518  -0.10243369  -0.83090288    1.1286218 1.3184493e-09 5.0878087e-08    22.462575            0   -2359.5387   -2359.5387    27140.732    19.924344     28.80441    47.291005      720 
     258            0    1.8773316    1.0470929    2.1701335    2.1993043     1.262557 1.3198343e-09 5.0858837e-08    22.395943            0   -2359.5387   -2359.5387    27140.613    19.924272    28.804252    47.291227      720 
     259            0  -0.41957545    1.0521429  0.010232185   0.79971035   -2.0686689 1.3250746e-09 5.0825627e-08    22.323602            0   -2359.5387   -2359.5387    27140.806    19.924289    28.804224    47.291568      720 
     260            0   -4.8531392    1.0571799   -4.6835574   -7.1755055   -2.7003547 1.2921429e-09  5.06779e-08    22.543513            0   -2359.5387   -2359.5387    27141.119    19.924399    28.804667    47.291127      720 
     261            0    1.5679859    1.0622208    1.7257572    -3.484199    6.4623995 1.2621568e-09 5.0502539e-08    22.795874            0   -2359.5387   -2359.5387    27140.602    19.924323    28.804765    47.290244      720 
     262            0    10.333166    1.0672619    4.8642236    17.972573    8.1627019 1.0358139e-09 4.9352875e-08    22.286573            0   -2359.5387   -2359.5387    27140.068    19.924576    28.803317    47.291093      720 
     263            0   -4.7108012    1.0723119   -12.309936    7.0085435   -8.8310113 8.8768269e-10 4.8504224e-08    22.068923            0   -2359.5387   -2359.5387    27141.324     19.92495    28.803288    47.292439      720 
     264            0   -8.6220276     1.077353   -1.0372362   -13.968368   -10.860478 3.8907958e-10 4.5853414e-08    23.392454            0   -2359.5388   -2359.5388     27141.86     19.92388     28.80505     47.29302      720 
     265            0    3.6635149    1.0823929    11.702948   -1.9191091    1.2067054 2.9046058e-10 4.5392585e-08    23.564684            0   -2359.5388   -2359.5388    27140.939    19.923664    28.804768    47.292393      720 
     266            0    2.6090792    1.0874369   0.14857947    4.2732586    3.4053994 1.5624301e-10 4.4682354e-08    23.313802            0   -2359.5388   -2359.5388    27141.007    19.924495    28.804058    47.291703      720 
     267            0   -1.2155864    1.0924799   -3.6473704  0.092335851 -0.091724706 1.4307747e-10 4.4652997e-08    23.315549            0   -2359.5388   -2359.5388    27141.306    19.924552    28.804187    47.291879      720 
     268            0  -0.81543785    1.0975239  0.026239595   -1.7370319  -0.73552125 1.4931779e-10 4.458183e-08    23.438156            0   -2359.5388   -2359.5388    27141.302    19.924292    28.804401    47.292136      720 
     269            0   0.66060094     1.102572     1.506729  0.028521649   0.44655214 1.5448462e-10 4.4581625e-08    23.431295            0   -2359.5388   -2359.5388    27141.191    19.924268    28.804338    47.292103      720 
     270            0    0.2506129    1.1076128  -0.22115285    1.1346348  -0.16164326 1.4904389e-10 4.4592924e-08    23.346966            0   -2359.5388   -2359.5388    27141.222    19.924372    28.804198    47.292138      720 
     271            0   -1.2969226    1.1126559    -1.907013  -0.83630812   -1.1474466 1.6422767e-10 4.4588658e-08    23.365185            0   -2359.5388   -2359.5388    27141.337    19.924409    28.804276    47.292123      720 
     272            0 -0.088658677     1.117692 -0.036890986   -1.8145287    1.5854436 1.9094014e-10 4.4617613e-08     23.51053            0   -2359.5388   -2359.5388     27141.23    19.924352    28.804456    47.291778      720 
     273            0    4.1722993    1.1227369    4.8754305    3.5622743    4.0791931 2.2947837e-10 4.4697227e-08    23.469943            0   -2359.5388   -2359.5388    27140.924    19.924229    28.804249    47.291878      720 
     274            0 -0.085226525    1.1277819    1.1903898    3.6255034   -5.0715728 4.2115878e-10 4.4983221e-08    23.181046            0   -2359.5388   -2359.5388    27141.334     19.92422     28.80395    47.293104      720 
     275            0   -10.142818    1.1328259   -9.8232573   -10.407343   -10.197854 7.7124505e-10 4.5555265e-08     23.41846            0   -2359.5388   -2359.5388    27142.099    19.924477    28.804574      47.2928      720 
     276            0  0.041574245     1.137866  -0.13892426   -6.0572739    6.3209209 1.3976915e-09 4.6545801e-08    23.951393            0   -2359.5388   -2359.5388    27141.295    19.924413    28.804879    47.291052      720 
     277            0    6.5532049     1.142905    5.3026255    7.1928492    7.1641401 1.6933239e-09 4.7053037e-08    23.618536            0   -2359.5388   -2359.5388     27140.88    19.924365    28.804079    47.291756      720 
     278            0  -0.25100346    1.1479549   -2.0244529    2.8392392   -1.5677967 1.8467215e-09 4.7264074e-08    23.435619            0   -2359.5388   -2359.5388    27141.447    19.924495    28.804015     47.29254      720 
     279            0   -2.0526977    1.1529908   -1.4574064   -2.3447084   -2.3559783 1.899842e-09 4.734736e-08    23.621505            0   -2359.5388   -2359.5388     27141.59     19.92435     28.80439    47.292516      720 
     280            0   0.16270392    1.1580329    1.2341062  -0.69077987 -0.055214556 1.9040844e-09 4.7374052e-08    23.670035            0   -2359.5388   -2359.5388    27141.418    19.924282    28.804391    47.292379      720 
     281            0     0.747311      1.16307   0.42162996   0.97671317   0.84358988 1.9120328e-09 4.7360324e-08    23.619984            0   -2359.5388   -2359.5388    27141.366    19.924381    28.804268    47.292254      720 
     282            0  -0.20835342     1.168118  -0.76087818   0.11620764  0.019610271 1.9137327e-09 4.7368723e-08    23.609282            0   -2359.5388   -2359.5388    27141.438    19.924413    28.804282    47.292281      720 
     283            0  -0.77319289     1.173157 -0.025850506   -1.3863778  -0.90735036 1.9051626e-09 4.7332697e-08     23.65021            0   -2359.5388   -2359.5388    27141.491    19.924321    28.804391    47.292413      720 
     284            0   0.62797558    1.1781969    1.7299966 -0.037075024   0.19100511 1.9045311e-09 4.7314003e-08    23.659023            0   -2359.5388   -2359.5388    27141.386    19.924272    28.804362    47.292394      720 
     285            0    1.5104595    1.1832409  -0.20273009    4.1370876   0.59702091 1.8380846e-09 4.7072007e-08    23.470195            0   -2359.5388   -2359.5388    27141.315    19.924469    28.804019    47.292366      720 
     286            0   -2.6162975     1.188283   -5.2379202  0.043767837   -2.6547401 1.7942888e-09 4.6861362e-08    23.436903            0   -2359.5388   -2359.5388    27141.626    19.924605    28.804115    47.292426      720 
     287            0   -2.2078593    1.1933229   -1.9474526   -7.7997325    3.1236071 1.3837894e-09 4.522468e-08    23.851272            0   -2359.5388   -2359.5388     27141.55    19.924422     28.80491    47.291424      720 
     288            0     6.342693    1.1983628    7.8093028    1.6986479    9.5201284 1.1541177e-09 4.4321321e-08    23.791834            0   -2359.5388   -2359.5388    27140.914    19.924193    28.804621    47.291334      720 
     289            0    1.2113049    1.2034059    2.3955815    4.5268776   -3.2885443 4.9858701e-10 4.1703599e-08    23.108692            0   -2359.5388   -2359.5388    27141.414    19.924251    28.804012    47.293067      720 
     290            0   -4.1637784    1.2084529   -3.7423616   -2.4525791   -6.2963944 3.850647e-10 4.1246007e-08    23.155441            0   -2359.5388   -2359.5388    27141.807    19.924405    28.804297    47.292919      720 
     291            0  -0.49992672    1.2134919  -0.68379544   -1.9322566    1.1162719 2.3666422e-10 4.0623158e-08    23.354897            0   -2359.5388   -2359.5388    27141.479    19.924422    28.804506    47.291963      720 
     292            0    1.3850412    1.2185349     1.214272   0.81950664    2.1213451 2.187692e-10 4.0570823e-08    23.309828            0   -2359.5388   -2359.5388    27141.342    19.924388    28.804378    47.292016      720 
     293            0  0.093905898    1.2235749  -0.18001448   0.73616285  -0.27443068 2.2163502e-10 4.0516191e-08    23.220659            0   -2359.5388   -2359.5388    27141.455    19.924408    28.804295    47.292301      720 
     294            0  -0.71198436     1.228622  -0.65948966  -0.62868006  -0.84778338 2.1765131e-10 4.0511471e-08    23.245943            0   -2359.5388   -2359.5388    27141.517    19.924397     28.80437    47.292313      720 
     295            0  0.039138438    1.2336609   0.49383238  -0.46506708  0.088650015 2.1533361e-10 4.049668e-08    23.283291            0   -2359.5388   -2359.5388    27141.457    19.924357    28.804408    47.292241      720 
     296            0    1.1225489    1.2387009   0.76292305    1.3295333    1.2751903 2.1543139e-10 4.051583e-08    23.249373            0   -2359.5388   -2359.5388    27141.368    19.924403    28.804311    47.292137      720 
     297            0  -0.23518255    1.2437489   -1.4166965   0.53516827   0.17598057 2.4022943e-10 4.051706e-08    23.206637            0   -2359.5388   -2359.5388    27141.468    19.924486    28.804288     47.29215      720 
     298            0   -3.4313931      1.24879    -2.162337   -4.5033313    -3.628511 3.684808e-10 4.0607904e-08    23.228518            0   -2359.5388   -2359.5388    27141.727    19.924343    28.804556    47.292502      720 
     299            0   0.66271434     1.253834    4.2982097   -1.5149173  -0.79514944 5.3721366e-10 4.0736995e-08     23.25215            0   -2359.5388   -2359.5388    27141.423    19.924094    28.804574    47.292534      720 
     300            0    5.3197497    1.2588739    3.5204578    8.5866483    3.8521429 1.2052975e-09 4.1242951e-08    22.767128            0   -2359.5388   -2359.5388    27141.017    19.924426    28.803938    47.292081      720 
     301            0   -1.3036646    1.2639198   -5.1403355    2.6336466   -1.4043048 1.5057895e-09 4.1464121e-08    22.596344            0   -2359.5388   -2359.5388    27141.501    19.924683    28.804037    47.292152      720 
     302            0   -2.2504942    1.2689579   -2.2159801   -4.3283669  -0.20713547 1.9422833e-09 4.1785438e-08    22.786604            0   -2359.5388   -2359.5388    27141.546    19.924413    28.804658    47.291852      720 
     303            0    1.0174438    1.2739959    1.6795746  -0.99686263    2.3696194 2.0061003e-09 4.1825437e-08    22.778033            0   -2359.5388   -2359.5388    27141.298    19.924312    28.804575    47.291795      720 
     304            0   0.57668712    1.2790399   0.80499071    1.1142241  -0.18915347 2.0815405e-09 4.1871689e-08    22.588913            0   -2359.5388   -2359.5388    27141.352    19.924337    28.804345    47.292209      720 
     305            0  -0.44422083    1.2840889  -0.35268482  0.024314356    -1.004292 2.0808738e-09 4.1866103e-08    22.585127            0   -2359.5388   -2359.5388    27141.429    19.924364    28.804376    47.292228      720 
     306            0  -0.21177665    1.2891309  -0.30227893  -0.48540852   0.15235751 2.0873649e-09 4.1869055e-08    22.631539            0   -2359.5388   -2359.5388    27141.399     19.92438     28.80444    47.292033      720 
     307            0   0.34809274    1.2941699   0.28228332   0.15225838   0.60973652 2.0929361e-09 4.1859016e-08    22.629529            0   -2359.5388   -2359.5388    27141.356    19.924369    28.804419    47.292019      720 
     308            0   0.14036683     1.299211   0.11726666   0.65279178  -0.34895796 2.0879029e-09 4.1834631e-08    22.577994            0   -2359.5388   -2359.5388    27141.381    19.924363    28.804358    47.292175      720 
     309            0  -0.87058261    1.3042569  -0.79097216  -0.59264495   -1.2281307 2.0799874e-09 4.1796389e-08    22.581045            0   -2359.5388   -2359.5388    27141.458    19.924371    28.804405    47.292212      720 
     310            0   -0.1889299    1.3092928   0.79249591   -1.7435981   0.38431246 2.0287034e-09 4.1592191e-08    22.671483            0   -2359.5388   -2359.5388    27141.394    19.924298    28.804567    47.292012      720 
     311            0    2.9229569    1.3143358    3.1264162    2.2009357    3.4415188 1.9309254e-09 4.1195186e-08    22.608673            0   -2359.5388   -2359.5388    27141.144    19.924307    28.804409    47.291812      720 
     312            0   0.18002743     1.319376   -3.0814647     2.636277   0.98526996 1.6337405e-09 3.987583e-08    22.290915            0   -2359.5388   -2359.5388    27141.329    19.924603    28.804165    47.291832      720 
     313            0   -5.5380615    1.3244228   -6.1079274   -5.2330074   -5.2732497 1.1348251e-09 3.7771007e-08    22.146106            0   -2359.5388   -2359.5388    27141.764    19.924468    28.804527    47.292316      720 
     314            0  -0.22652761    1.3294618    2.6739666   -1.8672379   -1.4863116 6.4696493e-10 3.5689913e-08    22.062531            0   -2359.5388   -2359.5388     27141.35    19.924103    28.804601    47.292339      720 
     315            0    2.4794674    1.3345008    2.8642945    2.7273801    1.8467275 4.7510862e-10 3.4953232e-08    21.911072            0   -2359.5388   -2359.5388    27141.115    19.924252    28.804347    47.291992      720 
     316            0 -0.00059245029     1.339546  -0.85009593   0.75765958  0.090659006 4.1091088e-10 3.4670149e-08    21.844259            0   -2359.5388   -2359.5388    27141.293    19.924385    28.804356    47.291973      720 
     317            0  -0.69911823     1.344589  -0.79364829  -0.91920358  -0.38450282 3.9279697e-10 3.4585216e-08    21.884525            0   -2359.5388   -2359.5388    27141.346    19.924339    28.804469    47.291989      720 
     318            0  0.084978003    1.3496299   0.30850083  -0.33839253   0.28482571 3.9200206e-10 3.4572286e-08    21.896631            0   -2359.5388   -2359.5388    27141.287    19.924303     28.80447     47.29197      720 
     319            0   0.31536495     1.354671   0.36982729    0.5390299  0.037237655 3.9617054e-10 3.4559165e-08    21.854388            0   -2359.5388   -2359.5388    27141.273    19.924309    28.804403    47.292043      720 
     320            0  -0.21578683    1.3597178  -0.26145776   0.10483565  -0.49073837 3.9564431e-10 3.4561121e-08    21.843629            0   -2359.5388   -2359.5388    27141.314    19.924324    28.804406    47.292072      720 
     321            0   -0.4929986    1.3647559  -0.74208542  -0.99347173   0.25656135 4.0315816e-10 3.4562874e-08    21.879966            0   -2359.5388   -2359.5388    27141.323     19.92435    28.804491    47.291888      720 
     322            0   0.66127755    1.3697939   0.45871033  0.073563088    1.4515592 4.2212397e-10 3.4571832e-08    21.883827            0   -2359.5388   -2359.5388    27141.232    19.924329    28.804471     47.29181      720 
     323            0    1.2771155    1.3748388    1.6037306    3.0097596  -0.78214355 5.7185092e-10 3.4711201e-08    21.596256            0   -2359.5388   -2359.5388    27141.208    19.924258    28.804242    47.292314      720 
     324            0   -1.8768866    1.3798859   -1.4805209  -0.21014985    -3.939989 6.6660476e-10 3.4787802e-08    21.501928            0   -2359.5388   -2359.5388     27141.45    19.924298    28.804328      47.2925      720 
     325            0   -1.5506046    1.3849289  -0.11534543   -4.7647881   0.22831963 1.1974553e-09 3.5288123e-08    21.339816            0   -2359.5388   -2359.5388    27141.353    19.924227    28.804798    47.291728      720 
     326            0    2.4016735     1.389967    3.3143951  0.089070963    3.8015544 1.3363527e-09 3.5426538e-08    21.186583            0   -2359.5388   -2359.5388    27141.038    19.924202    28.804616    47.291538      720 
     327            0   0.50996401    1.3950078  -0.85755376    1.7360376   0.65140821 1.5866266e-09 3.5651143e-08    20.755417            0   -2359.5388   -2359.5388    27141.179    19.924388    28.804324    47.291821      720 
     328            0    -1.268795    1.4000559   -2.0161797  -0.60627904   -1.1839263 1.6110953e-09 3.5681581e-08    20.739729            0   -2359.5388   -2359.5388    27141.319    19.924367    28.804424     47.29195      720 
     329            0  -0.17219364    1.4050949   0.35926856   -0.4773463  -0.39850318 1.6456418e-09 3.5710254e-08    20.760443            0   -2359.5388   -2359.5388    27141.238    19.924251    28.804495    47.291968      720 
     330            0   0.51697166    1.4101379   0.78756055   0.41467651   0.34867794 1.6521869e-09 3.5715723e-08    20.750387            0   -2359.5388   -2359.5388    27141.183    19.924261    28.804458    47.291909      720 
[...]
Output  | 0.00080562 | 0.00080562 | 0.00080562 |   0.0 |  0.54
Modify  | 0          | 0          | 0          |   0.0 |  0.00
Other   |            | 0.001078   |            |       |  0.73

Nlocal:    720 ave 720 max 720 min
Histogram: 1 0 0 0 0 0 0 0 0 0
Nghost:    1142 ave 1142 max 1142 min
Histogram: 1 0 0 0 0 0 0 0 0 0
Neighs:    40920 ave 40920 max 40920 min
Histogram: 1 0 0 0 0 0 0 0 0 0

Total # of neighbors = 40920
Ave neighs/atom = 56.8333
Neighbor list builds = 0
Dangerous builds = 0

# Obtain new stress tensor

variable tmp equal pxx
variable pxx1 equal ${tmp}
variable pxx1 equal -1.58796810229797e-05
variable tmp equal pyy
variable pyy1 equal ${tmp}
variable pyy1 equal -1.09343712268742e-05
variable tmp equal pzz
variable pzz1 equal ${tmp}
variable pzz1 equal -4.76035956396071e-08
variable tmp equal pxy
variable pxy1 equal ${tmp}
variable pxy1 equal 0.144229982903482
variable tmp equal pxz
variable pxz1 equal ${tmp}
variable pxz1 equal 2.52597606252802e-09
variable tmp equal pyz
variable pyz1 equal ${tmp}
variable pyz1 equal -3.79467650298605e-10

# Compute elastic constant from pressure tensor

variable C1neg equal ${d1}
variable C1neg equal 0.00058610224297455
variable C2neg equal ${d2}
variable C2neg equal 0.00047121569897965
variable C3neg equal ${d3}
variable C3neg equal 0.0012399955804897
variable C4neg equal ${d4}
variable C4neg equal -0.00224075947910724
variable C5neg equal ${d5}
variable C5neg equal 2.54829074975529e-07
variable C6neg equal ${d6}
variable C6neg equal 14.4229982910719

# Reset box and simulation parameters

clear
box tilt large
read_restart restart.equil
  triclinic box = (0.162866 0.200209 -0.0573678) to (20.0871 29.0048 47.2346) with tilt (0 0 0)
  1 by 1 by 1 MPI processor grid
  720 atoms
include potential.mod
pair_style eam/alloy
pair_coeff * * /users/knc6/Software/jarvis/jarvis/lammps/examples/Al03.eam.alloy  Al
neighbor 1.0 nsq
neigh_modify once no every 1 delay 0 check yes
min_style  cg
min_modify           dmax ${dmax} line quadratic
min_modify           dmax 0.01 line quadratic
thermo          1
thermo_style custom step temp press cpu pxx pyy pzz pxy pxz pyz ke pe etotal vol lx ly lz atoms
thermo_modify norm no

# Positive deformation

variable delta equal ${up}*${len0}
variable delta equal 1e-06*${len0}
variable delta equal 1e-06*28.8045463775457
if "${dir} == 1" then    "change_box all x delta 0 ${delta} remap units box"
if "${dir} == 2" then    "change_box all y delta 0 ${delta} remap units box"
if "${dir} == 3" then    "change_box all z delta 0 ${delta} remap units box"
if "${dir} == 4" then    "change_box all yz delta ${delta} remap units box"
if "${dir} == 5" then    "change_box all xz delta ${delta} remap units box"
if "${dir} == 6" then    "change_box all xy delta ${delta} remap units box"
change_box all xy delta ${delta} remap units box
change_box all xy delta 2.88045463775457e-05 remap units box
  triclinic box = (0.162866 0.200209 -0.0573678) to (20.0871 29.0048 47.2346) with tilt (2.88045e-05 0 0)

# Relax atoms positions

minimize ${etol} ${ftol} ${maxiter} ${maxeval}
minimize 0 ${ftol} ${maxiter} ${maxeval}
minimize 0 1e-10 ${maxiter} ${maxeval}
minimize 0 1e-10 1000 ${maxeval}
minimize 0 1e-10 1000 10000
Neighbor list info ...
  1 neighbor list requests
  update every 1 steps, delay 0 steps, check yes
  max neighbors/atom: 2000, page size: 100000
  master list distance cutoff = 7.72488
  ghost atom cutoff = 7.72488
Memory usage per processor = 3.35569 Mbytes
Step Temp Press CPU Pxx Pyy Pzz Pxy Pxz Pyz KinEng PotEng TotEng Volume Lx Ly Lz Atoms 
    1022            0 -8.5394888e-06            0 -1.5541241e-05 -1.0618367e-05 5.4114235e-07  -0.14885393 -0.006536065 6.4821821e-08            0   -2359.5389   -2359.5389    27141.319    19.924267    28.804546    47.291987      720 
    1023            0 -8.5690366e-06 0.0050189495 -1.5562875e-05 -1.064288e-05 4.9864513e-07  -0.14552541 -0.0048262571 5.5639685e-08            0   -2359.5389   -2359.5389    27141.319    19.924267    28.804546    47.291987      720 
    1024            0 -8.5906206e-06  0.010042906 -1.5576933e-05 -1.0663276e-05 4.6834691e-07  -0.14499219 -0.0044521593 5.7300127e-08            0   -2359.5389   -2359.5389    27141.319    19.924267    28.804546    47.291987      720 
    1025            0 -8.6350969e-06  0.015074015 -1.5615363e-05 -1.0696914e-05 4.0698631e-07  -0.14469659 -0.0036033899 5.3095019e-08            0   -2359.5389   -2359.5389    27141.319    19.924267    28.804546    47.291987      720 
    1026            0 -8.6888942e-06  0.020093918 -1.5662063e-05 -1.073242e-05 3.2780076e-07  -0.14446311 -0.0030774579 4.7144315e-08            0   -2359.5389   -2359.5389    27141.319    19.924267    28.804546    47.291987      720 
    1027            0 -8.7172579e-06  0.025112867 -1.5684313e-05 -1.0753817e-05 2.8635702e-07  -0.14436845 -0.0029432146 4.4181876e-08            0   -2359.5389   -2359.5389    27141.319    19.924267    28.804546    47.291987      720 
    1028            0 -8.741117e-06  0.030140877 -1.5703147e-05 -1.0772733e-05 2.5252854e-07  -0.14432575 -0.0030347138 4.2128499e-08            0   -2359.5389   -2359.5389    27141.319    19.924267    28.804546    47.291987      720 
    1029            0 -8.7610715e-06  0.035161018 -1.5719789e-05 -1.0787372e-05 2.2394666e-07  -0.14430775 -0.0030139256 4.0106218e-08            0   -2359.5389   -2359.5389    27141.319    19.924267    28.804546    47.291987      720 
    1030            0 -8.7853074e-06  0.040185928 -1.5739355e-05 -1.0805842e-05 1.8927511e-07  -0.14429764 -0.0028688398 3.7938854e-08            0   -2359.5389   -2359.5389    27141.319    19.924267    28.804546    47.291987      720 
    1031            0 -8.8157223e-06  0.045205832 -1.5764286e-05 -1.082942e-05 1.4653934e-07  -0.14429006 -0.0026804467 3.5477754e-08            0   -2359.5389   -2359.5389    27141.319    19.924267    28.804546    47.291987      720 
    1032            0 -8.8636338e-06  0.050232887 -1.5804072e-05 -1.0865412e-05 7.8582513e-08  -0.14428085 -0.0023387377 3.107267e-08            0   -2359.5389   -2359.5389    27141.319    19.924267    28.804546    47.291987      720 
    1033            0 -8.9473595e-06  0.055253983 -1.5873553e-05 -1.0928499e-05 -4.0026462e-08  -0.14426595 -0.0016767194 2.2858788e-08            0   -2359.5389   -2359.5389    27141.319    19.924267    28.804546    47.291987      720 
    1034            0 -9.03896e-06  0.060273886 -1.5950258e-05 -1.0998678e-05 -1.6794338e-07  -0.14424927 -0.00093564757 1.3290432e-08            0   -2359.5389   -2359.5389    27141.319    19.924267    28.804546    47.291987      720 
    1035            0 -9.0855802e-06  0.065299988 -1.5989168e-05 -1.1034382e-05 -2.3319051e-07  -0.14423902 -0.00055810221 7.905764e-09            0   -2359.5389   -2359.5389    27141.319    19.924267    28.804546    47.291987      720 
    1036            0 -9.0962857e-06  0.070322037 -1.5997558e-05 -1.1042233e-05 -2.4906668e-07  -0.14423377 -0.0002999385 3.7923368e-09            0   -2359.5389   -2359.5389    27141.319    19.924267    28.804546    47.291987      720 
    1037            0 -9.0870527e-06    0.0753479 -1.5989733e-05 -1.1036229e-05 -2.3519631e-07  -0.14423121 -9.3740765e-05 2.5280718e-09            0   -2359.5389   -2359.5389    27141.319    19.924267    28.804546    47.291987      720 
    1038            0 -9.0766034e-06   0.08036685 -1.5981295e-05 -1.10273e-05 -2.2121462e-07  -0.14423039 -3.198233e-05 8.6974379e-10            0   -2359.5389   -2359.5389    27141.319    19.924267    28.804546    47.291987      720 
    1039            0 -9.0646958e-06  0.085387945 -1.5971242e-05 -1.1018729e-05 -2.0411617e-07  -0.14423015 1.8400581e-06 9.9614221e-10            0   -2359.5389   -2359.5389    27141.319    19.924267    28.804546    47.291987      720 
    1040            0 -9.0490114e-06  0.090414047 -1.5958563e-05 -1.1006192e-05 -1.8227929e-07  -0.14423005 6.7993352e-06 -9.5258704e-12            0   -2359.5389   -2359.5389    27141.319    19.924267    28.804546    47.291987      720 
    1041            0 -9.033117e-06  0.095432997 -1.5945105e-05 -1.0994937e-05 -1.5930843e-07  -0.14423001 6.0472257e-06 7.6544194e-10            0   -2359.5389   -2359.5389    27141.319    19.924267    28.804546    47.291987      720 
    1042            0 -9.020862e-06   0.10045695 -1.5935371e-05 -1.0984222e-05 -1.4299326e-07  -0.14422999 4.0213375e-06 -9.3966325e-10            0   -2359.5389   -2359.5389    27141.319    19.924267    28.804546    47.291987      720 
    1043            0 -9.0027491e-06   0.10583591 -1.5919351e-05 -1.097399e-05 -1.1490654e-07  -0.14422999 8.7247929e-07 2.8189236e-09            0   -2359.5389   -2359.5389    27141.319    19.924267    28.804546    47.291987      720 
    1044            0 -8.9959238e-06   0.11089587 -1.5916325e-05 -1.0959855e-05 -1.1159161e-07  -0.14422998 4.0856369e-07 -7.1449924e-09            0   -2359.5389   -2359.5389    27141.319    19.924267    28.804546    47.291987      720 
    1045            0 -8.9725489e-06   0.11592102 -1.5893139e-05 -1.0955203e-05 -6.9304348e-08  -0.14422998 -2.2186311e-07 7.0976549e-09            0   -2359.5389   -2359.5389    27141.319    19.924267    28.804546    47.291987      720 
    1046            0 -8.9836763e-06   0.12094402 -1.5905898e-05 -1.0951594e-05 -9.353712e-08  -0.14422998 -2.0490757e-07 -6.0918736e-09            0   -2359.5389   -2359.5389    27141.319    19.924267    28.804546    47.291987      720 
    1047            0 -8.9737023e-06   0.12597394 -1.5896028e-05 -1.0949496e-05 -7.5582647e-08  -0.14422998 -1.334172e-07 -1.3981742e-10            0   -2359.5389   -2359.5389    27141.319    19.924267    28.804546    47.291987      720 
    1048            0 -8.9694096e-06   0.13100195 -1.589246e-05 -1.0946317e-05 -6.9451872e-08  -0.14422998 -1.2555404e-07 -8.3984212e-11            0   -2359.5389   -2359.5389    27141.319    19.924267    28.804546    47.291987      720 
    1049            0 -8.9644637e-06   0.13602901 -1.5888515e-05 -1.0942073e-05 -6.2803405e-08  -0.14422998 -7.5537054e-08 -6.7592842e-10            0   -2359.5389   -2359.5389    27141.319    19.924267    28.804546    47.291987      720 
    1050            0 -8.9589459e-06   0.14105296 -1.5883797e-05 -1.0938414e-05 -5.4626499e-08  -0.14422998 -3.3008212e-08 -1.1182698e-10            0   -2359.5389   -2359.5389    27141.319    19.924267    28.804546    47.291987      720 
    1051            0 -8.9538793e-06   0.14856386 -1.5879676e-05 -1.0934362e-05 -4.7599218e-08  -0.14422998 -2.5475305e-09 -3.8046751e-10            0   -2359.5389   -2359.5389    27141.319    19.924267    28.804546    47.291987      720 
Loop time of 0.148581 on 1 procs for 29 steps with 720 atoms

99.6% CPU use with 1 MPI tasks x no OpenMP threads

Minimization stats:
  Stopping criterion = force tolerance
  Energy initial, next-to-last, final = 
        -2359.53886067     -2359.53886067     -2359.53886067
  Force two-norm initial, final = 1.80928e-05 4.55518e-11
  Force max component initial, final = 2.43516e-06 4.06152e-12
  Final line search alpha, max atom move = 1 4.06152e-12
  Iterations, force evaluations = 29 58

MPI task timing breakdown:
Section |  min time  |  avg time  |  max time  |%varavg| %total
---------------------------------------------------------------
Pair    | 0.14619    | 0.14619    | 0.14619    |   0.0 | 98.39
Neigh   | 0          | 0          | 0          |   0.0 |  0.00
Comm    | 0.00050497 | 0.00050497 | 0.00050497 |   0.0 |  0.34
Output  | 0.00080943 | 0.00080943 | 0.00080943 |   0.0 |  0.54
Modify  | 0          | 0          | 0          |   0.0 |  0.00
Other   |            | 0.001079   |            |       |  0.73

Nlocal:    720 ave 720 max 720 min
Histogram: 1 0 0 0 0 0 0 0 0 0
Nghost:    1142 ave 1142 max 1142 min
Histogram: 1 0 0 0 0 0 0 0 0 0
Neighs:    40920 ave 40920 max 40920 min
Histogram: 1 0 0 0 0 0 0 0 0 0

Total # of neighbors = 40920
Ave neighs/atom = 56.8333
Neighbor list builds = 0
Dangerous builds = 0

# Obtain new stress tensor

variable tmp equal pe
variable e1 equal ${tmp}
variable e1 equal -2359.53886067236
variable tmp equal press
variable p1 equal ${tmp}
variable p1 equal -8.95387925491041e-06
variable tmp equal pxx
variable pxx1 equal ${tmp}
variable pxx1 equal -1.5879676443447e-05
variable tmp equal pyy
variable pyy1 equal ${tmp}
variable pyy1 equal -1.09343621035472e-05
variable tmp equal pzz
variable pzz1 equal ${tmp}
variable pzz1 equal -4.7599217737021e-08
variable tmp equal pxy
variable pxy1 equal ${tmp}
variable pxy1 equal -0.144229982923292
variable tmp equal pxz
variable pxz1 equal ${tmp}
variable pxz1 equal -2.54753051517448e-09
variable tmp equal pyz
variable pyz1 equal ${tmp}
variable pyz1 equal -3.80467506231674e-10

# Compute elastic constant from pressure tensor

variable C1pos equal ${d1}
variable C1pos equal -0.00058610270092782
variable C2pos equal ${d2}
variable C2pos equal -0.00047121661131235
variable C3pos equal ${d3}
variable C3pos equal -0.00123999601827996
variable C4pos equal ${d4}
variable C4pos equal 0.00224075957909283
variable C5pos equal ${d5}
variable C5pos equal 2.52521582794721e-07
variable C6pos equal ${d6}
variable C6pos equal 14.4229982916055

# Combine positive and negative

variable C1${dir} equal 0.5*(${C1neg}+${C1pos})
variable C16 equal 0.5*(${C1neg}+${C1pos})
variable C16 equal 0.5*(0.00058610224297455+${C1pos})
variable C16 equal 0.5*(0.00058610224297455+-0.00058610270092782)
variable C2${dir} equal 0.5*(${C2neg}+${C2pos})
variable C26 equal 0.5*(${C2neg}+${C2pos})
variable C26 equal 0.5*(0.00047121569897965+${C2pos})
variable C26 equal 0.5*(0.00047121569897965+-0.00047121661131235)
variable C3${dir} equal 0.5*(${C3neg}+${C3pos})
variable C36 equal 0.5*(${C3neg}+${C3pos})
variable C36 equal 0.5*(0.0012399955804897+${C3pos})
variable C36 equal 0.5*(0.0012399955804897+-0.00123999601827996)
variable C4${dir} equal 0.5*(${C4neg}+${C4pos})
variable C46 equal 0.5*(${C4neg}+${C4pos})
variable C46 equal 0.5*(-0.00224075947910724+${C4pos})
variable C46 equal 0.5*(-0.00224075947910724+0.00224075957909283)
variable C5${dir} equal 0.5*(${C5neg}+${C5pos})
variable C56 equal 0.5*(${C5neg}+${C5pos})
variable C56 equal 0.5*(2.54829074975529e-07+${C5pos})
variable C56 equal 0.5*(2.54829074975529e-07+2.52521582794721e-07)
variable C6${dir} equal 0.5*(${C6neg}+${C6pos})
variable C66 equal 0.5*(${C6neg}+${C6pos})
variable C66 equal 0.5*(14.4229982910719+${C6pos})
variable C66 equal 0.5*(14.4229982910719+14.4229982916055)

# Delete dir to make sure it is not reused

variable dir delete

# Output final values

variable C11all equal ${C11}
variable C11all equal 37.3558089432823
variable C22all equal ${C22}
variable C22all equal 42.8035397573475
variable C33all equal ${C33}
variable C33all equal -3.11241730200111e-08

variable C12all equal 0.5*(${C12}+${C21})
variable C12all equal 0.5*(13.826604990141+${C21})
variable C12all equal 0.5*(13.826604990141+13.8266064118209)
variable C13all equal 0.5*(${C13}+${C31})
variable C13all equal 0.5*(-1.18268167459987e-07+${C31})
variable C13all equal 0.5*(-1.18268167459987e-07+3.90829553950124e-08)
variable C23all equal 0.5*(${C23}+${C32})
variable C23all equal 0.5*(-1.10015400426e-06+${C32})
variable C23all equal 0.5*(-1.10015400426e-06+-4.84983657884994e-07)

variable C44all equal ${C44}
variable C44all equal -2.36061746350467e-08
variable C55all equal ${C55}
variable C55all equal 3.38415085336703e-07
variable C66all equal ${C66}
variable C66all equal 14.4229982913387

variable C14all equal 0.5*(${C14}+${C41})
variable C14all equal 0.5*(1.80696449530006e-07+${C41})
variable C14all equal 0.5*(1.80696449530006e-07+-3.94190943490101e-07)
variable C15all equal 0.5*(${C15}+${C51})
variable C15all equal 0.5*(5.36731345024237e-10+${C51})
variable C15all equal 0.5*(5.36731345024237e-10+3.417150884011e-10)
variable C16all equal 0.5*(${C16}+${C61})
variable C16all equal 0.5*(-2.28976635016035e-10+${C61})
variable C16all equal 0.5*(-2.28976635016035e-10+-3.39115653463854e-10)

variable C24all equal 0.5*(${C24}+${C42})
variable C24all equal 0.5*(4.02931746879996e-07+${C42})
variable C24all equal 0.5*(4.02931746879996e-07+3.50439374600161e-08)
variable C25all equal 0.5*(${C25}+${C52})
variable C25all equal 0.5*(-9.97347080004254e-10+${C52})
variable C25all equal 0.5*(-9.97347080004254e-10+6.1080924996502e-10)
variable C26all equal 0.5*(${C26}+${C62})
variable C26all equal 0.5*(-4.56166350000639e-10+${C62})
variable C26all equal 0.5*(-4.56166350000639e-10+4.51440909836405e-10)

variable C34all equal 0.5*(${C34}+${C43})
variable C34all equal 0.5*(-2.65521757969998e-07+${C43})
variable C34all equal 0.5*(-2.65521757969998e-07+-1.0478980541997e-07)
variable C35all equal 0.5*(${C35}+${C53})
variable C35all equal 0.5*(3.43743999952663e-10+${C53})
variable C35all equal 0.5*(3.43743999952663e-10+-1.99231203027745e-10)
variable C36all equal 0.5*(${C36}+${C63})
variable C36all equal 0.5*(-2.18895129995046e-10+${C63})
variable C36all equal 0.5*(-2.18895129995046e-10+7.6024545402705e-10)

variable C45all equal 0.5*(${C45}+${C54})
variable C45all equal 0.5*(1.69291464961058e-10+${C54})
variable C45all equal 0.5*(1.69291464961058e-10+-2.8207734056063e-10)
variable C46all equal 0.5*(${C46}+${C64})
variable C46all equal 0.5*(4.99927948430928e-11+${C64})
variable C46all equal 0.5*(4.99927948430928e-11+8.40743259083301e-10)
variable C56all equal 0.5*(${C56}+${C65})
variable C56all equal 0.5*(2.53675328885125e-07+${C65})
variable C56all equal 0.5*(2.53675328885125e-07+1.04630520097398e-07)

# For Stillinger-Weber silicon, the analytical results
# are known to be (E. R. Cowley, 1988):
#               C11 = 151.4 GPa
#               C12 = 76.4 GPa
#               C44 = 56.4 GPa

print "Elastic Constant C11all = ${C11all} ${cunits}"
Elastic Constant C11all = 37.3558089432823 GPa
print "Elastic Constant C22all = ${C22all} ${cunits}"
Elastic Constant C22all = 42.8035397573475 GPa
print "Elastic Constant C33all = ${C33all} ${cunits}"
Elastic Constant C33all = -3.11241730200111e-08 GPa

print "Elastic Constant C12all = ${C12all} ${cunits}"
Elastic Constant C12all = 13.8266057009809 GPa
print "Elastic Constant C13all = ${C13all} ${cunits}"
Elastic Constant C13all = -3.95926060324873e-08 GPa
print "Elastic Constant C23all = ${C23all} ${cunits}"
Elastic Constant C23all = -7.92568831072497e-07 GPa

print "Elastic Constant C44all = ${C44all} ${cunits}"
Elastic Constant C44all = -2.36061746350467e-08 GPa
print "Elastic Constant C55all = ${C55all} ${cunits}"
Elastic Constant C55all = 3.38415085336703e-07 GPa
print "Elastic Constant C66all = ${C66all} ${cunits}"
Elastic Constant C66all = 14.4229982913387 GPa

print "Elastic Constant C14all = ${C14all} ${cunits}"
Elastic Constant C14all = -1.06747246980047e-07 GPa
print "Elastic Constant C15all = ${C15all} ${cunits}"
Elastic Constant C15all = 4.39223216712668e-10 GPa
print "Elastic Constant C16all = ${C16all} ${cunits}"
Elastic Constant C16all = -2.84046144239944e-10 GPa

print "Elastic Constant C24all = ${C24all} ${cunits}"
Elastic Constant C24all = 2.18987842170006e-07 GPa
print "Elastic Constant C25all = ${C25all} ${cunits}"
Elastic Constant C25all = -1.93268915019617e-10 GPa
print "Elastic Constant C26all = ${C26all} ${cunits}"
Elastic Constant C26all = -2.36272008211701e-12 GPa

print "Elastic Constant C34all = ${C34all} ${cunits}"
Elastic Constant C34all = -1.85155781694984e-07 GPa
print "Elastic Constant C35all = ${C35all} ${cunits}"
Elastic Constant C35all = 7.2256398462459e-11 GPa
print "Elastic Constant C36all = ${C36all} ${cunits}"
Elastic Constant C36all = 2.70675162016002e-10 GPa

print "Elastic Constant C45all = ${C45all} ${cunits}"
Elastic Constant C45all = -5.6392937799786e-11 GPa
print "Elastic Constant C46all = ${C46all} ${cunits}"
Elastic Constant C46all = 4.45368026963197e-10 GPa
print "Elastic Constant C56all = ${C56all} ${cunits}"
Elastic Constant C56all = 1.79152924491262e-07 GPa

Total wall time: 0:00:07
