PROCAR lm decomposed
# of k-points:   56         # of bands:  36         # of ions:   2

 k-point    1 :    0.00000000 0.00000000 0.00000000     weight = 0.00075131

band   1 # energy   -6.19173077 # occ.  2.00000000
 
ion      s     py     pz     px    dxy    dyz    dz2    dxz    dx2    tot
  1  0.207  0.000  0.000  0.000  0.000  0.000  0.000  0.000  0.000  0.207
  2  0.207  0.000  0.000  0.000  0.000  0.000  0.000  0.000  0.000  0.207
tot  0.413  0.000  0.000  0.000  0.000  0.000  0.000  0.000  0.000  0.413
 
band   2 # energy    5.45908573 # occ.  1.98537869
 
ion      s     py     pz     px    dxy    dyz    dz2    dxz    dx2    tot
  1  0.000  0.000  0.209  0.000  0.000  0.000  0.000  0.000  0.000  0.209
  2  0.000  0.000  0.209  0.000  0.000  0.000  0.000  0.000  0.000  0.209
tot  0.000  0.000  0.418  0.000  0.000  0.000  0.000  0.000  0.000  0.418
 
band   3 # energy    5.45908626 # occ.  1.98537854
 
ion      s     py     pz     px    dxy    dyz    dz2    dxz    dx2    tot
  1  0.000  0.007  0.000  0.202  0.000  0.000  0.000  0.000  0.000  0.209
  2  0.000  0.007  0.000  0.202  0.000  0.000  0.000  0.000  0.000  0.209
tot  0.000  0.014  0.000  0.404  0.000  0.000  0.000  0.000  0.000  0.418
 
band   4 # energy    5.45908776 # occ.  1.98537811
 
ion      s     py     pz     px    dxy    dyz    dz2    dxz    dx2    tot
  1  0.000  0.202  0.000  0.007  0.000  0.000  0.000  0.000  0.000  0.209
  2  0.000  0.202  0.000  0.007  0.000  0.000  0.000  0.000  0.000  0.209
tot  0.000  0.404  0.000  0.014  0.000  0.000  0.000  0.000  0.000  0.418
 
band   5 # energy    8.07429686 # occ.  0.00000000
 
ion      s     py     pz     px    dxy    dyz    dz2    dxz    dx2    tot
  1  0.000  0.148  0.000  0.000  0.000  0.000  0.000  0.000  0.000  0.148
  2  0.000  0.148  0.000  0.000  0.000  0.000  0.000  0.000  0.000  0.148
tot  0.000  0.296  0.000  0.000  0.000  0.000  0.000  0.000  0.000  0.296
 
band   6 # energy    8.07430113 # occ.  0.00000000
 
ion      s     py     pz     px    dxy    dyz    dz2    dxz    dx2    tot
  1  0.000  0.000  0.000  0.148  0.000  0.000  0.000  0.000  0.000  0.148
  2  0.000  0.000  0.000  0.148  0.000  0.000  0.000  0.000  0.000  0.148
tot  0.000  0.000  0.000  0.296  0.000  0.000  0.000  0.000  0.000  0.296
 
band   7 # energy    8.07430164 # occ.  0.00000000
 
ion      s     py     pz     px    dxy    dyz    dz2    dxz    dx2    tot
  1  0.000  0.000  0.148  0.000  0.000  0.000  0.000  0.000  0.000  0.148
  2  0.000  0.000  0.148  0.000  0.000  0.000  0.000  0.000  0.000  0.148
tot  0.000  0.000  0.296  0.000  0.000  0.000  0.000  0.000  0.000  0.296
 
band   8 # energy    8.53000784 # occ.  0.00000000
 
ion      s     py     pz     px    dxy    dyz    dz2    dxz    dx2    tot
  1  0.351  0.000  0.000  0.000  0.000  0.000  0.000  0.000  0.000  0.351
  2  0.351  0.000  0.000  0.000  0.000  0.000  0.000  0.000  0.000  0.351
tot  0.702  0.000  0.000  0.000  0.000  0.000  0.000  0.000  0.000  0.702
 
band   9 # energy   13.21413586 # occ.  0.00000000
 
ion      s     py     pz     px    dxy    dyz    dz2    dxz    dx2    tot
  1  0.000  0.000  0.000  0.000  0.000  0.000  0.000  0.000  0.000  0.000
  2  0.000  0.000  0.000  0.000  0.000  0.000  0.000  0.000  0.000  0.000
tot  0.000  0.000  0.000  0.000  0.000  0.000  0.000  0.000  0.000  0.000
 
band  10 # energy   13.21413762 # occ.  0.00000000
 
ion      s     py     pz     px    dxy    dyz    dz2    dxz    dx2    tot
  1  0.000  0.000  0.000  0.000  0.000  0.000  0.000  0.000  0.000  0.000
  2  0.000  0.000  0.000  0.000  0.000  0.000  0.000  0.000  0.000  0.000
tot  0.000  0.000  0.000  0.000  0.000  0.000  0.000  0.000  0.000  0.000
 
band  11 # energy   13.34861739 # occ.  0.00000000
 
ion      s     py     pz     px    dxy    dyz    dz2    dxz    dx2    tot
  1  0.098  0.000  0.000  0.000  0.000  0.000  0.000  0.000  0.000  0.098
  2  0.098  0.000  0.000  0.000  0.000  0.000  0.000  0.000  0.000  0.098
tot  0.195  0.000  0.000  0.000  0.000  0.000  0.000  0.000  0.000  0.195
 
band  12 # energy   16.65561439 # occ.  0.00000000
 
ion      s     py     pz     px    dxy    dyz    dz2    dxz    dx2    tot
  1  0.000  0.033  0.000  0.005  0.000  0.000  0.000  0.000  0.000  0.038
  2  0.000  0.033  0.000  0.005  0.000  0.000  0.000  0.000  0.000  0.038
tot  0.000  0.066  0.000  0.010  0.000  0.000  0.000  0.000  0.000  0.076
 
band  13 # energy   16.65561604 # occ.  0.00000000
 
ion      s     py     pz     px    dxy    dyz    dz2    dxz    dx2    tot
  1  0.000  0.000  0.038  0.000  0.000  0.000  0.000  0.000  0.000  0.038
  2  0.000  0.000  0.038  0.000  0.000  0.000  0.000  0.000  0.000  0.038
tot  0.000  0.000  0.076  0.000  0.000  0.000  0.000  0.000  0.000  0.076
 
band  14 # energy   16.65561823 # occ.  0.00000000
 
ion      s     py     pz     px    dxy    dyz    dz2    dxz    dx2    tot
  1  0.000  0.005  0.000  0.033  0.000  0.000  0.000  0.000  0.000  0.038
  2  0.000  0.005  0.000  0.033  0.000  0.000  0.000  0.000  0.000  0.038
tot  0.000  0.010  0.000  0.066  0.000  0.000  0.000  0.000  0.000  0.076
 
band  15 # energy   20.75071088 # occ.  0.00000000
 
ion      s     py     pz     px    dxy    dyz    dz2    dxz    dx2    tot
  1  0.036  0.000  0.000  0.000  0.000  0.000  0.000  0.000  0.000  0.036
  2  0.036  0.000  0.000  0.000  0.000  0.000  0.000  0.000  0.000  0.036
tot  0.071  0.000  0.000  0.000  0.000  0.000  0.000  0.000  0.000  0.071
 
band  16 # energy   28.16643180 # occ.  0.00000000
 
ion      s     py     pz     px    dxy    dyz    dz2    dxz    dx2    tot
  1  0.000  0.001  0.000  0.009  0.000  0.000  0.000  0.000  0.000  0.010
  2  0.000  0.001  0.000  0.009  0.000  0.000  0.000  0.000  0.000  0.010
tot  0.000  0.003  0.000  0.018  0.000  0.000  0.000  0.000  0.000  0.021
 
band  17 # energy   28.16643420 # occ.  0.00000000
 
ion      s     py     pz     px    dxy    dyz    dz2    dxz    dx2    tot
  1  0.000  0.000  0.010  0.000  0.000  0.000  0.000  0.000  0.000  0.010
  2  0.000  0.000  0.010  0.000  0.000  0.000  0.000  0.000  0.000  0.010
tot  0.000  0.000  0.021  0.000  0.000  0.000  0.000  0.000  0.000  0.021
 
band  18 # energy   28.16643596 # occ.  0.00000000
 
ion      s     py     pz     px    dxy    dyz    dz2    dxz    dx2    tot
  1  0.000  0.009  0.000  0.001  0.000  0.000  0.000  0.000  0.000  0.010
  2  0.000  0.009  0.000  0.001  0.000  0.000  0.000  0.000  0.000  0.010
tot  0.000  0.018  0.000  0.003  0.000  0.000  0.000  0.000  0.000  0.021
 
band  19 # energy   29.26876746 # occ.  0.00000000
 
ion      s     py     pz     px    dxy    dyz    dz2    dxz    dx2    tot
  1  0.000  0.000  0.000  0.000  0.000  0.000  0.000  0.000  0.000  0.000
  2  0.000  0.000  0.000  0.000  0.000  0.000  0.000  0.000  0.000  0.000
tot  0.000  0.000  0.000  0.000  0.000  0.000  0.000  0.000  0.000  0.000
 
band  20 # energy   29.26876948 # occ.  0.00000000
 
ion      s     py     pz     px    dxy    dyz    dz2    dxz    dx2    tot
  1  0.000  0.000  0.000  0.000  0.000  0.000  0.000  0.000  0.000  0.000
  2  0.000  0.000  0.000  0.000  0.000  0.000  0.000  0.000  0.000  0.000
tot  0.000  0.000  0.000  0.000  0.000  0.000  0.000  0.000  0.000  0.000
 
band  21 # energy   30.47512080 # occ.  0.00000000
 
ion      s     py     pz     px    dxy    dyz    dz2    dxz    dx2    tot
  1  0.000  0.220  0.000  0.002  0.000  0.000  0.000  0.000  0.000  0.222
  2  0.000  0.220  0.000  0.002  0.000  0.000  0.000  0.000  0.000  0.222
tot  0.000  0.440  0.000  0.005  0.000  0.000  0.000  0.000  0.000  0.445
 
band  22 # energy   30.47512939 # occ.  0.00000000
 
ion      s     py     pz     px    dxy    dyz    dz2    dxz    dx2    tot
  1  0.000  0.000  0.221  0.001  0.000  0.000  0.000  0.000  0.000  0.222
  2  0.000  0.000  0.221  0.001  0.000  0.000  0.000  0.000  0.000  0.222
tot  0.000  0.000  0.442  0.003  0.000  0.000  0.000  0.000  0.000  0.445
 
band  23 # energy   30.47513003 # occ.  0.00000000
 
ion      s     py     pz     px    dxy    dyz    dz2    dxz    dx2    tot
  1  0.000  0.002  0.001  0.219  0.000  0.000  0.000  0.000  0.000  0.222
  2  0.000  0.002  0.001  0.219  0.000  0.000  0.000  0.000  0.000  0.222
tot  0.000  0.005  0.003  0.437  0.000  0.000  0.000  0.000  0.000  0.445
 
band  24 # energy   34.22151791 # occ.  0.00000000
 
ion      s     py     pz     px    dxy    dyz    dz2    dxz    dx2    tot
  1  0.000  0.000  0.000  0.000  0.000  0.000  0.000  0.000  0.000  0.000
  2  0.000  0.000  0.000  0.000  0.000  0.000  0.000  0.000  0.000  0.000
tot  0.000  0.000  0.000  0.000  0.000  0.000  0.000  0.000  0.000  0.000
 
band  25 # energy   34.22151960 # occ.  0.00000000
 
ion      s     py     pz     px    dxy    dyz    dz2    dxz    dx2    tot
  1  0.000  0.000  0.000  0.000  0.000  0.000  0.000  0.000  0.000  0.000
  2  0.000  0.000  0.000  0.000  0.000  0.000  0.000  0.000  0.000  0.000
tot  0.000  0.000  0.000  0.000  0.000  0.000  0.000  0.000  0.000  0.000
 
band  26 # energy   34.22152651 # occ.  0.00000000
 
ion      s     py     pz     px    dxy    dyz    dz2    dxz    dx2    tot
  1  0.000  0.000  0.000  0.000  0.000  0.000  0.000  0.000  0.000  0.000
  2  0.000  0.000  0.000  0.000  0.000  0.000  0.000  0.000  0.000  0.000
tot  0.000  0.000  0.000  0.000  0.000  0.000  0.000  0.000  0.000  0.000
 
band  27 # energy   39.66461473 # occ.  0.00000000
 
ion      s     py     pz     px    dxy    dyz    dz2    dxz    dx2    tot
  1  0.000  0.006  0.000  0.000  0.000  0.000  0.000  0.000  0.000  0.006
  2  0.000  0.006  0.000  0.000  0.000  0.000  0.000  0.000  0.000  0.006
tot  0.000  0.011  0.000  0.000  0.000  0.000  0.000  0.000  0.000  0.011
 
band  28 # energy   39.66462349 # occ.  0.00000000
 
ion      s     py     pz     px    dxy    dyz    dz2    dxz    dx2    tot
  1  0.000  0.000  0.000  0.006  0.000  0.000  0.000  0.000  0.000  0.006
  2  0.000  0.000  0.000  0.006  0.000  0.000  0.000  0.000  0.000  0.006
tot  0.000  0.000  0.000  0.011  0.000  0.000  0.000  0.000  0.000  0.011
 
band  29 # energy   39.66462446 # occ.  0.00000000
 
ion      s     py     pz     px    dxy    dyz    dz2    dxz    dx2    tot
  1  0.000  0.000  0.006  0.000  0.000  0.000  0.000  0.000  0.000  0.006
  2  0.000  0.000  0.006  0.000  0.000  0.000  0.000  0.000  0.000  0.006
tot  0.000  0.000  0.011  0.000  0.000  0.000  0.000  0.000  0.000  0.011
 
band  30 # energy   43.08015136 # occ.  0.00000000
 
ion      s     py     pz     px    dxy    dyz    dz2    dxz    dx2    tot
  1  0.101  0.000  0.000  0.000  0.000  0.000  0.000  0.000  0.000  0.101
  2  0.101  0.000  0.000  0.000  0.000  0.000  0.000  0.000  0.000  0.101
tot  0.203  0.000  0.000  0.000  0.000  0.000  0.000  0.000  0.000  0.203
 
band  31 # energy   43.39273715 # occ.  0.00000000
 
ion      s     py     pz     px    dxy    dyz    dz2    dxz    dx2    tot
  1  0.000  0.000  0.000  0.000  0.000  0.000  0.000  0.000  0.000  0.000
  2  0.000  0.000  0.000  0.000  0.000  0.000  0.000  0.000  0.000  0.000
tot  0.000  0.000  0.000  0.000  0.000  0.000  0.000  0.000  0.000  0.000
 
band  32 # energy   43.39274100 # occ.  0.00000000
 
ion      s     py     pz     px    dxy    dyz    dz2    dxz    dx2    tot
  1  0.000  0.000  0.000  0.000  0.000  0.000  0.000  0.000  0.000  0.000
  2  0.000  0.000  0.000  0.000  0.000  0.000  0.000  0.000  0.000  0.000
tot  0.000  0.000  0.000  0.000  0.000  0.000  0.000  0.000  0.000  0.000
 
band  33 # energy   45.34174969 # occ.  0.00000000
 
ion      s     py     pz     px    dxy    dyz    dz2    dxz    dx2    tot
  1  0.000  0.000  0.000  0.000  0.000  0.000  0.000  0.000  0.000  0.000
  2  0.000  0.000  0.000  0.000  0.000  0.000  0.000  0.000  0.000  0.000
tot  0.000  0.000  0.000  0.000  0.000  0.000  0.000  0.000  0.000  0.000
 
band  34 # energy   45.34175255 # occ.  0.00000000
 
ion      s     py     pz     px    dxy    dyz    dz2    dxz    dx2    tot
  1  0.000  0.000  0.000  0.000  0.000  0.000  0.000  0.000  0.000  0.000
  2  0.000  0.000  0.000  0.000  0.000  0.000  0.000  0.000  0.000  0.000
tot  0.000  0.000  0.000  0.000  0.000  0.000  0.000  0.000  0.000  0.000
 
band  35 # energy   46.61426569 # occ.  0.00000000
 
ion      s     py     pz     px    dxy    dyz    dz2    dxz    dx2    tot
  1  0.000  0.056  0.085  0.000  0.000  0.000  0.000  0.000  0.000  0.141
  2  0.000  0.056  0.085  0.000  0.000  0.000  0.000  0.000  0.000  0.141
tot  0.000  0.112  0.170  0.001  0.000  0.000  0.000  0.000  0.000  0.283
 
band  36 # energy   46.61427005 # occ.  0.00000000
 
ion      s     py     pz     px    dxy    dyz    dz2    dxz    dx2    tot
  1  0.000  0.000  0.001  0.140  0.000  0.000  0.000  0.000  0.000  0.141
  2  0.000  0.000  0.001  0.140  0.000  0.000  0.000  0.000  0.000  0.141
tot  0.000  0.000  0.001  0.281  0.000  0.000  0.000  0.000  0.000  0.283
 

 k-point    2 :    0.09090909 0.00000000 0.00000000     weight = 0.00601052

band   1 # energy   -6.08687261 # occ.  2.00000000
 
ion      s     py     pz     px    dxy    dyz    dz2    dxz    dx2    tot
  1  0.206  0.000  0.000  0.001  0.000  0.000  0.000  0.000  0.000  0.207
  2  0.206  0.000  0.000  0.001  0.000  0.000  0.000  0.000  0.000  0.207
tot  0.412  0.000  0.000  0.002  0.000  0.000  0.000  0.000  0.000  0.414
 
band   2 # energy    4.49615741 # occ.  2.00000000
 
ion      s     py     pz     px    dxy    dyz    dz2    dxz    dx2    tot
  1  0.048  0.019  0.000  0.148  0.000  0.000  0.000  0.000  0.000  0.215
  2  0.048  0.019  0.000  0.148  0.000  0.000  0.000  0.000  0.000  0.215
tot  0.096  0.037  0.000  0.297  0.000  0.000  0.000  0.000  0.000  0.429
 
band   3 # energy    5.30214247 # occ.  1.99961679
 
ion      s     py     pz     px    dxy    dyz    dz2    dxz    dx2    tot
  1  0.000  0.000  0.207  0.000  0.000  0.000  0.000  0.000  0.000  0.207
  2  0.000  0.000  0.207  0.000  0.000  0.000  0.000  0.000  0.000  0.207
tot  0.000  0.000  0.415  0.000  0.000  0.000  0.000  0.000  0.000  0.415
 
band   4 # energy    5.30214445 # occ.  1.99961677
 
ion      s     py     pz     px    dxy    dyz    dz2    dxz    dx2    tot
  1  0.000  0.184  0.000  0.023  0.000  0.000  0.000  0.000  0.000  0.207
  2  0.000  0.184  0.000  0.023  0.000  0.000  0.000  0.000  0.000  0.207
tot  0.000  0.369  0.000  0.046  0.000  0.000  0.000  0.000  0.000  0.415
 
band   5 # energy    8.03775650 # occ.  0.00000000
 
ion      s     py     pz     px    dxy    dyz    dz2    dxz    dx2    tot
  1  0.087  0.011  0.000  0.090  0.000  0.000  0.000  0.000  0.000  0.189
  2  0.087  0.011  0.000  0.090  0.000  0.000  0.000  0.000  0.000  0.189
tot  0.174  0.023  0.000  0.181  0.000  0.000  0.000  0.000  0.000  0.378
 
band   6 # energy    8.30832555 # occ.  0.00000000
 
ion      s     py     pz     px    dxy    dyz    dz2    dxz    dx2    tot
  1  0.000  0.134  0.000  0.017  0.000  0.000  0.000  0.000  0.000  0.151
  2  0.000  0.134  0.000  0.017  0.000  0.000  0.000  0.000  0.000  0.151
tot  0.000  0.268  0.000  0.033  0.000  0.000  0.000  0.000  0.000  0.301
 
band   7 # energy    8.30832988 # occ.  0.00000000
 
ion      s     py     pz     px    dxy    dyz    dz2    dxz    dx2    tot
  1  0.000  0.000  0.151  0.000  0.000  0.000  0.000  0.000  0.000  0.151
  2  0.000  0.000  0.151  0.000  0.000  0.000  0.000  0.000  0.000  0.151
tot  0.000  0.000  0.301  0.000  0.000  0.000  0.000  0.000  0.000  0.301
 
band   8 # energy    9.35920713 # occ.  0.00000000
 
ion      s     py     pz     px    dxy    dyz    dz2    dxz    dx2    tot
  1  0.223  0.008  0.000  0.067  0.000  0.000  0.000  0.000  0.000  0.299
  2  0.223  0.008  0.000  0.067  0.000  0.000  0.000  0.000  0.000  0.299
tot  0.446  0.017  0.000  0.135  0.000  0.000  0.000  0.000  0.000  0.598
 
band   9 # energy   12.91564165 # occ.  0.00000000
 
ion      s     py     pz     px    dxy    dyz    dz2    dxz    dx2    tot
  1  0.000  0.000  0.001  0.000  0.000  0.000  0.000  0.000  0.000  0.001
  2  0.000  0.000  0.001  0.000  0.000  0.000  0.000  0.000  0.000  0.001
tot  0.000  0.000  0.002  0.000  0.000  0.000  0.000  0.000  0.000  0.002
 
band  10 # energy   12.91564275 # occ.  0.00000000
 
ion      s     py     pz     px    dxy    dyz    dz2    dxz    dx2    tot
  1  0.000  0.001  0.000  0.000  0.000  0.000  0.000  0.000  0.000  0.001
  2  0.000  0.001  0.000  0.000  0.000  0.000  0.000  0.000  0.000  0.001
tot  0.000  0.002  0.000  0.000  0.000  0.000  0.000  0.000  0.000  0.002
 
band  11 # energy   13.78811098 # occ.  0.00000000
 
ion      s     py     pz     px    dxy    dyz    dz2    dxz    dx2    tot
  1  0.085  0.002  0.000  0.016  0.000  0.000  0.000  0.000  0.000  0.104
  2  0.085  0.002  0.000  0.016  0.000  0.000  0.000  0.000  0.000  0.104
tot  0.171  0.004  0.000  0.033  0.000  0.000  0.000  0.000  0.000  0.208
 
band  12 # energy   16.30038804 # occ.  0.00000000
 
ion      s     py     pz     px    dxy    dyz    dz2    dxz    dx2    tot
  1  0.008  0.003  0.000  0.024  0.000  0.000  0.000  0.000  0.000  0.036
  2  0.008  0.003  0.000  0.024  0.000  0.000  0.000  0.000  0.000  0.036
tot  0.016  0.006  0.000  0.049  0.000  0.000  0.000  0.000  0.000  0.071
 
band  13 # energy   17.30020428 # occ.  0.00000000
 
ion      s     py     pz     px    dxy    dyz    dz2    dxz    dx2    tot
  1  0.000  0.000  0.036  0.000  0.000  0.000  0.000  0.000  0.000  0.036
  2  0.000  0.000  0.036  0.000  0.000  0.000  0.000  0.000  0.000  0.036
tot  0.000  0.000  0.071  0.000  0.000  0.000  0.000  0.000  0.000  0.071
 
band  14 # energy   17.30020495 # occ.  0.00000000
 
ion      s     py     pz     px    dxy    dyz    dz2    dxz    dx2    tot
  1  0.000  0.032  0.000  0.004  0.000  0.000  0.000  0.000  0.000  0.036
  2  0.000  0.032  0.000  0.004  0.000  0.000  0.000  0.000  0.000  0.036
tot  0.000  0.063  0.000  0.008  0.000  0.000  0.000  0.000  0.000  0.071
 
band  15 # energy   21.43423613 # occ.  0.00000000
 
ion      s     py     pz     px    dxy    dyz    dz2    dxz    dx2    tot
  1  0.028  0.001  0.000  0.008  0.000  0.000  0.000  0.000  0.000  0.037
  2  0.028  0.001  0.000  0.008  0.000  0.000  0.000  0.000  0.000  0.037
tot  0.056  0.002  0.000  0.016  0.000  0.000  0.000  0.000  0.000  0.075
 
band  16 # energy   27.01588340 # occ.  0.00000000
 
ion      s     py     pz     px    dxy    dyz    dz2    dxz    dx2    tot
  1  0.000  0.034  0.000  0.004  0.000  0.000  0.000  0.000  0.000  0.038
  2  0.000  0.034  0.000  0.004  0.000  0.000  0.000  0.000  0.000  0.038
tot  0.000  0.067  0.000  0.008  0.000  0.000  0.000  0.000  0.000  0.076
 
band  17 # energy   27.01588930 # occ.  0.00000000
 
ion      s     py     pz     px    dxy    dyz    dz2    dxz    dx2    tot
  1  0.000  0.000  0.038  0.000  0.000  0.000  0.000  0.000  0.000  0.038
  2  0.000  0.000  0.038  0.000  0.000  0.000  0.000  0.000  0.000  0.038
tot  0.000  0.000  0.076  0.000  0.000  0.000  0.000  0.000  0.000  0.076
 
band  18 # energy   27.04496548 # occ.  0.00000000
 
ion      s     py     pz     px    dxy    dyz    dz2    dxz    dx2    tot
  1  0.003  0.009  0.000  0.073  0.000  0.000  0.000  0.000  0.000  0.085
  2  0.003  0.009  0.000  0.073  0.000  0.000  0.000  0.000  0.000  0.085
tot  0.006  0.018  0.000  0.145  0.000  0.000  0.000  0.000  0.000  0.170
 
band  19 # energy   28.92124724 # occ.  0.00000000
 
ion      s     py     pz     px    dxy    dyz    dz2    dxz    dx2    tot
  1  0.000  0.000  0.009  0.000  0.000  0.000  0.000  0.000  0.000  0.009
  2  0.000  0.000  0.009  0.000  0.000  0.000  0.000  0.000  0.000  0.009
tot  0.000  0.000  0.019  0.000  0.000  0.000  0.000  0.000  0.000  0.019
 
band  20 # energy   28.92125078 # occ.  0.00000000
 
ion      s     py     pz     px    dxy    dyz    dz2    dxz    dx2    tot
  1  0.000  0.008  0.000  0.001  0.000  0.000  0.000  0.000  0.000  0.009
  2  0.000  0.008  0.000  0.001  0.000  0.000  0.000  0.000  0.000  0.009
tot  0.000  0.017  0.000  0.002  0.000  0.000  0.000  0.000  0.000  0.019
 
band  21 # energy   30.91329983 # occ.  0.00000000
 
ion      s     py     pz     px    dxy    dyz    dz2    dxz    dx2    tot
  1  0.000  0.161  0.000  0.020  0.000  0.000  0.000  0.000  0.000  0.181
  2  0.000  0.161  0.000  0.020  0.000  0.000  0.000  0.000  0.000  0.181
tot  0.000  0.322  0.000  0.040  0.000  0.000  0.000  0.000  0.000  0.362
 
band  22 # energy   30.91330581 # occ.  0.00000000
 
ion      s     py     pz     px    dxy    dyz    dz2    dxz    dx2    tot
  1  0.000  0.000  0.181  0.000  0.000  0.000  0.000  0.000  0.000  0.181
  2  0.000  0.000  0.181  0.000  0.000  0.000  0.000  0.000  0.000  0.181
tot  0.000  0.000  0.362  0.000  0.000  0.000  0.000  0.000  0.000  0.362
 
band  23 # energy   31.44855167 # occ.  0.00000000
 
ion      s     py     pz     px    dxy    dyz    dz2    dxz    dx2    tot
  1  0.008  0.015  0.000  0.121  0.000  0.000  0.000  0.000  0.000  0.144
  2  0.008  0.015  0.000  0.121  0.000  0.000  0.000  0.000  0.000  0.144
tot  0.016  0.030  0.000  0.242  0.000  0.000  0.000  0.000  0.000  0.288
 
band  24 # energy   34.31754858 # occ.  0.00000000
 
ion      s     py     pz     px    dxy    dyz    dz2    dxz    dx2    tot
  1  0.000  0.000  0.000  0.000  0.000  0.000  0.000  0.000  0.000  0.000
  2  0.000  0.000  0.000  0.000  0.000  0.000  0.000  0.000  0.000  0.000
tot  0.000  0.000  0.000  0.000  0.000  0.000  0.000  0.000  0.000  0.000
 
band  25 # energy   35.47912505 # occ.  0.00000000
 
ion      s     py     pz     px    dxy    dyz    dz2    dxz    dx2    tot
  1  0.000  0.002  0.000  0.000  0.000  0.000  0.000  0.000  0.000  0.002
  2  0.000  0.002  0.000  0.000  0.000  0.000  0.000  0.000  0.000  0.002
tot  0.000  0.004  0.000  0.001  0.000  0.000  0.000  0.000  0.000  0.005
 
band  26 # energy   35.47913352 # occ.  0.00000000
 
ion      s     py     pz     px    dxy    dyz    dz2    dxz    dx2    tot
  1  0.000  0.000  0.002  0.000  0.000  0.000  0.000  0.000  0.000  0.002
  2  0.000  0.000  0.002  0.000  0.000  0.000  0.000  0.000  0.000  0.002
tot  0.000  0.000  0.005  0.000  0.000  0.000  0.000  0.000  0.000  0.005
 
band  27 # energy   38.28154400 # occ.  0.00000000
 
ion      s     py     pz     px    dxy    dyz    dz2    dxz    dx2    tot
  1  0.003  0.002  0.000  0.017  0.000  0.000  0.000  0.000  0.000  0.022
  2  0.003  0.002  0.000  0.017  0.000  0.000  0.000  0.000  0.000  0.022
tot  0.006  0.004  0.000  0.033  0.000  0.000  0.000  0.000  0.000  0.044
 
band  28 # energy   39.37952675 # occ.  0.00000000
 
ion      s     py     pz     px    dxy    dyz    dz2    dxz    dx2    tot
  1  0.000  0.011  0.000  0.001  0.000  0.000  0.000  0.000  0.000  0.012
  2  0.000  0.011  0.000  0.001  0.000  0.000  0.000  0.000  0.000  0.012
tot  0.000  0.022  0.000  0.003  0.000  0.000  0.000  0.000  0.000  0.025
 
band  29 # energy   39.37953510 # occ.  0.00000000
 
ion      s     py     pz     px    dxy    dyz    dz2    dxz    dx2    tot
  1  0.000  0.000  0.012  0.000  0.000  0.000  0.000  0.000  0.000  0.012
  2  0.000  0.000  0.012  0.000  0.000  0.000  0.000  0.000  0.000  0.012
tot  0.000  0.000  0.025  0.000  0.000  0.000  0.000  0.000  0.000  0.025
 
band  30 # energy   42.38107496 # occ.  0.00000000
 
ion      s     py     pz     px    dxy    dyz    dz2    dxz    dx2    tot
  1  0.000  0.000  0.010  0.000  0.000  0.000  0.000  0.000  0.000  0.010
  2  0.000  0.000  0.010  0.000  0.000  0.000  0.000  0.000  0.000  0.010
tot  0.000  0.000  0.020  0.000  0.000  0.000  0.000  0.000  0.000  0.020
 
band  31 # energy   42.38107975 # occ.  0.00000000
 
ion      s     py     pz     px    dxy    dyz    dz2    dxz    dx2    tot
  1  0.000  0.009  0.000  0.001  0.000  0.000  0.000  0.000  0.000  0.010
  2  0.000  0.009  0.000  0.001  0.000  0.000  0.000  0.000  0.000  0.010
tot  0.000  0.018  0.000  0.002  0.000  0.000  0.000  0.000  0.000  0.020
 
band  32 # energy   43.43471764 # occ.  0.00000000
 
ion      s     py     pz     px    dxy    dyz    dz2    dxz    dx2    tot
  1  0.081  0.002  0.000  0.020  0.000  0.000  0.000  0.000  0.000  0.103
  2  0.081  0.002  0.000  0.020  0.000  0.000  0.000  0.000  0.000  0.103
tot  0.162  0.005  0.000  0.040  0.000  0.000  0.000  0.000  0.000  0.206
 
band  33 # energy   44.06301328 # occ.  0.00000000
 
ion      s     py     pz     px    dxy    dyz    dz2    dxz    dx2    tot
  1  0.000  0.000  0.013  0.000  0.000  0.000  0.000  0.000  0.000  0.013
  2  0.000  0.000  0.013  0.000  0.000  0.000  0.000  0.000  0.000  0.013
tot  0.000  0.000  0.026  0.000  0.000  0.000  0.000  0.000  0.000  0.026
 
band  34 # energy   44.06301748 # occ.  0.00000000
 
ion      s     py     pz     px    dxy    dyz    dz2    dxz    dx2    tot
  1  0.000  0.012  0.000  0.001  0.000  0.000  0.000  0.000  0.000  0.013
  2  0.000  0.012  0.000  0.001  0.000  0.000  0.000  0.000  0.000  0.013
tot  0.000  0.023  0.000  0.003  0.000  0.000  0.000  0.000  0.000  0.026
 
band  35 # energy   46.57946697 # occ.  0.00000000
 
ion      s     py     pz     px    dxy    dyz    dz2    dxz    dx2    tot
  1  0.000  0.078  0.006  0.010  0.000  0.000  0.000  0.000  0.000  0.093
  2  0.000  0.078  0.006  0.010  0.000  0.000  0.000  0.000  0.000  0.093
tot  0.000  0.156  0.012  0.019  0.000  0.000  0.000  0.000  0.000  0.187
 
band  36 # energy   46.68773114 # occ.  0.00000000
 
ion      s     py     pz     px    dxy    dyz    dz2    dxz    dx2    tot
  1  0.015  0.014  0.004  0.085  0.000  0.000  0.000  0.000  0.000  0.118
  2  0.015  0.014  0.004  0.086  0.000  0.000  0.000  0.000  0.000  0.118
tot  0.030  0.028  0.008  0.171  0.000  0.000  0.000  0.000  0.000  0.236
 

 k-point    3 :    0.18181818 0.00000000 0.00000000     weight = 0.00601052

band   1 # energy   -5.77651960 # occ.  2.00000000
 
ion      s     py     pz     px    dxy    dyz    dz2    dxz    dx2    tot
  1  0.205  0.000  0.000  0.004  0.000  0.000  0.000  0.000  0.000  0.209
  2  0.205  0.000  0.000  0.004  0.000  0.000  0.000  0.000  0.000  0.209
tot  0.410  0.001  0.000  0.008  0.000  0.000  0.000  0.000  0.000  0.418
 
band   2 # energy    2.86475662 # occ.  2.00000000
 
ion      s     py     pz     px    dxy    dyz    dz2    dxz    dx2    tot
  1  0.082  0.015  0.000  0.117  0.000  0.000  0.000  0.000  0.000  0.214
  2  0.082  0.015  0.000  0.117  0.000  0.000  0.000  0.000  0.000  0.214
tot  0.164  0.029  0.000  0.234  0.000  0.000  0.000  0.000  0.000  0.427
 
band   3 # energy    4.97778883 # occ.  1.99999999
 
ion      s     py     pz     px    dxy    dyz    dz2    dxz    dx2    tot
  1  0.000  0.000  0.206  0.000  0.000  0.000  0.000  0.000  0.000  0.206
  2  0.000  0.000  0.206  0.000  0.000  0.000  0.000  0.000  0.000  0.206
tot  0.000  0.000  0.412  0.000  0.000  0.000  0.000  0.000  0.000  0.412
 
band   4 # energy    4.97779095 # occ.  1.99999999
 
ion      s     py     pz     px    dxy    dyz    dz2    dxz    dx2    tot
  1  0.000  0.183  0.000  0.023  0.000  0.000  0.000  0.000  0.000  0.206
  2  0.000  0.183  0.000  0.023  0.000  0.000  0.000  0.000  0.000  0.206
tot  0.000  0.367  0.000  0.046  0.000  0.000  0.000  0.000  0.000  0.412
 
band   5 # energy    7.70906801 # occ.  0.00000000
 
ion      s     py     pz     px    dxy    dyz    dz2    dxz    dx2    tot
  1  0.134  0.007  0.000  0.059  0.000  0.000  0.000  0.000  0.000  0.200
  2  0.134  0.007  0.000  0.059  0.000  0.000  0.000  0.000  0.000  0.200
tot  0.267  0.015  0.000  0.117  0.000  0.000  0.000  0.000  0.000  0.400
 
band   6 # energy    8.76674127 # occ.  0.00000000
 
ion      s     py     pz     px    dxy    dyz    dz2    dxz    dx2    tot
  1  0.000  0.133  0.000  0.017  0.000  0.000  0.000  0.000  0.000  0.149
  2  0.000  0.133  0.000  0.017  0.000  0.000  0.000  0.000  0.000  0.149
tot  0.000  0.265  0.000  0.033  0.000  0.000  0.000  0.000  0.000  0.298
 
band   7 # energy    8.76674561 # occ.  0.00000000
 
ion      s     py     pz     px    dxy    dyz    dz2    dxz    dx2    tot
  1  0.000  0.000  0.149  0.000  0.000  0.000  0.000  0.000  0.000  0.149
  2  0.000  0.000  0.149  0.000  0.000  0.000  0.000  0.000  0.000  0.149
tot  0.000  0.000  0.298  0.000  0.000  0.000  0.000  0.000  0.000  0.298
 
band   8 # energy   10.94326775 # occ.  0.00000000
 
ion      s     py     pz     px    dxy    dyz    dz2    dxz    dx2    tot
  1  0.150  0.014  0.000  0.110  0.000  0.000  0.000  0.000  0.000  0.274
  2  0.150  0.014  0.000  0.110  0.000  0.000  0.000  0.000  0.000  0.274
tot  0.300  0.027  0.000  0.220  0.000  0.000  0.000  0.000  0.000  0.548
 
band   9 # energy   12.56856956 # occ.  0.00000000
 
ion      s     py     pz     px    dxy    dyz    dz2    dxz    dx2    tot
  1  0.000  0.004  0.000  0.001  0.000  0.000  0.000  0.000  0.000  0.005
  2  0.000  0.004  0.000  0.001  0.000  0.000  0.000  0.000  0.000  0.005
tot  0.000  0.008  0.000  0.001  0.000  0.000  0.000  0.000  0.000  0.009
 
band  10 # energy   12.56856960 # occ.  0.00000000
 
ion      s     py     pz     px    dxy    dyz    dz2    dxz    dx2    tot
  1  0.000  0.000  0.005  0.000  0.000  0.000  0.000  0.000  0.000  0.005
  2  0.000  0.000  0.005  0.000  0.000  0.000  0.000  0.000  0.000  0.005
tot  0.000  0.000  0.009  0.000  0.000  0.000  0.000  0.000  0.000  0.009
 
band  11 # energy   14.53049655 # occ.  0.00000000
 
ion      s     py     pz     px    dxy    dyz    dz2    dxz    dx2    tot
  1  0.052  0.005  0.000  0.037  0.000  0.000  0.000  0.000  0.000  0.094
  2  0.052  0.005  0.000  0.037  0.000  0.000  0.000  0.000  0.000  0.094
tot  0.104  0.009  0.000  0.074  0.000  0.000  0.000  0.000  0.000  0.187
 
band  12 # energy   16.13949724 # occ.  0.00000000
 
ion      s     py     pz     px    dxy    dyz    dz2    dxz    dx2    tot
  1  0.031  0.003  0.000  0.024  0.000  0.000  0.000  0.000  0.000  0.058
  2  0.031  0.003  0.000  0.024  0.000  0.000  0.000  0.000  0.000  0.058
tot  0.062  0.006  0.000  0.048  0.000  0.000  0.000  0.000  0.000  0.115
 
band  13 # energy   18.74822195 # occ.  0.00000000
 
ion      s     py     pz     px    dxy    dyz    dz2    dxz    dx2    tot