<?xml version="1.0" encoding="ISO-8859-1"?>
<modeling>
 <generator>
  <i name="program" type="string">vasp </i>
  <i name="version" type="string">5.3.3  </i>
  <i name="subversion" type="string">18Dez12 (build Jan 30 2013 10:57:47) complex                          parallel </i>
  <i name="platform" type="string">LinuxIFC </i>
  <i name="date" type="string">2016 06 21 </i>
  <i name="time" type="string">18:29:19 </i>
 </generator>
 <incar>
  <i type="string" name="PREC">accurate</i>
  <i type="int" name="NELM">   400</i>
  <i type="int" name="IBRION">     1</i>
  <i name="EDIFF">      0.00000010</i>
  <i type="int" name="ISIF">     2</i>
  <i name="ENCUT">    500.00000000</i>
  <i type="int" name="NBANDS">    36</i>
  <i type="int" name="NEDOS">  5000</i>
  <i type="int" name="ISMEAR">     0</i>
  <i type="logical" name="LWAVE"> F  </i>
  <i type="logical" name="LCHARG"> F  </i>
  <i type="logical" name="LORBIT"> F  </i>
  <i type="logical" name="LOPTICS"> T  </i>
  <i type="logical" name="LSCALAPACK"> F  </i>
  <i type="int" name="NELM">   400</i>
  <i type="string" name="GGA"> BO</i>
  <i name="PARAM1">      0.18333333</i>
  <i name="PARAM2">      0.22000000</i>
  <i type="logical" name="LUSE_VDW"> T  </i>
  <i name="AGGAC">      0.00000000</i>
 </incar>
 <kpoints>
  <generation param="Gamma">
   <v type="int" name="divisions">      11       11       11 </v>
   <v name="usershift">      0.00000000       0.00000000       0.00000000 </v>
   <v name="genvec1">      0.09090909       0.00000000       0.00000000 </v>
   <v name="genvec2">      0.00000000       0.09090909       0.00000000 </v>
   <v name="genvec3">      0.00000000       0.00000000       0.09090909 </v>
   <v name="shift">      0.00000000       0.00000000       0.00000000 </v>
  </generation>
  <varray name="kpointlist" >
   <v>       0.00000000       0.00000000       0.00000000 </v>
   <v>       0.09090909       0.00000000       0.00000000 </v>
   <v>       0.18181818       0.00000000       0.00000000 </v>
   <v>       0.27272727       0.00000000       0.00000000 </v>
   <v>       0.36363636       0.00000000       0.00000000 </v>
   <v>       0.45454545       0.00000000       0.00000000 </v>
   <v>       0.09090909       0.09090909       0.00000000 </v>
   <v>       0.18181818       0.09090909       0.00000000 </v>
   <v>       0.27272727       0.09090909       0.00000000 </v>
   <v>       0.36363636       0.09090909       0.00000000 </v>
   <v>       0.45454545       0.09090909       0.00000000 </v>
   <v>      -0.45454545       0.09090909       0.00000000 </v>
   <v>      -0.36363636       0.09090909       0.00000000 </v>
   <v>      -0.27272727       0.09090909       0.00000000 </v>
   <v>      -0.18181818       0.09090909       0.00000000 </v>
   <v>      -0.09090909       0.09090909       0.00000000 </v>
   <v>       0.18181818       0.18181818       0.00000000 </v>
   <v>       0.27272727       0.18181818       0.00000000 </v>
   <v>       0.36363636       0.18181818       0.00000000 </v>
   <v>       0.45454545       0.18181818       0.00000000 </v>
   <v>      -0.45454545       0.18181818       0.00000000 </v>
   <v>      -0.36363636       0.18181818       0.00000000 </v>
   <v>      -0.27272727       0.18181818       0.00000000 </v>
   <v>      -0.18181818       0.18181818       0.00000000 </v>
   <v>       0.27272727       0.27272727       0.00000000 </v>
   <v>       0.36363636       0.27272727       0.00000000 </v>
   <v>       0.45454545       0.27272727       0.00000000 </v>
   <v>      -0.45454545       0.27272727       0.00000000 </v>
   <v>      -0.36363636       0.27272727       0.00000000 </v>
   <v>      -0.27272727       0.27272727       0.00000000 </v>
   <v>       0.36363636       0.36363636       0.00000000 </v>
   <v>       0.45454545       0.36363636       0.00000000 </v>
   <v>      -0.45454545       0.36363636       0.00000000 </v>
   <v>      -0.36363636       0.36363636       0.00000000 </v>
   <v>       0.45454545       0.45454545       0.00000000 </v>
   <v>      -0.45454545       0.45454545       0.00000000 </v>
   <v>       0.27272727       0.18181818       0.09090909 </v>
   <v>       0.36363636       0.18181818       0.09090909 </v>
   <v>       0.45454545       0.18181818       0.09090909 </v>
   <v>      -0.45454545       0.18181818       0.09090909 </v>
   <v>       0.36363636       0.27272727       0.09090909 </v>
   <v>       0.45454545       0.27272727       0.09090909 </v>
   <v>      -0.45454545       0.27272727       0.09090909 </v>
   <v>      -0.36363636       0.27272727       0.09090909 </v>
   <v>      -0.27272727       0.27272727       0.09090909 </v>
   <v>      -0.18181818       0.27272727       0.09090909 </v>
   <v>       0.45454545       0.36363636       0.09090909 </v>
   <v>      -0.45454545       0.36363636       0.09090909 </v>
   <v>      -0.36363636       0.36363636       0.09090909 </v>
   <v>      -0.27272727       0.36363636       0.09090909 </v>
   <v>      -0.45454545       0.45454545       0.09090909 </v>
   <v>      -0.36363636       0.45454545       0.09090909 </v>
   <v>      -0.45454545       0.36363636       0.18181818 </v>
   <v>      -0.36363636       0.36363636       0.18181818 </v>
   <v>      -0.36363636       0.45454545       0.18181818 </v>
   <v>      -0.27272727       0.45454545       0.18181818 </v>
  </varray>
  <varray name="weights" >
   <v>       0.00075131 </v>
   <v>       0.00601052 </v>
   <v>       0.00601052 </v>
   <v>       0.00601052 </v>
   <v>       0.00601052 </v>
   <v>       0.00601052 </v>
   <v>       0.00450789 </v>
   <v>       0.01803156 </v>
   <v>       0.01803156 </v>
   <v>       0.01803156 </v>
   <v>       0.01803156 </v>
   <v>       0.01803156 </v>
   <v>       0.01803156 </v>
   <v>       0.01803156 </v>
   <v>       0.01803156 </v>
   <v>       0.00901578 </v>
   <v>       0.00450789 </v>
   <v>       0.01803156 </v>
   <v>       0.01803156 </v>
   <v>       0.01803156 </v>
   <v>       0.01803156 </v>
   <v>       0.01803156 </v>
   <v>       0.01803156 </v>
   <v>       0.00901578 </v>
   <v>       0.00450789 </v>
   <v>       0.01803156 </v>
   <v>       0.01803156 </v>
   <v>       0.01803156 </v>
   <v>       0.01803156 </v>
   <v>       0.00901578 </v>
   <v>       0.00450789 </v>
   <v>       0.01803156 </v>
   <v>       0.01803156 </v>
   <v>       0.00901578 </v>
   <v>       0.00450789 </v>
   <v>       0.00901578 </v>
   <v>       0.01803156 </v>
   <v>       0.03606311 </v>
   <v>       0.03606311 </v>
   <v>       0.03606311 </v>
   <v>       0.01803156 </v>
   <v>       0.03606311 </v>
   <v>       0.03606311 </v>
   <v>       0.03606311 </v>
   <v>       0.03606311 </v>
   <v>       0.01803156 </v>
   <v>       0.01803156 </v>
   <v>       0.03606311 </v>
   <v>       0.03606311 </v>
   <v>       0.01803156 </v>
   <v>       0.01803156 </v>
   <v>       0.01803156 </v>
   <v>       0.01803156 </v>
   <v>       0.03606311 </v>
   <v>       0.01803156 </v>
   <v>       0.01803156 </v>
  </varray>
 </kpoints>
 <parameters>
  <separator name="general" >
   <i type="string" name="SYSTEM">unknown system</i>
   <i type="logical" name="LCOMPAT"> F  </i>
  </separator>
  <separator name="electronic" >
   <i type="string" name="PREC">accura</i>
   <i name="ENMAX">    500.00000000</i>
   <i name="ENAUG">    322.06900000</i>
   <i name="EDIFF">      0.00000010</i>
   <i type="int" name="IALGO">    38</i>
   <i type="int" name="IWAVPR">    10</i>
   <i type="int" name="NBANDS">    36</i>
   <i name="NELECT">      8.00000000</i>
   <i type="int" name="TURBO">     0</i>
   <i type="int" name="IRESTART">     0</i>
   <i type="int" name="NREBOOT">     0</i>
   <i type="int" name="NMIN">     0</i>
   <i name="EREF">      0.00000000</i>
   <separator name="electronic smearing" >
    <i type="int" name="ISMEAR">     0</i>
    <i name="SIGMA">      0.20000000</i>
    <i name="KSPACING">      0.50000000</i>
    <i type="logical" name="KGAMMA"> T  </i>
   </separator>
   <separator name="electronic projectors" >
    <i type="logical" name="LREAL"> F  </i>
    <v name="ROPT">      0.00000000</v>
    <i type="int" name="LMAXPAW">  -100</i>
    <i type="int" name="LMAXMIX">     2</i>
    <i type="logical" name="NLSPLINE"> F  </i>
   </separator>
   <separator name="electronic startup" >
    <i type="int" name="ISTART">     0</i>
    <i type="int" name="ICHARG">     2</i>
    <i type="int" name="INIWAV">     1</i>
   </separator>
   <separator name="electronic spin" >
    <i type="int" name="ISPIN">     1</i>
    <i type="logical" name="LNONCOLLINEAR"> F  </i>
    <v name="MAGMOM">      1.00000000      1.00000000</v>
    <i name="NUPDOWN">     -1.00000000</i>
    <i type="logical" name="LSORBIT"> F  </i>
    <v name="SAXIS">      0.00000000      0.00000000      1.00000000</v>
    <i type="logical" name="LSPIRAL"> F  </i>
    <v name="QSPIRAL">      0.00000000      0.00000000      0.00000000</v>
    <i type="logical" name="LZEROZ"> F  </i>
   </separator>
   <separator name="electronic exchange-correlation" >
    <i type="logical" name="LASPH"> F  </i>
    <i type="logical" name="LMETAGGA"> F  </i>
   </separator>
   <separator name="electronic convergence" >
    <i type="int" name="NELM">   400</i>
    <i type="int" name="NELMDL">    -5</i>
    <i type="int" name="NELMIN">     2</i>
    <i name="ENINI">    500.00000000</i>
    <separator name="electronic convergence detail" >
     <i type="logical" name="LDIAG"> T  </i>
     <i type="logical" name="LSUBROT"> T  </i>
     <i name="WEIMIN">      0.00000000</i>
     <i name="EBREAK">      0.00000000</i>
     <i name="DEPER">      0.30000000</i>
     <i type="int" name="NRMM">     4</i>
     <i name="TIME">      0.40000000</i>
    </separator>
   </separator>
   <separator name="electronic mixer" >
    <i name="AMIX">      0.40000000</i>
    <i name="BMIX">      1.00000000</i>
    <i name="AMIN">      0.10000000</i>
    <i name="AMIX_MAG">      1.60000000</i>
    <i name="BMIX_MAG">      1.00000000</i>
    <separator name="electronic mixer details" >
     <i type="int" name="IMIX">     4</i>
     <i type="int" name="MAXMIX">   -45</i>
     <i name="WC">    100.00000000</i>
     <i type="int" name="INIMIX">     1</i>
     <i type="int" name="MIXPRE">     1</i>
     <i type="int" name="MREMOVE">     5</i>
    </separator>
   </separator>
   <separator name="electronic dipolcorrection" >
    <i type="logical" name="LDIPOL"> F  </i>
    <i type="logical" name="LMONO"> F  </i>
    <i type="int" name="IDIPOL">     0</i>
    <i name="EPSILON">      1.00000000</i>
    <v name="DIPOL">   -100.00000000   -100.00000000   -100.00000000</v>
    <i name="EFIELD">      0.00000000</i>
   </separator>
  </separator>
  <separator name="grids" >
   <i type="int" name="NGX">    28</i>
   <i type="int" name="NGY">    28</i>
   <i type="int" name="NGZ">    28</i>
   <i type="int" name="NGXF">    56</i>
   <i type="int" name="NGYF">    56</i>
   <i type="int" name="NGZF">    56</i>
   <i type="logical" name="ADDGRID"> F  </i>
  </separator>
  <separator name="ionic" >
   <i type="int" name="NSW">     0</i>
   <i type="int" name="IBRION">    -1</i>
   <i type="int" name="ISIF">     2</i>
   <i name="PSTRESS">      0.00000000</i>
   <i name="EDIFFG">      0.00000100</i>
   <i type="int" name="NFREE">     0</i>
   <i name="POTIM">      0.50000000</i>
   <i name="SMASS">     -3.00000000</i>
   <i name="SCALEE">      1.00000000</i>
  </separator>
  <separator name="ionic md" >
   <i name="TEBEG">      0.00010000</i>
   <i name="TEEND">      0.00010000</i>
   <i type="int" name="NBLOCK">     1</i>
   <i type="int" name="KBLOCK">     1</i>
   <i type="int" name="NPACO">   256</i>
   <i name="APACO">     16.00000000</i>
  </separator>
  <separator name="symmetry" >
   <i type="int" name="ISYM">     2</i>
   <i name="SYMPREC">      0.00001000</i>
  </separator>
  <separator name="dos" >
   <i type="logical" name="LORBIT"> F  </i>
   <v name="RWIGS">     -1.00000000</v>
   <i type="int" name="NEDOS">  5000</i>
   <i name="EMIN">     10.00000000</i>
   <i name="EMAX">    -10.00000000</i>
   <i name="EFERMI">      0.00000000</i>
  </separator>
  <separator name="writing" >
   <i type="int" name="NWRITE">     2</i>
   <i type="logical" name="LWAVE"> F  </i>
   <i type="logical" name="LCHARG"> F  </i>
   <i type="logical" name="LPARD"> F  </i>
   <i type="logical" name="LVTOT"> F  </i>
   <i type="logical" name="LVHAR"> F  </i>
   <i type="logical" name="LELF"> F  </i>
   <i type="logical" name="LOPTICS"> T  </i>
   <v name="STM">      0.00000000      0.00000000      0.00000000      0.00000000      0.00000000      0.00000000      0.00000000</v>
  </separator>
  <separator name="performance" >
   <i type="int" name="NPAR">     4</i>
   <i type="int" name="NSIM">     4</i>
   <i type="int" name="NBLK">    -1</i>
   <i type="logical" name="LPLANE"> T  </i>
   <i type="logical" name="LSCALAPACK"> F  </i>
   <i type="logical" name="LSCAAWARE"> F  </i>
   <i type="logical" name="LSCALU"> F  </i>
   <i type="logical" name="LASYNC"> F  </i>
   <i type="logical" name="LORBITALREAL"> F  </i>
  </separator>
  <separator name="miscellaneous" >
   <i type="int" name="IDIOT">     3</i>
   <i type="logical" name="LMUSIC"> F  </i>
   <v name="POMASS">     28.08500000</v>
   <v name="DARWINR">      0.00000000</v>
   <v name="DARWINV">      1.00000000</v>
   <i type="logical" name="LCORR"> T  </i>
  </separator>
  <i type="logical" name="GGA_COMPAT"> T  </i>
  <i type="logical" name="LBERRY"> F  </i>
  <i type="int" name="ICORELEVEL">     0</i>
  <i type="logical" name="LDAU"> F  </i>
  <i type="int" name="I_CONSTRAINED_M">     0</i>
  <separator name="electronic exchange-correlation" >
   <i type="string" name="GGA">BO</i>
   <i type="int" name="VOSKOWN">     0</i>
   <i type="logical" name="LHFCALC"> F  </i>
   <i type="string" name="PRECFOCK"></i>
   <i type="logical" name="LSYMGRAD"> F  </i>
   <i type="logical" name="LHFONE"> F  </i>
   <i type="logical" name="LRHFCALC"> F  </i>
   <i type="logical" name="LTHOMAS"> F  </i>
   <i type="logical" name="LMODELHF"> F  </i>
   <i name="ENCUT4O">     -1.00000000</i>
   <i type="int" name="EXXOEP">     0</i>
   <i type="int" name="FOURORBIT">     0</i>
   <i name="AEXX">      0.00000000</i>
   <i name="HFALPHA">      0.00000000</i>
   <i name="MCALPHA">      0.00000000</i>
   <i name="ALDAX">      1.00000000</i>
   <i name="AGGAX">      1.00000000</i>
   <i name="ALDAC">      1.00000000</i>
   <i name="AGGAC">      0.00000000</i>
   <i type="int" name="NKREDX">     1</i>
   <i type="int" name="NKREDY">     1</i>
   <i type="int" name="NKREDZ">     1</i>
   <i type="logical" name="SHIFTRED"> F  </i>
   <i type="logical" name="ODDONLY"> F  </i>
   <i type="logical" name="EVENONLY"> F  </i>
   <i type="int" name="LMAXFOCK">     0</i>
   <i type="int" name="NMAXFOCKAE">     0</i>
   <i type="logical" name="LFOCKAEDFT"> F  </i>
   <i name="HFSCREEN">      0.00000000</i>
   <i name="HFSCREENC">      0.00000000</i>
   <i type="int" name="NBANDSGWLOW">     0</i>
  </separator>
  <separator name="vdW DFT" >
   <i type="logical" name="LUSE_VDW"> T  </i>
   <i name="Zab_VDW">     -0.84910000</i>
   <i name="PARAM1">      0.18333333</i>
   <i name="PARAM2">      0.22000000</i>
   <i name="PARAM3">      0.00000000</i>
  </separator>
  <separator name="model GW" >
   <i type="int" name="MODEL_GW">     0</i>
   <i name="MODEL_EPS0">     12.43485054</i>
   <i name="MODEL_ALPHA">      1.00000000</i>
  </separator>
  <separator name="linear response parameters" >
   <i type="logical" name="LEPSILON"> F  </i>
   <i type="logical" name="LRPA"> F  </i>
   <i type="logical" name="LNABLA"> F  </i>
   <i type="logical" name="LVEL"> F  </i>
   <i type="int" name="KINTER">     0</i>
   <i name="CSHIFT">      0.10000000</i>
   <i name="OMEGAMAX">     -1.00000000</i>
   <i name="DEG_THRESHOLD">      0.00200000</i>
  </separator>
  <separator name="orbital magnetization" >
   <i type="logical" name="NUCIND"> F  </i>
   <v name="MAGPOS">      0.00000000      0.00000000      0.00000000</v>
   <i type="logical" name="LNICSALL"> T  </i>
   <i type="logical" name="ORBITALMAG"> F  </i>
   <i type="logical" name="LMAGBLOCH"> F  </i>
   <i type="logical" name="LCHIMAG"> F  </i>
   <i type="logical" name="LGAUGE"> T  </i>
   <i type="int" name="MAGATOM">     0</i>
   <v name="MAGDIPOL">      0.00000000      0.00000000      0.00000000</v>
   <v name="AVECCONST">      0.00000000      0.00000000      0.00000000</v>
  </separator>
  <separator name="response functions" >
   <i type="logical" name="LADDER"> F  </i>
   <i type="logical" name="LFXC"> F  </i>
   <i type="logical" name="LHARTREE"> T  </i>
   <i type="int" name="IBSE">     0</i>
   <i type="logical" name="LTCTE"> F  </i>
   <i type="logical" name="LTETE"> F  </i>
   <i type="logical" name="LTRIPLET"> F  </i>
   <i type="logical" name="LFXCEPS"> F  </i>
   <i type="logical" name="L2ORDER"> F  </i>
   <i type="logical" name="LUSEW"> F  </i>
   <i name="ENCUTGW">     -2.00000000</i>
   <i name="ENCUTGWSOFT">     -2.00000000</i>
   <i name="ENCUTLF">     -1.00000000</i>
   <i type="int" name="LMAXMP2">    -1</i>
   <i name="SCISSOR">      0.00000000</i>
   <i type="int" name="NOMEGA">     0</i>
   <i type="int" name="NOMEGAR">     0</i>
   <i type="int" name="NBANDSGW">    -1</i>
   <i type="int" name="NBANDSO">    -1</i>
   <i type="int" name="NBANDSV">    -1</i>
   <i type="int" name="NELM">   400</i>
   <i type="int" name="DIM">     3</i>
   <i type="int" name="ANTIRES">     0</i>
   <i name="OMEGAMAX">    -30.00000000</i>
   <i name="OMEGATL">   -200.00000000</i>
   <i type="int" name="OMEGAGRID">     0</i>
   <i name="CSHIFT">     -0.10000000</i>
   <i type="logical" name="SELFENERGY"> F  </i>
   <i type="logical" name="LSPECTRAL"> F  </i>
   <i type="logical" name="ODDONLYGW"> F  </i>
   <i type="logical" name="EVENONLYGW"> F  </i>
   <i type="int" name="NKREDLFX">     1</i>
   <i type="int" name="NKREDLFY">     1</i>
   <i type="int" name="NKREDLFZ">     1</i>
   <i type="int" name="MAXMEM">  1800</i>
   <i type="int" name="TELESCOPE">     0</i>
  </separator>
 </parameters>
 <atominfo>
  <atoms>       2 </atoms>
  <types>       1 </types>
  <array name="atoms" >
   <dimension dim="1">ion</dimension>
   <field type="string">element</field>
   <field type="int">atomtype</field>
   <set>
    <rc><c>Si</c><c>   1</c></rc>
    <rc><c>Si</c><c>   1</c></rc>
   </set>
  </array>
  <array name="atomtypes" >
   <dimension dim="1">type</dimension>
   <field type="int">atomspertype</field>
   <field type="string">element</field>
   <field>mass</field>
   <field>valence</field>
   <field type="string">pseudopotential</field>
   <set>
    <rc><c>   2</c><c>Si</c><c>     28.08500000</c><c>      4.00000000</c><c>  PAW_PBE Si 05Jan2001                  </c></rc>
   </set>
  </array>
 </atominfo>
 <structure name="initialpos" >
  <crystal>
   <varray name="basis" >
    <v>       3.36415000       0.00000000       1.94229300 </v>
    <v>       1.12138300       3.17175200       1.94229300 </v>
    <v>       0.00000000       0.00000000       3.88458600 </v>
   </varray>
   <i name="volume">     41.44950179 </i>
   <varray name="rec_basis" >
    <v>       0.29725191      -0.10509436       0.00000000 </v>
    <v>       0.00000000       0.31528316       0.00000000 </v>
    <v>      -0.14862595      -0.10509440       0.25742769 </v>
   </varray>
  </crystal>
  <varray name="positions" >
   <v>       0.87500000       0.87500000       0.87500000 </v>
   <v>       0.12500000       0.12500000       0.12500000 </v>
  </varray>
 </structure>
 <calculation>
  <scstep>
   <time name="dav">    2.63    2.63</time>
   <time name="total">    5.63    6.42</time>
   <energy>
    <i name="alphaZ">      3.24859208 </i>
    <i name="ewald">   -225.91599796 </i>
    <i name="hartreedc">    -11.53190716 </i>
    <i name="XCdc">    -20.29572212 </i>
    <i name="pawpsdc">    189.40224250 </i>
    <i name="pawaedc">   -152.61488262 </i>
    <i name="eentropy">     -0.00239412 </i>
    <i name="bandstr">     24.80168123 </i>
    <i name="atom">    208.59373829 </i>
    <i name="e_fr_energy">     15.68535011 </i>
    <i name="e_wo_entrp">     15.68774424 </i>
    <i name="e_0_energy">     15.68654717 </i>
   </energy>
  </scstep>
  <scstep>
   <time name="dav">    3.29    3.30</time>
   <time name="total">    3.33    3.97</time>
   <energy>
    <i name="e_fr_energy">     -7.88140667 </i>
    <i name="e_wo_entrp">     -7.88140374 </i>
    <i name="e_0_energy">     -7.88140521 </i>
   </energy>
  </scstep>
  <scstep>
   <time name="dav">    3.33    3.33</time>
   <time name="total">    3.37    5.34</time>
   <energy>
    <i name="e_fr_energy">     -8.40752762 </i>
    <i name="e_wo_entrp">     -8.40752597 </i>
    <i name="e_0_energy">     -8.40752679 </i>
   </energy>
  </scstep>
  <scstep>
   <time name="dav">    3.02    3.02</time>
   <time name="total">    3.07    4.20</time>
   <energy>
    <i name="e_fr_energy">     -8.40897994 </i>
    <i name="e_wo_entrp">     -8.40897829 </i>
    <i name="e_0_energy">     -8.40897911 </i>
   </energy>
  </scstep>
  <scstep>
   <time name="dav">    3.11    3.11</time>
   <time name="total">    3.21    3.75</time>
   <energy>
    <i name="e_fr_energy">     -8.40898361 </i>
    <i name="e_wo_entrp">     -8.40898196 </i>
    <i name="e_0_energy">     -8.40898279 </i>
   </energy>
  </scstep>
  <scstep>
   <time name="dav">    2.99    2.99</time>
   <time name="total">    4.40    4.99</time>
   <energy>
    <i name="e_fr_energy">     -8.35938560 </i>
    <i name="e_wo_entrp">     -8.35937857 </i>
    <i name="e_0_energy">     -8.35938208 </i>
   </energy>
  </scstep>
  <scstep>
   <time name="dav">    2.94    2.94</time>
   <time name="total">    4.25    5.22</time>
   <energy>
    <i name="e_fr_energy">     -8.35404317 </i>
    <i name="e_wo_entrp">     -8.35399299 </i>
    <i name="e_0_energy">     -8.35401808 </i>
   </energy>
  </scstep>
  <scstep>
   <time name="dav">    2.81    2.81</time>
   <time name="total">    4.14    4.55</time>
   <energy>
    <i name="e_fr_energy">     -8.33675142 </i>
    <i name="e_wo_entrp">     -8.33671717 </i>
    <i name="e_0_energy">     -8.33673430 </i>
   </energy>
  </scstep>
  <scstep>
   <time name="dav">    3.07    3.07</time>
   <time name="total">    4.42    4.77</time>
   <energy>
    <i name="e_fr_energy">     -8.33861578 </i>
    <i name="e_wo_entrp">     -8.33857776 </i>
    <i name="e_0_energy">     -8.33859677 </i>
   </energy>
  </scstep>
  <scstep>
   <time name="dav">    2.42    2.42</time>
   <time name="total">    3.74    5.30</time>
   <energy>
    <i name="e_fr_energy">     -8.33854034 </i>
    <i name="e_wo_entrp">     -8.33850278 </i>
    <i name="e_0_energy">     -8.33852156 </i>
   </energy>
  </scstep>
  <scstep>
   <time name="dav">    3.05    3.05</time>
   <time name="total">    4.36    4.88</time>
   <energy>
    <i name="e_fr_energy">     -8.33821551 </i>
    <i name="e_wo_entrp">     -8.33817814 </i>
    <i name="e_0_energy">     -8.33819683 </i>
   </energy>
  </scstep>
  <scstep>
   <time name="dav">    2.78    2.78</time>
   <time name="total">    4.17    4.48</time>
   <energy>
    <i name="e_fr_energy">     -8.33818571 </i>
    <i name="e_wo_entrp">     -8.33814835 </i>
    <i name="e_0_energy">     -8.33816703 </i>
   </energy>
  </scstep>
  <scstep>
   <time name="dav">    2.68    2.84</time>
   <time name="total">    4.02    4.40</time>
   <energy>
    <i name="e_fr_energy">     -8.33817236 </i>
    <i name="e_wo_entrp">     -8.33813502 </i>
    <i name="e_0_energy">     -8.33815369 </i>
   </energy>
  </scstep>
  <scstep>
   <time name="dav">    1.99    1.99</time>
   <time name="total">    3.36    3.66</time>
   <energy>
    <i name="e_fr_energy">     -8.33817347 </i>
    <i name="e_wo_entrp">     -8.33813613 </i>
    <i name="e_0_energy">     -8.33815480 </i>
   </energy>
  </scstep>
  <scstep>
   <time name="dav">    1.91    1.91</time>
   <time name="total">    3.26    4.70</time>
   <energy>
    <i name="e_fr_energy">     -8.33817329 </i>
    <i name="e_wo_entrp">     -8.33813595 </i>
    <i name="e_0_energy">     -8.33815462 </i>
   </energy>
  </scstep>
  <scstep>
   <time name="dav">    1.84    1.84</time>
   <time name="total">    3.16    3.38</time>
   <energy>
    <i name="e_fr_energy">     -8.33817311 </i>
    <i name="e_wo_entrp">     -8.33813577 </i>
    <i name="e_0_energy">     -8.33815444 </i>
   </energy>
  </scstep>
  <scstep>
   <time name="dav">    1.89    1.89</time>
   <time name="total">    3.22    3.61</time>
   <energy>
    <i name="e_fr_energy">     -8.33817326 </i>
    <i name="e_wo_entrp">     -8.33813591 </i>
    <i name="e_0_energy">     -8.33815459 </i>
   </energy>
  </scstep>
  <scstep>
   <time name="dav">    1.90    1.90</time>
   <time name="total">    3.19    4.81</time>
   <energy>
    <i name="alphaZ">      3.24859208 </i>
    <i name="ewald">   -225.91599796 </i>
    <i name="hartreedc">    -15.53260608 </i>
    <i name="XCdc">    -19.63647494 </i>
    <i name="pawpsdc">    523.23666542 </i>
    <i name="pawaedc">   -486.68454031 </i>
    <i name="eentropy">     -0.00003734 </i>
    <i name="bandstr">      4.35248759 </i>
    <i name="atom">    208.59373829 </i>
    <i name="e_fr_energy">     -8.33817325 </i>
    <i name="e_wo_entrp">     -8.33813591 </i>
    <i name="e_0_energy">     -8.33815458 </i>
   </energy>
  </scstep>
  <structure>
   <crystal>
    <varray name="basis" >
     <v>       3.36415000       0.00000000       1.94229300 </v>
     <v>       1.12138300       3.17175200       1.94229300 </v>
     <v>       0.00000000       0.00000000       3.88458600 </v>
    </varray>
    <i name="volume">     41.44950179 </i>
    <varray name="rec_basis" >
     <v>       0.29725191      -0.10509436       0.00000000 </v>
     <v>       0.00000000       0.31528316       0.00000000 </v>
     <v>      -0.14862595      -0.10509440       0.25742769 </v>
    </varray>
   </crystal>
   <varray name="positions" >
    <v>       0.87500000       0.87500000       0.87500000 </v>
    <v>       0.12500000       0.12500000       0.12500000 </v>
   </varray>
  </structure>
  <varray name="forces" >
   <v>       0.00000000       0.00000000       0.00000000 </v>
   <v>       0.00000000       0.00000000       0.00000000 </v>
  </varray>
  <varray name="stress" >
   <v>      -0.00004490       0.00000000       0.00000000 </v>
   <v>       0.00000000      -0.00004490       0.00000000 </v>
   <v>       0.00000000       0.00000000      -0.00004490 </v>
  </varray>
  <energy>
   <i name="e_fr_energy">     -8.33817325 </i>
   <i name="e_wo_entrp">     -8.33815458 </i>
   <i name="e_0_energy">     -0.00003734 </i>
  </energy>
  <time name="totalsc">   71.29   88.07</time>
  <eigenvalues>
   <array>
    <dimension dim="1">band</dimension>
    <dimension dim="2">kpoint</dimension>
    <dimension dim="3">spin</dimension>
    <field>eigene</field>
    <field>occ</field>
    <set>
     <set comment="spin 1">
      <set comment="kpoint 1">
       <r>   -6.1917    1.0000 </r>
       <r>    5.4591    0.9927 </r>
       <r>    5.4591    0.9927 </r>
       <r>    5.4591    0.9927 </r>
       <r>    8.0743    0.0000 </r>
       <r>    8.0743    0.0000 </r>
       <r>    8.0743    0.0000 </r>
       <r>    8.5300    0.0000 </r>
       <r>   13.2141    0.0000 </r>
       <r>   13.2141    0.0000 </r>
       <r>   13.3486    0.0000 </r>
       <r>   16.6556    0.0000 </r>
       <r>   16.6556    0.0000 </r>
       <r>   16.6556    0.0000 </r>
       <r>   20.7507    0.0000 </r>
       <r>   28.1664    0.0000 </r>
       <r>   28.1664    0.0000 </r>
       <r>   28.1664    0.0000 </r>
       <r>   29.2688    0.0000 </r>
       <r>   29.2688    0.0000 </r>
       <r>   30.4751    0.0000 </r>
       <r>   30.4751    0.0000 </r>
       <r>   30.4751    0.0000 </r>
       <r>   34.2215    0.0000 </r>
       <r>   34.2215    0.0000 </r>
       <r>   34.2215    0.0000 </r>
       <r>   39.6646    0.0000 </r>
       <r>   39.6646    0.0000 </r>
       <r>   39.6646    0.0000 </r>
       <r>   43.0802    0.0000 </r>
       <r>   43.3927    0.0000 </r>
       <r>   43.3927    0.0000 </r>
       <r>   45.3417    0.0000 </r>
       <r>   45.3418    0.0000 </r>
       <r>   46.6143    0.0000 </r>
       <r>   46.6143    0.0000 </r>
      </set>
      <set comment="kpoint 2">
       <r>   -6.0869    1.0000 </r>
       <r>    4.4962    1.0000 </r>
       <r>    5.3021    0.9998 </r>
       <r>    5.3021    0.9998 </r>
       <r>    8.0378    0.0000 </r>
       <r>    8.3083    0.0000 </r>
       <r>    8.3083    0.0000 </r>
       <r>    9.3592    0.0000 </r>
       <r>   12.9156    0.0000 </r>
       <r>   12.9156    0.0000 </r>
       <r>   13.7881    0.0000 </r>
       <r>   16.3004    0.0000 </r>
       <r>   17.3002    0.0000 </r>
       <r>   17.3002    0.0000 </r>
       <r>   21.4342    0.0000 </r>
       <r>   27.0159    0.0000 </r>
       <r>   27.0159    0.0000 </r>
       <r>   27.0450    0.0000 </r>
       <r>   28.9212    0.0000 </r>
       <r>   28.9213    0.0000 </r>
       <r>   30.9133    0.0000 </r>
       <r>   30.9133    0.0000 </r>
       <r>   31.4486    0.0000 </r>
       <r>   34.3175    0.0000 </r>
       <r>   35.4791    0.0000 </r>
       <r>   35.4791    0.0000 </r>
       <r>   38.2815    0.0000 </r>
       <r>   39.3795    0.0000 </r>
       <r>   39.3795    0.0000 </r>
       <r>   42.3811    0.0000 </r>
       <r>   42.3811    0.0000 </r>
       <r>   43.4347    0.0000 </r>
       <r>   44.0630    0.0000 </r>
       <r>   44.0630    0.0000 </r>
       <r>   46.5795    0.0000 </r>
       <r>   46.6877    0.0000 </r>
      </set>
      <set comment="kpoint 3">
       <r>   -5.7765    1.0000 </r>
       <r>    2.8648    1.0000 </r>
       <r>    4.9778    1.0000 </r>
       <r>    4.9778    1.0000 </r>
       <r>    7.7091    0.0000 </r>
       <r>    8.7667    0.0000 </r>
       <r>    8.7667    0.0000 </r>
       <r>   10.9433    0.0000 </r>
       <r>   12.5686    0.0000 </r>
       <r>   12.5686    0.0000 </r>
       <r>   14.5305    0.0000 </r>
       <r>   16.1395    0.0000 </r>
       <r>   18.7482    0.0000 </r>
       <r>   18.7482    0.0000 </r>
       <r>   22.8774    0.0000 </r>
       <r>   24.6807    0.0000 </r>
       <r>   24.6807    0.0000 </r>
       <r>   25.3512    0.0000 </r>
       <r>   28.9830    0.0000 </r>
       <r>   28.9830    0.0000 </r>
       <r>   31.2264    0.0000 </r>
       <r>   31.2264    0.0000 </r>
       <r>   32.7867    0.0000 </r>
       <r>   34.5966    0.0000 </r>
       <r>   35.6195    0.0000 </r>
       <r>   37.5735    0.0000 </r>
       <r>   37.5735    0.0000 </r>
       <r>   38.6917    0.0000 </r>
       <r>   38.6917    0.0000 </r>
       <r>   39.9894    0.0000 </r>
       <r>   39.9894    0.0000 </r>
       <r>   42.6573    0.0000 </r>
       <r>   42.6573    0.0000 </r>
       <r>   43.7328    0.0000 </r>
       <r>   45.2382    0.0000 </r>
       <r>   45.6028    0.0000 </r>
      </set>
      <set comment="kpoint 4">
       <r>   -5.2774    1.0000 </r>
       <r>    1.2540    1.0000 </r>
       <r>    4.6659    1.0000 </r>
       <r>    4.6659    1.0000 </r>
       <r>    7.3619    0.0000 </r>
       <r>    9.0248    0.0000 </r>
       <r>    9.0248    0.0000 </r>
       <r>   12.5098    0.0000 </r>
       <r>   12.8306    0.0000 </r>
       <r>   12.8306    0.0000 </r>
       <r>   14.3375    0.0000 </r>
       <r>   17.6077    0.0000 </r>
       <r>   20.2150    0.0000 </r>
       <r>   20.2150    0.0000 </r>
       <r>   22.6820    0.0000 </r>
       <r>   22.6820    0.0000 </r>
       <r>   22.7654    0.0000 </r>
       <r>   25.6661    0.0000 </r>
       <r>   29.1154    0.0000 </r>
       <r>   29.1154    0.0000 </r>
       <r>   31.4678    0.0000 </r>
       <r>   31.4678    0.0000 </r>
       <r>   32.1442    0.0000 </r>
       <r>   34.3878    0.0000 </r>
       <r>   35.0253    0.0000 </r>
       <r>   36.0861    0.0000 </r>
       <r>   36.0861    0.0000 </r>
       <r>   38.1111    0.0000 </r>
       <r>   38.1111    0.0000 </r>
       <r>   39.1802    0.0000 </r>
       <r>   39.1802    0.0000 </r>
       <r>   42.3867    0.0000 </r>
       <r>   43.3818    0.0000 </r>
       <r>   43.4375    0.0000 </r>
       <r>   43.4375    0.0000 </r>
       <r>   43.7381    0.0000 </r>
      </set>
      <set comment="kpoint 5">
       <r>   -4.6409    1.0000 </r>
       <r>   -0.1558    1.0000 </r>
       <r>    4.4409    1.0000 </r>
       <r>    4.4409    1.0000 </r>
       <r>    7.1029    0.0000 </r>
       <r>    8.9862    0.0000 </r>
       <r>    8.9862    0.0000 </r>
       <r>   13.3250    0.0000 </r>
       <r>   13.8420    0.0000 </r>
       <r>   13.8420    0.0000 </r>
       <r>   14.7343    0.0000 </r>
       <r>   19.1793    0.0000 </r>
       <r>   19.2667    0.0000 </r>
       <r>   19.2667    0.0000 </r>
       <r>   21.7315    0.0000 </r>
       <r>   23.5155    0.0000 </r>
       <r>   23.5155    0.0000 </r>
       <r>   27.8798    0.0000 </r>
       <r>   28.9947    0.0000 </r>
       <r>   28.9947    0.0000 </r>
       <r>   29.2135    0.0000 </r>
       <r>   31.6270    0.0000 </r>
       <r>   31.6270    0.0000 </r>
       <r>   33.5343    0.0000 </r>
       <r>   33.5343    0.0000 </r>
       <r>   34.7782    0.0000 </r>
       <r>   35.5190    0.0000 </r>
       <r>   37.4678    0.0000 </r>
       <r>   37.4678    0.0000 </r>
       <r>   38.4881    0.0000 </r>
       <r>   38.4881    0.0000 </r>
       <r>   39.7578    0.0000 </r>
       <r>   42.2824    0.0000 </r>
       <r>   42.4357    0.0000 </r>
       <r>   45.4596    0.0000 </r>
       <r>   45.4596    0.0000 </r>
      </set>
      <set comment="kpoint 6">
       <r>   -4.0577    1.0000 </r>
       <r>   -1.1329    1.0000 </r>
       <r>    4.3257    1.0000 </r>
       <r>    4.3257    1.0000 </r>
       <r>    6.9680    0.0000 </r>
       <r>    8.8905    0.0000 </r>
       <r>    8.8905    0.0000 </r>
       <r>   13.2368    0.0000 </r>
       <r>   15.3310    0.0000 </r>
       <r>   15.3311    0.0000 </r>
       <r>   16.1473    0.0000 </r>
       <r>   17.3181    0.0000 </r>
       <r>   17.3181    0.0000 </r>
       <r>   18.4295    0.0000 </r>
       <r>   23.4015    0.0000 </r>
       <r>   25.7364    0.0000 </r>
       <r>   25.7364    0.0000 </r>
       <r>   26.2049    0.0000 </r>
       <r>   27.8789    0.0000 </r>
       <r>   27.8789    0.0000 </r>
       <r>   30.2551    0.0000 </r>
       <r>   31.5001    0.0000 </r>
       <r>   31.5001    0.0000 </r>
       <r>   32.2937    0.0000 </r>
       <r>   32.2937    0.0000 </r>
       <r>   33.7842    0.0000 </r>
       <r>   35.8913    0.0000 </r>
       <r>   37.1932    0.0000 </r>
       <r>   37.1932    0.0000 </r>
       <r>   37.8832    0.0000 </r>
       <r>   37.8832    0.0000 </r>
       <r>   38.6734    0.0000 </r>
       <r>   41.4282    0.0000 </r>
       <r>   41.6555    0.0000 </r>
       <r>   45.5266    0.0000 </r>
       <r>   45.5266    0.0000 </r>
      </set>
      <set comment="kpoint 7">
       <r>   -6.0517    1.0000 </r>
       <r>    4.6474    1.0000 </r>
       <r>    4.9971    1.0000 </r>
       <r>    4.9971    1.0000 </r>
       <r>    7.7649    0.0000 </r>
       <r>    8.7082    0.0000 </r>
       <r>    8.7082    0.0000 </r>
       <r>    9.2776    0.0000 </r>
       <r>   12.3659    0.0000 </r>
       <r>   13.3704    0.0000 </r>
       <r>   13.9365    0.0000 </r>
       <r>   16.9010    0.0000 </r>
       <r>   16.9010    0.0000 </r>
       <r>   17.2515    0.0000 </r>
       <r>   21.7242    0.0000 </r>
       <r>   26.5592    0.0000 </r>
       <r>   26.5592    0.0000 </r>
       <r>   27.8512    0.0000 </r>
       <r>   28.2219    0.0000 </r>
       <r>   28.3515    0.0000 </r>
       <r>   31.1206    0.0000 </r>
       <r>   31.3486    0.0000 </r>
       <r>   31.3486    0.0000 </r>
       <r>   35.2695    0.0000 </r>
       <r>   35.2695    0.0000 </r>
       <r>   35.7108    0.0000 </r>
       <r>   38.7013    0.0000 </r>
       <r>   38.7013    0.0000 </r>
       <r>   38.7875    0.0000 </r>
       <r>   41.4265    0.0000 </r>
       <r>   42.8306    0.0000 </r>
       <r>   43.0654    0.0000 </r>
       <r>   44.0161    0.0000 </r>
       <r>   45.1876    0.0000 </r>
       <r>   46.3415    0.0000 </r>
       <r>   46.3452    0.0000 </r>
      </set>
      <set comment="kpoint 8">
       <r>   -5.8091    1.0000 </r>
       <r>    3.3371    1.0000 </r>
       <r>    4.6182    1.0000 </r>
       <r>    4.7820    1.0000 </r>
       <r>    7.7891    0.0000 </r>
       <r>    8.7128    0.0000 </r>
       <r>    9.2800    0.0000 </r>
       <r>   10.3037    0.0000 </r>
       <r>   12.0765    0.0000 </r>
       <r>   13.3298    0.0000 </r>
       <r>   14.7341    0.0000 </r>
       <r>   16.5090    0.0000 </r>
       <r>   17.7280    0.0000 </r>
       <r>   18.6152    0.0000 </r>
       <r>   22.9971    0.0000 </r>
       <r>   24.5486    0.0000 </r>
       <r>   24.8712    0.0000 </r>
       <r>   27.1363    0.0000 </r>
       <r>   27.4835    0.0000 </r>
       <r>   28.2199    0.0000 </r>
       <r>   31.1620    0.0000 </r>
       <r>   31.7093    0.0000 </r>
       <r>   32.6157    0.0000 </r>
       <r>   35.6397    0.0000 </r>
       <r>   36.2999    0.0000 </r>
       <r>   36.9065    0.0000 </r>
       <r>   37.5923    0.0000 </r>
       <r>   37.9340    0.0000 </r>
       <r>   38.5510    0.0000 </r>
       <r>   39.5672    0.0000 </r>
       <r>   41.3529    0.0000 </r>
       <r>   41.6547    0.0000 </r>
       <r>   43.7958    0.0000 </r>
       <r>   44.2193    0.0000 </r>
       <r>   44.9765    0.0000 </r>
       <r>   45.3187    0.0000 </r>
      </set>
      <set comment="kpoint 9">
       <r>   -5.3703    1.0000 </r>
       <r>    1.7671    1.0000 </r>
       <r>    4.3098    1.0000 </r>
       <r>    4.4225    1.0000 </r>
       <r>    7.8707    0.0000 </r>
       <r>    8.7394    0.0000 </r>
       <r>    9.6345    0.0000 </r>
       <r>   10.8170    0.0000 </r>
       <r>   13.0478    0.0000 </r>
       <r>   13.5031    0.0000 </r>
       <r>   14.9645    0.0000 </r>
       <r>   17.1890    0.0000 </r>
       <r>   19.1431    0.0000 </r>
       <r>   20.3263    0.0000 </r>
       <r>   22.3035    0.0000 </r>
       <r>   22.7921    0.0000 </r>
       <r>   24.2283    0.0000 </r>
       <r>   26.0397    0.0000 </r>
       <r>   27.6172    0.0000 </r>
       <r>   28.4120    0.0000 </r>
       <r>   31.1080    0.0000 </r>
       <r>   31.9997    0.0000 </r>
       <r>   32.7928    0.0000 </r>
       <r>   34.5711    0.0000 </r>
       <r>   35.9134    0.0000 </r>
       <r>   36.4837    0.0000 </r>
       <r>   36.5986    0.0000 </r>
       <r>   37.8441    0.0000 </r>
       <r>   38.1460    0.0000 </r>
       <r>   38.6799    0.0000 </r>
       <r>   40.1120    0.0000 </r>
       <r>   41.3978    0.0000 </r>
       <r>   43.0894    0.0000 </r>
       <r>   43.6625    0.0000 </r>
       <r>   43.8823    0.0000 </r>
       <r>   44.5997    0.0000 </r>
      </set>
      <set comment="kpoint 10">
       <r>   -4.7698    1.0000 </r>
       <r>    0.3070    1.0000 </r>
       <r>    4.0535    1.0000 </r>
       <r>    4.1271    1.0000 </r>
       <r>    7.6991    0.0000 </r>
       <r>    8.8127    0.0000 </r>
       <r>    9.5903    0.0000 </r>
       <r>   11.5733    0.0000 </r>
       <r>   14.2943    0.0000 </r>
       <r>   14.3728    0.0000 </r>
       <r>   14.8764    0.0000 </r>
       <r>   18.7120    0.0000 </r>
       <r>   18.9749    0.0000 </r>
       <r>   20.4171    0.0000 </r>
       <r>   22.1584    0.0000 </r>
       <r>   22.4110    0.0000 </r>
       <r>   23.5879    0.0000 </r>
       <r>   27.6053    0.0000 </r>
       <r>   27.7819    0.0000 </r>
       <r>   28.6950    0.0000 </r>
       <r>   30.0514    0.0000 </r>
       <r>   30.6467    0.0000 </r>
       <r>   32.2601    0.0000 </r>
       <r>   34.1420    0.0000 </r>
       <r>   34.7648    0.0000 </r>
       <r>   35.2294    0.0000 </r>
       <r>   35.8847    0.0000 </r>
       <r>   36.7543    0.0000 </r>
       <r>   36.9465    0.0000 </r>
       <r>   38.3350    0.0000 </r>
       <r>   39.5168    0.0000 </r>
       <r>   40.8519    0.0000 </r>
       <r>   42.7340    0.0000 </r>
       <r>   43.2549    0.0000 </r>
       <r>   43.7024    0.0000 </r>
       <r>   44.1006    0.0000 </r>
      </set>
      <set comment="kpoint 11">
       <r>   -4.1274    1.0000 </r>
       <r>   -0.8434    1.0000 </r>
       <r>    3.7661    1.0000 </r>
       <r>    4.0852    1.0000 </r>
       <r>    7.5541    0.0000 </r>
       <r>    8.7886    0.0000 </r>
       <r>    9.3738    0.0000 </r>
       <r>   12.7892    0.0000 </r>
       <r>   14.2291    0.0000 </r>
       <r>   15.7452    0.0000 </r>
       <r>   16.3514    0.0000 </r>
       <r>   17.0925    0.0000 </r>
       <r>   17.8361    0.0000 </r>
       <r>   20.0829    0.0000 </r>
       <r>   22.6214    0.0000 </r>
       <r>   24.2293    0.0000 </r>
       <r>   25.4841    0.0000 </r>
       <r>   26.8031    0.0000 </r>
       <r>   27.7136    0.0000 </r>
       <r>   28.2058    0.0000 </r>
       <r>   29.9801    0.0000 </r>
       <r>   30.0530    0.0000 </r>
       <r>   32.1403    0.0000 </r>
       <r>   32.4607    0.0000 </r>
       <r>   33.0966    0.0000 </r>
       <r>   34.7779    0.0000 </r>
       <r>   35.5217    0.0000 </r>
       <r>   36.0097    0.0000 </r>
       <r>   37.0499    0.0000 </r>
       <r>   37.9699    0.0000 </r>
       <r>   38.7019    0.0000 </r>
       <r>   39.4068    0.0000 </r>
       <r>   42.1447    0.0000 </r>
       <r>   42.9255    0.0000 </r>
       <r>   43.1980    0.0000 </r>
       <r>   45.6570    0.0000 </r>
      </set>
      <set comment="kpoint 12">
       <r>   -3.8713    1.0000 </r>
       <r>   -1.2273    1.0000 </r>
       <r>    3.5963    1.0000 </r>
       <r>    4.1804    1.0000 </r>
       <r>    7.5236    0.0000 </r>
       <r>    8.8471    0.0000 </r>
       <r>    9.1989    0.0000 </r>
       <r>   13.5204    0.0000 </r>
       <r>   14.6998    0.0000 </r>
       <r>   15.0448    0.0000 </r>
       <r>   16.2955    0.0000 </r>
       <r>   17.6700    0.0000 </r>
       <r>   17.9522    0.0000 </r>
       <r>   18.7048    0.0000 </r>
       <r>   24.0156    0.0000 </r>
       <r>   25.1338    0.0000 </r>
       <r>   25.9073    0.0000 </r>
       <r>   26.4622    0.0000 </r>
       <r>   26.9725    0.0000 </r>
       <r>   27.3430    0.0000 </r>
       <r>   30.3203    0.0000 </r>
       <r>   30.7743    0.0000 </r>
       <r>   31.1975    0.0000 </r>
       <r>   32.6263    0.0000 </r>
       <r>   32.6611    0.0000 </r>
       <r>   34.0098    0.0000 </r>
       <r>   35.4954    0.0000 </r>
       <r>   35.6314    0.0000 </r>
       <r>   37.2606    0.0000 </r>
       <r>   38.1474    0.0000 </r>
       <r>   38.2441    0.0000 </r>
       <r>   39.2282    0.0000 </r>
       <r>   41.9192    0.0000 </r>
       <r>   42.6321    0.0000 </r>
       <r>   43.4232    0.0000 </r>
       <r>   45.2860    0.0000 </r>
      </set>
      <set comment="kpoint 13">
       <r>   -4.3316    1.0000 </r>
       <r>   -0.5092    1.0000 </r>
       <r>    3.5649    1.0000 </r>
       <r>    4.3975    1.0000 </r>
       <r>    7.6201    0.0000 </r>
       <r>    9.0294    0.0000 </r>
       <r>    9.1206    0.0000 </r>
       <r>   13.1607    0.0000 </r>
       <r>   13.4471    0.0000 </r>
       <r>   14.5952    0.0000 </r>
       <r>   16.5035    0.0000 </r>
       <r>   17.2077    0.0000 </r>
       <r>   19.6254    0.0000 </r>
       <r>   19.7444    0.0000 </r>
       <r>   21.8844    0.0000 </r>
       <r>   23.4114    0.0000 </r>
       <r>   25.0760    0.0000 </r>
       <r>   28.0036    0.0000 </r>
       <r>   28.0064    0.0000 </r>
       <r>   28.0793    0.0000 </r>
       <r>   29.3505    0.0000 </r>
       <r>   30.3699    0.0000 </r>
       <r>   32.2175    0.0000 </r>
       <r>   33.0045    0.0000 </r>
       <r>   33.0261    0.0000 </r>
       <r>   34.8092    0.0000 </r>
       <r>   35.9898    0.0000 </r>
       <r>   36.0116    0.0000 </r>
       <r>   37.2801    0.0000 </r>
       <r>   38.3183    0.0000 </r>
       <r>   38.8493    0.0000 </r>
       <r>   39.6030    0.0000 </r>
       <r>   42.2336    0.0000 </r>
       <r>   43.0276    0.0000 </r>
       <r>   43.9492    0.0000 </r>
       <r>   45.1539    0.0000 </r>
      </set>
      <set comment="kpoint 14">
       <r>   -4.9854    1.0000 </r>
       <r>    0.7739    1.0000 </r>
       <r>    3.6868    1.0000 </r>
       <r>    4.7082    1.0000 </r>
       <r>    7.8333    0.0000 </r>
       <r>    9.0433    0.0000 </r>
       <r>    9.2215    0.0000 </r>
       <r>   12.0877    0.0000 </r>
       <r>   12.3057    0.0000 </r>
       <r>   14.7841    0.0000 </r>
       <r>   14.8904    0.0000 </r>
       <r>   18.0713    0.0000 </r>
       <r>   19.3928    0.0000 </r>
       <r>   21.2134    0.0000 </r>
       <r>   21.2287    0.0000 </r>
       <r>   22.7831    0.0000 </r>
       <r>   23.5996    0.0000 </r>
       <r>   26.8238    0.0000 </r>
       <r>   27.9061    0.0000 </r>
       <r>   28.3934    0.0000 </r>
       <r>   30.8800    0.0000 </r>
       <r>   31.3716    0.0000 </r>
       <r>   32.0578    0.0000 </r>
       <r>   34.3764    0.0000 </r>
       <r>   34.9144    0.0000 </r>
       <r>   35.5785    0.0000 </r>
       <r>   36.2909    0.0000 </r>
       <r>   36.6301    0.0000 </r>
       <r>   37.5896    0.0000 </r>
       <r>   38.7878    0.0000 </r>
       <r>   39.5642    0.0000 </r>
       <r>   41.7867    0.0000 </r>
       <r>   42.4762    0.0000 </r>
       <r>   43.5913    0.0000 </r>
       <r>   43.6658    0.0000 </r>
       <r>   44.7214    0.0000 </r>
      </set>
      <set comment="kpoint 15">
       <r>   -5.5381    1.0000 </r>
       <r>    2.2750    1.0000 </r>
       <r>    3.9794    1.0000 </r>
       <r>    5.0572    1.0000 </r>
       <r>    8.1295    0.0000 </r>
       <r>    8.7560    0.0000 </r>
       <r>    9.0752    0.0000 </r>
       <r>   11.1830    0.0000 </r>
       <r>   11.9115    0.0000 </r>
       <r>   13.5849    0.0000 </r>
       <r>   15.0780    0.0000 </r>
       <r>   16.6901    0.0000 </r>
       <r>   18.4638    0.0000 </r>
       <r>   20.2287    0.0000 </r>
       <r>   22.3204    0.0000 </r>
       <r>   23.6171    0.0000 </r>
       <r>   24.9591    0.0000 </r>
       <r>   25.6086    0.0000 </r>
       <r>   27.5835    0.0000 </r>
       <r>   28.2959    0.0000 </r>
       <r>   31.4314    0.0000 </r>
       <r>   31.5445    0.0000 </r>
       <r>   33.6287    0.0000 </r>
       <r>   34.6144    0.0000 </r>
       <r>   35.4493    0.0000 </r>
       <r>   36.7878    0.0000 </r>
       <r>   37.4997    0.0000 </r>
       <r>   38.0011    0.0000 </r>
       <r>   38.5489    0.0000 </r>
       <r>   39.2408    0.0000 </r>
       <r>   40.0904    0.0000 </r>
       <r>   40.9030    0.0000 </r>
       <r>   43.2287    0.0000 </r>
       <r>   44.1020    0.0000 </r>
       <r>   44.1375    0.0000 </r>
       <r>   44.8708    0.0000 </r>
      </set>
      <set comment="kpoint 16">
       <r>   -5.9132    1.0000 </r>
       <r>    3.7013    1.0000 </r>
       <r>    4.5270    1.0000 </r>
       <r>    5.3202    0.9997 </r>
       <r>    8.3635    0.0000 </r>
       <r>    8.3660    0.0000 </r>
       <r>    8.4975    0.0000 </r>
       <r>   10.2554    0.0000 </r>
       <r>   12.2467    0.0000 </r>
       <r>   13.0691    0.0000 </r>
       <r>   14.4177    0.0000 </r>
       <r>   16.4981    0.0000 </r>
       <r>   17.1899    0.0000 </r>
       <r>   18.5822    0.0000 </r>
       <r>   22.3920    0.0000 </r>
       <r>   24.6863    0.0000 </r>
       <r>   26.5727    0.0000 </r>
       <r>   26.9849    0.0000 </r>
       <r>   27.5898    0.0000 </r>
       <r>   28.4856    0.0000 </r>
       <r>   31.1865    0.0000 </r>
       <r>   31.3414    0.0000 </r>
       <r>   32.5143    0.0000 </r>
       <r>   35.2002    0.0000 </r>
       <r>   35.9697    0.0000 </r>
       <r>   36.9575    0.0000 </r>
       <r>   37.3644    0.0000 </r>
       <r>   37.9615    0.0000 </r>
       <r>   39.4679    0.0000 </r>
       <r>   40.4816    0.0000 </r>
       <r>   41.8387    0.0000 </r>
       <r>   41.9870    0.0000 </r>
       <r>   43.3898    0.0000 </r>
       <r>   44.2222    0.0000 </r>
       <r>   45.2479    0.0000 </r>
       <r>   46.1347    0.0000 </r>
      </set>
      <set comment="kpoint 17">
       <r>   -5.6343    1.0000 </r>
       <r>    3.1673    1.0000 </r>
       <r>    4.2033    1.0000 </r>
       <r>    4.2033    1.0000 </r>
       <r>    7.1374    0.0000 </r>
       <r>    9.5528    0.0000 </r>
       <r>   10.0087    0.0000 </r>
       <r>   10.0087    0.0000 </r>
       <r>   12.0998    0.0000 </r>
       <r>   13.8389    0.0000 </r>
       <r>   15.3777    0.0000 </r>
       <r>   17.6161    0.0000 </r>
       <r>   17.6161    0.0000 </r>
       <r>   18.2205    0.0000 </r>
       <r>   24.1024    0.0000 </r>
       <r>   24.1761    0.0000 </r>
       <r>   24.1761    0.0000 </r>
       <r>   25.4122    0.0000 </r>
       <r>   26.5654    0.0000 </r>
       <r>   28.9853    0.0000 </r>
       <r>   31.5535    0.0000 </r>
       <r>   32.0236    0.0000 </r>
       <r>   32.0236    0.0000 </r>
       <r>   36.3407    0.0000 </r>
       <r>   36.3408    0.0000 </r>
       <r>   36.5767    0.0000 </r>
       <r>   37.8931    0.0000 </r>
       <r>   37.8931    0.0000 </r>
       <r>   37.9304    0.0000 </r>
       <r>   38.1468    0.0000 </r>
       <r>   40.7093    0.0000 </r>
       <r>   42.3636    0.0000 </r>
       <r>   43.6570    0.0000 </r>
       <r>   43.6570    0.0000 </r>
       <r>   45.2416    0.0000 </r>
       <r>   45.2610    0.0000 </r>
      </set>
      <set comment="kpoint 18">
       <r>   -5.2594    1.0000 </r>
       <r>    2.0487    1.0000 </r>
       <r>    3.7960    1.0000 </r>
       <r>    3.8721    1.0000 </r>
       <r>    7.1837    0.0000 </r>
       <r>    9.1838    0.0000 </r>
       <r>   10.2916    0.0000 </r>
       <r>   10.5825    0.0000 </r>
       <r>   13.2484    0.0000 </r>
       <r>   14.1491    0.0000 </r>
       <r>   16.1343    0.0000 </r>
       <r>   17.5669    0.0000 </r>
       <r>   18.4895    0.0000 </r>
       <r>   19.7499    0.0000 </r>
       <r>   22.2366    0.0000 </r>
       <r>   22.6615    0.0000 </r>
       <r>   25.1412    0.0000 </r>
       <r>   25.3897    0.0000 </r>
       <r>   26.1465    0.0000 </r>
       <r>   28.7316    0.0000 </r>
       <r>   31.1204    0.0000 </r>
       <r>   32.2015    0.0000 </r>
       <r>   32.6117    0.0000 </r>
       <r>   34.4228    0.0000 </r>
       <r>   35.0958    0.0000 </r>
       <r>   35.6501    0.0000 </r>
       <r>   36.6606    0.0000 </r>
       <r>   38.1361    0.0000 </r>
       <r>   38.7000    0.0000 </r>
       <r>   39.7820    0.0000 </r>
       <r>   40.3997    0.0000 </r>
       <r>   40.9438    0.0000 </r>
       <r>   42.5190    0.0000 </r>
       <r>   42.7283    0.0000 </r>
       <r>   45.0272    0.0000 </r>
       <r>   45.2991    0.0000 </r>
      </set>
      <set comment="kpoint 19">
       <r>   -4.7072    1.0000 </r>
       <r>    0.7256    1.0000 </r>
       <r>    3.2799    1.0000 </r>
       <r>    3.6806    1.0000 </r>
       <r>    7.4140    0.0000 </r>
       <r>    9.5336    0.0000 </r>
       <r>   10.0916    0.0000 </r>
       <r>   10.6814    0.0000 </r>
       <r>   14.9295    0.0000 </r>
       <r>   14.9470    0.0000 </r>
       <r>   15.9195    0.0000 </r>
       <r>   18.6004    0.0000 </r>
       <r>   18.7356    0.0000 </r>
       <r>   20.3332    0.0000 </r>
       <r>   21.3277    0.0000 </r>
       <r>   22.5648    0.0000 </r>
       <r>   24.7417    0.0000 </r>
       <r>   25.3934    0.0000 </r>
       <r>   26.9004    0.0000 </r>
       <r>   29.0529    0.0000 </r>
       <r>   29.8213    0.0000 </r>
       <r>   31.0153    0.0000 </r>
       <r>   32.1642    0.0000 </r>
       <r>   33.6952    0.0000 </r>
       <r>   34.2879    0.0000 </r>
       <r>   35.2183    0.0000 </r>
       <r>   36.2299    0.0000 </r>
       <r>   36.8159    0.0000 </r>
       <r>   37.7548    0.0000 </r>
       <r>   39.1078    0.0000 </r>
       <r>   40.2345    0.0000 </r>
       <r>   41.5753    0.0000 </r>
       <r>   42.0787    0.0000 </r>
       <r>   42.2239    0.0000 </r>
       <r>   43.3580    0.0000 </r>
       <r>   44.8185    0.0000 </r>
      </set>
      <set comment="kpoint 20">
       <r>   -4.0525    1.0000 </r>
       <r>   -0.4667    1.0000 </r>
       <r>    2.8182    1.0000 </r>
       <r>    3.6473    1.0000 </r>
       <r>    7.4542    0.0000 </r>
       <r>    9.8552    0.0000 </r>
       <r>   10.4514    0.0000 </r>
       <r>   10.7258    0.0000 </r>
       <r>   15.3184    0.0000 </r>
       <r>   16.2158    0.0000 </r>
       <r>   16.7568    0.0000 </r>
       <r>   17.0006    0.0000 </r>
       <r>   18.0174    0.0000 </r>
       <r>   21.3535    0.0000 </r>
       <r>   22.9903    0.0000 </r>
       <r>   23.0519    0.0000 </r>
       <r>   24.6703    0.0000 </r>
       <r>   25.6986    0.0000 </r>
       <r>   26.5372    0.0000 </r>
       <r>   28.2613    0.0000 </r>
       <r>   29.1328    0.0000 </r>
       <r>   30.8758    0.0000 </r>
       <r>   31.8402    0.0000 </r>
       <r>   32.5155    0.0000 </r>
       <r>   33.9276    0.0000 </r>
       <r>   34.1512    0.0000 </r>
       <r>   35.3256    0.0000 </r>
       <r>   35.8330    0.0000 </r>
       <r>   37.1721    0.0000 </r>
       <r>   38.9400    0.0000 </r>
       <r>   39.7903    0.0000 </r>
       <r>   40.3392    0.0000 </r>
       <r>   41.6944    0.0000 </r>
       <r>   41.7841    0.0000 </r>
       <r>   43.9657    0.0000 </r>
       <r>   45.0055    0.0000 </r>
      </set>
      <set comment="kpoint 21">
       <r>   -3.5926    1.0000 </r>
       <r>   -1.1457    1.0000 </r>
       <r>    2.4949    1.0000 </r>
       <r>    3.7714    1.0000 </r>
       <r>    7.5470    0.0000 </r>
       <r>    9.7345    0.0000 </r>
       <r>   10.1762    0.0000 </r>
       <r>   12.3104    0.0000 </r>
       <r>   14.4546    0.0000 </r>
       <r>   14.9192    0.0000 </r>
       <r>   16.8650    0.0000 </r>
       <r>   18.0898    0.0000 </r>
       <r>   18.6579    0.0000 </r>
       <r>   20.8660    0.0000 </r>
       <r>   23.9254    0.0000 </r>
       <r>   24.1170    0.0000 </r>
       <r>   24.8199    0.0000 </r>
       <r>   25.9793    0.0000 </r>
       <r>   26.2366    0.0000 </r>
       <r>   26.9024    0.0000 </r>
       <r>   29.7256    0.0000 </r>
       <r>   31.1015    0.0000 </r>
       <r>   31.6058    0.0000 </r>
       <r>   31.7329    0.0000 </r>
       <r>   32.5682    0.0000 </r>
       <r>   34.2545    0.0000 </r>
       <r>   34.4528    0.0000 </r>
       <r>   35.6918    0.0000 </r>
       <r>   36.7520    0.0000 </r>
       <r>   38.6350    0.0000 </r>
       <r>   39.8422    0.0000 </r>
       <r>   40.2643    0.0000 </r>
       <r>   41.5365    0.0000 </r>
       <r>   41.5557    0.0000 </r>
       <r>   43.6708    0.0000 </r>
       <r>   45.3682    0.0000 </r>
      </set>
      <set comment="kpoint 22">
       <r>   -3.8642    1.0000 </r>
       <r>   -0.7523    1.0000 </r>
       <r>    2.3509    1.0000 </r>
       <r>    4.0371    1.0000 </r>
       <r>    7.7829    0.0000 </r>
       <r>    9.7305    0.0000 </r>
       <r>    9.9581    0.0000 </r>
       <r>   13.0878    0.0000 </r>
       <r>   13.2377    0.0000 </r>
       <r>   14.0346    0.0000 </r>
       <r>   16.7637    0.0000 </r>
       <r>   19.0232    0.0000 </r>
       <r>   20.0353    0.0000 </r>
       <r>   20.1968    0.0000 </r>
       <r>   21.6600    0.0000 </r>
       <r>   23.9958    0.0000 </r>
       <r>   25.0343    0.0000 </r>
       <r>   26.3746    0.0000 </r>
       <r>   27.2237    0.0000 </r>
       <r>   27.6137    0.0000 </r>
       <r>   29.2927    0.0000 </r>
       <r>   31.1373    0.0000 </r>
       <r>   31.9812    0.0000 </r>
       <r>   32.0531    0.0000 </r>
       <r>   32.3641    0.0000 </r>
       <r>   33.1943    0.0000 </r>
       <r>   34.3719    0.0000 </r>
       <r>   36.8084    0.0000 </r>
       <r>   37.7513    0.0000 </r>
       <r>   38.6844    0.0000 </r>
       <r>   39.8058    0.0000 </r>
       <r>   40.3897    0.0000 </r>
       <r>   41.5491    0.0000 </r>
       <r>   41.8665    0.0000 </r>
       <r>   43.5249    0.0000 </r>
       <r>   45.5166    0.0000 </r>
      </set>
      <set comment="kpoint 23">
       <r>   -4.5094    1.0000 </r>
       <r>    0.3211    1.0000 </r>
       <r>    2.4381    1.0000 </r>
       <r>    4.4073    1.0000 </r>
       <r>    8.1269    0.0000 </r>
       <r>    9.7114    0.0000 </r>
       <r>    9.7826    0.0000 </r>
       <r>   11.7219    0.0000 </r>
       <r>   12.0303    0.0000 </r>
       <r>   15.4667    0.0000 </r>
       <r>   17.0861    0.0000 </r>
       <r>   17.4456    0.0000 </r>
       <r>   19.2153    0.0000 </r>
       <r>   21.2277    0.0000 </r>
       <r>   21.8668    0.0000 </r>
       <r>   22.7241    0.0000 </r>
       <r>   24.5378    0.0000 </r>
       <r>   26.4237    0.0000 </r>
       <r>   26.8777    0.0000 </r>
       <r>   28.8741    0.0000 </r>
       <r>   29.5967    0.0000 </r>
       <r>   30.7499    0.0000 </r>
       <r>   32.2861    0.0000 </r>
       <r>   33.1096    0.0000 </r>
       <r>   33.1769    0.0000 </r>
       <r>   34.6153    0.0000 </r>
       <r>   35.2427    0.0000 </r>
       <r>   37.2673    0.0000 </r>
       <r>   38.4126    0.0000 </r>
       <r>   38.9933    0.0000 </r>
       <r>   39.7208    0.0000 </r>
       <r>   41.6827    0.0000 </r>
       <r>   41.8752    0.0000 </r>
       <r>   42.7218    0.0000 </r>
       <r>   43.3873    0.0000 </r>
       <r>   43.5910    0.0000 </r>
      </set>
      <set comment="kpoint 24">
       <r>   -5.1048    1.0000 </r>
       <r>    1.4729    1.0000 </r>
       <r>    2.9124    1.0000 </r>
       <r>    4.8021    1.0000 </r>
       <r>    8.4278    0.0000 </r>
       <r>    9.2266    0.0000 </r>
       <r>    9.4708    0.0000 </r>
       <r>   11.0678    0.0000 </r>
       <r>   11.6206    0.0000 </r>
       <r>   15.2545    0.0000 </r>
       <r>   15.9780    0.0000 </r>
       <r>   17.0765    0.0000 </r>
       <r>   19.0432    0.0000 </r>
       <r>   20.2918    0.0000 </r>
       <r>   21.7616    0.0000 </r>
       <r>   23.6717    0.0000 </r>
       <r>   25.3916    0.0000 </r>
       <r>   25.5063    0.0000 </r>
       <r>   26.8353    0.0000 </r>
       <r>   27.3155    0.0000 </r>
       <r>   31.3378    0.0000 </r>
       <r>   31.5633    0.0000 </r>
       <r>   32.9023    0.0000 </r>
       <r>   33.9954    0.0000 </r>
       <r>   35.1719    0.0000 </r>
       <r>   35.5579    0.0000 </r>
       <r>   36.0597    0.0000 </r>
       <r>   38.4184    0.0000 </r>
       <r>   38.8322    0.0000 </r>
       <r>   39.1187    0.0000 </r>
       <r>   39.4236    0.0000 </r>
       <r>   40.2852    0.0000 </r>
       <r>   42.9360    0.0000 </r>
       <r>   43.3660    0.0000 </r>
       <r>   44.2195    0.0000 </r>
       <r>   44.3973    0.0000 </r>
      </set>
      <set comment="kpoint 25">
       <r>   -4.9480    1.0000 </r>
       <r>    1.5842    1.0000 </r>
       <r>    3.5081    1.0000 </r>
       <r>    3.5081    1.0000 </r>
       <r>    6.5656    0.0000 </r>
       <r>    8.3425    0.0000 </r>
       <r>   11.5273    0.0000 </r>
       <r>   11.5273    0.0000 </r>
       <r>   13.6969    0.0000 </r>
       <r>   14.6180    0.0000 </r>
       <r>   17.1905    0.0000 </r>
       <r>   18.5973    0.0000 </r>
       <r>   18.5973    0.0000 </r>
       <r>   19.4364    0.0000 </r>
       <r>   22.1237    0.0000 </r>
       <r>   22.1237    0.0000 </r>
       <r>   22.9817    0.0000 </r>
       <r>   24.9259    0.0000 </r>
       <r>   26.7073    0.0000 </r>
       <r>   30.4702    0.0000 </r>
       <r>   30.9603    0.0000 </r>
       <r>   31.9655    0.0000 </r>
       <r>   31.9655    0.0000 </r>
       <r>   33.9434    0.0000 </r>
       <r>   33.9434    0.0000 </r>
       <r>   33.9832    0.0000 </r>
       <r>   34.3157    0.0000 </r>
       <r>   39.8132    0.0000 </r>
       <r>   39.8716    0.0000 </r>
       <r>   40.8548    0.0000 </r>
       <r>   40.8548    0.0000 </r>
       <r>   41.6502    0.0000 </r>
       <r>   41.7248    0.0000 </r>
       <r>   41.7248    0.0000 </r>
       <r>   45.1650    0.0000 </r>
       <r>   45.3172    0.0000 </r>
      </set>
      <set comment="kpoint 26">
       <r>   -4.4509    1.0000 </r>
       <r>    0.6584    1.0000 </r>
       <r>    2.9948    1.0000 </r>
       <r>    3.2837    1.0000 </r>
       <r>    6.6933    0.0000 </r>
       <r>    8.0587    0.0000 </r>
       <r>   11.7962    0.0000 </r>
       <r>   11.9954    0.0000 </r>
       <r>   15.1285    0.0000 </r>
       <r>   15.3333    0.0000 </r>
       <r>   17.4069    0.0000 </r>
       <r>   18.6201    0.0000 </r>
       <r>   19.1189    0.0000 </r>
       <r>   20.0495    0.0000 </r>
       <r>   21.1463    0.0000 </r>
       <r>   22.0586    0.0000 </r>
       <r>   22.9488    0.0000 </r>
       <r>   24.6270    0.0000 </r>
       <r>   27.3143    0.0000 </r>
       <r>   29.4483    0.0000 </r>
       <r>   30.4552    0.0000 </r>
       <r>   31.0514    0.0000 </r>
       <r>   31.6303    0.0000 </r>
       <r>   32.2571    0.0000 </r>
       <r>   33.5685    0.0000 </r>
       <r>   33.7085    0.0000 </r>
       <r>   34.8697    0.0000 </r>
       <r>   38.5231    0.0000 </r>
       <r>   39.0705    0.0000 </r>
       <r>   40.2940    0.0000 </r>
       <r>   41.1268    0.0000 </r>
       <r>   41.5470    0.0000 </r>
       <r>   42.1518    0.0000 </r>
       <r>   42.3931    0.0000 </r>
       <r>   44.4771    0.0000 </r>
       <r>   45.0967    0.0000 </r>
      </set>
      <set comment="kpoint 27">
       <r>   -3.8143    1.0000 </r>
       <r>   -0.3354    1.0000 </r>
       <r>    2.2978    1.0000 </r>
       <r>    3.2233    1.0000 </r>
       <r>    6.8961    0.0000 </r>
       <r>    8.7757    0.0000 </r>
       <r>   11.6318    0.0000 </r>
       <r>   11.8860    0.0000 </r>
       <r>   16.3366    0.0000 </r>
       <r>   16.6285    0.0000 </r>
       <r>   16.9940    0.0000 </r>
       <r>   17.0294    0.0000 </r>
       <r>   19.0101    0.0000 </r>
       <r>   20.8632    0.0000 </r>
       <r>   22.0277    0.0000 </r>
       <r>   23.5929    0.0000 </r>
       <r>   23.7397    0.0000 </r>
       <r>   24.6057    0.0000 </r>
       <r>   26.3455    0.0000 </r>
       <r>   27.4630    0.0000 </r>
       <r>   29.7816    0.0000 </r>
       <r>   30.0605    0.0000 </r>
       <r>   30.5346    0.0000 </r>
       <r>   32.6526    0.0000 </r>
       <r>   33.5177    0.0000 </r>
       <r>   33.8958    0.0000 </r>
       <r>   36.0798    0.0000 </r>
       <r>   36.3560    0.0000 </r>
       <r>   37.4087    0.0000 </r>
       <r>   39.4634    0.0000 </r>
       <r>   40.8703    0.0000 </r>
       <r>   41.0872    0.0000 </r>
       <r>   41.8545    0.0000 </r>
       <r>   42.4751    0.0000 </r>
       <r>   43.7157    0.0000 </r>
       <r>   45.1710    0.0000 </r>
      </set>
      <set comment="kpoint 28">
       <r>   -3.2261    1.0000 </r>
       <r>   -1.1042    1.0000 </r>
       <r>    1.7462    1.0000 </r>
       <r>    3.3305    1.0000 </r>
       <r>    7.0281    0.0000 </r>
       <r>   10.2125    0.0000 </r>
       <r>   11.4655    0.0000 </r>
       <r>   11.5780    0.0000 </r>
       <r>   14.8055    0.0000 </r>
       <r>   14.9624    0.0000 </r>
       <r>   18.4533    0.0000 </r>
       <r>   18.4854    0.0000 </r>
       <r>   18.8731    0.0000 </r>
       <r>   22.7666    0.0000 </r>
       <r>   22.8223    0.0000 </r>
       <r>   23.2715    0.0000 </r>
       <r>   23.7655    0.0000 </r>
       <r>   25.0506    0.0000 </r>
       <r>   25.1309    0.0000 </r>
       <r>   27.9369    0.0000 </r>
       <r>   28.8346    0.0000 </r>
       <r>   29.4709    0.0000 </r>
       <r>   29.8627    0.0000 </r>
       <r>   33.3394    0.0000 </r>
       <r>   33.4280    0.0000 </r>
       <r>   33.7676    0.0000 </r>
       <r>   34.1028    0.0000 </r>
       <r>   36.0774    0.0000 </r>
       <r>   37.1639    0.0000 </r>
       <r>   39.0668    0.0000 </r>
       <r>   40.1535    0.0000 </r>
       <r>   40.5141    0.0000 </r>
       <r>   42.0168    0.0000 </r>
       <r>   42.7281    0.0000 </r>
       <r>   43.1321    0.0000 </r>
       <r>   45.3017    0.0000 </r>
      </set>
      <set comment="kpoint 29">
       <r>   -3.2815    1.0000 </r>
       <r>   -1.0267    1.0000 </r>
       <r>    1.4743    1.0000 </r>
       <r>    3.5937    1.0000 </r>
       <r>    7.3059    0.0000 </r>
       <r>   11.2129    0.0000 </r>
       <r>   11.2357    0.0000 </r>
       <r>   12.1103    0.0000 </r>
       <r>   13.1227    0.0000 </r>
       <r>   13.2543    0.0000 </r>
       <r>   18.4445    0.0000 </r>
       <r>   20.3409    0.0000 </r>
       <r>   20.4038    0.0000 </r>
       <r>   21.1777    0.0000 </r>
       <r>   21.7374    0.0000 </r>
       <r>   22.9844    0.0000 </r>
       <r>   24.1299    0.0000 </r>
       <r>   25.1196    0.0000 </r>
       <r>   27.0155    0.0000 </r>
       <r>   27.3723    0.0000 </r>
       <r>   29.3775    0.0000 </r>
       <r>   29.8564    0.0000 </r>
       <r>   30.9180    0.0000 </r>
       <r>   31.5632    0.0000 </r>
       <r>   33.1299    0.0000 </r>
       <r>   33.6553    0.0000 </r>
       <r>   34.1307    0.0000 </r>
       <r>   34.4043    0.0000 </r>
       <r>   38.8899    0.0000 </r>
       <r>   39.0607    0.0000 </r>
       <r>   40.2999    0.0000 </r>
       <r>   40.7849    0.0000 </r>
       <r>   41.8525    0.0000 </r>
       <r>   42.7454    0.0000 </r>
       <r>   42.8437    0.0000 </r>
       <r>   44.1181    0.0000 </r>
      </set>
      <set comment="kpoint 30">
       <r>   -3.8911    1.0000 </r>
       <r>   -0.2943    1.0000 </r>
       <r>    1.6325    1.0000 </r>
       <r>    3.9790    1.0000 </r>
       <r>    7.7290    0.0000 </r>
       <r>   10.6460    0.0000 </r>
       <r>   10.9373    0.0000 </r>
       <r>   11.7685    0.0000 </r>
       <r>   12.2015    0.0000 </r>
       <r>   14.0450    0.0000 </r>
       <r>   18.4069    0.0000 </r>
       <r>   19.0500    0.0000 </r>
       <r>   19.4193    0.0000 </r>
       <r>   21.9775    0.0000 </r>
       <r>   22.0854    0.0000 </r>
       <r>   22.7424    0.0000 </r>
       <r>   23.2709    0.0000 </r>
       <r>   25.8215    0.0000 </r>
       <r>   27.8374    0.0000 </r>
       <r>   28.1636    0.0000 </r>
       <r>   29.5603    0.0000 </r>
       <r>   30.7187    0.0000 </r>
       <r>   31.1142    0.0000 </r>
       <r>   31.2867    0.0000 </r>
       <r>   32.8399    0.0000 </r>
       <r>   34.1020    0.0000 </r>
       <r>   34.3861    0.0000 </r>
       <r>   35.1876    0.0000 </r>
       <r>   39.1166    0.0000 </r>
       <r>   39.3381    0.0000 </r>
       <r>   40.5739    0.0000 </r>
       <r>   42.1037    0.0000 </r>
       <r>   42.1040    0.0000 </r>
       <r>   42.3937    0.0000 </r>
       <r>   42.8977    0.0000 </r>
       <r>   43.1361    0.0000 </r>
      </set>
      <set comment="kpoint 31">
       <r>   -4.0083    1.0000 </r>
       <r>    0.0126    1.0000 </r>
       <r>    3.0183    1.0000 </r>
       <r>    3.0183    1.0000 </r>
       <r>    6.2230    0.0015 </r>
       <r>    7.2389    0.0000 </r>
       <r>   13.1469    0.0000 </r>
       <r>   13.1469    0.0000 </r>
       <r>   15.5799    0.0000 </r>
       <r>   15.7051    0.0000 </r>
       <r>   18.4340    0.0000 </r>
       <r>   18.4340    0.0000 </r>
       <r>   18.7289    0.0000 </r>
       <r>   20.7526    0.0000 </r>
       <r>   21.0638    0.0000 </r>
       <r>   21.9243    0.0000 </r>
       <r>   21.9243    0.0000 </r>
       <r>   23.8776    0.0000 </r>
       <r>   28.4858    0.0000 </r>
       <r>   28.8454    0.0000 </r>
       <r>   29.5148    0.0000 </r>
       <r>   29.5148    0.0000 </r>
       <r>   30.7609    0.0000 </r>
       <r>   32.2831    0.0000 </r>
       <r>   33.5919    0.0000 </r>
       <r>   33.8028    0.0000 </r>
       <r>   33.8028    0.0000 </r>
       <r>   39.9635    0.0000 </r>
       <r>   39.9716    0.0000 </r>
       <r>   39.9716    0.0000 </r>
       <r>   40.3679    0.0000 </r>
       <r>   41.0879    0.0000 </r>
       <r>   43.8966    0.0000 </r>
       <r>   43.8966    0.0000 </r>
       <r>   44.1722    0.0000 </r>
       <r>   44.6875    0.0000 </r>
      </set>
      <set comment="kpoint 32">
       <r>   -3.4068    1.0000 </r>
       <r>   -0.7779    1.0000 </r>
       <r>    2.5117    1.0000 </r>
       <r>    2.9162    1.0000 </r>
       <r>    6.4290    0.0000 </r>
       <r>    7.2403    0.0000 </r>
       <r>   13.4581    0.0000 </r>
       <r>   13.4885    0.0000 </r>
       <r>   16.7417    0.0000 </r>
       <r>   16.8114    0.0000 </r>
       <r>   17.0638    0.0000 </r>
       <r>   17.2088    0.0000 </r>
       <r>   19.7548    0.0000 </r>
       <r>   20.3764    0.0000 </r>
       <r>   21.0474    0.0000 </r>
       <r>   23.0619    0.0000 </r>
       <r>   23.4215    0.0000 </r>
       <r>   24.4283    0.0000 </r>
       <r>   26.5474    0.0000 </r>
       <r>   28.1759    0.0000 </r>
       <r>   28.2143    0.0000 </r>
       <r>   28.9906    0.0000 </r>
       <r>   29.5096    0.0000 </r>
       <r>   31.3388    0.0000 </r>
       <r>   34.0288    0.0000 </r>
       <r>   34.3300    0.0000 </r>
       <r>   36.0061    0.0000 </r>
       <r>   37.9888    0.0000 </r>
       <r>   38.8827    0.0000 </r>
       <r>   39.4726    0.0000 </r>
       <r>   40.5580    0.0000 </r>
       <r>   41.2984    0.0000 </r>
       <r>   43.1447    0.0000 </r>
       <r>   43.9639    0.0000 </r>
       <r>   44.5342    0.0000 </r>
       <r>   44.5500    0.0000 </r>
      </set>
      <set comment="kpoint 33">
       <r>   -2.7581    1.0000 </r>
       <r>   -1.4721    1.0000 </r>
       <r>    1.7716    1.0000 </r>
       <r>    2.9860    1.0000 </r>
       <r>    6.5997    0.0000 </r>
       <r>    8.3788    0.0000 </r>
       <r>   13.2284    0.0000 </r>
       <r>   13.3239    0.0000 </r>
       <r>   15.0386    0.0000 </r>
       <r>   15.1699    0.0000 </r>
       <r>   18.5970    0.0000 </r>
       <r>   18.8199    0.0000 </r>
       <r>   20.5368    0.0000 </r>
       <r>   20.6098    0.0000 </r>
       <r>   21.1728    0.0000 </r>
       <r>   23.3679    0.0000 </r>
       <r>   24.6153    0.0000 </r>
       <r>   24.8348    0.0000 </r>
       <r>   25.9048    0.0000 </r>
       <r>   27.2797    0.0000 </r>
       <r>   27.8157    0.0000 </r>
       <r>   28.1927    0.0000 </r>
       <r>   29.0700    0.0000 </r>
       <r>   30.8696    0.0000 </r>
       <r>   34.1904    0.0000 </r>
       <r>   34.9507    0.0000 </r>
       <r>   36.0669    0.0000 </r>
       <r>   36.5881    0.0000 </r>
       <r>   38.4537    0.0000 </r>
       <r>   39.2570    0.0000 </r>
       <r>   40.0977    0.0000 </r>
       <r>   40.7572    0.0000 </r>
       <r>   41.8339    0.0000 </r>
       <r>   43.1363    0.0000 </r>
       <r>   44.1721    0.0000 </r>
       <r>   44.8239    0.0000 </r>
      </set>
      <set comment="kpoint 34">
       <r>   -2.7024    1.0000 </r>
       <r>   -1.4982    1.0000 </r>
       <r>    1.3085    1.0000 </r>
       <r>    3.2209    1.0000 </r>
       <r>    6.8678    0.0000 </r>
       <r>   10.0557    0.0000 </r>
       <r>   12.5688    0.0000 </r>
       <r>   13.0446    0.0000 </r>
       <r>   13.2814    0.0000 </r>
       <r>   13.7053    0.0000 </r>
       <r>   19.9670    0.0000 </r>
       <r>   20.3905    0.0000 </r>
       <r>   20.7128    0.0000 </r>
       <r>   20.9106    0.0000 </r>
       <r>   20.9883    0.0000 </r>
       <r>   22.5032    0.0000 </r>
       <r>   24.1203    0.0000 </r>
       <r>   25.1814    0.0000 </r>
       <r>   26.8930    0.0000 </r>
       <r>   27.1479    0.0000 </r>
       <r>   27.8123    0.0000 </r>
       <r>   28.1589    0.0000 </r>
       <r>   30.6708    0.0000 </r>
       <r>   31.3439    0.0000 </r>
       <r>   33.2710    0.0000 </r>
       <r>   34.2007    0.0000 </r>
       <r>   34.2040    0.0000 </r>
       <r>   35.6952    0.0000 </r>
       <r>   39.5431    0.0000 </r>
       <r>   39.5719    0.0000 </r>
       <r>   39.7915    0.0000 </r>
       <r>   40.2376    0.0000 </r>
       <r>   41.5630    0.0000 </r>
       <r>   42.5480    0.0000 </r>
       <r>   43.6185    0.0000 </r>
       <r>   44.5773    0.0000 </r>
      </set>
      <set comment="kpoint 35">
       <r>   -2.8407    1.0000 </r>
       <r>   -1.4830    1.0000 </r>
       <r>    2.7676    1.0000 </r>
       <r>    2.7676    1.0000 </r>
       <r>    6.1905    0.0032 </r>
       <r>    6.5179    0.0000 </r>
       <r>   14.7967    0.0000 </r>
       <r>   14.7967    0.0000 </r>
       <r>   16.8431    0.0000 </r>
       <r>   16.8431    0.0000 </r>
       <r>   17.0957    0.0000 </r>
       <r>   17.3561    0.0000 </r>
       <r>   18.7122    0.0000 </r>
       <r>   18.7825    0.0000 </r>
       <r>   23.1047    0.0000 </r>
       <r>   23.8744    0.0000 </r>
       <r>   23.8744    0.0000 </r>
       <r>   24.3559    0.0000 </r>
       <r>   26.4882    0.0000 </r>
       <r>   26.5638    0.0000 </r>
       <r>   26.5638    0.0000 </r>
       <r>   27.6442    0.0000 </r>
       <r>   29.8842    0.0000 </r>
       <r>   31.0542    0.0000 </r>
       <r>   34.1919    0.0000 </r>
       <r>   34.1920    0.0000 </r>
       <r>   37.4226    0.0000 </r>
       <r>   39.0583    0.0000 </r>
       <r>   39.0584    0.0000 </r>
       <r>   40.1152    0.0000 </r>
       <r>   40.5274    0.0000 </r>
       <r>   40.7220    0.0000 </r>
       <r>   43.1193    0.0000 </r>
       <r>   43.7571    0.0000 </r>
       <r>   44.3675    0.0000 </r>
       <r>   44.3676    0.0000 </r>
      </set>
      <set comment="kpoint 36">
       <r>   -2.2181    1.0000 </r>
       <r>   -2.1063    1.0000 </r>
       <r>    2.3520    1.0000 </r>
       <r>    2.7917    1.0000 </r>
       <r>    6.3710    0.0000 </r>
       <r>    6.9302    0.0000 </r>
       <r>   14.7412    0.0000 </r>
       <r>   14.9519    0.0000 </r>
       <r>   15.4658    0.0000 </r>
       <r>   15.6806    0.0000 </r>
       <r>   18.4896    0.0000 </r>
       <r>   18.5044    0.0000 </r>
       <r>   18.5386    0.0000 </r>
       <r>   19.0661    0.0000 </r>
       <r>   23.1356    0.0000 </r>
       <r>   23.4698    0.0000 </r>
       <r>   24.8859    0.0000 </r>
       <r>   25.2164    0.0000 </r>
       <r>   25.5225    0.0000 </r>
       <r>   26.2272    0.0000 </r>
       <r>   26.7392    0.0000 </r>
       <r>   27.3725    0.0000 </r>
       <r>   29.4999    0.0000 </r>
       <r>   30.2960    0.0000 </r>
       <r>   34.2567    0.0000 </r>
       <r>   35.1865    0.0000 </r>
       <r>   37.0713    0.0000 </r>
       <r>   38.7342    0.0000 </r>
       <r>   39.0986    0.0000 </r>
       <r>   39.2937    0.0000 </r>
       <r>   40.4178    0.0000 </r>
       <r>   40.4803    0.0000 </r>
       <r>   42.9291    0.0000 </r>
       <r>   43.4003    0.0000 </r>
       <r>   43.8104    0.0000 </r>
       <r>   43.9336    0.0000 </r>
      </set>
      <set comment="kpoint 37">
       <r>   -5.5008    1.0000 </r>
       <r>    2.4879    1.0000 </r>
       <r>    3.7229    1.0000 </r>
       <r>    4.6730    1.0000 </r>
       <r>    7.8477    0.0000 </r>
       <r>    9.0189    0.0000 </r>
       <r>    9.8094    0.0000 </r>
       <r>   10.2571    0.0000 </r>
       <r>   12.3978    0.0000 </r>
       <r>   13.8307    0.0000 </r>
       <r>   15.5659    0.0000 </r>
       <r>   16.9158    0.0000 </r>
       <r>   18.0423    0.0000 </r>
       <r>   19.9167    0.0000 </r>
       <r>   22.3030    0.0000 </r>
       <r>   23.9478    0.0000 </r>
       <r>   24.7902    0.0000 </r>
       <r>   25.9291    0.0000 </r>
       <r>   27.4062    0.0000 </r>
       <r>   27.5316    0.0000 </r>
       <r>   30.7194    0.0000 </r>
       <r>   32.4057    0.0000 </r>
       <r>   33.4580    0.0000 </r>
       <r>   34.7260    0.0000 </r>
       <r>   35.8848    0.0000 </r>
       <r>   36.4852    0.0000 </r>
       <r>   37.7184    0.0000 </r>
       <r>   38.1086    0.0000 </r>
       <r>   38.2209    0.0000 </r>
       <r>   39.0943    0.0000 </r>
       <r>   40.1477    0.0000 </r>
       <r>   40.6068    0.0000 </r>
       <r>   43.0521    0.0000 </r>
       <r>   43.6549    0.0000 </r>
       <r>   44.4246    0.0000 </r>
       <r>   45.2564    0.0000 </r>
      </set>
      <set comment="kpoint 38">
       <r>   -5.0045    1.0000 </r>
       <r>    1.2112    1.0000 </r>
       <r>    3.1744    1.0000 </r>
       <r>    4.3691    1.0000 </r>
       <r>    8.1395    0.0000 </r>
       <r>    8.9977    0.0000 </r>
       <r>   10.1562    0.0000 </r>
       <r>   10.3619    0.0000 </r>
       <r>   12.9528    0.0000 </r>
       <r>   15.1697    0.0000 </r>
       <r>   15.7543    0.0000 </r>
       <r>   17.6352    0.0000 </r>
       <r>   19.1594    0.0000 </r>
       <r>   20.5847    0.0000 </r>
       <r>   21.2322    0.0000 </r>
       <r>   23.1841    0.0000 </r>
       <r>   24.5578    0.0000 </r>
       <r>   26.0175    0.0000 </r>
       <r>   27.1006    0.0000 </r>
       <r>   28.0369    0.0000 </r>
       <r>   30.4927    0.0000 </r>
       <r>   31.2869    0.0000 </r>
       <r>   32.8968    0.0000 </r>
       <r>   34.0625    0.0000 </r>
       <r>   34.9677    0.0000 </r>
       <r>   35.7604    0.0000 </r>
       <r>   36.5445    0.0000 </r>
       <r>   37.6353    0.0000 </r>
       <r>   37.7788    0.0000 </r>
       <r>   38.8613    0.0000 </r>
       <r>   39.6179    0.0000 </r>
       <r>   41.1922    0.0000 </r>
       <r>   41.9673    0.0000 </r>
       <r>   43.4387    0.0000 </r>
       <r>   43.9231    0.0000 </r>
       <r>   44.9783    0.0000 </r>
      </set>
      <set comment="kpoint 39">
       <r>   -4.3694    1.0000 </r>
       <r>   -0.0843    1.0000 </r>
       <r>    2.9177    1.0000 </r>
       <r>    4.0417    1.0000 </r>
       <r>    8.1529    0.0000 </r>
       <r>    8.8458    0.0000 </r>
       <r>   10.2434    0.0000 </r>
       <r>   11.1868    0.0000 </r>
       <r>   14.0181    0.0000 </r>
       <r>   15.2098    0.0000 </r>
       <r>   16.8762    0.0000 </r>
       <r>   17.2609    0.0000 </r>
       <r>   19.4268    0.0000 </r>
       <r>   20.5427    0.0000 </r>
       <r>   22.0809    0.0000 </r>
       <r>   22.9462    0.0000 </r>
       <r>   24.5008    0.0000 </r>
       <r>   26.4698    0.0000 </r>
       <r>   27.5544    0.0000 </r>
       <r>   28.6782    0.0000 </r>
       <r>   29.5871    0.0000 </r>
       <r>   29.8953    0.0000 </r>
       <r>   32.1964    0.0000 </r>
       <r>   32.7022    0.0000 </r>
       <r>   34.2840    0.0000 </r>
       <r>   34.5041    0.0000 </r>
       <r>   35.7774    0.0000 </r>
       <r>   36.6121    0.0000 </r>
       <r>   37.2200    0.0000 </r>
       <r>   38.8177    0.0000 </r>
       <r>   39.1614    0.0000 </r>
       <r>   40.7489    0.0000 </r>
       <r>   41.2857    0.0000 </r>
       <r>   43.2402    0.0000 </r>
       <r>   43.9307    0.0000 </r>
       <r>   44.8026    0.0000 </r>
      </set>
      <set comment="kpoint 40">
       <r>   -3.7813    1.0000 </r>
       <r>   -1.0268    1.0000 </r>
       <r>    2.8166    1.0000 </r>
       <r>    3.8415    1.0000 </r>
       <r>    8.1136    0.0000 </r>
       <r>    8.6719    0.0000 </r>
       <r>   10.1841    0.0000 </r>
       <r>   12.6130    0.0000 </r>
       <r>   14.1301    0.0000 </r>
       <r>   15.2581    0.0000 </r>
       <r>   16.5035    0.0000 </r>
       <r>   17.8348    0.0000 </r>
       <r>   18.7050    0.0000 </r>
       <r>   20.4860    0.0000 </r>
       <r>   22.9131    0.0000 </r>
       <r>   24.7149    0.0000 </r>
       <r>   25.3278    0.0000 </r>
[...]
        <r>  0.0099  0.0304  0.0381  0.0027  0.0000  0.0000  0.0000  0.0000  0.0000 </r>
       </set>
       <set comment="band 24">
        <r>  0.0114  0.0001  0.0029  0.0018  0.0000  0.0000  0.0000  0.0000  0.0000 </r>
        <r>  0.0114  0.0001  0.0029  0.0018  0.0000  0.0000  0.0000  0.0000  0.0000 </r>
       </set>
       <set comment="band 25">
        <r>  0.0360  0.0020  0.0218  0.0031  0.0000  0.0000  0.0000  0.0000  0.0000 </r>
        <r>  0.0360  0.0020  0.0218  0.0031  0.0000  0.0000  0.0000  0.0000  0.0000 </r>
       </set>
       <set comment="band 26">
        <r>  0.0047  0.0025  0.0018  0.0160  0.0000  0.0000  0.0000  0.0000  0.0000 </r>
        <r>  0.0047  0.0025  0.0018  0.0160  0.0000  0.0000  0.0000  0.0000  0.0000 </r>
       </set>
       <set comment="band 27">
        <r>  0.0035  0.0038  0.0022  0.0042  0.0000  0.0000  0.0000  0.0000  0.0000 </r>
        <r>  0.0035  0.0038  0.0022  0.0042  0.0000  0.0000  0.0000  0.0000  0.0000 </r>
       </set>
       <set comment="band 28">
        <r>  0.0039  0.0057  0.0130  0.0025  0.0000  0.0000  0.0000  0.0000  0.0000 </r>
        <r>  0.0039  0.0057  0.0130  0.0025  0.0000  0.0000  0.0000  0.0000  0.0000 </r>
       </set>
       <set comment="band 29">
        <r>  0.0224  0.0168  0.0081  0.0046  0.0000  0.0000  0.0000  0.0000  0.0000 </r>
        <r>  0.0224  0.0168  0.0081  0.0046  0.0000  0.0000  0.0000  0.0000  0.0000 </r>
       </set>
       <set comment="band 30">
        <r>  0.0102  0.0136  0.0160  0.0044  0.0000  0.0000  0.0000  0.0000  0.0000 </r>
        <r>  0.0102  0.0136  0.0160  0.0044  0.0000  0.0000  0.0000  0.0000  0.0000 </r>
       </set>
       <set comment="band 31">
        <r>  0.0138  0.0020  0.0086  0.0045  0.0000  0.0000  0.0000  0.0000  0.0000 </r>
        <r>  0.0138  0.0020  0.0086  0.0045  0.0000  0.0000  0.0000  0.0000  0.0000 </r>
       </set>
       <set comment="band 32">
        <r>  0.0052  0.0261  0.0070  0.0064  0.0000  0.0000  0.0000  0.0000  0.0000 </r>
        <r>  0.0052  0.0261  0.0070  0.0064  0.0000  0.0000  0.0000  0.0000  0.0000 </r>
       </set>
       <set comment="band 33">
        <r>  0.0010  0.0037  0.0134  0.0152  0.0000  0.0000  0.0000  0.0000  0.0000 </r>
        <r>  0.0010  0.0037  0.0134  0.0152  0.0000  0.0000  0.0000  0.0000  0.0000 </r>
       </set>
       <set comment="band 34">
        <r>  0.0030  0.0038  0.0177  0.0068  0.0000  0.0000  0.0000  0.0000  0.0000 </r>
        <r>  0.0030  0.0038  0.0177  0.0068  0.0000  0.0000  0.0000  0.0000  0.0000 </r>
       </set>
       <set comment="band 35">
        <r>  0.0011  0.0154  0.0065  0.0029  0.0000  0.0000  0.0000  0.0000  0.0000 </r>
        <r>  0.0011  0.0154  0.0065  0.0029  0.0000  0.0000  0.0000  0.0000  0.0000 </r>
       </set>
       <set comment="band 36">
        <r>  0.0020  0.0016  0.0043  0.0000  0.0000  0.0000  0.0000  0.0000  0.0000 </r>
        <r>  0.0020  0.0016  0.0043  0.0000  0.0000  0.0000  0.0000  0.0000  0.0000 </r>
       </set>
      </set>
      <set comment="kpoint 55">
       <set comment="band 1">
        <r>  0.1996  0.0089  0.0038  0.0216  0.0000  0.0000  0.0000  0.0000  0.0000 </r>
        <r>  0.1996  0.0089  0.0038  0.0216  0.0000  0.0000  0.0000  0.0000  0.0000 </r>
       </set>
       <set comment="band 2">
        <r>  0.1923  0.0136  0.0074  0.0264  0.0000  0.0000  0.0000  0.0000  0.0000 </r>
        <r>  0.1923  0.0136  0.0074  0.0264  0.0000  0.0000  0.0000  0.0000  0.0000 </r>
       </set>
       <set comment="band 3">
        <r>  0.0035  0.0254  0.0660  0.0658  0.0000  0.0000  0.0000  0.0000  0.0000 </r>
        <r>  0.0035  0.0254  0.0660  0.0658  0.0000  0.0000  0.0000  0.0000  0.0000 </r>
       </set>
       <set comment="band 4">
        <r>  0.0000  0.0886  0.0652  0.0103  0.0000  0.0000  0.0000  0.0000  0.0000 </r>
        <r>  0.0000  0.0886  0.0652  0.0103  0.0000  0.0000  0.0000  0.0000  0.0000 </r>
       </set>
       <set comment="band 5">
        <r>  0.0304  0.0484  0.0295  0.0061  0.0000  0.0000  0.0000  0.0000  0.0000 </r>
        <r>  0.0304  0.0484  0.0295  0.0061  0.0000  0.0000  0.0000  0.0000  0.0000 </r>
       </set>
       <set comment="band 6">
        <r>  0.0296  0.0064  0.0274  0.0392  0.0000  0.0000  0.0000  0.0000  0.0000 </r>
        <r>  0.0296  0.0064  0.0274  0.0392  0.0000  0.0000  0.0000  0.0000  0.0000 </r>
       </set>
       <set comment="band 7">
        <r>  0.0364  0.0587  0.0382  0.0093  0.0000  0.0000  0.0000  0.0000  0.0000 </r>
        <r>  0.0364  0.0587  0.0382  0.0093  0.0000  0.0000  0.0000  0.0000  0.0000 </r>
       </set>
       <set comment="band 8">
        <r>  0.0240  0.0105  0.0388  0.0653  0.0000  0.0000  0.0000  0.0000  0.0000 </r>
        <r>  0.0240  0.0105  0.0388  0.0653  0.0000  0.0000  0.0000  0.0000  0.0000 </r>
       </set>
       <set comment="band 9">
        <r>  0.0005  0.0649  0.0556  0.0142  0.0000  0.0000  0.0000  0.0000  0.0000 </r>
        <r>  0.0005  0.0649  0.0556  0.0142  0.0000  0.0000  0.0000  0.0000  0.0000 </r>
       </set>
       <set comment="band 10">
        <r>  0.0112  0.0087  0.0226  0.0832  0.0000  0.0000  0.0000  0.0000  0.0000 </r>
        <r>  0.0112  0.0087  0.0226  0.0832  0.0000  0.0000  0.0000  0.0000  0.0000 </r>
       </set>
       <set comment="band 11">
        <r>  0.0203  0.0413  0.0408  0.0172  0.0000  0.0000  0.0000  0.0000  0.0000 </r>
        <r>  0.0203  0.0413  0.0408  0.0172  0.0000  0.0000  0.0000  0.0000  0.0000 </r>
       </set>
       <set comment="band 12">
        <r>  0.0138  0.0432  0.0087  0.0600  0.0000  0.0000  0.0000  0.0000  0.0000 </r>
        <r>  0.0138  0.0432  0.0087  0.0600  0.0000  0.0000  0.0000  0.0000  0.0000 </r>
       </set>
       <set comment="band 13">
        <r>  0.0081  0.0105  0.0202  0.0351  0.0000  0.0000  0.0000  0.0000  0.0000 </r>
        <r>  0.0081  0.0105  0.0202  0.0351  0.0000  0.0000  0.0000  0.0000  0.0000 </r>
       </set>
       <set comment="band 14">
        <r>  0.0077  0.0016  0.0116  0.0572  0.0000  0.0000  0.0000  0.0000  0.0000 </r>
        <r>  0.0077  0.0016  0.0116  0.0572  0.0000  0.0000  0.0000  0.0000  0.0000 </r>
       </set>
       <set comment="band 15">
        <r>  0.0179  0.0151  0.0052  0.0061  0.0000  0.0000  0.0000  0.0000  0.0000 </r>
        <r>  0.0179  0.0151  0.0052  0.0061  0.0000  0.0000  0.0000  0.0000  0.0000 </r>
       </set>
       <set comment="band 16">
        <r>  0.0253  0.0313  0.0140  0.0173  0.0000  0.0000  0.0000  0.0000  0.0000 </r>
        <r>  0.0253  0.0313  0.0140  0.0173  0.0000  0.0000  0.0000  0.0000  0.0000 </r>
       </set>
       <set comment="band 17">
        <r>  0.0021  0.0216  0.0092  0.0060  0.0000  0.0000  0.0000  0.0000  0.0000 </r>
        <r>  0.0021  0.0216  0.0092  0.0060  0.0000  0.0000  0.0000  0.0000  0.0000 </r>
       </set>
       <set comment="band 18">
        <r>  0.0334  0.0023  0.0032  0.0135  0.0000  0.0000  0.0000  0.0000  0.0000 </r>
        <r>  0.0334  0.0023  0.0032  0.0135  0.0000  0.0000  0.0000  0.0000  0.0000 </r>
       </set>
       <set comment="band 19">
        <r>  0.0051  0.0167  0.0290  0.0171  0.0000  0.0000  0.0000  0.0000  0.0000 </r>
        <r>  0.0051  0.0167  0.0290  0.0171  0.0000  0.0000  0.0000  0.0000  0.0000 </r>
       </set>
       <set comment="band 20">
        <r>  0.0002  0.0304  0.0436  0.0132  0.0000  0.0000  0.0000  0.0000  0.0000 </r>
        <r>  0.0002  0.0304  0.0436  0.0132  0.0000  0.0000  0.0000  0.0000  0.0000 </r>
       </set>
       <set comment="band 21">
        <r>  0.0264  0.0063  0.0166  0.0144  0.0000  0.0000  0.0000  0.0000  0.0000 </r>
        <r>  0.0264  0.0063  0.0166  0.0144  0.0000  0.0000  0.0000  0.0000  0.0000 </r>
       </set>
       <set comment="band 22">
        <r>  0.0001  0.0025  0.0020  0.0000  0.0000  0.0000  0.0000  0.0000  0.0000 </r>
        <r>  0.0001  0.0025  0.0020  0.0000  0.0000  0.0000  0.0000  0.0000  0.0000 </r>
       </set>
       <set comment="band 23">
        <r>  0.0047  0.0424  0.0313  0.0005  0.0000  0.0000  0.0000  0.0000  0.0000 </r>
        <r>  0.0047  0.0424  0.0313  0.0005  0.0000  0.0000  0.0000  0.0000  0.0000 </r>
       </set>
       <set comment="band 24">
        <r>  0.0008  0.0014  0.0048  0.0057  0.0000  0.0000  0.0000  0.0000  0.0000 </r>
        <r>  0.0008  0.0014  0.0048  0.0057  0.0000  0.0000  0.0000  0.0000  0.0000 </r>
       </set>
       <set comment="band 25">
        <r>  0.0368  0.0055  0.0044  0.0003  0.0000  0.0000  0.0000  0.0000  0.0000 </r>
        <r>  0.0368  0.0055  0.0044  0.0003  0.0000  0.0000  0.0000  0.0000  0.0000 </r>
       </set>
       <set comment="band 26">
        <r>  0.0008  0.0059  0.0065  0.0012  0.0000  0.0000  0.0000  0.0000  0.0000 </r>
        <r>  0.0008  0.0059  0.0065  0.0012  0.0000  0.0000  0.0000  0.0000  0.0000 </r>
       </set>
       <set comment="band 27">
        <r>  0.0433  0.0009  0.0053  0.0164  0.0000  0.0000  0.0000  0.0000  0.0000 </r>
        <r>  0.0433  0.0009  0.0053  0.0164  0.0000  0.0000  0.0000  0.0000  0.0000 </r>
       </set>
       <set comment="band 28">
        <r>  0.0094  0.0054  0.0124  0.0081  0.0000  0.0000  0.0000  0.0000  0.0000 </r>
        <r>  0.0094  0.0054  0.0124  0.0081  0.0000  0.0000  0.0000  0.0000  0.0000 </r>
       </set>
       <set comment="band 29">
        <r>  0.0006  0.0109  0.0107  0.0026  0.0000  0.0000  0.0000  0.0000  0.0000 </r>
        <r>  0.0006  0.0109  0.0107  0.0026  0.0000  0.0000  0.0000  0.0000  0.0000 </r>
       </set>
       <set comment="band 30">
        <r>  0.0032  0.0118  0.0123  0.0022  0.0000  0.0000  0.0000  0.0000  0.0000 </r>
        <r>  0.0032  0.0118  0.0123  0.0022  0.0000  0.0000  0.0000  0.0000  0.0000 </r>
       </set>
       <set comment="band 31">
        <r>  0.0100  0.0041  0.0042  0.0086  0.0000  0.0000  0.0000  0.0000  0.0000 </r>
        <r>  0.0100  0.0041  0.0042  0.0086  0.0000  0.0000  0.0000  0.0000  0.0000 </r>
       </set>
       <set comment="band 32">
        <r>  0.0001  0.0105  0.0159  0.0195  0.0000  0.0000  0.0000  0.0000  0.0000 </r>
        <r>  0.0001  0.0105  0.0159  0.0195  0.0000  0.0000  0.0000  0.0000  0.0000 </r>
       </set>
       <set comment="band 33">
        <r>  0.0008  0.0166  0.0181  0.0075  0.0000  0.0000  0.0000  0.0000  0.0000 </r>
        <r>  0.0008  0.0166  0.0181  0.0075  0.0000  0.0000  0.0000  0.0000  0.0000 </r>
       </set>
       <set comment="band 34">
        <r>  0.0004  0.0081  0.0021  0.0063  0.0000  0.0000  0.0000  0.0000  0.0000 </r>
        <r>  0.0004  0.0081  0.0021  0.0063  0.0000  0.0000  0.0000  0.0000  0.0000 </r>
       </set>
       <set comment="band 35">
        <r>  0.0000  0.0181  0.0130  0.0017  0.0000  0.0000  0.0000  0.0000  0.0000 </r>
        <r>  0.0000  0.0181  0.0130  0.0017  0.0000  0.0000  0.0000  0.0000  0.0000 </r>
       </set>
       <set comment="band 36">
        <r>  0.0028  0.0012  0.0035  0.0129  0.0000  0.0000  0.0000  0.0000  0.0000 </r>
        <r>  0.0028  0.0012  0.0035  0.0129  0.0000  0.0000  0.0000  0.0000  0.0000 </r>
       </set>
      </set>
      <set comment="kpoint 56">
       <set comment="band 1">
        <r>  0.2038  0.0134  0.0052  0.0155  0.0000  0.0000  0.0000  0.0000  0.0000 </r>
        <r>  0.2038  0.0134  0.0052  0.0155  0.0000  0.0000  0.0000  0.0000  0.0000 </r>
       </set>
       <set comment="band 2">
        <r>  0.1915  0.0180  0.0049  0.0234  0.0000  0.0000  0.0000  0.0000  0.0000 </r>
        <r>  0.1915  0.0180  0.0049  0.0234  0.0000  0.0000  0.0000  0.0000  0.0000 </r>
       </set>
       <set comment="band 3">
        <r>  0.0003  0.0858  0.0008  0.0669  0.0000  0.0000  0.0000  0.0000  0.0000 </r>
        <r>  0.0003  0.0858  0.0008  0.0669  0.0000  0.0000  0.0000  0.0000  0.0000 </r>
       </set>
       <set comment="band 4">
        <r>  0.0014  0.0103  0.1331  0.0200  0.0000  0.0000  0.0000  0.0000  0.0000 </r>
        <r>  0.0014  0.0103  0.1331  0.0200  0.0000  0.0000  0.0000  0.0000  0.0000 </r>
       </set>
       <set comment="band 5">
        <r>  0.0272  0.0102  0.0554  0.0157  0.0000  0.0000  0.0000  0.0000  0.0000 </r>
        <r>  0.0272  0.0102  0.0554  0.0157  0.0000  0.0000  0.0000  0.0000  0.0000 </r>
       </set>
       <set comment="band 6">
        <r>  0.0015  0.0363  0.0291  0.0183  0.0000  0.0000  0.0000  0.0000  0.0000 </r>
        <r>  0.0015  0.0363  0.0291  0.0183  0.0000  0.0000  0.0000  0.0000  0.0000 </r>
       </set>
       <set comment="band 7">
        <r>  0.0516  0.0299  0.0441  0.0412  0.0000  0.0000  0.0000  0.0000  0.0000 </r>
        <r>  0.0516  0.0299  0.0441  0.0412  0.0000  0.0000  0.0000  0.0000  0.0000 </r>
       </set>
       <set comment="band 8">
        <r>  0.0406  0.0526  0.0001  0.0430  0.0000  0.0000  0.0000  0.0000  0.0000 </r>
        <r>  0.0406  0.0526  0.0001  0.0430  0.0000  0.0000  0.0000  0.0000  0.0000 </r>
       </set>
       <set comment="band 9">
        <r>  0.0031  0.0211  0.0751  0.0421  0.0000  0.0000  0.0000  0.0000  0.0000 </r>
        <r>  0.0031  0.0211  0.0751  0.0421  0.0000  0.0000  0.0000  0.0000  0.0000 </r>
       </set>
       <set comment="band 10">
        <r>  0.0097  0.0680  0.0072  0.0351  0.0000  0.0000  0.0000  0.0000  0.0000 </r>
        <r>  0.0097  0.0680  0.0072  0.0351  0.0000  0.0000  0.0000  0.0000  0.0000 </r>
       </set>
       <set comment="band 11">
        <r>  0.0185  0.0341  0.0118  0.0669  0.0000  0.0000  0.0000  0.0000  0.0000 </r>
        <r>  0.0185  0.0341  0.0118  0.0669  0.0000  0.0000  0.0000  0.0000  0.0000 </r>
       </set>
       <set comment="band 12">
        <r>  0.0157  0.0290  0.0493  0.0317  0.0000  0.0000  0.0000  0.0000  0.0000 </r>
        <r>  0.0157  0.0290  0.0493  0.0317  0.0000  0.0000  0.0000  0.0000  0.0000 </r>
       </set>
       <set comment="band 13">
        <r>  0.0039  0.0167  0.0014  0.0157  0.0000  0.0000  0.0000  0.0000  0.0000 </r>
        <r>  0.0039  0.0167  0.0014  0.0157  0.0000  0.0000  0.0000  0.0000  0.0000 </r>
       </set>
       <set comment="band 14">
        <r>  0.0168  0.0044  0.0037  0.0024  0.0000  0.0000  0.0000  0.0000  0.0000 </r>
        <r>  0.0168  0.0044  0.0037  0.0024  0.0000  0.0000  0.0000  0.0000  0.0000 </r>
       </set>
       <set comment="band 15">
        <r>  0.0020  0.0667  0.0000  0.0607  0.0000  0.0000  0.0000  0.0000  0.0000 </r>
        <r>  0.0020  0.0667  0.0000  0.0607  0.0000  0.0000  0.0000  0.0000  0.0000 </r>
       </set>
       <set comment="band 16">
        <r>  0.0064  0.0212  0.0177  0.0401  0.0000  0.0000  0.0000  0.0000  0.0000 </r>
        <r>  0.0064  0.0212  0.0177  0.0401  0.0000  0.0000  0.0000  0.0000  0.0000 </r>
       </set>
       <set comment="band 17">
        <r>  0.0265  0.0083  0.0319  0.0127  0.0000  0.0000  0.0000  0.0000  0.0000 </r>
        <r>  0.0265  0.0083  0.0319  0.0127  0.0000  0.0000  0.0000  0.0000  0.0000 </r>
       </set>
       <set comment="band 18">
        <r>  0.0107  0.0234  0.0029  0.0142  0.0000  0.0000  0.0000  0.0000  0.0000 </r>
        <r>  0.0107  0.0234  0.0029  0.0142  0.0000  0.0000  0.0000  0.0000  0.0000 </r>
       </set>
       <set comment="band 19">
        <r>  0.0358  0.0032  0.0090  0.0047  0.0000  0.0000  0.0000  0.0000  0.0000 </r>
        <r>  0.0358  0.0032  0.0090  0.0047  0.0000  0.0000  0.0000  0.0000  0.0000 </r>
       </set>
       <set comment="band 20">
        <r>  0.0047  0.0077  0.0389  0.0042  0.0000  0.0000  0.0000  0.0000  0.0000 </r>
        <r>  0.0047  0.0077  0.0389  0.0042  0.0000  0.0000  0.0000  0.0000  0.0000 </r>
       </set>
       <set comment="band 21">
        <r>  0.0002  0.0253  0.0205  0.0153  0.0000  0.0000  0.0000  0.0000  0.0000 </r>
        <r>  0.0002  0.0253  0.0205  0.0153  0.0000  0.0000  0.0000  0.0000  0.0000 </r>
       </set>
       <set comment="band 22">
        <r>  0.0066  0.0136  0.0395  0.0088  0.0000  0.0000  0.0000  0.0000  0.0000 </r>
        <r>  0.0066  0.0136  0.0395  0.0088  0.0000  0.0000  0.0000  0.0000  0.0000 </r>
       </set>
       <set comment="band 23">
        <r>  0.0012  0.0006  0.0033  0.0011  0.0000  0.0000  0.0000  0.0000  0.0000 </r>
        <r>  0.0012  0.0006  0.0033  0.0011  0.0000  0.0000  0.0000  0.0000  0.0000 </r>
       </set>
       <set comment="band 24">
        <r>  0.0009  0.0132  0.0026  0.0074  0.0000  0.0000  0.0000  0.0000  0.0000 </r>
        <r>  0.0009  0.0132  0.0026  0.0074  0.0000  0.0000  0.0000  0.0000  0.0000 </r>
       </set>
       <set comment="band 25">
        <r>  0.0000  0.0030  0.0165  0.0035  0.0000  0.0000  0.0000  0.0000  0.0000 </r>
        <r>  0.0000  0.0030  0.0165  0.0035  0.0000  0.0000  0.0000  0.0000  0.0000 </r>
       </set>
       <set comment="band 26">
        <r>  0.0621  0.0027  0.0000  0.0054  0.0000  0.0000  0.0000  0.0000  0.0000 </r>
        <r>  0.0621  0.0027  0.0000  0.0054  0.0000  0.0000  0.0000  0.0000  0.0000 </r>
       </set>
       <set comment="band 27">
        <r>  0.0017  0.0067  0.0005  0.0044  0.0000  0.0000  0.0000  0.0000  0.0000 </r>
        <r>  0.0017  0.0067  0.0005  0.0044  0.0000  0.0000  0.0000  0.0000  0.0000 </r>
       </set>
       <set comment="band 28">
        <r>  0.0454  0.0020  0.0178  0.0029  0.0000  0.0000  0.0000  0.0000  0.0000 </r>
        <r>  0.0454  0.0020  0.0178  0.0029  0.0000  0.0000  0.0000  0.0000  0.0000 </r>
       </set>
       <set comment="band 29">
        <r>  0.0028  0.0026  0.0000  0.0028  0.0000  0.0000  0.0000  0.0000  0.0000 </r>
        <r>  0.0028  0.0026  0.0000  0.0028  0.0000  0.0000  0.0000  0.0000  0.0000 </r>
       </set>
       <set comment="band 30">
        <r>  0.0002  0.0000  0.0331  0.0000  0.0000  0.0000  0.0000  0.0000  0.0000 </r>
        <r>  0.0002  0.0000  0.0331  0.0000  0.0000  0.0000  0.0000  0.0000  0.0000 </r>
       </set>
       <set comment="band 31">
        <r>  0.0067  0.0159  0.0039  0.0115  0.0000  0.0000  0.0000  0.0000  0.0000 </r>
        <r>  0.0067  0.0159  0.0039  0.0115  0.0000  0.0000  0.0000  0.0000  0.0000 </r>
       </set>
       <set comment="band 32">
        <r>  0.0033  0.0109  0.0006  0.0166  0.0000  0.0000  0.0000  0.0000  0.0000 </r>
        <r>  0.0033  0.0109  0.0006  0.0166  0.0000  0.0000  0.0000  0.0000  0.0000 </r>
       </set>
       <set comment="band 33">
        <r>  0.0001  0.0145  0.0001  0.0195  0.0000  0.0000  0.0000  0.0000  0.0000 </r>
        <r>  0.0001  0.0145  0.0001  0.0195  0.0000  0.0000  0.0000  0.0000  0.0000 </r>
       </set>
       <set comment="band 34">
        <r>  0.0013  0.0060  0.0227  0.0057  0.0000  0.0000  0.0000  0.0000  0.0000 </r>
        <r>  0.0013  0.0060  0.0227  0.0057  0.0000  0.0000  0.0000  0.0000  0.0000 </r>
       </set>
       <set comment="band 35">
        <r>  0.0003  0.0054  0.0242  0.0084  0.0000  0.0000  0.0000  0.0000  0.0000 </r>
        <r>  0.0003  0.0054  0.0242  0.0084  0.0000  0.0000  0.0000  0.0000  0.0000 </r>
       </set>
       <set comment="band 36">
        <r>  0.0014  0.0028  0.0000  0.0045  0.0000  0.0000  0.0000  0.0000  0.0000 </r>
        <r>  0.0014  0.0028  0.0000  0.0045  0.0000  0.0000  0.0000  0.0000  0.0000 </r>
       </set>
      </set>
     </set>
    </set>
   </array>
  </projected>
 </calculation>
 <structure name="finalpos" >
  <crystal>
   <varray name="basis" >
    <v>       3.36415000       0.00000000       1.94229300 </v>
    <v>       1.12138300       3.17175200       1.94229300 </v>
    <v>       0.00000000       0.00000000       3.88458600 </v>
   </varray>
   <i name="volume">     41.44950179 </i>
   <varray name="rec_basis" >
    <v>       0.29725191      -0.10509436       0.00000000 </v>
    <v>       0.00000000       0.31528316       0.00000000 </v>
    <v>      -0.14862595      -0.10509440       0.25742769 </v>
   </varray>
  </crystal>
  <varray name="positions" >
   <v>       0.87500000       0.87500000       0.87500000 </v>
   <v>       0.12500000       0.12500000       0.12500000 </v>
  </varray>
 </structure>
</modeling>
