ITEM: TIMESTEP
0
ITEM: NUMBER OF ATOMS
256
ITEM: BOX BOUNDS xy xz yz pp pp pp
0 16.2 0
0 16.2 0
0 16.2 0
ITEM: ATOMS id fx fy fz 
1        -0.04854749009052737596         0.00000000034924662815        -0.00000000214706632855 
2        -0.00040831374032789837         0.00000000034925278988        -0.00000000214704059046 
3         0.00006563452375064546         0.00000000034930137255        -0.00000000214696860984 
4        -0.00032950969956438425         0.00000000034935094032        -0.00000000214689456642 
5         0.00003503112251539847         0.00000057719547704588        -0.00000000214696822083 
6         0.00006854270906699045         0.00016362143799694695        -0.00000000214697212439 
7         0.00001904690473851153         0.00000004200995785963        -0.00000000214697011384 
8         0.00007893849738947398        -0.00017325444738614925        -0.00000000214696661816 
9        -0.00000707148386880352         0.00000000034930489751        -0.00000000214696883514 
10         0.00000332330637899114         0.00000000034930831144        -0.00000000214696882668 
11         0.00000042718446161341         0.00000000034930482985        -0.00000000214696954659 
12         0.00000332665048503530         0.00000000034930140594        -0.00000000214697023636 
13         0.00003503112242345119        -0.00000057223661376754        -0.00000000214696786174 
14         0.00006854271004031603        -0.00016361648012269605        -0.00000000214697233603 
15         0.00001904690472580967        -0.00000003705110412011        -0.00000000214696959516 
16         0.00007893849833486011         0.00017325940719203252        -0.00000000214696631307 
17         0.00003503112263063962         0.00000000034930197016         0.00000057701918500241 
18         0.00006854270808236140         0.00000000034929876873         0.00016362126071259656 
19         0.00001904690474941947         0.00000000034930102560         0.00000004183365665336 
20         0.00007893849643128212         0.00000000034930407763        -0.00017325462273409939 
21        -0.00009053869248445978        -0.00000020941615781062        -0.00000020959245844963 
22         0.00000822168005597257         0.00001537282656561417         0.00001537265026044926 
23         0.00000708902752640309         0.00000002374870167188         0.00000002357240156889 
24         0.00000828126319296629        -0.00001535376411715699        -0.00001535394041285248 
25        -0.00000331298954676928         0.00000000034930493914         0.00000000086162624258 
26         0.00000165982631974287         0.00000000034930529649         0.00000189323666602292 
27         0.00000000034930478648         0.00000000034930473618         0.00000000230312823327 
28         0.00000165847138182927         0.00000000034930442111        -0.00000188217436901958 
29        -0.00009053869244463053         0.00000021437501268942        -0.00000020959245947139 
30         0.00000822168005248924        -0.00001536786771167732         0.00001537265025235851 
31         0.00000708902752518314        -0.00000001878984756806         0.00000002357240140236 
32         0.00000828126318861734         0.00001535872297274139        -0.00001535394040432306 
33        -0.00000707148387323053         0.00000000034930131769         0.00000000036616049776 
34         0.00000332330638116302         0.00000000034930219654         0.00000000036616937954 
35         0.00000042718446304282         0.00000000034930076540         0.00000000036616125756 
36         0.00000332665048623747         0.00000000034930035513         0.00000000036615214073 
37        -0.00000331298954904524         0.00000000103792742803         0.00000000036616079613 
38         0.00000165982632128331         0.00000189341296788492         0.00000000036616291943 
39         0.00000000034930497037         0.00000000247942875259         0.00000000036616106674 
40         0.00000165847138272439        -0.00000188199806972151         0.00000000036615869755 
41         0.00000000034930004722         0.00000000034930506404         0.00000000036616150043 
42         0.00000000247942850279         0.00000000034930498771         0.00000000036616102164 
43         0.00000000034930500159         0.00000000034930493047         0.00000000036616125756 
44         0.00000000247942487548         0.00000000034930491897         0.00000000036616115045 
45        -0.00000331298954893422         0.00000000392092556665         0.00000000036616097307 
46         0.00000165982632098494        -0.00000188845411391121         0.00000000036616271473 
47         0.00000000034930498966         0.00000000247942467729         0.00000000036616116302 
48         0.00000165847138234275         0.00000188695692377155         0.00000000036615917872 
49         0.00003503112245473172         0.00000000034930197341        -0.00000057240960916333 
50         0.00006854271002258716         0.00000000034929866118        -0.00016361665309394448 
51         0.00001904690472508130         0.00000000034930121642        -0.00000003722409965684 
52         0.00007893849831560988         0.00000000034930426802         0.00017325923417248396 
53        -0.00009053869240542578        -0.00000020941615901104         0.00000021420201862243 
54         0.00000822168005015778         0.00001537282655123332        -0.00001536804069633387 
55         0.00000708902752401958         0.00000002374870161637        -0.00000001896284249634 
56         0.00000828126318521555        -0.00001535376410079681         0.00001535854996731890 
57        -0.00000331298954567294         0.00000000034930535200         0.00000000374793073768 
58         0.00000165982631933348         0.00000000034930508486        -0.00000188862710646725 
59         0.00000000034930503151         0.00000000034930505038         0.00000000230642959766 
60         0.00000165847138076415         0.00000000034930464662         0.00000188678392711744 
61        -0.00009053869236555490         0.00000021437501325147         0.00000021420201924693 
62         0.00000822168004653567        -0.00001536786769766379        -0.00001536804068819194 
63         0.00000708902752307263        -0.00000001878984838988        -0.00000001896284291788 
64         0.00000828126318084058         0.00001535872295596401         0.00001535854995807543 
65        -0.00023744219180334147        -0.00001801830057528153        -0.00001801580428181099 
66        -0.00087248778526592685        -0.00045237233978643807        -0.00045236984326515496 
67         0.00003668008175897880         0.00000001125578841243         0.00000001375207312262 
68        -0.00088659836242901621         0.00045714939500734824         0.00045715189105472874 
69        -0.00001993429208312081        -0.00000029350852244481        -0.00000010112550713265 
70         0.00000576968635586372         0.00001803010838142063         0.00000427840289862736 
71         0.00000241830457122470         0.00000001343360462105         0.00000000695240107021 
72         0.00000580676370502166        -0.00001797356376869808        -0.00000428015292364679 
73        -0.00001993429207838154         0.00000029067978877736        -0.00000010112550693359 
74         0.00000576968635485064        -0.00001803293711764159         0.00000427840289692061 
75         0.00000241830457008846        -0.00000001626233759114         0.00000000695240105764 
76         0.00000580676370335979         0.00001797073503607732        -0.00000428015292195955 
77        -0.00023744219178967879         0.00001801547184757807        -0.00001801580428245630 
78        -0.00087248778529831761         0.00045236951108945656        -0.00045236984328238597 
79         0.00003668008176449869        -0.00000001408451759388         0.00000001375207328569 
80        -0.00088659836246211474        -0.00045715222376754394         0.00045715189107284207 
81        -0.00001993429211705200        -0.00000010362179077641        -0.00000029333551473595 
82         0.00000576968635608577         0.00000427590661723071         0.00001803028138869928 
83         0.00000241830457449119         0.00000000445611762767         0.00000001360661337074 
84         0.00000580676370507890        -0.00000428264920992669        -0.00001797339075867814 
85        -0.00000327726214358753        -0.00000000066659945966        -0.00000000049359107773 
86         0.00000164141589246991         0.00000305908484185893         0.00000305925784933186 
87         0.00000000034930498619        -0.00000000034930696356        -0.00000000017629835309 
88         0.00000164115440563946        -0.00000305215504268217        -0.00000305198203324098 
89        -0.00000327726214338631        -0.00000000216213287552        -0.00000000049359108467 
90         0.00000164141589283073        -0.00000306191357486371         0.00000305925784931452 
91         0.00000000034930500679        -0.00000000247942485987        -0.00000000017629847235 
92         0.00000164115440598987         0.00000304932631044370        -0.00000305198203285196 
93        -0.00001993429211682302         0.00000010079306308054        -0.00000029333551433697 
94         0.00000576968635413941        -0.00000427873534543377         0.00001803028139146789 
95         0.00000241830457431771        -0.00000000728484553930         0.00000001360661311053 
96         0.00000580676370245253         0.00000427982048177610        -0.00001797339076053104 
97        -0.00001993429206062491        -0.00000010362179038784         0.00000029066293017951 
98         0.00000576968635453146         0.00000427590661398330        -0.00001803295397230509 
99         0.00000241830457148318         0.00000000445611718358        -0.00000001627919459998 
100         0.00000580676370204661        -0.00000428264920765095         0.00001797071817480431 
101        -0.00000327726214175567        -0.00000000066659898088        -0.00000000217899055396 
102         0.00000164141589200500         0.00000305908484056136        -0.00000306193043047437 
103         0.00000000034930516010        -0.00000000034930686295        -0.00000000249628227984 
104         0.00000164115440508955        -0.00000305215504038886         0.00000304930945091235 
105        -0.00000327726214181118        -0.00000000216213384002        -0.00000000217899093907 
106         0.00000164141589228256        -0.00000306191357418717        -0.00000306193043098785 
107         0.00000000034930532598        -0.00000000247942537335        -0.00000000249628245678 
108         0.00000164115440542609         0.00000304932630765557         0.00000304930945025533 
109        -0.00001993429206023981         0.00000010079306212861         0.00000029066293030094 
110         0.00000576968635243591        -0.00000427873534274148        -0.00001803295397478574 
111         0.00000241830457131317        -0.00000000728484563645        -0.00000001627919393732 
112         0.00000580676369940983         0.00000427982047857055         0.00001797071817718435 
113        -0.00023744218816625778        -0.00001801830052488435         0.00001801564807566575 
114        -0.00087248778581878322        -0.00045237234000799348         0.00045236968755232865 
115         0.00003668008175139459         0.00000001125578982797        -0.00000001390824184988 
116        -0.00088659836294225150         0.00045714939521172664        -0.00045715204765595856 
117        -0.00001993429206129365        -0.00000029350852110560         0.00000010096933907608 
118         0.00000576968635206468         0.00001803010838068858        -0.00000427855906802942 
119         0.00000241830457081466         0.00000001343360484830        -0.00000000710857004749 
120         0.00000580676370008984        -0.00001797356376454190         0.00000427999675607659 
121        -0.00001993429205688485         0.00000029067978858308         0.00000010096933889740 
122         0.00000576968635085384        -0.00001803293711568829        -0.00000427855906640420 
123         0.00000241830456959927        -0.00000001626233648092        -0.00000000710857021510 
124         0.00000580676369861879         0.00001797073503338872         0.00000427999675428831 
125        -0.00023744218815237306         0.00001801547179868662         0.00001801564807599881 
126        -0.00087248778585142725         0.00045236951131221934         0.00045236968756950241 
127         0.00003668008175695264        -0.00000001408451747245        -0.00000001390824214131 
128        -0.00088659836297573166        -0.00045715222397057944        -0.00045715204767448302 
129         0.00710663951105956065         0.00000000034927625549         0.00737953470641275477 
130         0.00033630296277219196         0.00000000034930438403         0.00011864290521194226 
131         0.00032382834182693434         0.00000000034929990844        -0.00011412407482403234 
132         0.00702087631190491043         0.00000000034932906567        -0.00722166626870970538 
133        -0.00019400184422330505        -0.00045275094728518261        -0.00022671763827166076 
134         0.00002164321804992361         0.00001803445348624866         0.00000926630540742761 
135         0.00002159733823993426        -0.00001796872980484865        -0.00000923583463885783 
136        -0.00019831468533726762         0.00045686915241362897         0.00022878597992055140 
137        -0.00000123616862063997         0.00000000034930972351         0.00000120665177189092 
138         0.00000122380602805838         0.00000000034930565168         0.00000060598484451224 
139         0.00000120893739915737         0.00000000034930450546        -0.00000059422024203254 
140        -0.00000120223226360988         0.00000000034930015824        -0.00000121200367537641 
141        -0.00019400184463239101         0.00045275590663336127        -0.00022671763846324362 
142         0.00002164321803929583        -0.00001802949462927387         0.00000926630540169782 
143         0.00002159733822826911         0.00001797368865692241        -0.00000923583463124933 
144        -0.00019831468573059535        -0.00045686419401865701         0.00022878598009650614 
145         0.00001814058092444726         0.00000000034930256951         0.00011688056632605179 
146         0.00000812637312494480         0.00000000034930316972         0.00000984399077050280 
147         0.00000808060045265693         0.00000000034930055376        -0.00000976505918294512 
148         0.00001819893234402195         0.00000000034930142979        -0.00011587495499814499 
149        -0.00000389482013149478         0.00000427944322204526         0.00000925435968231539 
150         0.00000388308624615571         0.00000307235334579686         0.00000471691172047872 
151         0.00000385747442980047        -0.00000303893097883257        -0.00000467854446399574 
152        -0.00000385139800088141        -0.00000427906935407396        -0.00000924810619629124 
153        -0.00000000323125377844         0.00000000034930464771         0.00000059943438945192 
154        -0.00000000034930697462         0.00000000034930494218        -0.00000000017629840946 
155        -0.00000000247942477313         0.00000000034930496321        -0.00000000017629847755 
156         0.00000000040252607497         0.00000000034930512996        -0.00000060069565314610 
157        -0.00000389482013016251        -0.00000427448436868716         0.00000925435967764898 
158         0.00000388308624541022        -0.00000306739449340652         0.00000471691171970677 
159         0.00000385747442883185         0.00000304388983322435        -0.00000467854446302863 
160        -0.00000385139800010426         0.00000428402820744789        -0.00000924810619071584 
161         0.00001814058082359044         0.00000000034930271176        -0.00011688323846755985 
162         0.00000812637312039982         0.00000000034930366932        -0.00000984666334994527 
163         0.00000808060044597131         0.00000000034930057111         0.00000976238659825684 
164         0.00001819893224172878         0.00000000034930157031         0.00011587228197144570 
165        -0.00000389482012981557         0.00000427944321962706        -0.00000925703226491853 
166         0.00000388308624438283         0.00000307235334433276        -0.00000471958430142694 
167         0.00000385747442647327        -0.00000303893097614027         0.00000467587188111504 
168        -0.00000385139799849443        -0.00000427906934939715         0.00000924543361243563 
169        -0.00000000323125422252         0.00000000034930482118        -0.00000060210697090668 
170        -0.00000000034930684473         0.00000000034930510893        -0.00000000249628226380 
171        -0.00000000247942526579         0.00000000034930530690        -0.00000000249628246004 
172         0.00000000040252609579         0.00000000034930531037         0.00000059802307273218 
173        -0.00000389482012838616        -0.00000427448436545949        -0.00000925703226011335 
174         0.00000388308624367202        -0.00000306739449086602        -0.00000471958430076145 
175         0.00000385747442548882         0.00000304388983132786         0.00000467587188025592 
176        -0.00000385139799782830         0.00000428402820376551         0.00000924543360699553 
177         0.00710663949537733430         0.00000000034927620518        -0.00737953484680708982 
178         0.00033630296232087242         0.00000000034930439964        -0.00011864306128089169 
179         0.00032382834137510003         0.00000000034929987375         0.00011412391855328686 
180         0.00702087629612974107         0.00000000034932924782         0.00722166609679019030 
181        -0.00019400184442981694        -0.00045275094749815115         0.00022671748232858460 
182         0.00002164321804456679         0.00001803445347751606        -0.00000926646157865113 
183         0.00002159733823258250        -0.00001796872979597033         0.00000923567846903423 
184        -0.00019831468553797860         0.00045686915261105090        -0.00022878613630880965 
185        -0.00000123616862007792         0.00000000034930948759        -0.00000120680794229999 
186         0.00000122380602778430         0.00000000034930550011        -0.00000060614101474177 
187         0.00000120893739991371         0.00000000034930435714         0.00000059406407157750 
188        -0.00000120223226382499         0.00000000034930012008         0.00000121184750485719 
189        -0.00019400184483912841         0.00045275590684486222         0.00022671748252118401 
190         0.00002164321803414283        -0.00001802949462231720        -0.00000926646157217367 
191         0.00002159733822092733         0.00001797368864653445         0.00000923567846191839 
192        -0.00019831468593127510        -0.00045686419421793814        -0.00022878613648420407 
193         0.00710663949533488215         0.00737953219433738761        -0.00000000214700265552 
194         0.00033630296231802054         0.00011864040883144411        -0.00000000214696395731 
195         0.00032382834137390133        -0.00011412657100543563        -0.00000000214697109483 
196         0.00702087629608934283        -0.00722166874921888538        -0.00000000214692899786 
197         0.00001814058082409697         0.00011688039286931323        -0.00000000214696713944 
198         0.00000812637312095060         0.00000984381775979114        -0.00000000214696684389 
199         0.00000808060044858337        -0.00000976523218916038        -0.00000000214696934124 
200         0.00001819893224248859        -0.00011587512755706353        -0.00000000214696807533 
201         0.00001814058082490189        -0.00011688322160586379        -0.00000000214696771819 
202         0.00000812637311975797        -0.00000984664649303010        -0.00000000214696738166 
203         0.00000808060044643621         0.00000976240345653854        -0.00000000214696997680 
204         0.00001819893224444535         0.00011587229882679961        -0.00000000214696870005 
205         0.00710663949535813438        -0.00737953502305140063        -0.00000000214700305277 
206         0.00033630296231756951        -0.00011864323755612916        -0.00000000214696383935 
207         0.00032382834137297716         0.00011412374227632053        -0.00000000214697067243 
208         0.00702087629611204689         0.00722166592048041102        -0.00000000214692860018 
209        -0.00019400184401757725        -0.00022672013458250803        -0.00045275112329057690 
210         0.00002164321805364633         0.00000926380913059133         0.00001803427718478565 
211         0.00002159733824360147        -0.00000923833092560111        -0.00001796890610396631 
212        -0.00019831468514015793         0.00022878348367879817         0.00045686897583457203 
213        -0.00000389482012884412         0.00000925418667793027         0.00000427926692015551 
214         0.00000388308624382034         0.00000471673871072636         0.00000307217704339818 
215         0.00000385747442804103        -0.00000467871747161785        -0.00000303910727711952 
216        -0.00000385139799791157        -0.00000924827920848956        -0.00000427924565346224 
217        -0.00000389482012917719        -0.00000925701541252058         0.00000427926691905570 
218         0.00000388308624382772        -0.00000471956744401043         0.00000307217704346649 
219         0.00000385747442687226         0.00000467588873909013        -0.00000303910727628837 
220        -0.00000385139799741196         0.00000924545047623418        -0.00000427924565116894 
221        -0.00019400184401893034         0.00022671730587176669        -0.00045275112330523185 
222         0.00002164321805390307        -0.00000926663785785764         0.00001803427718332501 
223         0.00002159733824349044         0.00000923550219694702        -0.00001796890610341814 
224        -0.00019831468514286410        -0.00022878631242284858         0.00045686897584912983 
225        -0.00000123616862149345         0.00000120415549086789         0.00000000036616979240 
226         0.00000122380602974453         0.00000060348856424641         0.00000000036616290555 
227         0.00000120893740083311        -0.00000059671652512250         0.00000000036615933202 
228        -0.00000120223226438010        -0.00000121449995738390         0.00000000036615160903 
229        -0.00000000323125316781         0.00000059926138165287         0.00000000036616122634 
230        -0.00000000034930697159        -0.00000000034930696009         0.00000000036616087289 
231        -0.00000000247942485662        -0.00000000034930686121         0.00000000036616118145 
232         0.00000000040252667866        -0.00000060086866176048         0.00000000036616090021 
233        -0.00000000323125348700        -0.00000060209011440437         0.00000000036616110491 
234        -0.00000000034930687943        -0.00000000247942491907         0.00000000036616116064 
235        -0.00000000247942526926        -0.00000000247942540110         0.00000000036616140675 
236         0.00000000040252669253         0.00000059803993029614         0.00000000036616119511 
237        -0.00000123616862136161        -0.00000120698421833196         0.00000000036616990690 
238         0.00000122380602984168        -0.00000060631729165150         0.00000000036616265922 
239         0.00000120893740134659         0.00000059388779764108         0.00000000036615943264 
240        -0.00000120223226506011         0.00000121167123015489         0.00000000036615145638 
241        -0.00019400184483963495        -0.00022672013497262999         0.00045275573385956946 
242         0.00002164321803536928         0.00000926380912000258        -0.00001802966761492268 
243         0.00002159733822161558        -0.00000923833091370785         0.00001797351565173541 
244        -0.00019831468593102530         0.00022878348403522486        -0.00045686436721889155 
245        -0.00000389482012673470         0.00000925418666887501        -0.00000427465736020779 
246         0.00000388308624273245         0.00000471673870956237        -0.00000306756748496748 
247         0.00000385747442585658        -0.00000467871746930720         0.00000304371683576511 
248        -0.00000385139799637113        -0.00000924827919655813         0.00000428385520949534 
249        -0.00000389482012704695        -0.00000925701540332308        -0.00000427465735799255 
250         0.00000388308624262859        -0.00000471956744262526        -0.00000306756748433452 
251         0.00000385747442477064         0.00000467588873699610         0.00000304371683578636 
252        -0.00000385139799594786         0.00000924545046451439         0.00000428385520763420 
253        -0.00019400184484072956         0.00022671730626187131         0.00045275573387282622 
254         0.00002164321803550806        -0.00000926663784706766        -0.00001802966761446124 
255         0.00002159733822165374         0.00000923550218524458         0.00001797351564958652 
256        -0.00019831468593391535        -0.00022878631277900184        -0.00045686436723454548 
