LAMMPS (13 Jan 2016)
Reading data file ...
  triclinic box = (0 0 0) to (16.2 16.2 16.2) with tilt (0 0 0)
  1 by 1 by 1 MPI processor grid
  reading atoms ...
  256 atoms
System init for write_data ...
Neighbor list info ...
  1 neighbor list requests
  update every 1 steps, delay 0 steps, check yes
  max neighbors/atom: 2000, page size: 100000
  master list distance cutoff = 7.72488
  ghost atom cutoff = 7.72488
WARNING: No fixes defined, atoms won't move (../verlet.cpp:55)
Setting up Verlet run ...
  Unit style  : metal
  Current step: 0
  Time step   : 0.001
Memory usage per processor = 3.48419 Mbytes
Step Temp Press CPU Pxx Pyy Pzz Pxy Pxz Pyz KinEng PotEng TotEng Volume Lx Ly Lz Atoms 
       0            0    0.1851298            0   0.12676569   0.21429436   0.21432936 -2.9977247e-11 1.762567e-08 -8.1153512e-12            0   -860.15976   -860.15976    4251.5279         16.2         16.2         16.2      256 
Loop time of 9.53674e-07 on 1 procs for 0 steps with 256 atoms

0.0% CPU use with 1 MPI tasks x no OpenMP threads

MPI task timing breakdown:
Section |  min time  |  avg time  |  max time  |%varavg| %total
---------------------------------------------------------------
Pair    | 0          | 0          | 0          |   0.0 |  0.00
Neigh   | 0          | 0          | 0          |   0.0 |  0.00
Comm    | 0          | 0          | 0          |   0.0 |  0.00
Output  | 0          | 0          | 0          |   0.0 |  0.00
Modify  | 0          | 0          | 0          |   0.0 |  0.00
Other   |            | 9.537e-07  |            |       |100.00

Nlocal:    256 ave 256 max 256 min
Histogram: 1 0 0 0 0 0 0 0 0 0
Nghost:    1431 ave 1431 max 1431 min
Histogram: 1 0 0 0 0 0 0 0 0 0
Neighs:    17152 ave 17152 max 17152 min
Histogram: 1 0 0 0 0 0 0 0 0 0

Total # of neighbors = 17152
Ave neighs/atom = 67
Neighbor list builds = 0
Dangerous builds = 0
Total wall time: 0:00:00
