   2   2   0   0
  0.2044415E+02  0.3866974E-09  0.3866975E-09  0.3866975E-09  0.5000000E-15
  1.000000000000000E-004
  CAR 
 unknown system                          
     17.41175358     -8.14715931  301      5.93656296      1.00000000
     -8.147  0.0000E+00  0.0000E+00
     -8.062  0.0000E+00  0.0000E+00
     -7.977  0.0000E+00  0.0000E+00
     -7.892  0.0000E+00  0.0000E+00
     -7.806  0.0000E+00  0.0000E+00
     -7.721  0.0000E+00  0.0000E+00
     -7.636  0.0000E+00  0.0000E+00
     -7.551  0.0000E+00  0.0000E+00
     -7.466  0.0000E+00  0.0000E+00
     -7.380  0.0000E+00  0.0000E+00
     -7.295  0.1061E-17  0.9039E-19
     -7.210  0.2613E-15  0.2235E-16
     -7.125  0.2402E-13  0.2069E-14
     -7.040  0.1577E-11  0.1364E-12
     -6.954  0.7341E-10  0.6391E-11
     -6.869  0.2428E-08  0.2132E-09
     -6.784  0.5717E-07  0.5084E-08
     -6.699  0.9614E-06  0.8699E-07
     -6.614  0.1159E-04  0.1075E-05
     -6.528  0.1008E-03  0.9666E-05
     -6.443  0.6379E-03  0.6401E-04
     -6.358  0.2966E-02  0.3167E-03
     -6.273  0.1029E-01  0.1194E-02
     -6.188  0.2721E-01  0.3512E-02
     -6.102  0.5634E-01  0.8312E-02
     -6.017  0.9487E-01  0.1639E-01
     -5.932  0.1358E+00  0.2797E-01
     -5.847  0.1733E+00  0.4273E-01
     -5.762  0.2055E+00  0.6024E-01
     -5.676  0.2338E+00  0.8016E-01
     -5.591  0.2587E+00  0.1022E+00
     -5.506  0.2811E+00  0.1262E+00
     -5.421  0.3039E+00  0.1520E+00
     -5.336  0.3262E+00  0.1798E+00
     -5.250  0.3444E+00  0.2092E+00
     -5.165  0.3622E+00  0.2400E+00
     -5.080  0.3852E+00  0.2729E+00
     -4.995  0.4081E+00  0.3076E+00
     -4.910  0.4230E+00  0.3437E+00
     -4.825  0.4365E+00  0.3809E+00
     -4.739  0.4610E+00  0.4201E+00
     -4.654  0.4912E+00  0.4620E+00
     -4.569  0.5103E+00  0.5055E+00
     -4.484  0.5193E+00  0.5497E+00
     -4.399  0.5399E+00  0.5957E+00
     -4.313  0.5806E+00  0.6452E+00
     -4.228  0.6211E+00  0.6981E+00
     -4.143  0.6453E+00  0.7530E+00
     -4.058  0.6710E+00  0.8102E+00
     -3.973  0.7248E+00  0.8720E+00
     -3.887  0.7978E+00  0.9399E+00
     -3.802  0.8470E+00  0.1012E+01
     -3.717  0.8489E+00  0.1084E+01
     -3.632  0.8285E+00  0.1155E+01
     -3.547  0.8156E+00  0.1225E+01
     -3.461  0.8042E+00  0.1293E+01
     -3.376  0.7750E+00  0.1359E+01
     -3.291  0.7334E+00  0.1422E+01
     -3.206  0.6994E+00  0.1481E+01
     -3.121  0.6735E+00  0.1538E+01
     -3.035  0.6422E+00  0.1593E+01
     -2.950  0.6093E+00  0.1645E+01
     -2.865  0.5842E+00  0.1695E+01
     -2.780  0.5535E+00  0.1742E+01
     -2.695  0.5054E+00  0.1785E+01
     -2.609  0.4611E+00  0.1824E+01
     -2.524  0.4385E+00  0.1862E+01
     -2.439  0.4125E+00  0.1897E+01
     -2.354  0.3544E+00  0.1927E+01
     -2.269  0.2810E+00  0.1951E+01
     -2.183  0.2265E+00  0.1970E+01
     -2.098  0.1937E+00  0.1987E+01
     -2.013  0.1665E+00  0.2001E+01
     -1.928  0.1450E+00  0.2013E+01
     -1.843  0.1477E+00  0.2026E+01
     -1.757  0.1898E+00  0.2042E+01
     -1.672  0.2637E+00  0.2065E+01
     -1.587  0.3370E+00  0.2093E+01
     -1.502  0.3838E+00  0.2126E+01
     -1.417  0.4280E+00  0.2162E+01
     -1.331  0.5281E+00  0.2207E+01
     -1.246  0.7109E+00  0.2268E+01
     -1.161  0.9348E+00  0.2348E+01
     -1.076  0.1118E+01  0.2443E+01
     -0.991  0.1193E+01  0.2545E+01
     -0.905  0.1149E+01  0.2642E+01
     -0.820  0.1037E+01  0.2731E+01
     -0.735  0.9189E+00  0.2809E+01
     -0.650  0.8157E+00  0.2879E+01
     -0.565  0.7240E+00  0.2940E+01
     -0.479  0.6503E+00  0.2996E+01
     -0.394  0.6011E+00  0.3047E+01
     -0.309  0.5717E+00  0.3096E+01
     -0.224  0.5518E+00  0.3143E+01
     -0.139  0.5273E+00  0.3188E+01
     -0.054  0.4852E+00  0.3229E+01
      0.032  0.4383E+00  0.3266E+01
      0.117  0.4142E+00  0.3301E+01
      0.202  0.4115E+00  0.3337E+01
      0.287  0.4055E+00  0.3371E+01
      0.372  0.3865E+00  0.3404E+01
      0.458  0.3590E+00  0.3435E+01
      0.543  0.3307E+00  0.3463E+01
      0.628  0.3105E+00  0.3489E+01
      0.713  0.2992E+00  0.3515E+01
      0.798  0.2915E+00  0.3540E+01
      0.884  0.2886E+00  0.3564E+01
      0.969  0.2875E+00  0.3589E+01
      1.054  0.2741E+00  0.3612E+01
      1.139  0.2539E+00  0.3634E+01
      1.224  0.2675E+00  0.3656E+01
      1.310  0.3504E+00  0.3686E+01
      1.395  0.4991E+00  0.3729E+01
      1.480  0.6884E+00  0.3787E+01
      1.565  0.8853E+00  0.3863E+01
      1.650  0.1040E+01  0.3951E+01
      1.736  0.1117E+01  0.4047E+01
      1.821  0.1130E+01  0.4143E+01
      1.906  0.1110E+01  0.4238E+01
      1.991  0.1075E+01  0.4329E+01
      2.076  0.1043E+01  0.4418E+01
      2.162  0.1043E+01  0.4507E+01
      2.247  0.1078E+01  0.4599E+01
      2.332  0.1127E+01  0.4695E+01
      2.417  0.1161E+01  0.4794E+01
      2.502  0.1163E+01  0.4893E+01
      2.588  0.1154E+01  0.4991E+01
      2.673  0.1187E+01  0.5092E+01
      2.758  0.1289E+01  0.5202E+01
      2.843  0.1431E+01  0.5324E+01
      2.928  0.1539E+01  0.5455E+01
      3.014  0.1558E+01  0.5588E+01
      3.099  0.1514E+01  0.5717E+01
      3.184  0.1476E+01  0.5842E+01
      3.269  0.1462E+01  0.5967E+01
      3.354  0.1430E+01  0.6089E+01
      3.440  0.1379E+01  0.6206E+01
      3.525  0.1364E+01  0.6323E+01
      3.610  0.1399E+01  0.6442E+01
      3.695  0.1422E+01  0.6563E+01
      3.780  0.1382E+01  0.6681E+01
      3.866  0.1302E+01  0.6792E+01
      3.951  0.1242E+01  0.6897E+01
      4.036  0.1226E+01  0.7002E+01
      4.121  0.1231E+01  0.7107E+01
      4.206  0.1223E+01  0.7211E+01
      4.292  0.1186E+01  0.7312E+01
      4.377  0.1121E+01  0.7407E+01
      4.462  0.1032E+01  0.7495E+01
      4.547  0.9287E+00  0.7574E+01
      4.632  0.8188E+00  0.7644E+01
      4.717  0.7097E+00  0.7705E+01
      4.803  0.6070E+00  0.7756E+01
      4.888  0.5173E+00  0.7800E+01
      4.973  0.4479E+00  0.7839E+01
      5.058  0.4003E+00  0.7873E+01
      5.143  0.3649E+00  0.7904E+01
      5.229  0.3236E+00  0.7931E+01
      5.314  0.2673E+00  0.7954E+01
      5.399  0.2038E+00  0.7972E+01
      5.484  0.1449E+00  0.7984E+01
      5.569  0.9491E-01  0.7992E+01
      5.655  0.5484E-01  0.7997E+01
      5.740  0.2632E-01  0.7999E+01
      5.825  0.9962E-02  0.8000E+01
      5.910  0.3034E-02  0.8000E+01
      5.995  0.1693E-02  0.8000E+01
      6.081  0.4704E-02  0.8001E+01
      6.166  0.1497E-01  0.8002E+01
      6.251  0.3809E-01  0.8005E+01
      6.336  0.7805E-01  0.8012E+01
      6.421  0.1333E+00  0.8023E+01
      6.507  0.1980E+00  0.8040E+01
      6.592  0.2664E+00  0.8063E+01
      6.677  0.3356E+00  0.8091E+01
      6.762  0.4074E+00  0.8126E+01
      6.847  0.4785E+00  0.8167E+01
      6.933  0.5314E+00  0.8212E+01
      7.018  0.5573E+00  0.8259E+01
      7.103  0.5784E+00  0.8309E+01
      7.188  0.6237E+00  0.8362E+01
      7.273  0.7016E+00  0.8422E+01
      7.359  0.8070E+00  0.8490E+01
      7.444  0.9272E+00  0.8569E+01
      7.529  0.1048E+01  0.8659E+01
      7.614  0.1163E+01  0.8758E+01
      7.699  0.1273E+01  0.8866E+01
      7.785  0.1382E+01  0.8984E+01
      7.870  0.1491E+01  0.9111E+01
      7.955  0.1568E+01  0.9245E+01
      8.040  0.1559E+01  0.9377E+01
      8.125  0.1457E+01  0.9501E+01
      8.211  0.1321E+01  0.9614E+01
      8.296  0.1236E+01  0.9719E+01
      8.381  0.1234E+01  0.9824E+01
      8.466  0.1277E+01  0.9933E+01
      8.551  0.1293E+01  0.1004E+02
      8.637  0.1259E+01  0.1015E+02
      8.722  0.1256E+01  0.1026E+02
      8.807  0.1382E+01  0.1038E+02
      8.892  0.1622E+01  0.1051E+02
      8.977  0.1841E+01  0.1067E+02
      9.063  0.1921E+01  0.1083E+02
      9.148  0.1861E+01  0.1099E+02
      9.233  0.1742E+01  0.1114E+02
      9.318  0.1650E+01  0.1128E+02
      9.403  0.1624E+01  0.1142E+02
      9.488  0.1622E+01  0.1156E+02
      9.574  0.1585E+01  0.1169E+02
      9.659  0.1511E+01  0.1182E+02
      9.744  0.1422E+01  0.1194E+02
      9.829  0.1322E+01  0.1206E+02
      9.914  0.1225E+01  0.1216E+02
     10.000  0.1181E+01  0.1226E+02
     10.085  0.1219E+01  0.1236E+02
     10.170  0.1304E+01  0.1248E+02
     10.255  0.1365E+01  0.1259E+02
     10.340  0.1370E+01  0.1271E+02
     10.426  0.1334E+01  0.1282E+02
     10.511  0.1284E+01  0.1293E+02
     10.596  0.1228E+01  0.1304E+02
     10.681  0.1166E+01  0.1314E+02
     10.766  0.1094E+01  0.1323E+02
     10.852  0.1041E+01  0.1332E+02
     10.937  0.1065E+01  0.1341E+02
     11.022  0.1185E+01  0.1351E+02
     11.107  0.1333E+01  0.1362E+02
     11.192  0.1424E+01  0.1374E+02
     11.278  0.1426E+01  0.1387E+02
     11.363  0.1343E+01  0.1398E+02
     11.448  0.1183E+01  0.1408E+02
     11.533  0.9871E+00  0.1416E+02
     11.618  0.8251E+00  0.1423E+02
     11.704  0.7331E+00  0.1430E+02
     11.789  0.6991E+00  0.1436E+02
     11.874  0.7114E+00  0.1442E+02
     11.959  0.7819E+00  0.1448E+02
     12.044  0.9164E+00  0.1456E+02
     12.130  0.1086E+01  0.1465E+02
     12.215  0.1235E+01  0.1476E+02
     12.300  0.1300E+01  0.1487E+02
     12.385  0.1234E+01  0.1498E+02
     12.470  0.1042E+01  0.1506E+02
     12.556  0.8048E+00  0.1513E+02
     12.641  0.6195E+00  0.1519E+02
     12.726  0.5238E+00  0.1523E+02
     12.811  0.4866E+00  0.1527E+02
     12.896  0.4704E+00  0.1531E+02
     12.982  0.4682E+00  0.1535E+02
     13.067  0.4806E+00  0.1539E+02
     13.152  0.5031E+00  0.1544E+02
     13.237  0.5510E+00  0.1548E+02
     13.322  0.6462E+00  0.1554E+02
     13.408  0.7553E+00  0.1560E+02
     13.493  0.7826E+00  0.1567E+02
     13.578  0.6681E+00  0.1573E+02
     13.663  0.4655E+00  0.1577E+02
     13.748  0.2849E+00  0.1579E+02
     13.834  0.1844E+00  0.1581E+02
     13.919  0.1504E+00  0.1582E+02
     14.004  0.1512E+00  0.1583E+02
     14.089  0.1684E+00  0.1585E+02
     14.174  0.1895E+00  0.1586E+02
     14.259  0.2042E+00  0.1588E+02
     14.345  0.2160E+00  0.1590E+02
     14.430  0.2324E+00  0.1592E+02
     14.515  0.2383E+00  0.1594E+02
     14.600  0.2064E+00  0.1596E+02
     14.685  0.1384E+00  0.1597E+02
     14.771  0.6898E-01  0.1597E+02
     14.856  0.2589E-01  0.1598E+02
     14.941  0.1084E-01  0.1598E+02
     15.026  0.1430E-01  0.1598E+02
     15.111  0.2868E-01  0.1598E+02
     15.197  0.4628E-01  0.1598E+02
     15.282  0.5707E-01  0.1599E+02
     15.367  0.5457E-01  0.1599E+02
     15.452  0.4097E-01  0.1600E+02
     15.537  0.2420E-01  0.1600E+02
     15.623  0.1112E-01  0.1600E+02
     15.708  0.3898E-02  0.1600E+02
     15.793  0.1020E-02  0.1600E+02
     15.878  0.1957E-03  0.1600E+02
     15.963  0.2708E-04  0.1600E+02
     16.049  0.2676E-05  0.1600E+02
     16.134  0.1876E-06  0.1600E+02
     16.219  0.9279E-08  0.1600E+02
     16.304  0.3229E-09  0.1600E+02
     16.389  0.7885E-11  0.1600E+02
     16.475  0.1349E-12  0.1600E+02
     16.560  0.1617E-14  0.1600E+02
     16.645  0.1273E-16  0.1600E+02
     16.730  0.0000E+00  0.1600E+02
     16.815  0.0000E+00  0.1600E+02
     16.901  0.0000E+00  0.1600E+02
     16.986  0.0000E+00  0.1600E+02
     17.071  0.0000E+00  0.1600E+02
     17.156  0.0000E+00  0.1600E+02
     17.241  0.0000E+00  0.1600E+02
     17.327  0.0000E+00  0.1600E+02
     17.412  0.0000E+00  0.1600E+02
