    2    2    1    1
  0.2044415E+02  0.3866974E-09  0.3866975E-09  0.3866975E-09  0.5000000E-15
  1.000000000000000E-004
  CAR 
 unknown system                          
    8  165    8
 
  0.0000000E+00  0.0000000E+00  0.0000000E+00  0.2035416E-03
   1       -6.147159
   2        5.593589
   3        5.593590
   4        5.593591
   5        8.216240
   6        8.216243
   7        8.216244
   8        8.821479
 
  0.5882353E-01  0.3469447E-17  0.0000000E+00  0.1628333E-02
   1       -6.102677
   2        5.128790
   3        5.522336
   4        5.522338
   5        8.258910
   6        8.322115
   7        8.322118
   8        9.167616
 
  0.1176471E+00  0.6938894E-17  0.0000000E+00  0.1628333E-02
   1       -5.969848
   2        4.165811
   3        5.344945
   4        5.344946
   5        8.132562
   6        8.586559
   7        8.586562
   8       10.058593
 
  0.1764706E+00  0.6938894E-17  0.0000000E+00  0.1628333E-02
   1       -5.750989
   2        3.087263
   3        5.126380
   4        5.126382
   5        7.913054
   6        8.891096
   7        8.891099
   8       11.098396
 
  0.2352941E+00  0.1387779E-16  0.0000000E+00  0.1628333E-02
   1       -5.450842
   2        2.015745
   3        4.912869
   4        4.912871
   5        7.681764
   6        9.110047
   7        9.110050
   8       12.137051
 
  0.2941176E+00  0.2775558E-16  0.0000000E+00  0.1628333E-02
   1       -5.078891
   2        1.002776
   3        4.728816
   4        4.728818
   5        7.475340
   6        9.178545
   7        9.178547
   8       13.063311
 
  0.3529412E+00  0.5551115E-16  0.0000000E+00  0.1628333E-02
   1       -4.655503
   2        0.087835
   3        4.585842
   4        4.585845
   5        7.311661
   6        9.136269
   7        9.136271
   8       13.494850
 
  0.4117647E+00  0.5551115E-16  0.0000000E+00  0.1628333E-02
   1       -4.229357
   2       -0.670315
   3        4.488996
   4        4.488999
   5        7.199383
   6        9.062515
   7        9.062518
   8       13.453823
 
  0.4705882E+00  0.2775558E-16  0.0000000E+00  0.1628333E-02
   1       -3.921075
   2       -1.145804
   3        4.440272
   4        4.440275
   5        7.142482
   6        9.013187
   7        9.013190
   8       13.382673
 
  0.5882353E-01  0.5882353E-01  0.0000000E+00  0.1221250E-02
   1       -6.087808
   2        5.216934
   3        5.371394
   4        5.371394
   5        8.075819
   6        8.511418
   7        8.511418
   8        9.183338
 
  0.1176471E+00  0.5882353E-01  0.0000000E+00  0.4884999E-02
   1       -5.984301
   2        4.448609
   3        5.146172
   4        5.292446
   5        8.065912
   6        8.589824
   7        8.834502
   8        9.835175
 
  0.1764706E+00  0.5882353E-01  0.0000000E+00  0.4884999E-02
   1       -5.793866
   2        3.423456
   3        4.907564
   4        5.125870
   5        8.127809
   6        8.588113
   7        9.183064
   8       10.704150
 
  0.2352941E+00  0.5882353E-01  0.0000000E+00  0.4884999E-02
   1       -5.520230
   2        2.362392
   3        4.692923
   4        4.900933
   5        8.005604
   6        8.772417
   7        9.440201
   8       11.325546
 
  0.2941176E+00  0.5882353E-01  0.0000000E+00  0.4884999E-02
   1       -5.170880
   2        1.337427
   3        4.521493
   4        4.670656
   5        7.820701
   6        8.925078
   7        9.527882
   8       11.767426
 
  0.3529412E+00  0.5882353E-01  0.0000000E+00  0.4884999E-02
   1       -4.761332
   2        0.392128
   3        4.402238
   4        4.463148
   5        7.654145
   6        8.958302
   7        9.469085
   8       12.365915
 
  0.4117647E+00  0.5882353E-01  0.0000000E+00  0.4884999E-02
   1       -4.327391
   2       -0.423555
   3        4.292530
   4        4.338482
   5        7.529289
   6        8.935976
   7        9.346192
   8       13.067850
 
  0.4705882E+00  0.5882353E-01  0.0000000E+00  0.4884999E-02
   1       -3.959314
   2       -1.011934
   3        4.166545
   4        4.330268
   5        7.455152
   6        8.927476
   7        9.226841
   8       13.465597
 
 -0.4705882E+00  0.5882353E-01  0.0000000E+00  0.4884999E-02
   1       -3.840025
   2       -1.186370
   3        4.090262
   4        4.375635
   5        7.435437
   6        8.966968
   7        9.146812
   8       13.532339
 
 -0.4117647E+00  0.5882353E-01  0.0000000E+00  0.4884999E-02
   1       -4.065488
   2       -0.850156
   3        4.067485
   4        4.471251
   5        7.471134
   6        9.060444
   7        9.116016
   8       13.529746
 
 -0.3529412E+00  0.5882353E-01  0.0000000E+00  0.4884999E-02
   1       -4.471382
   2       -0.169338
   3        4.101130
   4        4.612541
   5        7.561273
   6        9.120225
   7        9.189913
   8       13.311434
 
 -0.2941176E+00  0.5882353E-01  0.0000000E+00  0.4884999E-02
   1       -4.903403
   2        0.696838
   3        4.193025
   4        4.793077
   5        7.702540
   6        9.115182
   7        9.306752
   8       12.715354
 
 -0.2352941E+00  0.5882353E-01  0.0000000E+00  0.4884999E-02
   1       -5.295390
   2        1.672301
   3        4.343375
   4        5.002674
   5        7.887553
   6        9.028564
   7        9.322581
   8       12.038361
 
 -0.1764706E+00  0.5882353E-01  0.0000000E+00  0.4884999E-02
   1       -5.620589
   2        2.710713
   3        4.550231
   4        5.223108
   5        8.100892
   6        8.816138
   7        9.147817
   8       11.339979
 
 -0.1176471E+00  0.5882353E-01  0.0000000E+00  0.4884999E-02
   1       -5.867018
   2        3.754685
   3        4.811205
   4        5.420454
   5        8.309794
   6        8.541048
   7        8.803414
   8       10.516967
 
 -0.5882353E-01  0.5882353E-01  0.0000000E+00  0.2442499E-02
   1       -6.028677
   2        4.658475
   3        5.147656
   4        5.538958
   5        8.338598
   6        8.416385
   7        8.453146
   8        9.676656
 
  0.1176471E+00  0.1176471E+00  0.0000000E+00  0.1221250E-02
   1       -5.910156
   2        4.386166
   3        4.891096
   4        4.891096
   5        7.728466
   6        9.208900
   7        9.208901
   8        9.830108
 
  0.1764706E+00  0.1176471E+00  0.0000000E+00  0.4884999E-02
   1       -5.748534
   2        3.623063
   3        4.635727
   4        4.726881
   5        7.679965
   6        9.282957
   7        9.613013
   8       10.267233
 
  0.2352941E+00  0.1176471E+00  0.0000000E+00  0.4884999E-02
   1       -5.502363
   2        2.651821
   3        4.413314
   4        4.514041
   5        7.826808
   6        9.196111
   7        9.936307
   8       10.462790
 
  0.2941176E+00  0.1176471E+00  0.0000000E+00  0.4884999E-02
   1       -5.177498
   2        1.660040
   3        4.241446
   4        4.248068
   5        7.936409
   6        9.185186
   7       10.082259
   8       10.585333
 
  0.3529412E+00  0.1176471E+00  0.0000000E+00  0.4884999E-02
   1       -4.785807
   2        0.714325
   3        3.981505
   4        4.128732
   5        7.921422
   6        9.175230
   7       10.045297
   8       11.006657
 
  0.4117647E+00  0.1176471E+00  0.0000000E+00  0.4884999E-02
   1       -4.353688
   2       -0.133358
   3        3.743594
   4        4.078655
   5        7.860423
   6        9.120891
   7        9.904822
   8       11.737047
 
  0.4705882E+00  0.1176471E+00  0.0000000E+00  0.4884999E-02
   1       -3.947029
   2       -0.803871
   3        3.549763
   4        4.091374
   5        7.819974
   6        9.076547
   7        9.740627
   8       12.634974
 
 -0.4705882E+00  0.1176471E+00  0.0000000E+00  0.4884999E-02
   1       -3.721454
   2       -1.134961
   3        3.409460
   4        4.164576
   5        7.826306
   6        9.079790
   7        9.599427
   8       13.516386
 
 -0.4117647E+00  0.1176471E+00  0.0000000E+00  0.4884999E-02
   1       -3.843652
   2       -0.957771
   3        3.329588
   4        4.293750
   5        7.885195
   6        9.143125
   7        9.499397
   8       13.784352
 
 -0.3529412E+00  0.1176471E+00  0.0000000E+00  0.4884999E-02
   1       -4.213963
   2       -0.373590
   3        3.316013
   4        4.471881
   5        7.993237
   6        9.259310
   7        9.434006
   8       13.201841
 
 -0.2941176E+00  0.1176471E+00  0.0000000E+00  0.4884999E-02
   1       -4.648031
   2        0.426482
   3        3.374795
   4        4.688503
   5        8.142866
   6        9.366513
   7        9.390797
   8       12.421828
 
 -0.2352941E+00  0.1176471E+00  0.0000000E+00  0.4884999E-02
   1       -5.056700
   2        1.337401
   3        3.514883
   4        4.927301
   5        8.322818
   6        9.229163
   7        9.439868
   8       11.743713
 
 -0.1764706E+00  0.1176471E+00  0.0000000E+00  0.4884999E-02
   1       -5.404924
   2        2.284626
   3        3.758136
   4        5.161314
   5        8.511422
   6        8.982490
   7        9.256273
   8       11.313391
 
 -0.1176471E+00  0.1176471E+00  0.0000000E+00  0.2442499E-02
   1       -5.677462
   2        3.145495
   3        4.171568
   4        5.345921
   5        8.620694
   6        8.704948
   7        8.888037
   8       10.996332
 
  0.1764706E+00  0.1764706E+00  0.0000000E+00  0.1221250E-02
   1       -5.615628
   2        3.405558
   3        4.366184
   4        4.366184
   5        7.306478
   6        9.791923
   7       10.090458
   8       10.090458
 
  0.2352941E+00  0.1764706E+00  0.0000000E+00  0.4884999E-02
   1       -5.397365
   2        2.717738
   3        4.124795
   4        4.131975
   5        7.265710
   6        9.491160
   7       10.385633
   8       10.510167
 
  0.2941176E+00  0.1764706E+00  0.0000000E+00  0.4884999E-02
   1       -5.098247
   2        1.861123
   3        3.823057
   4        3.951077
   5        7.437800
   6        9.404588
   7       10.345621
   8       10.757138
 
  0.3529412E+00  0.1764706E+00  0.0000000E+00  0.4884999E-02
   1       -4.727403
   2        0.978657
   3        3.489855
   4        3.832761
   5        7.576044
   6        9.692081
   7       10.203236
   8       10.784964
 
  0.4117647E+00  0.1764706E+00  0.0000000E+00  0.4884999E-02
   1       -4.304305
   2        0.144165
   3        3.176231
   4        3.781203
   5        7.611271
   6       10.021572
   7       10.383031
   8       10.660472
 
  0.4705882E+00  0.1764706E+00  0.0000000E+00  0.4884999E-02
   1       -3.876499
   2       -0.567376
   3        2.909206
   4        3.797268
   5        7.628083
   6        9.909658
   7       10.477730
   8       11.273028
 
 -0.4705882E+00  0.1764706E+00  0.0000000E+00  0.4884999E-02
   1       -3.566128
   2       -1.019708
   3        2.703295
   4        3.879230
   5        7.687144
   6        9.832756
   7       10.297339
   8       12.313359
 
 -0.4117647E+00  0.1764706E+00  0.0000000E+00  0.4884999E-02
   1       -3.573217
   2       -1.007379
   3        2.568547
   4        4.022789
   5        7.808151
   6        9.806462
   7       10.145527
   8       13.424734
 
 -0.3529412E+00  0.1764706E+00  0.0000000E+00  0.4884999E-02
   1       -3.890997
   2       -0.539344
   3        2.514938
   4        4.220464
   5        7.988961
   6        9.829032
   7       10.019547
   8       13.127407
 
 -0.2941176E+00  0.1764706E+00  0.0000000E+00  0.4884999E-02
   1       -4.319203
   2        0.170921
   3        2.557388
   4        4.460128
   5        8.213066
   6        9.875101
   7        9.880623
   8       12.226608
 
 -0.2352941E+00  0.1764706E+00  0.0000000E+00  0.4884999E-02
   1       -4.740276
   2        0.968535
   3        2.728233
   4        4.721954
   5        8.447692
   6        9.652896
   7        9.844132
   8       11.523352
 
 -0.1764706E+00  0.1764706E+00  0.0000000E+00  0.2442499E-02
   1       -5.108492
   2        1.716289
   3        3.103816
   4        4.973029
   5        8.620239
   6        9.312949
   7        9.560575
   8       11.250853
 
  0.2352941E+00  0.2352941E+00  0.0000000E+00  0.1221250E-02
   1       -5.206741
   2        2.378897
   3        3.884261
   4        3.884261
   5        6.905898
   6        9.016375
   7       11.063028
   8       11.063028
 
  0.2941176E+00  0.2352941E+00  0.0000000E+00  0.4884999E-02
   1       -4.933967
   2        1.759467
   3        3.601535
   4        3.689739
   5        6.899192
   6        8.695261
   7       11.326789
   8       11.466520
 
  0.3529412E+00  0.2352941E+00  0.0000000E+00  0.4884999E-02
   1       -4.585988
   2        1.033386
   3        3.207527
   4        3.558840
   5        7.087421
   6        8.695494
   7       11.291680
   8       11.618008
 
  0.4117647E+00  0.2352941E+00  0.0000000E+00  0.4884999E-02
   1       -4.177172
   2        0.289833
   3        2.793635
   4        3.496684
   5        7.210345
   6        9.138746
   7       11.166529
   8       11.550532
 
  0.4705882E+00  0.2352941E+00  0.0000000E+00  0.4884999E-02
   1       -3.741597
   2       -0.397515
   3        2.425995
   4        3.504941
   5        7.263757
   6        9.926082
   7       11.042387
   8       11.375180
 
 -0.4705882E+00  0.2352941E+00  0.0000000E+00  0.4884999E-02
   1       -3.370364
   2       -0.913599
   3        2.134347
   4        3.582628
   5        7.341152
   6       10.744331
   7       11.116342
   8       11.173866
 
 -0.4117647E+00  0.2352941E+00  0.0000000E+00  0.4884999E-02
   1       -3.263835
   2       -1.047372
   3        1.934946
   4        3.726139
   5        7.482293
   6       10.792350
   7       10.982842
   8       12.119542
 
 -0.3529412E+00  0.2352941E+00  0.0000000E+00  0.4884999E-02
   1       -3.514663
   2       -0.710411
   3        1.845502
   4        3.928552
   5        7.692682
   6       10.761036
   7       10.797459
   8       13.012376
 
 -0.2941176E+00  0.2352941E+00  0.0000000E+00  0.4884999E-02
   1       -3.928922
   2       -0.125997
   3        1.900037
   4        4.177903
   5        7.958675
   6       10.556020
   7       10.713475
   8       12.135820
 
 -0.2352941E+00  0.2352941E+00  0.0000000E+00  0.2442499E-02
   1       -4.356691
   2        0.482165
   3        2.169446
   4        4.453865
   5        8.242993
   6       10.157696
   7       10.441874
   8       11.552221
 
  0.2941176E+00  0.2941176E+00  0.0000000E+00  0.1221250E-02
   1       -4.687167
   2        1.342194
   3        3.479522
   4        3.479522
   5        6.581703
   6        8.180124
   7       12.088812
   8       12.088812
 
  0.3529412E+00  0.2941176E+00  0.0000000E+00  0.4884999E-02
   1       -4.362998
   2        0.774845
   3        3.188038
   4        3.332431
   5        6.621797
   6        7.931542
   7       12.369847
   8       12.459336
 
  0.4117647E+00  0.2941176E+00  0.0000000E+00  0.4884999E-02
   1       -3.972068
   2        0.162229
   3        2.733509
   4        3.254655
   5        6.812910
   6        8.083066
   7       12.351695
   8       12.519358
 
  0.4705882E+00  0.2941176E+00  0.0000000E+00  0.4884999E-02
   1       -3.538512
   2       -0.437417
   3        2.256773
   4        3.248716
   5        6.915630
   6        8.709240
   7       12.240039
   8       12.386704
 
 -0.4705882E+00  0.2941176E+00  0.0000000E+00  0.4884999E-02
   1       -3.128204
   2       -0.944417
   3        1.850202
   4        3.314421
   5        7.001812
   6        9.629734
   7       12.121526
   8       12.181689
 
 -0.4117647E+00  0.2941176E+00  0.0000000E+00  0.4884999E-02
   1       -2.923918
   2       -1.173073
   3        1.562023
   4        3.448977
   5        7.145316
   6       10.693075
   7       11.955579
   8       12.043801
 
 -0.3529412E+00  0.2941176E+00  0.0000000E+00  0.4884999E-02
   1       -3.106961
   2       -0.957790
   3        1.431988
   4        3.646342
   5        7.362391
   6       11.592871
   7       11.683514
   8       12.236268
 
 -0.2941176E+00  0.2941176E+00  0.0000000E+00  0.2442499E-02
   1       -3.502606
   2       -0.523965
   3        1.520575
   4        3.895656
   5        7.644308
   6       11.229625
   7       11.500945
   8       12.293382
 
  0.3529412E+00  0.3529412E+00  0.0000000E+00  0.1221250E-02
   1       -4.062089
   2        0.315541
   3        3.167509
   4        3.167509
   5        6.365541
   6        7.467903
   7       13.151372
   8       13.151373
 
  0.4117647E+00  0.3529412E+00  0.0000000E+00  0.4884999E-02
   1       -3.690872
   2       -0.209453
   3        2.891338
   4        3.071511
   5        6.456988
   6        7.321107
   7       13.450522
   8       13.482206
 
  0.4705882E+00  0.3529412E+00  0.0000000E+00  0.4884999E-02
   1       -3.266083
   2       -0.732628
   3        2.419809
   4        3.047875
   5        6.629123
   6        7.658846
   7       13.448263
   8       13.465748
 
 -0.4705882E+00  0.3529412E+00  0.0000000E+00  0.4884999E-02
   1       -2.834146
   2       -1.200133
   3        1.928883
   4        3.097185
   5        6.726832
   6        8.455150
   7       13.280960
   8       13.347055
 
 -0.4117647E+00  0.3529412E+00  0.0000000E+00  0.4884999E-02
   1       -2.563574
   2       -1.460474
   3        1.540517
   4        3.217460
   5        6.864200
   6        9.484160
   7       13.002596
   8       13.228022
 
 -0.3529412E+00  0.3529412E+00  0.0000000E+00  0.2442499E-02
   1       -2.723525
   2       -1.287392
   3        1.344987
   4        3.403668
   5        7.077295
   6       10.636627
   7       12.508511
   8       12.992192
 
  0.4117647E+00  0.4117647E+00  0.0000000E+00  0.1221250E-02
   1       -3.338578
   2       -0.683104
   3        2.956146
   4        2.956146
   5        6.277710
   6        6.920496
   7       14.239441
   8       14.239441
 
  0.4705882E+00  0.4117647E+00  0.0000000E+00  0.4884999E-02
   1       -2.926333
   2       -1.168406
   3        2.713045
   4        2.912986
   5        6.414358
   6        6.890927
   7       14.522625
   8       14.548960
 
 -0.4705882E+00  0.4117647E+00  0.0000000E+00  0.4884999E-02
   1       -2.485489
   2       -1.614191
   3        2.264927
   4        2.943411
   5        6.538680
   6        7.442287
   7       14.406723
   8       14.558205
 
 -0.4117647E+00  0.4117647E+00  0.0000000E+00  0.2442499E-02
   1       -2.255940
   2       -1.800061
   3        1.820075
   4        3.046250
   5        6.662021
   6        8.371450
   7       13.941263
   8       14.453632
 
  0.4705882E+00  0.4705882E+00  0.0000000E+00  0.1221250E-02
   1       -2.525883
   2       -1.635852
   3        2.849562
   4        2.849562
   5        6.333142
   6        6.544078
   7       15.292867
   8       15.292867
 
 -0.4705882E+00  0.4705882E+00  0.0000000E+00  0.2442499E-02
   1       -2.103320
   2       -2.057454
   3        2.653573
   4        2.859841
   5        6.445857
   6        6.700910
   7       15.293602
   8       15.411754
 
  0.1764706E+00  0.1176471E+00  0.5882353E-01  0.4884999E-02
   1       -5.851839
   2        3.880994
   3        4.663481
   4        5.227927
   5        8.040890
   6        8.820076
   7        9.095619
   8       10.362217
 
  0.2352941E+00  0.1176471E+00  0.5882353E-01  0.9769998E-02
   1       -5.633517
   2        2.990827
   3        4.284738
   4        5.090191
   5        8.180901
   6        8.814281
   7        9.449196
   8       10.800611
 
  0.2941176E+00  0.1176471E+00  0.5882353E-01  0.9769998E-02
   1       -5.334080
   2        1.996957
   3        4.025159
   4        4.880460
   5        8.217938
   6        8.874353
   7        9.703708
   8       11.019549
 
  0.3529412E+00  0.1176471E+00  0.5882353E-01  0.9769998E-02
   1       -4.962809
   2        1.022724
   3        3.839984
   4        4.657471
   5        8.110783
   6        8.960440
   7        9.760437
   8       11.405821
 
  0.4117647E+00  0.1176471E+00  0.5882353E-01  0.9769998E-02
   1       -4.539754
   2        0.128941
   3        3.715990
   4        4.458996
   5        7.984923
   6        8.951179
   7        9.691956
   8       12.065842
 
  0.4705882E+00  0.1176471E+00  0.5882353E-01  0.9769998E-02
   1       -4.112977
   2       -0.618494
   3        3.643741
   4        4.309745
   5        7.889509
   6        8.898488
   7        9.596688
   8       12.887438
 
 -0.4705882E+00  0.1176471E+00  0.5882353E-01  0.9769998E-02
   1       -3.802940
   2       -1.090655
   3        3.612204
   4        4.228809
   5        7.839531
   6        8.860166
   7        9.535645
   8       13.593373
 
  0.2352941E+00  0.1764706E+00  0.5882353E-01  0.4884999E-02
   1       -5.558754
   2        3.035162
   3        4.135356
   4        4.649615
   5        7.633813
   6        9.462153
   7        9.999398
   8       10.261155
 
  0.2941176E+00  0.1764706E+00  0.5882353E-01  0.9769998E-02
   1       -5.286157
   2        2.211788
   3        3.751388
   4        4.492289
   5        7.807635
   6        9.433641
   7       10.169768
   8       10.351427
 
  0.3529412E+00  0.1764706E+00  0.5882353E-01  0.9769998E-02
   1       -4.937966
   2        1.307122
   3        3.483354
   4        4.282738
   5        7.967574
   6        9.446357
   7       10.197180
   8       10.525767
 
  0.4117647E+00  0.1764706E+00  0.5882353E-01  0.9769998E-02
   1       -4.529232
   2        0.427625
   3        3.282342
   4        4.093246
   5        8.008826
   6        9.362629
   7       10.449158
   8       10.734749
 
  0.4705882E+00  0.1764706E+00  0.5882353E-01  0.9769998E-02
   1       -4.094791
   2       -0.351832
   3        3.123781
   4        3.968885
   5        8.005646
   6        9.214705
   7       10.382408
   8       11.519131
 
 -0.4705882E+00  0.1764706E+00  0.5882353E-01  0.9769998E-02
   1       -3.724177
   2       -0.923547
   3        2.998712
   4        3.930825
   5        8.026391
   6        9.085136
   7       10.288552
   8       12.495501
 
 -0.4117647E+00  0.1764706E+00  0.5882353E-01  0.9769998E-02
   1       -3.604855
   2       -1.092143
   3        2.911869
   4        3.980468
   5        8.095010
   6        9.003439
   7       10.226565
   8       13.532302
 
 -0.3529412E+00  0.1764706E+00  0.5882353E-01  0.9769998E-02
   1       -3.835533
   2       -0.757570
   3        2.875504
   4        4.107408
   5        8.210657
   6        8.978957
   7       10.206522
   8       12.788344
 
 -0.2941176E+00  0.1764706E+00  0.5882353E-01  0.9769998E-02
   1       -4.244055
   2       -0.097015
   3        2.903739
   4        4.296096
   5        8.358809
   6        8.999930
   7       10.212116
   8       11.871521
 
 -0.2352941E+00  0.1764706E+00  0.5882353E-01  0.9769998E-02
   1       -4.675547
   2        0.719382
   3        3.013414
   4        4.526521
   5        8.513566
   6        9.009311
   7       10.195112
   8       11.146938
 
 -0.1764706E+00  0.1764706E+00  0.5882353E-01  0.9769998E-02
   1       -5.065696
   2        1.588687
   3        3.234843
   4        4.769764
   5        8.597354
   6        8.935058
   7       10.074067
   8       10.741460
 
 -0.1176471E+00  0.1764706E+00  0.5882353E-01  0.4884999E-02
   1       -5.388896
   2        2.390433
   3        3.638290
   4        4.979633
   5        8.416205
   6        8.918339
   7        9.762865
   8       10.710123
 
  0.2941176E+00  0.2352941E+00  0.5882353E-01  0.4884999E-02
   1       -5.152120
   2        2.140451
   3        3.653334
   4        4.054619
   5        7.242906
   6        9.192372
   7       10.573704
   8       10.997502
 
  0.3529412E+00  0.2352941E+00  0.5882353E-01  0.9769998E-02
   1       -4.828628
   2        1.410522
   3        3.266276
   4        3.880679
   5        7.446438
   6        9.122149
   7       10.488522
   8       11.332174
 
  0.4117647E+00  0.2352941E+00  0.5882353E-01  0.9769998E-02
   1       -4.438174
   2        0.625607
   3        2.944503
   4        3.707514
   5        7.612478
   6        9.456195
   7       10.305815
   8       11.420254
 
  0.4705882E+00  0.2352941E+00  0.5882353E-01  0.9769998E-02
   1       -4.006006
   2       -0.126435
   3        2.667102
   4        3.604709
   5        7.675897
   6       10.063841
   7       10.212628
   8       11.357593
 
 -0.4705882E+00  0.2352941E+00  0.5882353E-01  0.9769998E-02
   1       -3.596718
   2       -0.745183
   3        2.435738
   4        3.592018
   5        7.733323
   6        9.905533
   7       11.133032
   8       11.252595
 
 -0.4117647E+00  0.2352941E+00  0.5882353E-01  0.9769998E-02
   1       -3.371179
   2       -1.052351
   3        2.263629
   4        3.665843
   5        7.840858
   6        9.755077
   7       11.151745
   8       12.220567
 
 -0.3529412E+00  0.2352941E+00  0.5882353E-01  0.9769998E-02
   1       -3.505131
   2       -0.867826
   3        2.166775
   4        3.815556
   5        8.012366
   6        9.645567
   7       11.076711
   8       12.729761
 
 -0.2941176E+00  0.2352941E+00  0.5882353E-01  0.9769998E-02
   1       -3.883424
   2       -0.316448
   3        2.165472
   4        4.027140
   5        8.240854
   6        9.561737
   7       11.000018
   8       11.779214
 
 -0.2352941E+00  0.2352941E+00  0.5882353E-01  0.9769998E-02
   1       -4.317168
   2        0.379111
   3        2.295661
   4        4.280896
   5        8.502393
   6        9.427218
   7       10.828210
   8       11.068390
 
 -0.1764706E+00  0.2352941E+00  0.5882353E-01  0.4884999E-02
   1       -4.722050
   2        1.055220
   3        2.629232
   4        4.545644
   5        8.743858
   6        9.102074
   7       10.577728
   8       10.650345
 
  0.3529412E+00  0.2941176E+00  0.5882353E-01  0.4884999E-02
   1       -4.635956
   2        1.205924
   3        3.252967
   4        3.541543
   5        6.922621
   6        8.400671
   7       11.473151
   8       12.048649
 
  0.4117647E+00  0.2941176E+00  0.5882353E-01  0.9769998E-02
   1       -4.266510
   2        0.572432
   3        2.854065
   4        3.376427
   5        7.153243
   6        8.433921
   7       11.359309
   8       12.373996
 
  0.4705882E+00  0.2941176E+00  0.5882353E-01  0.9769998E-02
   1       -3.843878
   2       -0.078487
   3        2.444971
   4        3.280328
   5        7.300421
   6        8.936330
   7       11.168418
   8       12.418327
 
 -0.4705882E+00  0.2941176E+00  0.5882353E-01  0.9769998E-02
   1       -3.413726
   2       -0.670891
   3        2.082968
   4        3.275302
   5        7.380744
   6        9.778231
   7       10.976904
   8       12.336375
 
 -0.4117647E+00  0.2941176E+00  0.5882353E-01  0.9769998E-02
   1       -3.103730
   2       -1.057561
   3        1.807112
   4        3.355572
   5        7.495681
   6       10.593597
   7       11.017973
   8       12.225378
 
 -0.3529412E+00  0.2941176E+00  0.5882353E-01  0.9769998E-02
   1       -3.135300
   2       -1.012631
   3        1.643970
   4        3.511887
   5        7.677272
   6       10.559537
   7       11.945481
   8       12.176474
 
 -0.2941176E+00  0.2941176E+00  0.5882353E-01  0.9769998E-02
   1       -3.474768
   2       -0.589806
   3        1.628317
   4        3.732285
   5        7.925137
   6       10.401729
   7       11.700606
   8       11.980475
 
 -0.2352941E+00  0.2941176E+00  0.5882353E-01  0.4884999E-02
   1       -3.904066
   2       -0.065904
   3        1.822905
   4        3.998721
   5        8.219256
   6       10.047120
   7       11.113413
   8       11.577342
 
  0.4117647E+00  0.3529412E+00  0.5882353E-01  0.4884999E-02
   1       -4.015981
   2        0.249539
   3        2.950885
   4        3.142452
   5        6.704554
   6        7.717583
   7       12.441322
   8       13.133725
 
  0.4705882E+00  0.3529412E+00  0.5882353E-01  0.9769998E-02
   1       -3.607906
   2       -0.299557
   3        2.536997
   4        3.021834
   5        6.950134
   6        7.899486
   7       12.296776
   8       13.454417
 
 -0.4705882E+00  0.3529412E+00  0.5882353E-01  0.9769998E-02
   1       -3.170342
   2       -0.823092
   3        2.067215
   4        3.011455
   5        7.074406
   6        8.589094
   7       12.094626
   8       13.468829
 
 -0.4117647E+00  0.3529412E+00  0.5882353E-01  0.9769998E-02
   1       -2.800324
   2       -1.224120
   3        1.671873
   4        3.087663
   5        7.189414
   6        9.560594
   7       11.892467
   8       13.343735
 
 -0.3529412E+00  0.3529412E+00  0.5882353E-01  0.9769998E-02
   1       -2.747226
   2       -1.268425
   3        1.422405
   4        3.240894
   5        7.367881
   6       10.651120
   7       11.719606
   8       12.813457
 
 -0.2941176E+00  0.3529412E+00  0.5882353E-01  0.4884999E-02
   1       -3.056891
   2       -0.951121
   3        1.384126
   4        3.461023
   5        7.618173
   6       11.153194
   7       11.992273
   8       12.028962
 
  0.4705882E+00  0.4117647E+00  0.5882353E-01  0.4884999E-02
   1       -3.300143
   2       -0.703578
   3        2.756216
   4        2.865223
   5        6.609079
   6        7.196802
   7       13.451344
   8       14.237236
 
 -0.4705882E+00  0.4117647E+00  0.5882353E-01  0.9769998E-02
   1       -2.864764
   2       -1.181186
   3        2.337729
   4        2.815963
   5        6.840385
   6        7.559901
   7       13.286458
   8       14.523143
 
 -0.4117647E+00  0.4117647E+00  0.5882353E-01  0.9769998E-02
   1       -2.457937
   2       -1.574738
   3        1.869673
   4        2.881848
   5        6.956341
   6        8.417864
   7       13.071180
   8       14.104836
 
 -0.3529412E+00  0.4117647E+00  0.5882353E-01  0.4884999E-02
   1       -2.410315
   2       -1.589401
   3        1.525880
   4        3.026457
   5        7.123767
   6        9.488536
   7       12.693613
   8       13.134332
 
 -0.4705882E+00  0.4705882E+00  0.5882353E-01  0.4884999E-02
   1       -2.499199
   2       -1.627470
   3        2.674609
   4        2.709966
   5        6.651244
   6        6.843597
   7       14.490069
   8       15.183528
 