Automatically generated mesh
     165
Reciprocal lattice
    0.00000000000000    0.00000000000000    0.00000000000000             1
    0.05882352941176    0.00000000000000    0.00000000000000             8
    0.11764705882353    0.00000000000000    0.00000000000000             8
    0.17647058823529    0.00000000000000    0.00000000000000             8
    0.23529411764706    0.00000000000000    0.00000000000000             8
    0.29411764705882    0.00000000000000    0.00000000000000             8
    0.35294117647059    0.00000000000000    0.00000000000000             8
    0.41176470588235    0.00000000000000    0.00000000000000             8
    0.47058823529412    0.00000000000000    0.00000000000000             8
    0.05882352941176    0.05882352941176    0.00000000000000             6
    0.11764705882353    0.05882352941176    0.00000000000000            24
    0.17647058823529    0.05882352941176    0.00000000000000            24
    0.23529411764706    0.05882352941176    0.00000000000000            24
    0.29411764705882    0.05882352941176    0.00000000000000            24
    0.35294117647059    0.05882352941176    0.00000000000000            24
    0.41176470588235    0.05882352941176    0.00000000000000            24
    0.47058823529412    0.05882352941176    0.00000000000000            24
   -0.47058823529412    0.05882352941176    0.00000000000000            24
   -0.41176470588235    0.05882352941176    0.00000000000000            24
   -0.35294117647059    0.05882352941176    0.00000000000000            24
   -0.29411764705882    0.05882352941176    0.00000000000000            24
   -0.23529411764706    0.05882352941176    0.00000000000000            24
   -0.17647058823529    0.05882352941176    0.00000000000000            24
   -0.11764705882353    0.05882352941176    0.00000000000000            24
   -0.05882352941176    0.05882352941176    0.00000000000000            12
    0.11764705882353    0.11764705882353    0.00000000000000             6
    0.17647058823529    0.11764705882353    0.00000000000000            24
    0.23529411764706    0.11764705882353    0.00000000000000            24
    0.29411764705882    0.11764705882353    0.00000000000000            24
    0.35294117647059    0.11764705882353    0.00000000000000            24
    0.41176470588235    0.11764705882353    0.00000000000000            24
    0.47058823529412    0.11764705882353    0.00000000000000            24
   -0.47058823529412    0.11764705882353    0.00000000000000            24
   -0.41176470588235    0.11764705882353    0.00000000000000            24
   -0.35294117647059    0.11764705882353    0.00000000000000            24
   -0.29411764705882    0.11764705882353    0.00000000000000            24
   -0.23529411764706    0.11764705882353    0.00000000000000            24
   -0.17647058823529    0.11764705882353    0.00000000000000            24
   -0.11764705882353    0.11764705882353    0.00000000000000            12
    0.17647058823529    0.17647058823529    0.00000000000000             6
    0.23529411764706    0.17647058823529    0.00000000000000            24
    0.29411764705882    0.17647058823529    0.00000000000000            24
    0.35294117647059    0.17647058823529    0.00000000000000            24
    0.41176470588235    0.17647058823529    0.00000000000000            24
    0.47058823529412    0.17647058823529    0.00000000000000            24
   -0.47058823529412    0.17647058823529    0.00000000000000            24
   -0.41176470588235    0.17647058823529    0.00000000000000            24
   -0.35294117647059    0.17647058823529    0.00000000000000            24
   -0.29411764705882    0.17647058823529    0.00000000000000            24
   -0.23529411764706    0.17647058823529    0.00000000000000            24
   -0.17647058823529    0.17647058823529    0.00000000000000            12
    0.23529411764706    0.23529411764706    0.00000000000000             6
    0.29411764705882    0.23529411764706    0.00000000000000            24
    0.35294117647059    0.23529411764706    0.00000000000000            24
    0.41176470588235    0.23529411764706    0.00000000000000            24
    0.47058823529412    0.23529411764706    0.00000000000000            24
   -0.47058823529412    0.23529411764706    0.00000000000000            24
   -0.41176470588235    0.23529411764706    0.00000000000000            24
   -0.35294117647059    0.23529411764706    0.00000000000000            24
   -0.29411764705882    0.23529411764706    0.00000000000000            24
   -0.23529411764706    0.23529411764706    0.00000000000000            12
    0.29411764705882    0.29411764705882    0.00000000000000             6
    0.35294117647059    0.29411764705882    0.00000000000000            24
    0.41176470588235    0.29411764705882    0.00000000000000            24
    0.47058823529412    0.29411764705882    0.00000000000000            24
   -0.47058823529412    0.29411764705882    0.00000000000000            24
   -0.41176470588235    0.29411764705882    0.00000000000000            24
   -0.35294117647059    0.29411764705882    0.00000000000000            24
   -0.29411764705882    0.29411764705882    0.00000000000000            12
    0.35294117647059    0.35294117647059    0.00000000000000             6
    0.41176470588235    0.35294117647059    0.00000000000000            24
    0.47058823529412    0.35294117647059    0.00000000000000            24
   -0.47058823529412    0.35294117647059    0.00000000000000            24
   -0.41176470588235    0.35294117647059    0.00000000000000            24
   -0.35294117647059    0.35294117647059    0.00000000000000            12
    0.41176470588235    0.41176470588235    0.00000000000000             6
    0.47058823529412    0.41176470588235    0.00000000000000            24
   -0.47058823529412    0.41176470588235    0.00000000000000            24
   -0.41176470588235    0.41176470588235    0.00000000000000            12
    0.47058823529412    0.47058823529412    0.00000000000000             6
   -0.47058823529412    0.47058823529412    0.00000000000000            12
    0.17647058823529    0.11764705882353    0.05882352941176            24
    0.23529411764706    0.11764705882353    0.05882352941176            48
    0.29411764705882    0.11764705882353    0.05882352941176            48
    0.35294117647059    0.11764705882353    0.05882352941176            48
    0.41176470588235    0.11764705882353    0.05882352941176            48
    0.47058823529412    0.11764705882353    0.05882352941176            48
   -0.47058823529412    0.11764705882353    0.05882352941176            48
    0.23529411764706    0.17647058823529    0.05882352941176            24
    0.29411764705882    0.17647058823529    0.05882352941176            48
    0.35294117647059    0.17647058823529    0.05882352941176            48
    0.41176470588235    0.17647058823529    0.05882352941176            48
    0.47058823529412    0.17647058823529    0.05882352941176            48
   -0.47058823529412    0.17647058823529    0.05882352941176            48
   -0.41176470588235    0.17647058823529    0.05882352941176            48
   -0.35294117647059    0.17647058823529    0.05882352941176            48
   -0.29411764705882    0.17647058823529    0.05882352941176            48
   -0.23529411764706    0.17647058823529    0.05882352941176            48
   -0.17647058823529    0.17647058823529    0.05882352941176            48
   -0.11764705882353    0.17647058823529    0.05882352941176            24
    0.29411764705882    0.23529411764706    0.05882352941176            24
    0.35294117647059    0.23529411764706    0.05882352941176            48
    0.41176470588235    0.23529411764706    0.05882352941176            48
    0.47058823529412    0.23529411764706    0.05882352941176            48
   -0.47058823529412    0.23529411764706    0.05882352941176            48
   -0.41176470588235    0.23529411764706    0.05882352941176            48
   -0.35294117647059    0.23529411764706    0.05882352941176            48
   -0.29411764705882    0.23529411764706    0.05882352941176            48
   -0.23529411764706    0.23529411764706    0.05882352941176            48
   -0.17647058823529    0.23529411764706    0.05882352941176            24
    0.35294117647059    0.29411764705882    0.05882352941176            24
    0.41176470588235    0.29411764705882    0.05882352941176            48
    0.47058823529412    0.29411764705882    0.05882352941176            48
   -0.47058823529412    0.29411764705882    0.05882352941176            48
   -0.41176470588235    0.29411764705882    0.05882352941176            48
   -0.35294117647059    0.29411764705882    0.05882352941176            48
   -0.29411764705882    0.29411764705882    0.05882352941176            48
   -0.23529411764706    0.29411764705882    0.05882352941176            24
    0.41176470588235    0.35294117647059    0.05882352941176            24
    0.47058823529412    0.35294117647059    0.05882352941176            48
   -0.47058823529412    0.35294117647059    0.05882352941176            48
   -0.41176470588235    0.35294117647059    0.05882352941176            48
   -0.35294117647059    0.35294117647059    0.05882352941176            48
   -0.29411764705882    0.35294117647059    0.05882352941176            24
    0.47058823529412    0.41176470588235    0.05882352941176            24
   -0.47058823529412    0.41176470588235    0.05882352941176            48
   -0.41176470588235    0.41176470588235    0.05882352941176            48
   -0.35294117647059    0.41176470588235    0.05882352941176            24
   -0.47058823529412    0.47058823529412    0.05882352941176            24
   -0.41176470588235    0.47058823529412    0.05882352941176            24
    0.35294117647059    0.23529411764706    0.11764705882353            24
    0.41176470588235    0.23529411764706    0.11764705882353            48
    0.47058823529412    0.23529411764706    0.11764705882353            48
   -0.47058823529412    0.23529411764706    0.11764705882353            48
   -0.41176470588235    0.23529411764706    0.11764705882353            48
    0.41176470588235    0.29411764705882    0.11764705882353            24
    0.47058823529412    0.29411764705882    0.11764705882353            48
   -0.47058823529412    0.29411764705882    0.11764705882353            48
   -0.41176470588235    0.29411764705882    0.11764705882353            48
   -0.35294117647059    0.29411764705882    0.11764705882353            48
   -0.29411764705882    0.29411764705882    0.11764705882353            48
   -0.23529411764706    0.29411764705882    0.11764705882353            48
   -0.17647058823529    0.29411764705882    0.11764705882353            24
    0.47058823529412    0.35294117647059    0.11764705882353            24
   -0.47058823529412    0.35294117647059    0.11764705882353            48
   -0.41176470588235    0.35294117647059    0.11764705882353            48
   -0.35294117647059    0.35294117647059    0.11764705882353            48
   -0.29411764705882    0.35294117647059    0.11764705882353            48
   -0.23529411764706    0.35294117647059    0.11764705882353            24
   -0.47058823529412    0.41176470588235    0.11764705882353            24
   -0.41176470588235    0.41176470588235    0.11764705882353            48
   -0.35294117647059    0.41176470588235    0.11764705882353            48
   -0.29411764705882    0.41176470588235    0.11764705882353            24
   -0.41176470588235    0.47058823529412    0.11764705882353            24
   -0.35294117647059    0.47058823529412    0.11764705882353            24
   -0.47058823529412    0.35294117647059    0.17647058823529            24
   -0.41176470588235    0.35294117647059    0.17647058823529            48
   -0.35294117647059    0.35294117647059    0.17647058823529            48
   -0.41176470588235    0.41176470588235    0.17647058823529            24
   -0.35294117647059    0.41176470588235    0.17647058823529            48
   -0.29411764705882    0.41176470588235    0.17647058823529            48
   -0.23529411764706    0.41176470588235    0.17647058823529            24
   -0.35294117647059    0.47058823529412    0.17647058823529            24
   -0.29411764705882    0.47058823529412    0.17647058823529            24
   -0.29411764705882    0.47058823529412    0.23529411764706            24
