 vasp.5.3.3 18Dez12 (build Jan 30 2013 10:57:47) complex                        
  
 executed on             LinuxIFC date 2016.06.21  14:31:48
 running on   16 total cores
 distrk:  each k-point on   16 cores,    1 groups
 distr:  one band on NCORES_PER_BAND=   4 cores,    4 groups


--------------------------------------------------------------------------------------------------------


 INCAR:
 POTCAR:    PAW_PBE Si 05Jan2001                  

 ----------------------------------------------------------------------------- 
|                                                                             |
|  ADVICE TO THIS USER RUNNING 'VASP/VAMP'   (HEAR YOUR MASTER'S VOICE ...):  |
|                                                                             |
|      You have switched on vdW-DFT.                                          |
|      This routine was written and supplied by Jiri Klimes.                  |
|      We recommed that you carefully read and cite the following             |
|      publication                                                            |
|      J. Klimes, D.R. Bowler, A. Michelides                                  |
|        J. Phys.: Cond Matt. 22 022201 (2010)                                |
|      J. Klimes, D.R. Bowler, A. Michelides                                  |
|        Phys. Rev. B. 83, 195131 (2011)                                      |
|      and references therein.                                                |
|                                                                             |
 ----------------------------------------------------------------------------- 

 POTCAR:    PAW_PBE Si 05Jan2001                  
   VRHFIN =Si: s2p2                                                             
   LEXCH  = PE                                                                  
   EATOM  =   103.0669 eV,    7.5752 Ry                                         
                                                                                
   TITEL  = PAW_PBE Si 05Jan2001                                                
   LULTRA =        F    use ultrasoft PP ?                                      
   IUNSCR =        1    unscreen: 0-lin 1-nonlin 2-no                           
   RPACOR =    1.500    partial core radius                                     
   POMASS =   28.085; ZVAL   =    4.000    mass and valenz                      
   RCORE  =    1.900    outmost cutoff radius                                   
   RWIGS  =    2.480; RWIGS  =    1.312    wigner-seitz radius (au A)           
   ENMAX  =  245.345; ENMIN  =  184.009 eV                                      
   ICORE  =        2    local potential                                         
   LCOR   =        T    correct aug charges                                     
   LPAW   =        T    paw PP                                                  
   EAUG   =  322.069                                                            
   DEXC   =    0.000                                                            
   RMAX   =    1.950    core radius for proj-oper                               
   RAUG   =    1.300    factor for augmentation sphere                          
   RDEP   =    1.993    radius for radial grids                                 
   RDEPT  =    1.837    core radius for aug-charge                              
                                                                                
   Atomic configuration                                                         
    6 entries                                                                   
     n  l   j            E        occ.                                          
     1  0  0.50     -1785.8828   2.0000                                         
     2  0  0.50      -139.4969   2.0000                                         
     2  1  1.50       -95.5546   6.0000                                         
     3  0  0.50       -10.8127   2.0000                                         
     3  1  0.50        -4.0811   2.0000                                         
     3  2  1.50        -4.0817   0.0000                                         
   Description                                                                  
     l       E           TYP  RCUT    TYP  RCUT                                 
     0    -10.8127223     23  1.900                                             
     0     -7.6451159     23  1.900                                             
     1     -4.0811372     23  1.900                                             
     1      2.4879257     23  1.900                                             
     2     -4.0817478      7  1.900                                             
  local pseudopotential read in
  partial core-charges read in
  partial kinetic energy density read in
  atomic valenz-charges read in
  non local Contribution for L=           0  read in
    real space projection operators read in
  non local Contribution for L=           0  read in
    real space projection operators read in
  non local Contribution for L=           1  read in
    real space projection operators read in
  non local Contribution for L=           1  read in
    real space projection operators read in
    PAW grid and wavefunctions read in
 
   number of l-projection  operators is LMAX  =           4
   number of lm-projection operators is LMMAX =           8
 

 ----------------------------------------------------------------------------- 
|                                                                             |
|  ADVICE TO THIS USER RUNNING 'VASP/VAMP'   (HEAR YOUR MASTER'S VOICE ...):  |
|                                                                             |
|      You enforced a specific xc-type in the INCAR file,                     |
|      a different type was found on the POTCAR file                          |
|          I HOPE YOU KNOW, WHAT YOU ARE  DOING                               |
|                                                                             |
 ----------------------------------------------------------------------------- 

  PAW_PBE Si 05Jan2001                  :
 energy of atom  1       EATOM= -103.0669
 kinetic energy error for atom=    0.0004 (will be added to EATOM!!)
 
 
 POSCAR: bulk@mp_149                             
  positions in direct lattice
  No initial velocities read in
 exchange correlation table for  LEXCH =       42
   RHO(1)=    0.500       N(1)  =     2000
   RHO(2)=  100.500       N(2)  =     4000
 


--------------------------------------------------------------------------------------------------------


 ion  position               nearest neighbor table
   1  0.875  0.875  0.875-   2 2.37   2 2.37   2 2.37   2 2.37
   2  0.125  0.125  0.125-   1 2.37   1 2.37   1 2.37   1 2.37
 
  LATTYP: Found a face centered cubic cell.
 ALAT       =     5.4687284904
  
  Lattice vectors:
  
 A1 = (   3.3488980000,   0.0000000000,   1.9334870000)
 A2 = (   1.1162990000,   3.1573720000,   1.9334870000)
 A3 = (   0.0000000000,   0.0000000000,   3.8669750000)


Analysis of symmetry for initial positions (statically):
=====================================================================
 Subroutine PRICEL returns:
 Original cell was already a primitive cell.
 

 Routine SETGRP: Setting up the symmetry group for a 
 face centered cubic supercell.


 Subroutine GETGRP returns: Found 48 space group operations
 (whereof 12 operations were pure point group operations)
 out of a pool of 48 trial point group operations.


The static configuration has the point symmetry D_3d.
 The point group associated with its full space group is O_h .


Analysis of symmetry for dynamics (positions and initial velocities):
=====================================================================
 Subroutine PRICEL returns:
 Original cell was already a primitive cell.
 

 Routine SETGRP: Setting up the symmetry group for a 
 face centered cubic supercell.


 Subroutine GETGRP returns: Found 48 space group operations
 (whereof 12 operations were pure point group operations)
 out of a pool of 48 trial point group operations.


The dynamic configuration has the point symmetry D_3d.
 The point group associated with its full space group is O_h .


 irot  :   1
 --------------------------------------------------------------------
 isymop:   1   0   0
           0   1   0
           0   0   1

 gtrans:     0.0000000     0.0000000     0.0000000

 ptrans:     0.0000000     0.0000000     0.0000000
 rotmap:
 (   1->   1)  (   2->   2) 


 irot  :   2
 --------------------------------------------------------------------
 isymop:  -1   0   0
           0  -1   0
           0   0  -1

 gtrans:     0.0000000     0.0000000     0.0000000

 ptrans:     0.0000000     0.0000000     0.0000000
 rotmap:
 (   1->   2)  (   2->   1) 


 irot  :   3
 --------------------------------------------------------------------
 isymop:   0   0   1
           1   0   0
           0   1   0

 gtrans:     0.0000000     0.0000000     0.0000000

 ptrans:     0.0000000     0.0000000     0.0000000
 rotmap:
 (   1->   1)  (   2->   2) 


 irot  :   4
 --------------------------------------------------------------------
 isymop:   0   0  -1
          -1   0   0
           0  -1   0

 gtrans:     0.0000000     0.0000000     0.0000000

 ptrans:     0.0000000     0.0000000     0.0000000
 rotmap:
 (   1->   2)  (   2->   1) 


 irot  :   5
 --------------------------------------------------------------------
 isymop:   0   1   0
           0   0   1
           1   0   0

 gtrans:     0.0000000     0.0000000     0.0000000

 ptrans:     0.0000000     0.0000000     0.0000000
 rotmap:
 (   1->   1)  (   2->   2) 


 irot  :   6
 --------------------------------------------------------------------
 isymop:   0  -1   0
           0   0  -1
          -1   0   0

 gtrans:     0.0000000     0.0000000     0.0000000

 ptrans:     0.0000000     0.0000000     0.0000000
 rotmap:
 (   1->   2)  (   2->   1) 


 irot  :   7
 --------------------------------------------------------------------
 isymop:  -1   0   0
           0   0  -1
           0  -1   0

 gtrans:     0.0000000     0.0000000     0.0000000

 ptrans:     0.0000000     0.0000000     0.0000000
 rotmap:
 (   1->   2)  (   2->   1) 


 irot  :   8
 --------------------------------------------------------------------
 isymop:   1   0   0
           0   0   1
           0   1   0

 gtrans:     0.0000000     0.0000000     0.0000000

 ptrans:     0.0000000     0.0000000     0.0000000
 rotmap:
 (   1->   1)  (   2->   2) 


 irot  :   9
 --------------------------------------------------------------------
 isymop:   0  -1   0
          -1   0   0
           0   0  -1

 gtrans:     0.0000000     0.0000000     0.0000000

 ptrans:     0.0000000     0.0000000     0.0000000
 rotmap:
 (   1->   2)  (   2->   1) 


 irot  :  10
 --------------------------------------------------------------------
 isymop:   0   1   0
           1   0   0
           0   0   1

 gtrans:     0.0000000     0.0000000     0.0000000

 ptrans:     0.0000000     0.0000000     0.0000000
 rotmap:
 (   1->   1)  (   2->   2) 


 irot  :  11
 --------------------------------------------------------------------
 isymop:   0   0  -1
           0  -1   0
          -1   0   0

 gtrans:     0.0000000     0.0000000     0.0000000

 ptrans:     0.0000000     0.0000000     0.0000000
 rotmap:
 (   1->   2)  (   2->   1) 


 irot  :  12
 --------------------------------------------------------------------
 isymop:   0   0   1
           0   1   0
           1   0   0

 gtrans:     0.0000000     0.0000000     0.0000000

 ptrans:     0.0000000     0.0000000     0.0000000
 rotmap:
 (   1->   1)  (   2->   2) 


 irot  :  13
 --------------------------------------------------------------------
 isymop:   1   1   1
           0   0  -1
          -1   0   0

 gtrans:     0.5000000     0.0000000     0.0000000

 ptrans:     0.0000000     0.0000000     0.0000000
 rotmap:
 (   1->   2)  (   2->   1) 


 irot  :  14
 --------------------------------------------------------------------
 isymop:  -1  -1  -1
           0   0   1
           1   0   0

 gtrans:     0.5000000     0.0000000     0.0000000

 ptrans:     0.0000000     0.0000000     0.0000000
 rotmap:
 (   1->   1)  (   2->   2) 


 irot  :  15
 --------------------------------------------------------------------
 isymop:   1   1   1
           0  -1   0
           0   0  -1

 gtrans:     0.5000000     0.0000000     0.0000000

 ptrans:     0.0000000     0.0000000     0.0000000
 rotmap:
 (   1->   2)  (   2->   1) 


 irot  :  16
 --------------------------------------------------------------------
 isymop:  -1  -1  -1
           0   1   0
           0   0   1

 gtrans:     0.5000000     0.0000000     0.0000000

 ptrans:     0.0000000     0.0000000     0.0000000
 rotmap:
 (   1->   1)  (   2->   2) 


 irot  :  17
 --------------------------------------------------------------------
 isymop:   1   1   1
          -1   0   0
           0  -1   0

 gtrans:     0.5000000     0.0000000     0.0000000

 ptrans:     0.0000000     0.0000000     0.0000000
 rotmap:
 (   1->   2)  (   2->   1) 


 irot  :  18
 --------------------------------------------------------------------
 isymop:  -1  -1  -1
           1   0   0
           0   1   0

 gtrans:     0.5000000     0.0000000     0.0000000

 ptrans:     0.0000000     0.0000000     0.0000000
 rotmap:
 (   1->   1)  (   2->   2) 


 irot  :  19
 --------------------------------------------------------------------
 isymop:   0   1   0
           1   0   0
          -1  -1  -1

 gtrans:     0.0000000     0.0000000     0.5000000

 ptrans:     0.0000000     0.0000000     0.0000000
 rotmap:
 (   1->   1)  (   2->   2) 


 irot  :  20
 --------------------------------------------------------------------
 isymop:   0  -1   0
          -1   0   0
           1   1   1

 gtrans:     0.0000000     0.0000000     0.5000000

 ptrans:     0.0000000     0.0000000     0.0000000
 rotmap:
 (   1->   2)  (   2->   1) 


 irot  :  21
 --------------------------------------------------------------------
 isymop:   1   0   0
           0   0   1
          -1  -1  -1

 gtrans:     0.0000000     0.0000000     0.5000000

 ptrans:     0.0000000     0.0000000     0.0000000
 rotmap:
 (   1->   1)  (   2->   2) 


 irot  :  22
 --------------------------------------------------------------------
 isymop:  -1   0   0
           0   0  -1
           1   1   1

 gtrans:     0.0000000     0.0000000     0.5000000

 ptrans:     0.0000000     0.0000000     0.0000000
 rotmap:
 (   1->   2)  (   2->   1) 


 irot  :  23
 --------------------------------------------------------------------
 isymop:   0   0   1
           0   1   0
          -1  -1  -1

 gtrans:     0.0000000     0.0000000     0.5000000

 ptrans:     0.0000000     0.0000000     0.0000000
 rotmap:
 (   1->   1)  (   2->   2) 


 irot  :  24
 --------------------------------------------------------------------
 isymop:   0   0  -1
           0  -1   0
           1   1   1

 gtrans:     0.0000000     0.0000000     0.5000000

 ptrans:     0.0000000     0.0000000     0.0000000
 rotmap:
 (   1->   2)  (   2->   1) 


 irot  :  25
 --------------------------------------------------------------------
 isymop:   0   0  -1
           1   1   1
           0  -1   0

 gtrans:     0.0000000     0.5000000     0.0000000

 ptrans:     0.0000000     0.0000000     0.0000000
 rotmap:
 (   1->   2)  (   2->   1) 


 irot  :  26
 --------------------------------------------------------------------
 isymop:   0   0   1
          -1  -1  -1
           0   1   0

 gtrans:     0.0000000     0.5000000     0.0000000

 ptrans:     0.0000000     0.0000000     0.0000000
 rotmap:
 (   1->   1)  (   2->   2) 


 irot  :  27
 --------------------------------------------------------------------
 isymop:   0  -1   0
           1   1   1
          -1   0   0

 gtrans:     0.0000000     0.5000000     0.0000000

 ptrans:     0.0000000     0.0000000     0.0000000
 rotmap:
 (   1->   2)  (   2->   1) 


 irot  :  28
 --------------------------------------------------------------------
 isymop:   0   1   0
          -1  -1  -1
           1   0   0

 gtrans:     0.0000000     0.5000000     0.0000000

 ptrans:     0.0000000     0.0000000     0.0000000
 rotmap:
 (   1->   1)  (   2->   2) 


 irot  :  29
 --------------------------------------------------------------------
 isymop:  -1   0   0
           1   1   1
           0   0  -1

 gtrans:     0.0000000     0.5000000     0.0000000

 ptrans:     0.0000000     0.0000000     0.0000000
 rotmap:
 (   1->   2)  (   2->   1) 


 irot  :  30
 --------------------------------------------------------------------
 isymop:   1   0   0
          -1  -1  -1
           0   0   1

 gtrans:     0.0000000     0.5000000     0.0000000

 ptrans:     0.0000000     0.0000000     0.0000000
 rotmap:
 (   1->   1)  (   2->   2) 


 irot  :  31
 --------------------------------------------------------------------
 isymop:  -1  -1  -1
           0   1   0
           1   0   0

 gtrans:     0.5000000     0.0000000     0.0000000

 ptrans:     0.0000000     0.0000000     0.0000000
 rotmap:
 (   1->   1)  (   2->   2) 


 irot  :  32
 --------------------------------------------------------------------
 isymop:   1   1   1
           0  -1   0
          -1   0   0

 gtrans:     0.5000000     0.0000000     0.0000000

 ptrans:     0.0000000     0.0000000     0.0000000
 rotmap:
 (   1->   2)  (   2->   1) 


 irot  :  33
 --------------------------------------------------------------------
 isymop:  -1  -1  -1
           1   0   0
           0   0   1

 gtrans:     0.5000000     0.0000000     0.0000000

 ptrans:     0.0000000     0.0000000     0.0000000
 rotmap:
 (   1->   1)  (   2->   2) 


 irot  :  34
 --------------------------------------------------------------------
 isymop:   1   1   1
          -1   0   0
           0   0  -1

 gtrans:     0.5000000     0.0000000     0.0000000

 ptrans:     0.0000000     0.0000000     0.0000000
 rotmap:
 (   1->   2)  (   2->   1) 


 irot  :  35
 --------------------------------------------------------------------
 isymop:  -1  -1  -1
           0   0   1
           0   1   0

 gtrans:     0.5000000     0.0000000     0.0000000

 ptrans:     0.0000000     0.0000000     0.0000000
 rotmap:
 (   1->   1)  (   2->   2) 


 irot  :  36
 --------------------------------------------------------------------
 isymop:   1   1   1
           0   0  -1
           0  -1   0

 gtrans:     0.5000000     0.0000000     0.0000000

 ptrans:     0.0000000     0.0000000     0.0000000
 rotmap:
 (   1->   2)  (   2->   1) 


 irot  :  37
 --------------------------------------------------------------------
 isymop:   0  -1   0
           0   0  -1
           1   1   1

 gtrans:     0.0000000     0.0000000     0.5000000

 ptrans:     0.0000000     0.0000000     0.0000000
 rotmap:
 (   1->   2)  (   2->   1) 


 irot  :  38
 --------------------------------------------------------------------
 isymop:   0   1   0
           0   0   1
          -1  -1  -1

 gtrans:     0.0000000     0.0000000     0.5000000

 ptrans:     0.0000000     0.0000000     0.0000000
 rotmap:
 (   1->   1)  (   2->   2) 


 irot  :  39
 --------------------------------------------------------------------
 isymop:  -1   0   0
           0  -1   0
           1   1   1

 gtrans:     0.0000000     0.0000000     0.5000000

 ptrans:     0.0000000     0.0000000     0.0000000
 rotmap:
 (   1->   2)  (   2->   1) 


 irot  :  40
 --------------------------------------------------------------------
 isymop:   1   0   0
           0   1   0
          -1  -1  -1

 gtrans:     0.0000000     0.0000000     0.5000000

 ptrans:     0.0000000     0.0000000     0.0000000
 rotmap:
 (   1->   1)  (   2->   2) 


 irot  :  41
 --------------------------------------------------------------------
 isymop:   0   0  -1
          -1   0   0
           1   1   1

 gtrans:     0.0000000     0.0000000     0.5000000

 ptrans:     0.0000000     0.0000000     0.0000000
 rotmap:
 (   1->   2)  (   2->   1) 


 irot  :  42
 --------------------------------------------------------------------
 isymop:   0   0   1
           1   0   0
          -1  -1  -1

 gtrans:     0.0000000     0.0000000     0.5000000

 ptrans:     0.0000000     0.0000000     0.0000000
 rotmap:
 (   1->   1)  (   2->   2) 


 irot  :  43
 --------------------------------------------------------------------
 isymop:   1   0   0
          -1  -1  -1
           0   1   0

 gtrans:     0.0000000     0.5000000     0.0000000

 ptrans:     0.0000000     0.0000000     0.0000000
 rotmap:
 (   1->   1)  (   2->   2) 


 irot  :  44
 --------------------------------------------------------------------
 isymop:  -1   0   0
           1   1   1
           0  -1   0

 gtrans:     0.0000000     0.5000000     0.0000000

 ptrans:     0.0000000     0.0000000     0.0000000
 rotmap:
 (   1->   2)  (   2->   1) 


 irot  :  45
 --------------------------------------------------------------------
 isymop:   0   0   1
          -1  -1  -1
           1   0   0

 gtrans:     0.0000000     0.5000000     0.0000000

 ptrans:     0.0000000     0.0000000     0.0000000
 rotmap:
 (   1->   1)  (   2->   2) 


 irot  :  46
 --------------------------------------------------------------------
 isymop:   0   0  -1
           1   1   1
          -1   0   0

 gtrans:     0.0000000     0.5000000     0.0000000

 ptrans:     0.0000000     0.0000000     0.0000000
 rotmap:
 (   1->   2)  (   2->   1) 


 irot  :  47
 --------------------------------------------------------------------
 isymop:   0   1   0
          -1  -1  -1
           0   0   1

 gtrans:     0.0000000     0.5000000     0.0000000

 ptrans:     0.0000000     0.0000000     0.0000000
 rotmap:
 (   1->   1)  (   2->   2) 


 irot  :  48
 --------------------------------------------------------------------
 isymop:   0  -1   0
           1   1   1
           0   0  -1

 gtrans:     0.0000000     0.5000000     0.0000000

 ptrans:     0.0000000     0.0000000     0.0000000
 rotmap:
 (   1->   2)  (   2->   1) 
 
 
 KPOINTS: Automatic kpoint scheme                 

Automatic generation of k-mesh.
Space group operators:
 irot       det(A)        alpha          n_x          n_y          n_z        tau_x        tau_y        tau_z
    1     1.000000     0.000000     1.000000     0.000000     0.000000     0.000000     0.000000     0.000000
    2    -1.000000     0.000000     1.000000     0.000000     0.000000     0.000000     0.000000     0.000000
    3     1.000000   120.000000    -0.471405    -0.333333    -0.816497     0.000000     0.000000     0.000000
    4    -1.000000   120.000000    -0.471405    -0.333333    -0.816497     0.000000     0.000000     0.000000
    5     1.000000   120.000000     0.471405     0.333334     0.816496     0.000000     0.000000     0.000000
    6    -1.000000   120.000000     0.471405     0.333334     0.816496     0.000000     0.000000     0.000000
    7     1.000000   180.000000     0.288675     0.816497    -0.500000     0.000000     0.000000     0.000000
    8    -1.000000   180.000000     0.288675     0.816497    -0.500000     0.000000     0.000000     0.000000
    9     1.000000   180.000000     0.577350    -0.816497     0.000000     0.000000     0.000000     0.000000
   10    -1.000000   180.000000     0.577350    -0.816497     0.000000     0.000000     0.000000     0.000000
   11     1.000000   180.000000     0.866025     0.000000    -0.500000     0.000000     0.000000     0.000000
   12    -1.000000   180.000000     0.866025     0.000000    -0.500000     0.000000     0.000000     0.000000
   13     1.000000    90.000000    -0.816496    -0.577350     0.000000     0.500000     0.000000     0.000000
   14    -1.000000    90.000000    -0.816496    -0.577350     0.000000     0.500000     0.000000     0.000000
   15     1.000000   180.000000     0.866025     0.000000     0.500000     0.500000     0.000000     0.000000
   16    -1.000000   180.000000     0.866025     0.000000     0.500000     0.500000     0.000000     0.000000
   17     1.000000    90.000000     0.408248    -0.577350     0.707107     0.500000     0.000000     0.000000
   18    -1.000000    90.000000     0.408248    -0.577350     0.707107     0.500000     0.000000     0.000000
   19     1.000000   180.000000     0.816497     0.577350     0.000000     0.000000     0.000000     0.500000
   20    -1.000000   180.000000     0.816497     0.577350     0.000000     0.000000     0.000000     0.500000
   21     1.000000   120.000000     0.942809    -0.333333     0.000000     0.000000     0.000000     0.500000
   22    -1.000000   120.000000     0.942809    -0.333333     0.000000     0.000000     0.000000     0.500000
   23     1.000000   120.000000     0.000000    -1.000000     0.000000     0.000000     0.000000     0.500000
   24    -1.000000   120.000000     0.000000    -1.000000     0.000000     0.000000     0.000000     0.500000
   25     1.000000    90.000000     0.816497     0.577350     0.000000     0.000000     0.500000     0.000000
   26    -1.000000    90.000000     0.816497     0.577350     0.000000     0.000000     0.500000     0.000000
   27     1.000000    90.000000     0.408248    -0.577350    -0.707107     0.000000     0.500000     0.000000
   28    -1.000000    90.000000     0.408248    -0.577350    -0.707107     0.000000     0.500000     0.000000
   29     1.000000   180.000000     0.288675     0.816497     0.500000     0.000000     0.500000     0.000000
   30    -1.000000   180.000000     0.288675     0.816497     0.500000     0.000000     0.500000     0.000000
   31     1.000000   120.000000     0.000000     1.000000     0.000000     0.500000     0.000000     0.000000
   32    -1.000000   120.000000     0.000000     1.000000     0.000000     0.500000     0.000000     0.000000
   33     1.000000   120.000000     0.471404     0.333333    -0.816497     0.500000     0.000000     0.000000
   34    -1.000000   120.000000     0.471404     0.333333    -0.816497     0.500000     0.000000     0.000000
   35     1.000000   180.000000    -0.408248     0.577350     0.707107     0.500000     0.000000     0.000000
   36    -1.000000   180.000000    -0.408248     0.577350     0.707107     0.500000     0.000000     0.000000
   37     1.000000    90.000000    -0.408248     0.577350    -0.707107     0.000000     0.000000     0.500000
   38    -1.000000    90.000000    -0.408248     0.577350    -0.707107     0.000000     0.000000     0.500000
   39     1.000000   180.000000     0.000000     0.000000     1.000000     0.000000     0.000000     0.500000
   40    -1.000000   180.000000     0.000000     0.000000     1.000000     0.000000     0.000000     0.500000
   41     1.000000    90.000000    -0.408248     0.577350     0.707107     0.000000     0.000000     0.500000
   42    -1.000000    90.000000    -0.408248     0.577350     0.707107     0.000000     0.000000     0.500000
   43     1.000000   120.000000    -0.942809     0.333333     0.000000     0.000000     0.500000     0.000000
   44    -1.000000   120.000000    -0.942809     0.333333     0.000000     0.000000     0.500000     0.000000
   45     1.000000   179.999999    -0.408248     0.577350    -0.707107     0.000000     0.500000     0.000000
   46    -1.000000   179.999999    -0.408248     0.577350    -0.707107     0.000000     0.500000     0.000000
   47     1.000000   120.000000    -0.471404    -0.333333     0.816497     0.000000     0.500000     0.000000
   48    -1.000000   120.000000    -0.471404    -0.333333     0.816497     0.000000     0.500000     0.000000
 
 Subroutine IBZKPT returns following result:
 ===========================================
 
 Found    165 irreducible k-points:
 
 Following reciprocal coordinates:
            Coordinates               Weight
  0.000000  0.000000  0.000000      1.000000
  0.058824  0.000000  0.000000      8.000000
  0.117647  0.000000  0.000000      8.000000
  0.176471  0.000000  0.000000      8.000000
  0.235294  0.000000  0.000000      8.000000
  0.294118  0.000000  0.000000      8.000000
  0.352941  0.000000  0.000000      8.000000
  0.411765  0.000000  0.000000      8.000000
  0.470588  0.000000  0.000000      8.000000
  0.058824  0.058824  0.000000      6.000000
  0.117647  0.058824  0.000000     24.000000
  0.176471  0.058824  0.000000     24.000000
  0.235294  0.058824  0.000000     24.000000
  0.294118  0.058824  0.000000     24.000000
  0.352941  0.058824  0.000000     24.000000
  0.411765  0.058824  0.000000     24.000000
  0.470588  0.058824  0.000000     24.000000
 -0.470588  0.058824  0.000000     24.000000
 -0.411765  0.058824  0.000000     24.000000
 -0.352941  0.058824  0.000000     24.000000
 -0.294118  0.058824  0.000000     24.000000
 -0.235294  0.058824  0.000000     24.000000
 -0.176471  0.058824  0.000000     24.000000
 -0.117647  0.058824  0.000000     24.000000
 -0.058824  0.058824  0.000000     12.000000
  0.117647  0.117647  0.000000      6.000000
  0.176471  0.117647  0.000000     24.000000
  0.235294  0.117647  0.000000     24.000000
  0.294118  0.117647  0.000000     24.000000
  0.352941  0.117647  0.000000     24.000000
  0.411765  0.117647  0.000000     24.000000
  0.470588  0.117647  0.000000     24.000000
 -0.470588  0.117647  0.000000     24.000000
 -0.411765  0.117647  0.000000     24.000000
 -0.352941  0.117647  0.000000     24.000000
 -0.294118  0.117647  0.000000     24.000000
 -0.235294  0.117647  0.000000     24.000000
 -0.176471  0.117647  0.000000     24.000000
 -0.117647  0.117647  0.000000     12.000000
  0.176471  0.176471  0.000000      6.000000
  0.235294  0.176471  0.000000     24.000000
  0.294118  0.176471  0.000000     24.000000
  0.352941  0.176471  0.000000     24.000000
  0.411765  0.176471  0.000000     24.000000
  0.470588  0.176471  0.000000     24.000000
 -0.470588  0.176471  0.000000     24.000000
 -0.411765  0.176471  0.000000     24.000000
 -0.352941  0.176471  0.000000     24.000000
 -0.294118  0.176471  0.000000     24.000000
 -0.235294  0.176471  0.000000     24.000000
 -0.176471  0.176471  0.000000     12.000000
  0.235294  0.235294  0.000000      6.000000
  0.294118  0.235294  0.000000     24.000000
  0.352941  0.235294  0.000000     24.000000
  0.411765  0.235294  0.000000     24.000000
  0.470588  0.235294  0.000000     24.000000
 -0.470588  0.235294  0.000000     24.000000
 -0.411765  0.235294  0.000000     24.000000
 -0.352941  0.235294  0.000000     24.000000
 -0.294118  0.235294  0.000000     24.000000
 -0.235294  0.235294  0.000000     12.000000
  0.294118  0.294118  0.000000      6.000000
  0.352941  0.294118  0.000000     24.000000
  0.411765  0.294118  0.000000     24.000000
  0.470588  0.294118  0.000000     24.000000
 -0.470588  0.294118  0.000000     24.000000
 -0.411765  0.294118  0.000000     24.000000
 -0.352941  0.294118  0.000000     24.000000
 -0.294118  0.294118  0.000000     12.000000
  0.352941  0.352941  0.000000      6.000000
  0.411765  0.352941  0.000000     24.000000
  0.470588  0.352941  0.000000     24.000000
 -0.470588  0.352941  0.000000     24.000000
 -0.411765  0.352941  0.000000     24.000000
 -0.352941  0.352941  0.000000     12.000000
  0.411765  0.411765  0.000000      6.000000
  0.470588  0.411765  0.000000     24.000000
 -0.470588  0.411765  0.000000     24.000000
 -0.411765  0.411765  0.000000     12.000000
  0.470588  0.470588  0.000000      6.000000
 -0.470588  0.470588  0.000000     12.000000
  0.176471  0.117647  0.058824     24.000000
  0.235294  0.117647  0.058824     48.000000
  0.294118  0.117647  0.058824     48.000000
  0.352941  0.117647  0.058824     48.000000
  0.411765  0.117647  0.058824     48.000000
  0.470588  0.117647  0.058824     48.000000
 -0.470588  0.117647  0.058824     48.000000
  0.235294  0.176471  0.058824     24.000000
  0.294118  0.176471  0.058824     48.000000
  0.352941  0.176471  0.058824     48.000000
  0.411765  0.176471  0.058824     48.000000
  0.470588  0.176471  0.058824     48.000000
 -0.470588  0.176471  0.058824     48.000000
 -0.411765  0.176471  0.058824     48.000000
 -0.352941  0.176471  0.058824     48.000000
 -0.294118  0.176471  0.058824     48.000000
 -0.235294  0.176471  0.058824     48.000000
 -0.176471  0.176471  0.058824     48.000000
 -0.117647  0.176471  0.058824     24.000000
  0.294118  0.235294  0.058824     24.000000
  0.352941  0.235294  0.058824     48.000000
  0.411765  0.235294  0.058824     48.000000
  0.470588  0.235294  0.058824     48.000000
 -0.470588  0.235294  0.058824     48.000000
 -0.411765  0.235294  0.058824     48.000000
 -0.352941  0.235294  0.058824     48.000000
 -0.294118  0.235294  0.058824     48.000000
 -0.235294  0.235294  0.058824     48.000000
 -0.176471  0.235294  0.058824     24.000000
  0.352941  0.294118  0.058824     24.000000
  0.411765  0.294118  0.058824     48.000000
  0.470588  0.294118  0.058824     48.000000
 -0.470588  0.294118  0.058824     48.000000
 -0.411765  0.294118  0.058824     48.000000
 -0.352941  0.294118  0.058824     48.000000
 -0.294118  0.294118  0.058824     48.000000
 -0.235294  0.294118  0.058824     24.000000
  0.411765  0.352941  0.058824     24.000000
  0.470588  0.352941  0.058824     48.000000
 -0.470588  0.352941  0.058824     48.000000
 -0.411765  0.352941  0.058824     48.000000
 -0.352941  0.352941  0.058824     48.000000
 -0.294118  0.352941  0.058824     24.000000
  0.470588  0.411765  0.058824     24.000000
 -0.470588  0.411765  0.058824     48.000000
 -0.411765  0.411765  0.058824     48.000000
 -0.352941  0.411765  0.058824     24.000000
 -0.470588  0.470588  0.058824     24.000000
 -0.411765  0.470588  0.058824     24.000000
  0.352941  0.235294  0.117647     24.000000
  0.411765  0.235294  0.117647     48.000000
  0.470588  0.235294  0.117647     48.000000
 -0.470588  0.235294  0.117647     48.000000
 -0.411765  0.235294  0.117647     48.000000
  0.411765  0.294118  0.117647     24.000000
  0.470588  0.294118  0.117647     48.000000
 -0.470588  0.294118  0.117647     48.000000
 -0.411765  0.294118  0.117647     48.000000
 -0.352941  0.294118  0.117647     48.000000
 -0.294118  0.294118  0.117647     48.000000
 -0.235294  0.294118  0.117647     48.000000
 -0.176471  0.294118  0.117647     24.000000
  0.470588  0.352941  0.117647     24.000000
 -0.470588  0.352941  0.117647     48.000000
 -0.411765  0.352941  0.117647     48.000000
 -0.352941  0.352941  0.117647     48.000000
 -0.294118  0.352941  0.117647     48.000000
 -0.235294  0.352941  0.117647     24.000000
 -0.470588  0.411765  0.117647     24.000000
 -0.411765  0.411765  0.117647     48.000000
 -0.352941  0.411765  0.117647     48.000000
 -0.294118  0.411765  0.117647     24.000000
 -0.411765  0.470588  0.117647     24.000000
 -0.352941  0.470588  0.117647     24.000000
 -0.470588  0.352941  0.176471     24.000000
 -0.411765  0.352941  0.176471     48.000000
 -0.352941  0.352941  0.176471     48.000000
 -0.411765  0.411765  0.176471     24.000000
 -0.352941  0.411765  0.176471     48.000000
 -0.294118  0.411765  0.176471     48.000000
 -0.235294  0.411765  0.176471     24.000000
 -0.352941  0.470588  0.176471     24.000000
 -0.294118  0.470588  0.176471     24.000000
 -0.294118  0.470588  0.235294     24.000000
 
 Following cartesian coordinates:
            Coordinates               Weight
  0.000000  0.000000  0.000000      1.000000
  0.017565 -0.006210  0.000000      8.000000
  0.035130 -0.012420  0.000000      8.000000
  0.052695 -0.018631  0.000000      8.000000
  0.070260 -0.024841  0.000000      8.000000
  0.087825 -0.031051  0.000000      8.000000
  0.105390 -0.037261  0.000000      8.000000
  0.122955 -0.043471  0.000000      8.000000
  0.140520 -0.049681  0.000000      8.000000
  0.017565  0.012420  0.000000      6.000000
  0.035130  0.006210  0.000000     24.000000
  0.052695  0.000000  0.000000     24.000000
  0.070260 -0.006210  0.000000     24.000000
  0.087825 -0.012420  0.000000     24.000000
  0.105390 -0.018631  0.000000     24.000000
  0.122955 -0.024841  0.000000     24.000000
  0.140520 -0.031051  0.000000     24.000000
 -0.140520  0.068312  0.000000     24.000000
 -0.122955  0.062102  0.000000     24.000000
 -0.105390  0.055892  0.000000     24.000000
 -0.087825  0.049681  0.000000     24.000000
 -0.070260  0.043471  0.000000     24.000000
 -0.052695  0.037261  0.000000     24.000000
 -0.035130  0.031051  0.000000     24.000000
 -0.017565  0.024841  0.000000     12.000000
  0.035130  0.024841  0.000000      6.000000
  0.052695  0.018631  0.000000     24.000000
  0.070260  0.012420  0.000000     24.000000
  0.087825  0.006210  0.000000     24.000000
  0.105390  0.000000  0.000000     24.000000
  0.122955 -0.006210  0.000000     24.000000
  0.140520 -0.012420  0.000000     24.000000
 -0.140520  0.086942  0.000000     24.000000
 -0.122955  0.080732  0.000000     24.000000
 -0.105390  0.074522  0.000000     24.000000
 -0.087825  0.068312  0.000000     24.000000
 -0.070260  0.062102  0.000000     24.000000
 -0.052695  0.055892  0.000000     24.000000
 -0.035130  0.049681  0.000000     12.000000
  0.052695  0.037261  0.000000      6.000000
  0.070260  0.031051  0.000000     24.000000
  0.087825  0.024841  0.000000     24.000000
  0.105390  0.018631  0.000000     24.000000
  0.122955  0.012420  0.000000     24.000000
  0.140520  0.006210  0.000000     24.000000
 -0.140520  0.105573  0.000000     24.000000
 -0.122955  0.099363  0.000000     24.000000
 -0.105390  0.093153  0.000000     24.000000
 -0.087825  0.086942  0.000000     24.000000
 -0.070260  0.080732  0.000000     24.000000
 -0.052695  0.074522  0.000000     12.000000
  0.070260  0.049681  0.000000      6.000000
  0.087825  0.043471  0.000000     24.000000
  0.105390  0.037261  0.000000     24.000000
  0.122955  0.031051  0.000000     24.000000
  0.140520  0.024841  0.000000     24.000000
 -0.140520  0.124204  0.000000     24.000000
 -0.122955  0.117993  0.000000     24.000000
 -0.105390  0.111783  0.000000     24.000000
 -0.087825  0.105573  0.000000     24.000000
 -0.070260  0.099363  0.000000     12.000000
  0.087825  0.062102  0.000000      6.000000
  0.105390  0.055892  0.000000     24.000000
  0.122955  0.049681  0.000000     24.000000
  0.140520  0.043471  0.000000     24.000000
 -0.140520  0.142834  0.000000     24.000000
 -0.122955  0.136624  0.000000     24.000000
 -0.105390  0.130414  0.000000     24.000000
 -0.087825  0.124204  0.000000     12.000000
  0.105390  0.074522  0.000000      6.000000
  0.122955  0.068312  0.000000     24.000000
  0.140520  0.062102  0.000000     24.000000
 -0.140520  0.161465  0.000000     24.000000
 -0.122955  0.155254  0.000000     24.000000
 -0.105390  0.149044  0.000000     12.000000
  0.122955  0.086943  0.000000      6.000000
  0.140520  0.080732  0.000000     24.000000
 -0.140520  0.180095  0.000000     24.000000
 -0.122955  0.173885  0.000000     12.000000
  0.140520  0.099363  0.000000      6.000000
 -0.140520  0.198726  0.000000     12.000000
  0.043913  0.012420  0.015212     24.000000
  0.061478  0.006210  0.015212     48.000000
  0.079043  0.000000  0.015212     48.000000
  0.096608 -0.006210  0.015212     48.000000
  0.114173 -0.012420  0.015212     48.000000
  0.131738 -0.018631  0.015212     48.000000
 -0.149303  0.080732  0.015212     48.000000
  0.061478  0.024841  0.015212     24.000000
  0.079043  0.018631  0.015212     48.000000
  0.096608  0.012420  0.015212     48.000000
  0.114173  0.006210  0.015212     48.000000
  0.131738  0.000000  0.015212     48.000000
 -0.149303  0.099363  0.015212     48.000000
 -0.131738  0.093153  0.015212     48.000000
 -0.114173  0.086942  0.015212     48.000000
 -0.096608  0.080732  0.015212     48.000000
 -0.079043  0.074522  0.015212     48.000000
 -0.061478  0.068312  0.015212     48.000000
 -0.043913  0.062102  0.015212     24.000000
  0.079043  0.037261  0.015212     24.000000
  0.096608  0.031051  0.015212     48.000000
  0.114173  0.024841  0.015212     48.000000
  0.131738  0.018631  0.015212     48.000000
 -0.149303  0.117993  0.015212     48.000000
 -0.131738  0.111783  0.015212     48.000000
 -0.114173  0.105573  0.015212     48.000000
 -0.096608  0.099363  0.015212     48.000000
 -0.079043  0.093153  0.015212     48.000000
 -0.061478  0.086942  0.015212     24.000000
  0.096608  0.049681  0.015212     24.000000
  0.114173  0.043471  0.015212     48.000000
  0.131738  0.037261  0.015212     48.000000
 -0.149303  0.136624  0.015212     48.000000
 -0.131738  0.130414  0.015212     48.000000
 -0.114173  0.124204  0.015212     48.000000
 -0.096608  0.117993  0.015212     48.000000
 -0.079043  0.111783  0.015212     24.000000
  0.114173  0.062102  0.015212     24.000000
  0.131738  0.055892  0.015212     48.000000
 -0.149303  0.155254  0.015212     48.000000
 -0.131738  0.149044  0.015212     48.000000
 -0.114173  0.142834  0.015212     48.000000
 -0.096608  0.136624  0.015212     24.000000
  0.131738  0.074522  0.015212     24.000000
 -0.149303  0.173885  0.015212     48.000000
 -0.131738  0.167675  0.015212     48.000000
 -0.114173  0.161465  0.015212     24.000000
 -0.149303  0.192516  0.015212     24.000000
 -0.131738  0.186305  0.015212     24.000000
  0.087825  0.024841  0.030424     24.000000
  0.105390  0.018631  0.030424     48.000000
  0.122955  0.012420  0.030424     48.000000
 -0.158085  0.111783  0.030424     48.000000
 -0.140520  0.105573  0.030424     48.000000
  0.105390  0.037261  0.030424     24.000000
  0.122955  0.031051  0.030424     48.000000
 -0.158085  0.130414  0.030424     48.000000
 -0.140520  0.124204  0.030424     48.000000
 -0.122955  0.117993  0.030424     48.000000
 -0.105390  0.111783  0.030424     48.000000
 -0.087825  0.105573  0.030424     48.000000
 -0.070260  0.099363  0.030424     24.000000
  0.122955  0.049681  0.030424     24.000000
 -0.158085  0.149044  0.030424     48.000000
 -0.140520  0.142834  0.030424     48.000000
 -0.122955  0.136624  0.030424     48.000000
 -0.105390  0.130414  0.030424     48.000000
 -0.087825  0.124204  0.030424     24.000000
 -0.158085  0.167675  0.030424     24.000000
 -0.140520  0.161465  0.030424     48.000000
 -0.122955  0.155254  0.030424     48.000000
 -0.105390  0.149044  0.030424     24.000000
 -0.140520  0.180095  0.030424     24.000000
 -0.122955  0.173885  0.030424     24.000000
 -0.166868  0.142834  0.045635     24.000000
 -0.149303  0.136624  0.045635     48.000000
 -0.131738  0.130414  0.045635     48.000000
 -0.149303  0.155254  0.045635     24.000000
 -0.131738  0.149044  0.045635     48.000000
 -0.114173  0.142834  0.045635     48.000000
 -0.096608  0.136624  0.045635     24.000000
 -0.131738  0.167675  0.045635     24.000000
 -0.114173  0.161465  0.045635     24.000000
 -0.122955  0.155254  0.060847     24.000000
 


--------------------------------------------------------------------------------------------------------




 Dimension of arrays:
   k-points           NKPTS =    165   k-points in BZ     NKDIM =    165   number of bands    NBANDS=      8
   number of dos      NEDOS =    301   number of ions     NIONS =      2
   non local maximal  LDIM  =      4   non local SUM 2l+1 LMDIM =      8
   total plane-waves  NPLWV =  27000
   max r-space proj   IRMAX =      1   max aug-charges    IRDMAX=  22275
   dimension x,y,z NGX =    30 NGY =   30 NGZ =   30
   dimension x,y,z NGXF=    60 NGYF=   60 NGZF=   60
   support grid    NGXF=    60 NGYF=   60 NGZF=   60
   ions per type =               2
 NGX,Y,Z   is equivalent  to a cutoff of  12.90, 12.90, 12.90 a.u.
 NGXF,Y,Z  is equivalent  to a cutoff of  25.79, 25.79, 25.79 a.u.


 I would recommend the setting:
   dimension x,y,z NGX =    30 NGY =   30 NGZ =   30
 SYSTEM =  unknown system                          
 POSCAR =  bulk@mp_149                             

 Startparameter for this run:
   NWRITE =      2    write-flag & timer
   PREC   = accura    normal or accurate (medium, high low for compatibility)
   ISTART =      0    job   : 0-new  1-cont  2-samecut
   ICHARG =      2    charge: 1-file 2-atom 10-const
   ISPIN  =      1    spin polarized calculation?
   LNONCOLLINEAR =      F non collinear calculations
   LSORBIT =      F    spin-orbit coupling
   INIWAV =      1    electr: 0-lowe 1-rand  2-diag
   LASPH  =      F    aspherical Exc in radial PAW
   METAGGA=      F    non-selfconsistent MetaGGA calc.

 Electronic Relaxation 1
   ENCUT  =  550.0 eV  40.42 Ry    6.36 a.u.   7.39  7.39  7.39*2*pi/ulx,y,z
   ENINI  =  550.0     initial cutoff
   ENAUG  =  322.1 eV  augmentation charge cutoff
   NELM   =    400;   NELMIN=  2; NELMDL= -5     # of ELM steps 
   EDIFF  = 0.1E-06   stopping-criterion for ELM
   LREAL  =      F    real-space projection
   NLSPLINE    = F    spline interpolate recip. space projectors
   LCOMPAT=      F    compatible to vasp.4.4
   GGA_COMPAT  = T    GGA compatible to vasp.4.4-vasp.4.6
   LMAXPAW     = -100 max onsite density
   LMAXMIX     =    2 max onsite mixed and CHGCAR
   VOSKOWN=      0    Vosko Wilk Nusair interpolation
   ROPT   =    0.00000
 Ionic relaxation
   EDIFFG = 0.1E-05   stopping-criterion for IOM
   NSW    =      1    number of steps for IOM
   NBLOCK =      1;   KBLOCK =      1    inner block; outer block 
   IBRION =      2    ionic relax: 0-MD 1-quasi-New 2-CG
   NFREE  =      1    steps in history (QN), initial steepest desc. (CG)
   ISIF   =      2    stress and relaxation
   IWAVPR =     11    prediction:  0-non 1-charg 2-wave 3-comb
   ISYM   =      2    0-nonsym 1-usesym 2-fastsym
   LCORR  =      T    Harris-Foulkes like correction to forces

   POTIM  = 0.5000    time-step for ionic-motion
   TEIN   =    0.0    initial temperature
   TEBEG  =    0.0;   TEEND  =   0.0 temperature during run
   SMASS  =  -3.00    Nose mass-parameter (am)
   estimated Nose-frequenzy (Omega)   =  0.10E-29 period in steps =****** mass=  -0.342E-27a.u.
   SCALEE = 1.0000    scale energy and forces
   NPACO  =    256;   APACO  = 16.0  distance and # of slots for P.C.
   PSTRESS=    0.0 pullay stress

  Mass of Ions in am
   POMASS =  28.09
  Ionic Valenz
   ZVAL   =   4.00
  Atomic Wigner-Seitz radii
   RWIGS  =  -1.00
  virtual crystal weights 
   VCA    =   1.00
   NELECT =       8.0000    total number of electrons
   NUPDOWN=      -1.0000    fix difference up-down

 DOS related values:
   EMIN   =  10.00;   EMAX   =-10.00  energy-range for DOS
   EFERMI =   0.00
   ISMEAR =     0;   SIGMA  =   0.20  broadening in eV -4-tet -1-fermi 0-gaus

 Electronic relaxation 2 (details)
   IALGO  =     38    algorithm
   LDIAG  =      T    sub-space diagonalisation (order eigenvalues)
   LSUBROT=      T    optimize rotation matrix (better conditioning)
   TURBO    =      0    0=normal 1=particle mesh
   IRESTART =      0    0=no restart 2=restart with 2 vectors
   NREBOOT  =      0    no. of reboots
   NMIN     =      0    reboot dimension
   EREF     =   0.00    reference energy to select bands
   IMIX   =      4    mixing-type and parameters
     AMIX     =   0.40;   BMIX     =  1.00
     AMIX_MAG =   1.60;   BMIX_MAG =  1.00
     AMIN     =   0.10
     WC   =   100.;   INIMIX=   1;  MIXPRE=   1;  MAXMIX= -45

 Intra band minimization:
   WEIMIN = 0.0010     energy-eigenvalue tresh-hold
   EBREAK =  0.31E-08  absolut break condition
   DEPER  =   0.30     relativ break condition  

   TIME   =   0.40     timestep for ELM

  volume/ion in A,a.u.               =      20.44       137.96
  Fermi-wavevector in a.u.,A,eV,Ry     =   0.950397  1.795990 12.289528  0.903255
  Thomas-Fermi vector in A             =   2.078770
 
 Write flags
   LWAVE  =      F    write WAVECAR
   LCHARG =      F    write CHGCAR
   LVTOT  =      F    write LOCPOT, total local potential
   LVHAR  =      F    write LOCPOT, Hartree potential only
   LELF   =      F    write electronic localiz. function (ELF)
   LORBIT =      0    0 simple, 1 ext, 2 COOP (PROOUT)


 Dipole corrections
   LMONO  =      F    monopole corrections only (constant potential shift)
   LDIPOL =      F    correct potential (dipole corrections)
   IDIPOL =      0    1-x, 2-y, 3-z, 4-all directions 
   EPSILON=  1.0000000 bulk dielectric constant

 Exchange correlation treatment:
   GGA     =    BO    GGA type
   LEXCH   =    42    internal setting for exchange type
   VOSKOWN=      0    Vosko Wilk Nusair interpolation
   LHFCALC =     F    Hartree Fock is set to
   LHFONE  =     F    Hartree Fock one center treatment
   AEXX    =    0.0000 exact exchange contribution

 vdW DFT:
   LUSE_VDW   =     T    switch on vdW DFT
   Zab_VDW    =-.8491    correlation parameter
   PARAM1     =0.1833
   PARAM2     =0.2200
   PARAM3     =0.0000

 Linear response parameters
   LEPSILON=     F    determine dielectric tensor
   LRPA    =     F    only Hartree local field effects (RPA)
   LNABLA  =     F    use nabla operator in PAW spheres
   LVEL    =     F    velocity operator in full k-point grid
   LINTERFAST=   F  fast interpolation
   KINTER  =     0    interpolate to denser k-point grid
   CSHIFT  =0.1000    complex shift for real part using Kramers Kronig
   OMEGAMAX=  -1.0    maximum frequency
   DEG_THRESHOLD= 0.2000000E-02 threshold for treating states as degnerate
   RTIME   =    0.100 relaxation time in fs

 Orbital magnetization related:
   ORBITALMAG=     F  switch on orbital magnetization
   LCHIMAG   =     F  perturbation theory with respect to B field
   DQ        =  0.001000  dq finite difference perturbation B field



--------------------------------------------------------------------------------------------------------


 conjugate gradient relaxation of ions
 charge density and potential will be updated during run
 non-spin polarized calculation
 Variant of blocked Davidson
 Davidson routine will perform the subspace rotation
 perform sub-space diagonalisation
    after iterative eigenvector-optimisation
 modified Broyden-mixing scheme, WC =      100.0
 initial mixing is a Kerker type mixing with AMIX =  0.4000 and BMIX =      1.0000
 Hartree-type preconditioning will be used
 using additional bands            4
 reciprocal scheme for non local part
 use partial core corrections
 calculate Harris-corrections to forces 
   (improved forces if not selfconsistent)
 use gradient corrections 
 use of overlap-Matrix (Vanderbilt PP)
 Gauss-broadening in eV      SIGMA  =   0.20


--------------------------------------------------------------------------------------------------------


  energy-cutoff  :      550.00
  volume of cell :       40.89
      direct lattice vectors                 reciprocal lattice vectors
     3.348898000  0.000000000  1.933487000     0.298605691 -0.105573000  0.000000000
     1.116299000  3.157372000  1.933487000     0.000000000  0.316719094  0.000000000
     0.000000000  0.000000000  3.866975000    -0.149302807 -0.105573020  0.258600069

  length of vectors
     3.866974243  3.866974707  3.866975000     0.316719145  0.316719094  0.316719096


 
 k-points in units of 2pi/SCALE and weight: Automatic kpoint scheme                 
   0.00000000  0.00000000  0.00000000       0.000
   0.01756504 -0.00621018  0.00000000       0.002
   0.03513008 -0.01242035  0.00000000       0.002
   0.05269512 -0.01863053  0.00000000       0.002
   0.07026016 -0.02484071  0.00000000       0.002
   0.08782520 -0.03105088  0.00000000       0.002
   0.10539024 -0.03726106  0.00000000       0.002
   0.12295528 -0.04347124  0.00000000       0.002
   0.14052032 -0.04968141  0.00000000       0.002
   0.01756504  0.01242036  0.00000000       0.001
   0.03513008  0.00621018  0.00000000       0.005
   0.05269512  0.00000001  0.00000000       0.005
   0.07026016 -0.00621017  0.00000000       0.005
   0.08782520 -0.01242035  0.00000000       0.005
   0.10539024 -0.01863052  0.00000000       0.005
   0.12295528 -0.02484070  0.00000000       0.005
   0.14052032 -0.03105088  0.00000000       0.005
  -0.14052032  0.06831195  0.00000000       0.005
  -0.12295528  0.06210177  0.00000000       0.005
  -0.10539024  0.05589159  0.00000000       0.005
  -0.08782520  0.04968142  0.00000000       0.005
  -0.07026016  0.04347124  0.00000000       0.005
  -0.05269512  0.03726106  0.00000000       0.005
  -0.03513008  0.03105089  0.00000000       0.005
  -0.01756504  0.02484071  0.00000000       0.002
   0.03513008  0.02484072  0.00000000       0.001
   0.05269512  0.01863054  0.00000000       0.005
   0.07026016  0.01242036  0.00000000       0.005
   0.08782520  0.00621019  0.00000000       0.005
   0.10539024  0.00000001  0.00000000       0.005
   0.12295528 -0.00621017  0.00000000       0.005
   0.14052032 -0.01242034  0.00000000       0.005
  -0.14052032  0.08694248  0.00000000       0.005
  -0.12295528  0.08073231  0.00000000       0.005
  -0.10539024  0.07452213  0.00000000       0.005
  -0.08782520  0.06831195  0.00000000       0.005
  -0.07026016  0.06210178  0.00000000       0.005
  -0.05269512  0.05589160  0.00000000       0.005
  -0.03513008  0.04968142  0.00000000       0.002
   0.05269512  0.03726108  0.00000000       0.001
   0.07026016  0.03105090  0.00000000       0.005
   0.08782520  0.02484072  0.00000000       0.005
   0.10539024  0.01863055  0.00000000       0.005
   0.12295528  0.01242037  0.00000000       0.005
   0.14052032  0.00621019  0.00000000       0.005
  -0.14052032  0.10557302  0.00000000       0.005
  -0.12295528  0.09936284  0.00000000       0.005
  -0.10539024  0.09315266  0.00000000       0.005
  -0.08782520  0.08694249  0.00000000       0.005
  -0.07026016  0.08073231  0.00000000       0.005
  -0.05269512  0.07452213  0.00000000       0.002
   0.07026016  0.04968143  0.00000000       0.001
   0.08782520  0.04347126  0.00000000       0.005
   0.10539024  0.03726108  0.00000000       0.005
   0.12295528  0.03105090  0.00000000       0.005
   0.14052032  0.02484073  0.00000000       0.005
  -0.14052032  0.12420355  0.00000000       0.005
  -0.12295528  0.11799338  0.00000000       0.005
  -0.10539024  0.11178320  0.00000000       0.005
  -0.08782520  0.10557302  0.00000000       0.005
  -0.07026016  0.09936285  0.00000000       0.002
   0.08782520  0.06210179  0.00000000       0.001
   0.10539024  0.05589162  0.00000000       0.005
   0.12295528  0.04968144  0.00000000       0.005
   0.14052032  0.04347126  0.00000000       0.005
  -0.14052032  0.14283409  0.00000000       0.005
  -0.12295528  0.13662391  0.00000000       0.005
  -0.10539024  0.13041373  0.00000000       0.005
  -0.08782520  0.12420356  0.00000000       0.002
   0.10539024  0.07452215  0.00000000       0.001
   0.12295528  0.06831197  0.00000000       0.005
   0.14052032  0.06210180  0.00000000       0.005
  -0.14052032  0.16146462  0.00000000       0.005
  -0.12295528  0.15525444  0.00000000       0.005
  -0.10539024  0.14904427  0.00000000       0.002
   0.12295528  0.08694251  0.00000000       0.001
   0.14052032  0.08073233  0.00000000       0.005
  -0.14052032  0.18009516  0.00000000       0.005
  -0.12295528  0.17388498  0.00000000       0.002
   0.14052032  0.09936287  0.00000000       0.001
  -0.14052032  0.19872569  0.00000000       0.002
   0.04391260  0.01242036  0.01521177       0.005
   0.06147764  0.00621019  0.01521177       0.010
   0.07904269  0.00000001  0.01521177       0.010
   0.09660773 -0.00621017  0.01521177       0.010
   0.11417277 -0.01242034  0.01521177       0.010
   0.13173781 -0.01863052  0.01521177       0.010
  -0.14930284  0.08073230  0.01521177       0.010
   0.06147764  0.02484072  0.01521177       0.005
   0.07904269  0.01863054  0.01521177       0.010
   0.09660773  0.01242037  0.01521177       0.010
   0.11417277  0.00621019  0.01521177       0.010
   0.13173781  0.00000002  0.01521177       0.010
  -0.14930284  0.09936284  0.01521177       0.010
  -0.13173780  0.09315266  0.01521177       0.010
  -0.11417276  0.08694249  0.01521177       0.010
  -0.09660772  0.08073231  0.01521177       0.010
  -0.07904268  0.07452213  0.01521177       0.010
  -0.06147764  0.06831196  0.01521177       0.010
  -0.04391260  0.06210178  0.01521177       0.005
   0.07904269  0.03726108  0.01521177       0.005
   0.09660773  0.03105090  0.01521177       0.010
   0.11417277  0.02484073  0.01521177       0.010
   0.13173781  0.01863055  0.01521177       0.010
  -0.14930284  0.11799337  0.01521177       0.010
  -0.13173780  0.11178320  0.01521177       0.010
  -0.11417276  0.10557302  0.01521177       0.010
  -0.09660772  0.09936284  0.01521177       0.010
  -0.07904268  0.09315267  0.01521177       0.010
  -0.06147764  0.08694249  0.01521177       0.005
   0.09660773  0.04968144  0.01521177       0.005
   0.11417277  0.04347126  0.01521177       0.010
   0.13173781  0.03726109  0.01521177       0.010
  -0.14930284  0.13662391  0.01521177       0.010
  -0.13173780  0.13041373  0.01521177       0.010
  -0.11417276  0.12420356  0.01521177       0.010
  -0.09660772  0.11799338  0.01521177       0.010
  -0.07904268  0.11178320  0.01521177       0.005
   0.11417277  0.06210180  0.01521177       0.005
   0.13173781  0.05589162  0.01521177       0.010
  -0.14930284  0.15525444  0.01521177       0.010
  -0.13173780  0.14904427  0.01521177       0.010
  -0.11417276  0.14283409  0.01521177       0.010
  -0.09660772  0.13662391  0.01521177       0.005
   0.13173781  0.07452216  0.01521177       0.005
  -0.14930284  0.17388498  0.01521177       0.010
  -0.13173780  0.16767480  0.01521177       0.010
  -0.11417276  0.16146463  0.01521177       0.005
  -0.14930284  0.19251551  0.01521177       0.005
  -0.13173780  0.18630534  0.01521177       0.005
   0.08782521  0.02484073  0.03042354       0.005
   0.10539025  0.01863055  0.03042354       0.010
   0.12295529  0.01242037  0.03042354       0.010
  -0.15808536  0.11178320  0.03042354       0.010
  -0.14052032  0.10557302  0.03042354       0.010
   0.10539025  0.03726108  0.03042354       0.005
   0.12295529  0.03105091  0.03042354       0.010
  -0.15808536  0.13041373  0.03042354       0.010
  -0.14052032  0.12420355  0.03042354       0.010
  -0.12295528  0.11799338  0.03042354       0.010
  -0.10539024  0.11178320  0.03042354       0.010
  -0.08782520  0.10557303  0.03042354       0.010
  -0.07026016  0.09936285  0.03042354       0.005
   0.12295529  0.04968144  0.03042354       0.005
  -0.15808536  0.14904427  0.03042354       0.010
  -0.14052032  0.14283409  0.03042354       0.010
  -0.12295528  0.13662391  0.03042354       0.010
  -0.10539024  0.13041374  0.03042354       0.010
  -0.08782520  0.12420356  0.03042354       0.005
  -0.15808536  0.16767480  0.03042354       0.005
  -0.14052032  0.16146462  0.03042354       0.010
  -0.12295528  0.15525445  0.03042354       0.010
  -0.10539024  0.14904427  0.03042354       0.005
  -0.14052032  0.18009516  0.03042354       0.005
  -0.12295528  0.17388498  0.03042354       0.005
  -0.16686788  0.14283409  0.04563531       0.005
  -0.14930284  0.13662391  0.04563531       0.010
  -0.13173780  0.13041374  0.04563531       0.010
  -0.14930284  0.15525445  0.04563531       0.005
  -0.13173780  0.14904427  0.04563531       0.010
  -0.11417276  0.14283409  0.04563531       0.010
  -0.09660772  0.13662392  0.04563531       0.005
  -0.13173780  0.16767481  0.04563531       0.005
  -0.11417276  0.16146463  0.04563531       0.005
  -0.12295528  0.15525445  0.06084707       0.005
 
 k-points in reciprocal lattice and weights: Automatic kpoint scheme                 
   0.00000000  0.00000000  0.00000000       0.000
   0.05882353  0.00000000  0.00000000       0.002
   0.11764706  0.00000000  0.00000000       0.002
   0.17647059  0.00000000  0.00000000       0.002
   0.23529412  0.00000000  0.00000000       0.002
   0.29411765  0.00000000  0.00000000       0.002
   0.35294118  0.00000000  0.00000000       0.002
   0.41176471  0.00000000  0.00000000       0.002
   0.47058824  0.00000000  0.00000000       0.002
   0.05882353  0.05882353  0.00000000       0.001
   0.11764706  0.05882353  0.00000000       0.005
   0.17647059  0.05882353  0.00000000       0.005
   0.23529412  0.05882353  0.00000000       0.005
   0.29411765  0.05882353  0.00000000       0.005
   0.35294118  0.05882353  0.00000000       0.005
   0.41176471  0.05882353  0.00000000       0.005
   0.47058824  0.05882353  0.00000000       0.005
  -0.47058824  0.05882353  0.00000000       0.005
  -0.41176471  0.05882353  0.00000000       0.005
  -0.35294118  0.05882353  0.00000000       0.005
  -0.29411765  0.05882353  0.00000000       0.005
  -0.23529412  0.05882353  0.00000000       0.005
  -0.17647059  0.05882353  0.00000000       0.005
  -0.11764706  0.05882353  0.00000000       0.005
  -0.05882353  0.05882353  0.00000000       0.002
   0.11764706  0.11764706  0.00000000       0.001
   0.17647059  0.11764706  0.00000000       0.005
   0.23529412  0.11764706  0.00000000       0.005
   0.29411765  0.11764706  0.00000000       0.005
   0.35294118  0.11764706  0.00000000       0.005
   0.41176471  0.11764706  0.00000000       0.005
   0.47058824  0.11764706  0.00000000       0.005
  -0.47058824  0.11764706  0.00000000       0.005
  -0.41176471  0.11764706  0.00000000       0.005
  -0.35294118  0.11764706  0.00000000       0.005
  -0.29411765  0.11764706  0.00000000       0.005
  -0.23529412  0.11764706  0.00000000       0.005
  -0.17647059  0.11764706  0.00000000       0.005
  -0.11764706  0.11764706  0.00000000       0.002
   0.17647059  0.17647059  0.00000000       0.001
   0.23529412  0.17647059  0.00000000       0.005
   0.29411765  0.17647059  0.00000000       0.005
   0.35294118  0.17647059  0.00000000       0.005
   0.41176471  0.17647059  0.00000000       0.005
   0.47058824  0.17647059  0.00000000       0.005
  -0.47058824  0.17647059  0.00000000       0.005
  -0.41176471  0.17647059  0.00000000       0.005
  -0.35294118  0.17647059  0.00000000       0.005
  -0.29411765  0.17647059  0.00000000       0.005
  -0.23529412  0.17647059  0.00000000       0.005
  -0.17647059  0.17647059  0.00000000       0.002
   0.23529412  0.23529412  0.00000000       0.001
   0.29411765  0.23529412  0.00000000       0.005
   0.35294118  0.23529412  0.00000000       0.005
   0.41176471  0.23529412  0.00000000       0.005
   0.47058824  0.23529412  0.00000000       0.005
  -0.47058824  0.23529412  0.00000000       0.005
  -0.41176471  0.23529412  0.00000000       0.005
  -0.35294118  0.23529412  0.00000000       0.005
  -0.29411765  0.23529412  0.00000000       0.005
  -0.23529412  0.23529412  0.00000000       0.002
   0.29411765  0.29411765  0.00000000       0.001
   0.35294118  0.29411765  0.00000000       0.005
   0.41176471  0.29411765  0.00000000       0.005
   0.47058824  0.29411765  0.00000000       0.005
  -0.47058824  0.29411765  0.00000000       0.005
  -0.41176471  0.29411765  0.00000000       0.005
  -0.35294118  0.29411765  0.00000000       0.005
  -0.29411765  0.29411765  0.00000000       0.002
   0.35294118  0.35294118  0.00000000       0.001
   0.41176471  0.35294118  0.00000000       0.005
   0.47058824  0.35294118  0.00000000       0.005
  -0.47058824  0.35294118  0.00000000       0.005
  -0.41176471  0.35294118  0.00000000       0.005
  -0.35294118  0.35294118  0.00000000       0.002
   0.41176471  0.41176471  0.00000000       0.001
   0.47058824  0.41176471  0.00000000       0.005
  -0.47058824  0.41176471  0.00000000       0.005
  -0.41176471  0.41176471  0.00000000       0.002
   0.47058824  0.47058824  0.00000000       0.001
  -0.47058824  0.47058824  0.00000000       0.002
   0.17647059  0.11764706  0.05882353       0.005
   0.23529412  0.11764706  0.05882353       0.010
   0.29411765  0.11764706  0.05882353       0.010
   0.35294118  0.11764706  0.05882353       0.010
   0.41176471  0.11764706  0.05882353       0.010
   0.47058824  0.11764706  0.05882353       0.010
  -0.47058824  0.11764706  0.05882353       0.010
   0.23529412  0.17647059  0.05882353       0.005
   0.29411765  0.17647059  0.05882353       0.010
   0.35294118  0.17647059  0.05882353       0.010
   0.41176471  0.17647059  0.05882353       0.010
   0.47058824  0.17647059  0.05882353       0.010
  -0.47058824  0.17647059  0.05882353       0.010
  -0.41176471  0.17647059  0.05882353       0.010
  -0.35294118  0.17647059  0.05882353       0.010
  -0.29411765  0.17647059  0.05882353       0.010
  -0.23529412  0.17647059  0.05882353       0.010
  -0.17647059  0.17647059  0.05882353       0.010
  -0.11764706  0.17647059  0.05882353       0.005
   0.29411765  0.23529412  0.05882353       0.005
   0.35294118  0.23529412  0.05882353       0.010
   0.41176471  0.23529412  0.05882353       0.010
   0.47058824  0.23529412  0.05882353       0.010
  -0.47058824  0.23529412  0.05882353       0.010
  -0.41176471  0.23529412  0.05882353       0.010
  -0.35294118  0.23529412  0.05882353       0.010
  -0.29411765  0.23529412  0.05882353       0.010
  -0.23529412  0.23529412  0.05882353       0.010
  -0.17647059  0.23529412  0.05882353       0.005
   0.35294118  0.29411765  0.05882353       0.005
   0.41176471  0.29411765  0.05882353       0.010
   0.47058824  0.29411765  0.05882353       0.010
  -0.47058824  0.29411765  0.05882353       0.010
  -0.41176471  0.29411765  0.05882353       0.010
  -0.35294118  0.29411765  0.05882353       0.010
  -0.29411765  0.29411765  0.05882353       0.010
  -0.23529412  0.29411765  0.05882353       0.005
   0.41176471  0.35294118  0.05882353       0.005
   0.47058824  0.35294118  0.05882353       0.010
  -0.47058824  0.35294118  0.05882353       0.010
  -0.41176471  0.35294118  0.05882353       0.010
  -0.35294118  0.35294118  0.05882353       0.010
  -0.29411765  0.35294118  0.05882353       0.005
   0.47058824  0.41176471  0.05882353       0.005
  -0.47058824  0.41176471  0.05882353       0.010
  -0.41176471  0.41176471  0.05882353       0.010
  -0.35294118  0.41176471  0.05882353       0.005
  -0.47058824  0.47058824  0.05882353       0.005
  -0.41176471  0.47058824  0.05882353       0.005
   0.35294118  0.23529412  0.11764706       0.005
   0.41176471  0.23529412  0.11764706       0.010
   0.47058824  0.23529412  0.11764706       0.010
  -0.47058824  0.23529412  0.11764706       0.010
  -0.41176471  0.23529412  0.11764706       0.010
   0.41176471  0.29411765  0.11764706       0.005
   0.47058824  0.29411765  0.11764706       0.010
  -0.47058824  0.29411765  0.11764706       0.010
  -0.41176471  0.29411765  0.11764706       0.010
  -0.35294118  0.29411765  0.11764706       0.010
  -0.29411765  0.29411765  0.11764706       0.010
  -0.23529412  0.29411765  0.11764706       0.010
  -0.17647059  0.29411765  0.11764706       0.005
   0.47058824  0.35294118  0.11764706       0.005
  -0.47058824  0.35294118  0.11764706       0.010
  -0.41176471  0.35294118  0.11764706       0.010
  -0.35294118  0.35294118  0.11764706       0.010
  -0.29411765  0.35294118  0.11764706       0.010
  -0.23529412  0.35294118  0.11764706       0.005
  -0.47058824  0.41176471  0.11764706       0.005
  -0.41176471  0.41176471  0.11764706       0.010
  -0.35294118  0.41176471  0.11764706       0.010
  -0.29411765  0.41176471  0.11764706       0.005
  -0.41176471  0.47058824  0.11764706       0.005
  -0.35294118  0.47058824  0.11764706       0.005
  -0.47058824  0.35294118  0.17647059       0.005
  -0.41176471  0.35294118  0.17647059       0.010
  -0.35294118  0.35294118  0.17647059       0.010
  -0.41176471  0.41176471  0.17647059       0.005
  -0.35294118  0.41176471  0.17647059       0.010
  -0.29411765  0.41176471  0.17647059       0.010
  -0.23529412  0.41176471  0.17647059       0.005
  -0.35294118  0.47058824  0.17647059       0.005
  -0.29411765  0.47058824  0.17647059       0.005
  -0.29411765  0.47058824  0.23529412       0.005
 
 position of ions in fractional coordinates (direct lattice) 
   0.87500000  0.87500000  0.87500000
   0.12500000  0.12500000  0.12500000
 
 position of ions in cartesian coordinates  (Angst):
   3.90704738  2.76270050  6.76720537
   0.55814962  0.39467150  0.96674362
 


--------------------------------------------------------------------------------------------------------


 k-point  1 :   0.0000 0.0000 0.0000  plane waves:    1243
 k-point  2 :   0.0588 0.0000 0.0000  plane waves:    1239
 k-point  3 :   0.1176 0.0000 0.0000  plane waves:    1209
 k-point  4 :   0.1765 0.0000 0.0000  plane waves:    1209
 k-point  5 :   0.2353 0.0000 0.0000  plane waves:    1197
 k-point  6 :   0.2941 0.0000 0.0000  plane waves:    1209
 k-point  7 :   0.3529 0.0000 0.0000  plane waves:    1188
 k-point  8 :   0.4118 0.0000 0.0000  plane waves:    1185
 k-point  9 :   0.4706 0.0000 0.0000  plane waves:    1188
 k-point 10 :   0.0588 0.0588 0.0000  plane waves:    1235
 k-point 11 :   0.1176 0.0588 0.0000  plane waves:    1215
 k-point 12 :   0.1765 0.0588 0.0000  plane waves:    1207
 k-point 13 :   0.2353 0.0588 0.0000  plane waves:    1208
 k-point 14 :   0.2941 0.0588 0.0000  plane waves:    1201
 k-point 15 :   0.3529 0.0588 0.0000  plane waves:    1199
 k-point 16 :   0.4118 0.0588 0.0000  plane waves:    1193
 k-point 17 :   0.4706 0.0588 0.0000  plane waves:    1194
 k-point 18 :  -0.4706 0.0588 0.0000  plane waves:    1193
 k-point 19 :  -0.4118 0.0588 0.0000  plane waves:    1189
 k-point 20 :  -0.3529 0.0588 0.0000  plane waves:    1192
 k-point 21 :  -0.2941 0.0588 0.0000  plane waves:    1197
 k-point 22 :  -0.2353 0.0588 0.0000  plane waves:    1201
 k-point 23 :  -0.1765 0.0588 0.0000  plane waves:    1206
 k-point 24 :  -0.1176 0.0588 0.0000  plane waves:    1212
 k-point 25 :  -0.0588 0.0588 0.0000  plane waves:    1219
 k-point 26 :   0.1176 0.1176 0.0000  plane waves:    1211
 k-point 27 :   0.1765 0.1176 0.0000  plane waves:    1206
 k-point 28 :   0.2353 0.1176 0.0000  plane waves:    1206
 k-point 29 :   0.2941 0.1176 0.0000  plane waves:    1202
 k-point 30 :   0.3529 0.1176 0.0000  plane waves:    1199
 k-point 31 :   0.4118 0.1176 0.0000  plane waves:    1202
 k-point 32 :   0.4706 0.1176 0.0000  plane waves:    1200
 k-point 33 :  -0.4706 0.1176 0.0000  plane waves:    1195
 k-point 34 :  -0.4118 0.1176 0.0000  plane waves:    1191
 k-point 35 :  -0.3529 0.1176 0.0000  plane waves:    1192
 k-point 36 :  -0.2941 0.1176 0.0000  plane waves:    1197
 k-point 37 :  -0.2353 0.1176 0.0000  plane waves:    1199
 k-point 38 :  -0.1765 0.1176 0.0000  plane waves:    1206
 k-point 39 :  -0.1176 0.1176 0.0000  plane waves:    1207
 k-point 40 :   0.1765 0.1765 0.0000  plane waves:    1203
 k-point 41 :   0.2353 0.1765 0.0000  plane waves:    1202
 k-point 42 :   0.2941 0.1765 0.0000  plane waves:    1209
 k-point 43 :   0.3529 0.1765 0.0000  plane waves:    1205
 k-point 44 :   0.4118 0.1765 0.0000  plane waves:    1193
 k-point 45 :   0.4706 0.1765 0.0000  plane waves:    1206
 k-point 46 :  -0.4706 0.1765 0.0000  plane waves:    1199
 k-point 47 :  -0.4118 0.1765 0.0000  plane waves:    1196
 k-point 48 :  -0.3529 0.1765 0.0000  plane waves:    1192
 k-point 49 :  -0.2941 0.1765 0.0000  plane waves:    1191
 k-point 50 :  -0.2353 0.1765 0.0000  plane waves:    1197
 k-point 51 :  -0.1765 0.1765 0.0000  plane waves:    1201
 k-point 52 :   0.2353 0.2353 0.0000  plane waves:    1198
 k-point 53 :   0.2941 0.2353 0.0000  plane waves:    1204
 k-point 54 :   0.3529 0.2353 0.0000  plane waves:    1209
 k-point 55 :   0.4118 0.2353 0.0000  plane waves:    1199
 k-point 56 :   0.4706 0.2353 0.0000  plane waves:    1196
 k-point 57 :  -0.4706 0.2353 0.0000  plane waves:    1192
 k-point 58 :  -0.4118 0.2353 0.0000  plane waves:    1190
 k-point 59 :  -0.3529 0.2353 0.0000  plane waves:    1185
 k-point 60 :  -0.2941 0.2353 0.0000  plane waves:    1192
 k-point 61 :  -0.2353 0.2353 0.0000  plane waves:    1197
 k-point 62 :   0.2941 0.2941 0.0000  plane waves:    1206
 k-point 63 :   0.3529 0.2941 0.0000  plane waves:    1206
 k-point 64 :   0.4118 0.2941 0.0000  plane waves:    1199
 k-point 65 :   0.4706 0.2941 0.0000  plane waves:    1201
 k-point 66 :  -0.4706 0.2941 0.0000  plane waves:    1201
 k-point 67 :  -0.4118 0.2941 0.0000  plane waves:    1192
 k-point 68 :  -0.3529 0.2941 0.0000  plane waves:    1192
 k-point 69 :  -0.2941 0.2941 0.0000  plane waves:    1189
 k-point 70 :   0.3529 0.3529 0.0000  plane waves:    1206
 k-point 71 :   0.4118 0.3529 0.0000  plane waves:    1208
 k-point 72 :   0.4706 0.3529 0.0000  plane waves:    1201
 k-point 73 :  -0.4706 0.3529 0.0000  plane waves:    1195
 k-point 74 :  -0.4118 0.3529 0.0000  plane waves:    1188
 k-point 75 :  -0.3529 0.3529 0.0000  plane waves:    1192
 k-point 76 :   0.4118 0.4118 0.0000  plane waves:    1198
 k-point 77 :   0.4706 0.4118 0.0000  plane waves:    1194
 k-point 78 :  -0.4706 0.4118 0.0000  plane waves:    1196
 k-point 79 :  -0.4118 0.4118 0.0000  plane waves:    1198
 k-point 80 :   0.4706 0.4706 0.0000  plane waves:    1202
 k-point 81 :  -0.4706 0.4706 0.0000  plane waves:    1186
 k-point 82 :   0.1765 0.1176 0.0588  plane waves:    1207
 k-point 83 :   0.2353 0.1176 0.0588  plane waves:    1209
 k-point 84 :   0.2941 0.1176 0.0588  plane waves:    1206
 k-point 85 :   0.3529 0.1176 0.0588  plane waves:    1201
 k-point 86 :   0.4118 0.1176 0.0588  plane waves:    1197
 k-point 87 :   0.4706 0.1176 0.0588  plane waves:    1200
 k-point 88 :  -0.4706 0.1176 0.0588  plane waves:    1191
 k-point 89 :   0.2353 0.1765 0.0588  plane waves:    1204
 k-point 90 :   0.2941 0.1765 0.0588  plane waves:    1204
 k-point 91 :   0.3529 0.1765 0.0588  plane waves:    1200
 k-point 92 :   0.4118 0.1765 0.0588  plane waves:    1198
 k-point 93 :   0.4706 0.1765 0.0588  plane waves:    1195
 k-point 94 :  -0.4706 0.1765 0.0588  plane waves:    1195
 k-point 95 :  -0.4118 0.1765 0.0588  plane waves:    1192
 k-point 96 :  -0.3529 0.1765 0.0588  plane waves:    1194
 k-point 97 :  -0.2941 0.1765 0.0588  plane waves:    1195
 k-point 98 :  -0.2353 0.1765 0.0588  plane waves:    1199
 k-point 99 :  -0.1765 0.1765 0.0588  plane waves:    1203
 k-point ** :  -0.1176 0.1765 0.0588  plane waves:    1208
 k-point ** :   0.2941 0.2353 0.0588  plane waves:    1202
 k-point ** :   0.3529 0.2353 0.0588  plane waves:    1204
 k-point ** :   0.4118 0.2353 0.0588  plane waves:    1208
 k-point ** :   0.4706 0.2353 0.0588  plane waves:    1201
 k-point ** :  -0.4706 0.2353 0.0588  plane waves:    1202
 k-point ** :  -0.4118 0.2353 0.0588  plane waves:    1191
 k-point ** :  -0.3529 0.2353 0.0588  plane waves:    1193
 k-point ** :  -0.2941 0.2353 0.0588  plane waves:    1191
 k-point ** :  -0.2353 0.2353 0.0588  plane waves:    1195
 k-point ** :  -0.1765 0.2353 0.0588  plane waves:    1200
 k-point ** :   0.3529 0.2941 0.0588  plane waves:    1208
 k-point ** :   0.4118 0.2941 0.0588  plane waves:    1208
 k-point ** :   0.4706 0.2941 0.0588  plane waves:    1203
 k-point ** :  -0.4706 0.2941 0.0588  plane waves:    1193
 k-point ** :  -0.4118 0.2941 0.0588  plane waves:    1193
 k-point ** :  -0.3529 0.2941 0.0588  plane waves:    1189
 k-point ** :  -0.2941 0.2941 0.0588  plane waves:    1188
 k-point ** :  -0.2353 0.2941 0.0588  plane waves:    1192
 k-point ** :   0.4118 0.3529 0.0588  plane waves:    1209
 k-point ** :   0.4706 0.3529 0.0588  plane waves:    1202
 k-point ** :  -0.4706 0.3529 0.0588  plane waves:    1198
 k-point ** :  -0.4118 0.3529 0.0588  plane waves:    1191
 k-point ** :  -0.3529 0.3529 0.0588  plane waves:    1190
 k-point ** :  -0.2941 0.3529 0.0588  plane waves:    1193
 k-point ** :   0.4706 0.4118 0.0588  plane waves:    1195
 k-point ** :  -0.4706 0.4118 0.0588  plane waves:    1195
 k-point ** :  -0.4118 0.4118 0.0588  plane waves:    1188
 k-point ** :  -0.3529 0.4118 0.0588  plane waves:    1185
 k-point ** :  -0.4706 0.4706 0.0588  plane waves:    1194
 k-point ** :  -0.4118 0.4706 0.0588  plane waves:    1195
 k-point ** :   0.3529 0.2353 0.1176  plane waves:    1210
 k-point ** :   0.4118 0.2353 0.1176  plane waves:    1199
 k-point ** :   0.4706 0.2353 0.1176  plane waves:    1197
 k-point ** :  -0.4706 0.2353 0.1176  plane waves:    1198
 k-point ** :  -0.4118 0.2353 0.1176  plane waves:    1194
 k-point ** :   0.4118 0.2941 0.1176  plane waves:    1200
 k-point ** :   0.4706 0.2941 0.1176  plane waves:    1199
 k-point ** :  -0.4706 0.2941 0.1176  plane waves:    1199
 k-point ** :  -0.4118 0.2941 0.1176  plane waves:    1194
 k-point ** :  -0.3529 0.2941 0.1176  plane waves:    1194
 k-point ** :  -0.2941 0.2941 0.1176  plane waves:    1190
 k-point ** :  -0.2353 0.2941 0.1176  plane waves:    1199
 k-point ** :  -0.1765 0.2941 0.1176  plane waves:    1196
 k-point ** :   0.4706 0.3529 0.1176  plane waves:    1202
 k-point ** :  -0.4706 0.3529 0.1176  plane waves:    1198
 k-point ** :  -0.4118 0.3529 0.1176  plane waves:    1197
 k-point ** :  -0.3529 0.3529 0.1176  plane waves:    1189
 k-point ** :  -0.2941 0.3529 0.1176  plane waves:    1190
 k-point ** :  -0.2353 0.3529 0.1176  plane waves:    1194
 k-point ** :  -0.4706 0.4118 0.1176  plane waves:    1195
 k-point ** :  -0.4118 0.4118 0.1176  plane waves:    1191
 k-point ** :  -0.3529 0.4118 0.1176  plane waves:    1194
 k-point ** :  -0.2941 0.4118 0.1176  plane waves:    1189
 k-point ** :  -0.4118 0.4706 0.1176  plane waves:    1189
 k-point ** :  -0.3529 0.4706 0.1176  plane waves:    1191
 k-point ** :  -0.4706 0.3529 0.1765  plane waves:    1198
 k-point ** :  -0.4118 0.3529 0.1765  plane waves:    1200
 k-point ** :  -0.3529 0.3529 0.1765  plane waves:    1198
 k-point ** :  -0.4118 0.4118 0.1765  plane waves:    1195
 k-point ** :  -0.3529 0.4118 0.1765  plane waves:    1199
 k-point ** :  -0.2941 0.4118 0.1765  plane waves:    1198
 k-point ** :  -0.2353 0.4118 0.1765  plane waves:    1195
 k-point ** :  -0.3529 0.4706 0.1765  plane waves:    1192
 k-point ** :  -0.2941 0.4706 0.1765  plane waves:    1191
 k-point ** :  -0.2941 0.4706 0.2353  plane waves:    1200

 maximum and minimum number of plane-waves per node :       319      288

 maximum number of plane-waves:      1243
 maximum index in each direction: 
   IXMAX=    7   IYMAX=    7   IZMAX=    7
   IXMIN=   -7   IYMIN=   -7   IZMIN=   -7

 NGX is ok and might be reduce to  30
 NGY is ok and might be reduce to  30
 NGZ is ok and might be reduce to  30

 parallel 3D FFT for wavefunctions:
    minimum data exchange during FFTs selected (reduces bandwidth)
 parallel 3D FFT for charge:
    minimum data exchange during FFTs selected (reduces bandwidth)


 total amount of memory used by VASP on root node    36821. kBytes
========================================================================

   base      :      30000. kBytes
   nonl-proj :       3389. kBytes
   fftplans  :        700. kBytes
   grid      :        998. kBytes
   one-center:          3. kBytes
   wavefun   :       1731. kBytes
 
 Broyden mixing: mesh for mixing (old mesh)
   NGX = 15   NGY = 15   NGZ = 15
  (NGX  = 60   NGY  = 60   NGZ  = 60)
  gives a total of   3375 points

 initial charge density was supplied:
 charge density of overlapping atoms calculated
 number of electron       8.0000000 magnetization 
 keeping initial charge density in first step


--------------------------------------------------------------------------------------------------------


 Maximum index for augmentation-charges         1526 (set IRDMAX)


--------------------------------------------------------------------------------------------------------


 First call to EWALD:  gamma=   0.514
 Maximum number of real-space cells 3x 3x 3
 Maximum number of reciprocal cells 3x 3x 3

 FEWALD executed in parallel
    FEWALD:  cpu time    0.00: real time    0.00


----------------------------------------- Iteration    1(   1)  ---------------------------------------


vdW kernel read from vdw_kernel.bindat
  0.0000  0.2424  0.5071  0.7962  1.1119  1.4567  1.8333  2.2446  2.6937  3.1842
  3.7199  4.3049  4.9438  5.6415  6.4036  7.2358  8.1446  9.1372 10.2212 11.4050
 12.6979 14.1099 15.6519 17.3360 19.1751 21.1837 23.3773 25.7729 28.3892 31.2465
 34.3669 37.7748 41.4965 45.5611 50.0000
 
[...]

 k-point 130 :      -0.4118    0.4706    0.0588
  band No.  band energies     occupation 
      1      -2.1196      2.00000
      2      -1.9746      2.00000
      3       2.2700      2.00000
      4       2.7487      2.00000
      5       6.8085      0.00000
      6       7.4412      0.00000
      7      14.2341      0.00000
      8      14.3986      0.00000

 k-point 131 :       0.3529    0.2353    0.1176
  band No.  band energies     occupation 
      1      -4.9894      2.00000
      2       1.6319      2.00000
      3       3.1575      2.00000
      4       4.3544      2.00000
      5       8.0550      0.00000
      6       9.4530      0.00000
      7       9.9442      0.00000
      8      10.8197      0.00000

 k-point 132 :       0.4118    0.2353    0.1176
  band No.  band energies     occupation 
      1      -4.6209      2.00000
      2       0.9087      2.00000
      3       2.7747      2.00000
      4       4.1305      2.00000
      5       8.3280      0.00000
      6       9.4124      0.00000
      7       9.9487      0.00000
      8      11.1489      0.00000

 k-point 133 :       0.4706    0.2353    0.1176
  band No.  band energies     occupation 
      1      -4.1994      2.00000
      2       0.1445      2.00000
      3       2.5557      2.00000
      4       3.9024      2.00000
      5       8.4543      0.00000
      6       9.2080      0.00000
      7      10.4968      0.00000
      8      11.2597      0.00000

 k-point 134 :      -0.4706    0.2353    0.1176
  band No.  band energies     occupation 
      1      -3.7707      2.00000
      2      -0.5410      2.00000
      3       2.4390      2.00000
      4       3.7231      2.00000
      5       8.5133      0.00000
      6       8.9814      0.00000
      7      11.2059      0.00000
      8      11.4256      0.00000

 k-point 135 :      -0.4118    0.2353    0.1176
  band No.  band energies     occupation 
      1      -3.4542      2.00000
      2      -0.9926      2.00000
      3       2.3889      2.00000
      4       3.6249      2.00000
      5       8.5777      0.00000
      6       8.8104      0.00000
      7      11.2204      0.00000
      8      12.4270      0.00000

 k-point 136 :       0.4118    0.2941    0.1176
  band No.  band energies     occupation 
      1      -4.4840      2.00000
      2       0.8585      2.00000
      3       2.7671      2.00000
      4       3.6955      2.00000
      5       7.7506      0.00000
      6       9.0215      0.00000
      7      10.3425      0.00000
      8      11.9347      0.00000

 k-point 137 :       0.4706    0.2941    0.1176
  band No.  band energies     occupation 
      1      -4.0782      2.00000
      2       0.2263      2.00000
      3       2.4035      2.00000
      4       3.4704      2.00000
      5       8.0425      0.00000
      6       9.3083      0.00000
      7      10.1139      0.00000
      8      12.2697      0.00000

 k-point 138 :      -0.4706    0.2941    0.1176
  band No.  band energies     occupation 
      1      -3.6432      2.00000
      2      -0.4079      2.00000
      3       2.1520      2.00000
      4       3.2981      2.00000
      5       8.1722      0.00000
      6       9.7836      0.00000
      7      10.1321      0.00000
      8      12.3514      0.00000

 k-point 139 :      -0.4118    0.2941    0.1176
  band No.  band energies     occupation 
      1      -3.2659      2.00000
      2      -0.9115      2.00000
      3       1.9805      2.00000
      4       3.2248      2.00000
      5       8.2770      0.00000
      6       9.6065      0.00000
      7      11.0764      0.00000
      8      12.3326      0.00000

 k-point 140 :      -0.3529    0.2941    0.1176
  band No.  band energies     occupation 
      1      -3.1471      2.00000
      2      -1.0593      2.00000
      3       1.8796      2.00000
      4       3.2623      2.00000
      5       8.4293      0.00000
      6       9.4318      0.00000
      7      12.1227      0.00000
      8      12.2730      0.00000

 k-point 141 :      -0.2941    0.2941    0.1176
  band No.  band energies     occupation 
      1      -3.3935      2.00000
      2      -0.7426      2.00000
      3       1.8640      2.00000
      4       3.4004      2.00000
      5       8.6421      0.00000
      6       9.2960      0.00000
      7      11.3395      0.00000
      8      12.2476      0.00000

 k-point 142 :      -0.2353    0.2941    0.1176
  band No.  band energies     occupation 
      1      -3.8082      2.00000
      2      -0.1826      2.00000
      3       1.9693      2.00000
      4       3.6171      2.00000
      5       8.9056      0.00000
      6       9.1533      0.00000
      7      10.4483      0.00000
      8      12.1233      0.00000

 k-point 143 :      -0.1765    0.2941    0.1176
  band No.  band energies     occupation 
      1      -4.2367      2.00000
      2       0.4085      2.00000
      3       2.2553      2.00000
      4       3.8789      2.00000
      5       8.8296      0.00000
      6       9.1904      0.00000
      7       9.9554      0.00000
      8      11.7670      0.00000

 k-point 144 :       0.4706    0.3529    0.1176
  band No.  band energies     occupation 
      1      -3.8803      2.00000
      2       0.0559      2.00000
      3       2.4864      2.00000
      4       3.1228      2.00000
      5       7.5364      0.00000
      6       8.3995      0.00000
      7      11.1647      0.00000
      8      13.0810      0.00000

 k-point 145 :      -0.4706    0.3529    0.1176
  band No.  band energies     occupation 
      1      -3.4495      2.00000
      2      -0.4821      2.00000
      3       2.1340      2.00000
      4       2.9279      2.00000
      5       7.8256      0.00000
      6       8.8454      0.00000
      7      10.9253      0.00000
      8      13.4234      0.00000

 k-point 146 :      -0.4118    0.3529    0.1176
  band No.  band energies     occupation 
      1      -3.0342      2.00000
      2      -0.9666      2.00000
      3       1.8220      2.00000
      4       2.8641      2.00000
      5       7.9546      0.00000
      6       9.7075      0.00000
      7      10.7169      0.00000
      8      13.4617      0.00000

 k-point 147 :      -0.3529    0.3529    0.1176
  band No.  band energies     occupation 
      1      -2.8113      2.00000
      2      -1.2099      2.00000
      3       1.5990      2.00000
      4       2.9244      2.00000
      5       8.1063      0.00000
      6      10.3319      0.00000
      7      10.9653      0.00000
      8      12.5378      0.00000

 k-point 148 :      -0.2941    0.3529    0.1176
  band No.  band energies     occupation 
      1      -2.9846      2.00000
      2      -1.0153      2.00000
      3       1.5127      2.00000
      4       3.0865      2.00000
      5       8.3209      0.00000
      6      10.2167      0.00000
      7      11.3740      0.00000
      8      12.1525      0.00000

 k-point 149 :      -0.2353    0.3529    0.1176
  band No.  band energies     occupation 
      1      -3.3808      2.00000
      2      -0.5919      2.00000
      3       1.6180      2.00000
      4       3.3277      2.00000
      5       8.5955      0.00000
      6       9.8745      0.00000
      7      10.6327      0.00000
      8      12.8590      0.00000

 k-point 150 :      -0.4706    0.4118    0.1176
  band No.  band energies     occupation 
      1      -3.1890      2.00000
      2      -0.7744      2.00000
      3       2.3278      2.00000
      4       2.6923      2.00000
      5       7.4334      0.00000
      6       7.9302      0.00000
      7      12.0737      0.00000
      8      14.2258      0.00000

 k-point 151 :      -0.4118    0.4118    0.1176
  band No.  band energies     occupation 
      1      -2.7543      2.00000
      2      -1.2217      2.00000
      3       1.9720      2.00000
      4       2.5804      2.00000
      5       7.6930      0.00000
      6       8.5653      0.00000
      7      11.8342      0.00000
      8      13.8955      0.00000

 k-point 152 :      -0.3529    0.4118    0.1176
  band No.  band energies     occupation 
      1      -2.4537      2.00000
      2      -1.5066      2.00000
      3       1.6263      2.00000
      4       2.6510      2.00000
      5       7.8404      0.00000
      6       9.5715      0.00000
      7      11.6175      0.00000
      8      12.6676      0.00000

 k-point 153 :      -0.2941    0.4118    0.1176
  band No.  band energies     occupation 
      1      -2.5986      2.00000
      2      -1.3521      2.00000
      3       1.4447      2.00000
      4       2.8281      2.00000
      5       8.0474      0.00000
      6      10.6100      0.00000
      7      11.4064      0.00000
      8      11.6573      0.00000

 k-point 154 :      -0.4118    0.4706    0.1176
  band No.  band energies     occupation 
      1      -2.4256      2.00000
      2      -1.6116      2.00000
      3       2.3022      2.00000
      4       2.4202      2.00000
      5       7.4567      0.00000
      6       7.6186      0.00000
      7      13.0593      0.00000
      8      14.1008      0.00000

 k-point 155 :      -0.3529    0.4706    0.1176
  band No.  band energies     occupation 
      1      -2.1282      2.00000
      2      -1.8630      2.00000
      3       1.9183      2.00000
      4       2.4617      2.00000
      5       7.6487      0.00000
      6       8.4715      0.00000
      7      12.7647      0.00000
      8      12.9072      0.00000

 k-point 156 :      -0.4706    0.3529    0.1765
  band No.  band energies     occupation 
      1      -3.6633      2.00000
      2      -0.2404      2.00000
      3       2.0050      2.00000
      4       3.1846      2.00000
      5       8.6307      0.00000
      6       9.3576      0.00000
      7       9.8782      0.00000
      8      12.9952      0.00000

 k-point 157 :      -0.4118    0.3529    0.1765
  band No.  band energies     occupation 
      1      -3.2322      2.00000
      2      -0.7365      2.00000
      3       1.7697      2.00000
      4       2.9474      2.00000
      5       8.9399      0.00000
      6       9.4930      0.00000
      7      10.1167      0.00000
      8      13.3654      0.00000

 k-point 158 :      -0.3529    0.3529    0.1765
  band No.  band energies     occupation 
      1      -2.8974      2.00000
      2      -1.1169      2.00000
      3       1.6674      2.00000
      4       2.8151      2.00000
      5       9.0604      0.00000
      6       9.3313      0.00000
      7      11.0781      0.00000
      8      12.3170      0.00000

 k-point 159 :      -0.4118    0.4118    0.1765
  band No.  band energies     occupation 
      1      -3.0182      2.00000
      2      -0.9120      2.00000
      3       1.8963      2.00000
      4       2.5953      2.00000
      5       8.5296      0.00000
      6       8.9518      0.00000
      7      10.6665      0.00000
      8      13.7040      0.00000

 k-point 160 :      -0.3529    0.4118    0.1765
  band No.  band energies     occupation 
      1      -2.6222      2.00000
      2      -1.3022      2.00000
      3       1.7058      2.00000
      4       2.4262      2.00000
      5       8.8073      0.00000
      6       9.7020      0.00000
      7      10.4798      0.00000
      8      12.4264      0.00000

 k-point 161 :      -0.2941    0.4118    0.1765
  band No.  band energies     occupation 
      1      -2.5092      2.00000
      2      -1.4088      2.00000
      3       1.5774      2.00000
      4       2.4581      2.00000
      5       8.9808      0.00000
      6      10.0752      0.00000
      7      10.9160      0.00000
      8      11.3387      0.00000

 k-point 162 :      -0.2353    0.4118    0.1765
  band No.  band energies     occupation 
      1      -2.8110      2.00000
      2      -1.1142      2.00000
      3       1.5801      2.00000
      4       2.6483      2.00000
      5       9.2025      0.00000
      6       9.7761      0.00000
      7      10.3098      0.00000
      8      12.2528      0.00000

 k-point 163 :      -0.3529    0.4706    0.1765
  band No.  band energies     occupation 
      1      -2.3246      2.00000
      2      -1.6124      2.00000
      3       1.9475      2.00000
      4       2.1772      2.00000
      5       8.5419      0.00000
      6       8.6796      0.00000
      7      11.5842      0.00000
      8      12.6053      0.00000

 k-point 164 :      -0.2941    0.4706    0.1765
  band No.  band energies     occupation 
      1      -2.1576      2.00000
      2      -1.7462      2.00000
      3       1.7221      2.00000
      4       2.2043      2.00000
      5       8.7621      0.00000
      6       9.6549      0.00000
      7      11.3323      0.00000
      8      11.4343      0.00000

 k-point 165 :      -0.2941    0.4706    0.2353
  band No.  band energies     occupation 
      1      -2.2258      2.00000
      2      -1.6555      2.00000
      3       1.7341      2.00000
      4       2.0951      2.00000
      5       9.7177      0.00000
      6       9.7573      0.00000
      7      10.3862      0.00000
      8      11.1982      0.00000


--------------------------------------------------------------------------------------------------------


 soft charge-density along one line, spin component           1
         0         1         2         3         4         5         6         7         8         9
 total charge-density along one line
 
 pseudopotential strength for first ion, spin component:           1
 18.530  25.848   0.000   0.000   0.000   0.000   0.000   0.000
 25.848  36.061   0.000   0.000   0.000   0.000   0.000   0.000
  0.000   0.000   4.199   0.000   0.000   7.816   0.000   0.000
  0.000   0.000   0.000   4.199   0.000   0.000   7.816   0.000
  0.000   0.000   0.000   0.000   4.199   0.000   0.000   7.816
  0.000   0.000   7.816   0.000   0.000  14.561   0.000   0.000
  0.000   0.000   0.000   7.816   0.000   0.000  14.561   0.000
  0.000   0.000   0.000   0.000   7.816   0.000   0.000  14.561
 total augmentation occupancy for first ion, spin component:           1
  3.252  -0.964   0.000   0.000   0.000   0.000   0.000   0.000
 -0.964   0.490   0.000   0.000   0.000   0.000   0.000   0.000
  0.000   0.000   2.261   0.000   0.000  -0.407   0.000   0.000
  0.000   0.000   0.000   2.261   0.000   0.000  -0.407   0.000
  0.000   0.000   0.000   0.000   2.261   0.000   0.000  -0.407
  0.000   0.000  -0.407   0.000   0.000   0.084   0.000   0.000
  0.000   0.000   0.000  -0.407   0.000   0.000   0.084   0.000
  0.000   0.000   0.000   0.000  -0.407   0.000   0.000   0.084


------------------------ aborting loop because EDIFF is reached ----------------------------------------


    CHARGE:  cpu time    0.09: real time    0.09
    FORLOC:  cpu time    0.00: real time    0.00
    FORNL :  cpu time    0.10: real time    0.10
    STRESS:  cpu time    0.39: real time    0.39
    FORCOR:  cpu time    1.48: real time    1.49
    FORHAR:  cpu time    0.02: real time    0.02
    MIXING:  cpu time    0.00: real time    0.00

  FORCE on cell =-STRESS in cart. coord.  units (eV):
  Direction    XX          YY          ZZ          XY          YZ          ZX
  --------------------------------------------------------------------------------------
  Alpha Z     3.29318     3.29318     3.29318
  Ewald     -75.64832   -75.64835   -75.64832    -0.00001     0.00001     0.00001
  Hartree     5.12415     5.12415     5.12415     0.00000     0.00000     0.00000
  E(xc)     -25.38040   -25.38040   -25.38040     0.00000     0.00000     0.00000
  Local     -29.55365   -29.55365   -29.55366     0.00001     0.00000     0.00000
  n-local    74.22295    77.60937    81.75252    -0.88986    -0.97491    -0.01781
  augment   -11.98054   -11.98054   -11.98055     0.00000     0.00000     0.00000
  Kinetic    53.35769    55.39248    61.04180     0.85074     1.24503    -0.57147
  Fock        0.00000     0.00000     0.00000     0.00000     0.00000     0.00000
  -------------------------------------------------------------------------------------
  Total       0.31334     0.31334     0.31334     0.00000     0.00000     0.00000
  in kB      12.27793    12.27793    12.27793     0.00000     0.00000     0.00000
  external pressure =       12.28 kB  Pullay stress =        0.00 kB


 VOLUME and BASIS-vectors are now :
 -----------------------------------------------------------------------------
  energy-cutoff  :      550.00
  volume of cell :       40.89
      direct lattice vectors                 reciprocal lattice vectors
     3.348898000  0.000000000  1.933487000     0.298605691 -0.105573000  0.000000000
     1.116299000  3.157372000  1.933487000     0.000000000  0.316719094  0.000000000
     0.000000000  0.000000000  3.866975000    -0.149302807 -0.105573020  0.258600069

  length of vectors
     3.866974243  3.866974707  3.866975000     0.316719145  0.316719094  0.316719096


 FORCES acting on ions
    electron-ion (+dipol)            ewald-force                    non-local-force                 convergence-correction
 -----------------------------------------------------------------------------------------------
   -.378E-05 0.692E-05 0.844E-05   0.634E-05 -.116E-04 -.142E-04   0.226E-16 -.125E-15 -.486E-16   0.117E-11 0.286E-11 0.520E-11
   0.378E-05 -.692E-05 -.844E-05   -.634E-05 0.116E-04 0.142E-04   0.121E-16 0.125E-15 -.625E-16   -.117E-11 -.286E-11 -.521E-11
 -----------------------------------------------------------------------------------------------
   0.178E-12 -.504E-13 -.119E-13   -.469E-16 0.276E-16 -.294E-16   0.347E-16 0.000E+00 -.111E-15   0.589E-15 -.302E-15 -.220E-14
 
 
 POSITION                                       TOTAL-FORCE (eV/Angst)
 -----------------------------------------------------------------------------------
      3.90705      2.76270      6.76721         0.000000      0.000000      0.000000
      0.55815      0.39467      0.96674         0.000000      0.000000      0.000000
 -----------------------------------------------------------------------------------
    total drift:                                0.000000      0.000000      0.000000


--------------------------------------------------------------------------------------------------------



  FREE ENERGIE OF THE ION-ELECTRON SYSTEM (eV)
  ---------------------------------------------------
  free  energy   TOTEN  =        -8.34036293 eV

  energy  without entropy=       -8.34033346  energy(sigma->0) =       -8.34034820
 


--------------------------------------------------------------------------------------------------------


    POTLOK:  cpu time    1.14: real time    1.32


--------------------------------------------------------------------------------------------------------




--------------------------------------------------------------------------------------------------------


  
 reached required accuracy - stopping structural energy minimisation
     LOOP+:  cpu time   38.15: real time   64.53
    4ORBIT:  cpu time    0.00: real time    0.00

 total amount of memory used by VASP on root node    36821. kBytes
========================================================================

   base      :      30000. kBytes
   nonl-proj :       3389. kBytes
   fftplans  :        700. kBytes
   grid      :        998. kBytes
   one-center:          3. kBytes
   wavefun   :       1731. kBytes
 
  
  
 General timing and accounting informations for this job:
 ========================================================
  
                  Total CPU time used (sec):       39.618
                            User time (sec):       39.314
                          System time (sec):        0.304
                         Elapsed time (sec):       83.404
  
                   Maximum memory used (kb):      109116.
                   Average memory used (kb):           0.
  
                          Minor page faults:        65483
                          Major page faults:            5
                 Voluntary context switches:          924
