 running on   16 total cores
 distrk:  each k-point on   16 cores,    1 groups
 distr:  one band on    4 cores,    4 groups
 using from now: INCAR     
 vasp.5.3.3 18Dez12 (build Jan 30 2013 10:57:47) complex                        
  
 POSCAR found type information on POSCAR  Si
 POSCAR found :  1 types and       2 ions

 ----------------------------------------------------------------------------- 
|                                                                             |
|  ADVICE TO THIS USER RUNNING 'VASP/VAMP'   (HEAR YOUR MASTER'S VOICE ...):  |
|                                                                             |
|      You have switched on vdW-DFT.                                          |
|      This routine was written and supplied by Jiri Klimes.                  |
|      We recommed that you carefully read and cite the following             |
|      publication                                                            |
|      J. Klimes, D.R. Bowler, A. Michelides                                  |
|        J. Phys.: Cond Matt. 22 022201 (2010)                                |
|      J. Klimes, D.R. Bowler, A. Michelides                                  |
|        Phys. Rev. B. 83, 195131 (2011)                                      |
|      and references therein.                                                |
|                                                                             |
 ----------------------------------------------------------------------------- 


 ----------------------------------------------------------------------------- 
|                                                                             |
|  ADVICE TO THIS USER RUNNING 'VASP/VAMP'   (HEAR YOUR MASTER'S VOICE ...):  |
|                                                                             |
|      You enforced a specific xc-type in the INCAR file,                     |
|      a different type was found on the POTCAR file                          |
|          I HOPE YOU KNOW, WHAT YOU ARE  DOING                               |
|                                                                             |
 ----------------------------------------------------------------------------- 

 LDA part: xc-table for Pade appr. of Perdew
 POSCAR, INCAR and KPOINTS ok, starting setup
 FFT: planning ...
 WAVECAR not read
 entering main loop
       N       E                     dE             d eps       ncg     rms          rms(c)
Total vdW correction in eV:      1.0792472
DAV:   1     0.811855064769E+01    0.81186E+01   -0.34090E+03  2640   0.840E+02
DAV:   2    -0.820714802013E+01   -0.16326E+02   -0.15763E+02  4048   0.792E+01
DAV:   3    -0.841389010316E+01   -0.20674E+00   -0.20674E+00  3568   0.113E+01
DAV:   4    -0.841478098945E+01   -0.89089E-03   -0.89089E-03  4232   0.805E-01
DAV:   5    -0.841478171198E+01   -0.72254E-06   -0.72217E-06  3600   0.202E-02    0.374E+00
Total vdW correction in eV:      1.1274135
DAV:   6    -0.836150194519E+01    0.53280E-01   -0.88838E-02  3128   0.176E+00    0.229E+00
Total vdW correction in eV:      1.2189952
DAV:   7    -0.835619512181E+01    0.53068E-02   -0.20254E-01  3504   0.263E+00    0.186E-01
Total vdW correction in eV:      1.2141370
DAV:   8    -0.833944457886E+01    0.16751E-01   -0.61616E-03  3216   0.544E-01    0.982E-02
Total vdW correction in eV:      1.2196456
DAV:   9    -0.834109954138E+01   -0.16550E-02   -0.59277E-04  3848   0.163E-01    0.731E-02
Total vdW correction in eV:      1.2197178
DAV:  10    -0.834040072838E+01    0.69881E-03   -0.39311E-05  3296   0.535E-02    0.302E-02
Total vdW correction in eV:      1.2197196
DAV:  11    -0.834036778305E+01    0.32945E-04   -0.85754E-07  3840   0.847E-03    0.309E-03
Total vdW correction in eV:      1.2197486
DAV:  12    -0.834036666478E+01    0.11183E-05   -0.70014E-08  3280   0.264E-03    0.929E-04
Total vdW correction in eV:      1.2197506
DAV:  13    -0.834036339028E+01    0.32745E-05   -0.23794E-09  1936   0.452E-04    0.611E-05
Total vdW correction in eV:      1.2197518
DAV:  14    -0.834036312605E+01    0.26423E-06   -0.25413E-10  1664   0.172E-04    0.223E-05
Total vdW correction in eV:      1.2197514
DAV:  15    -0.834036288508E+01    0.24097E-06   -0.24643E-11  1600   0.448E-05    0.101E-05
Total vdW correction in eV:      1.2197515
DAV:  16    -0.834036293450E+01   -0.49421E-07   -0.51073E-12  1512   0.205E-05
Total vdW correction in eV:      1.2197514
Total vdW correction in eV:      1.2197515
   1 F= -.83403629E+01 E0= -.83403482E+01  d E =-.834036E+01
 curvature:   0.00 expect dE= 0.000E+00 dE for cont linesearch  0.000E+00
 trial: gam= 0.00000 g(F)=  0.207E-43 g(S)=  0.000E+00 ort = 0.000E+00 (trialstep = 0.100E+01)
 search vector abs. value=  0.100E-09
 reached required accuracy - stopping structural energy minimisation
