LAMMPS data file via write_data, version 19 Oct 2016, timestep = 93

12 atoms
1 atom types

4.4343983964821386e-02 5.7279760160351758e+00 xlo xhi
8.2050902900578579e-02 3.9995990970994240e+00 ylo yhi
-1.5758903864289056e-01 2.6816079038642908e+01 zlo zhi
0.0000000000000000e+00 0.0000000000000000e+00 0.0000000000000000e+00 xy xz yz

Masses

1 26.982

Atoms # charge

1 1 0.0000000000000000e+00 5.0175220120276904e+00 3.0202120485497104e+00 1.9954697012267391e+00 0 0 0
2 1 0.0000000000000000e+00 2.1757059959905121e+00 3.0202120485497121e+00 4.9422416161719855e+00 0 0 0
3 1 0.0000000000000000e+00 5.0175220120254060e+00 3.0202120485497095e+00 7.8536512691098457e+00 0 0 0
4 1 0.0000000000000000e+00 7.5479798797459352e-01 1.0614379514502861e+00 5.9202827571642458e-01 0 0 0
5 1 0.0000000000000000e+00 3.5966140040094858e+00 1.0614379514502830e+00 3.5034379286542863e+00 0 0 0
6 1 0.0000000000000000e+00 7.5479798797230302e-01 1.0614379514502832e+00 6.4502098435995352e+00 0 0 0
7 1 0.0000000000000000e+00 3.5966140040069394e+00 1.0614379514502856e+00 5.9202827571931949e-01 0 0 0
8 1 0.0000000000000000e+00 7.5479798797434594e-01 1.0614379514502832e+00 3.5034379286535855e+00 0 0 0
9 1 0.0000000000000000e+00 3.5966140040085293e+00 1.0614379514502834e+00 6.4502098435993300e+00 0 0 0
10 1 0.0000000000000000e+00 2.1757059959914749e+00 3.0202120485497108e+00 1.9954697012269464e+00 0 0 0
11 1 0.0000000000000000e+00 5.0175220120256521e+00 3.0202120485497130e+00 4.9422416161726908e+00 0 0 0
12 1 0.0000000000000000e+00 2.1757059959930580e+00 3.0202120485497095e+00 7.8536512691069520e+00 0 0 0

Velocities

1 0.0000000000000000e+00 0.0000000000000000e+00 0.0000000000000000e+00
2 0.0000000000000000e+00 0.0000000000000000e+00 0.0000000000000000e+00
3 0.0000000000000000e+00 0.0000000000000000e+00 0.0000000000000000e+00
4 0.0000000000000000e+00 0.0000000000000000e+00 0.0000000000000000e+00
5 0.0000000000000000e+00 0.0000000000000000e+00 0.0000000000000000e+00
6 0.0000000000000000e+00 0.0000000000000000e+00 0.0000000000000000e+00
7 0.0000000000000000e+00 0.0000000000000000e+00 0.0000000000000000e+00
8 0.0000000000000000e+00 0.0000000000000000e+00 0.0000000000000000e+00
9 0.0000000000000000e+00 0.0000000000000000e+00 0.0000000000000000e+00
10 0.0000000000000000e+00 0.0000000000000000e+00 0.0000000000000000e+00
11 0.0000000000000000e+00 0.0000000000000000e+00 0.0000000000000000e+00
12 0.0000000000000000e+00 0.0000000000000000e+00 0.0000000000000000e+00
