datafile (written by JARVIS-Tools) 

12 	 atoms 
1  atom types
0.0 5.77232  xlo xhi
0.0 4.08165  ylo yhi
0.0 26.65849  zlo zhi
0.0 0.0 0.0  xy xz yz


Atoms 

     1   1 0.000000 5.0507794016424805 3.0612375 2.1646232049274468
     2   1 0.000000 2.164621795072553 3.0612375 5.050785598357518
     3   1 0.000000 5.050784188502626 3.0612375 7.936947991787589
     4   1 0.000000 0.7215358114973723 1.0204125 0.7215420082124121
     5   1 0.000000 3.607698204927445 1.0204125 3.607704401642483
     6   1 0.000000 0.7215405983575173 1.0204125 6.493866795072554
     7   1 0.000000 3.607698204927444 1.0204125 0.7215420082124117
     8   1 0.000000 0.7215405983575173 1.0204125 3.6077044016424824
     9   1 0.000000 3.60770299178759 1.0204125 6.493866795072554
    10   1 0.000000 2.1646170082124088 3.0612375 2.164623204927447
    11   1 0.000000 5.050779401642481 3.0612375 5.050785598357518
    12   1 0.000000 2.164621795072553 3.0612375 7.936947991787589
