   2   2   1   0
  0.2072484E+02  0.3884592E-09  0.3884592E-09  0.3884592E-09  0.5000000E-15
   1.0000000000000000E-004
  CAR 
 unknown system                          
    100.58036333    -11.27623729 5000      5.80674781      1.00000000
    -11.276  0.0000E+00  0.0000E+00  0.0000E+00  0.0000E+00
    -11.254  0.0000E+00  0.0000E+00  0.0000E+00  0.0000E+00
    -11.231  0.0000E+00  0.0000E+00  0.0000E+00  0.0000E+00
    -11.209  0.0000E+00  0.0000E+00  0.0000E+00  0.0000E+00
    -11.187  0.0000E+00  0.0000E+00  0.0000E+00  0.0000E+00
    -11.164  0.0000E+00  0.0000E+00  0.0000E+00  0.0000E+00
    -11.142  0.0000E+00  0.0000E+00  0.0000E+00  0.0000E+00
    -11.120  0.0000E+00  0.0000E+00  0.0000E+00  0.0000E+00
    -11.097  0.0000E+00  0.0000E+00  0.0000E+00  0.0000E+00
    -11.075  0.0000E+00  0.0000E+00  0.0000E+00  0.0000E+00
    -11.052  0.0000E+00  0.0000E+00  0.0000E+00  0.0000E+00
    -11.030  0.0000E+00  0.0000E+00  0.0000E+00  0.0000E+00
    -11.008  0.0000E+00  0.0000E+00  0.0000E+00  0.0000E+00
    -10.985  0.0000E+00  0.0000E+00  0.0000E+00  0.0000E+00
    -10.963  0.0000E+00  0.0000E+00  0.0000E+00  0.0000E+00
    -10.941  0.0000E+00  0.0000E+00  0.0000E+00  0.0000E+00
    -10.918  0.0000E+00  0.0000E+00  0.0000E+00  0.0000E+00
    -10.896  0.0000E+00  0.0000E+00  0.0000E+00  0.0000E+00
    -10.873  0.0000E+00  0.0000E+00  0.0000E+00  0.0000E+00
    -10.851  0.0000E+00  0.0000E+00  0.0000E+00  0.0000E+00
    -10.829  0.0000E+00  0.0000E+00  0.0000E+00  0.0000E+00
    -10.806  0.0000E+00  0.0000E+00  0.0000E+00  0.0000E+00
    -10.784  0.0000E+00  0.0000E+00  0.0000E+00  0.0000E+00
    -10.762  0.0000E+00  0.0000E+00  0.0000E+00  0.0000E+00
    -10.739  0.0000E+00  0.0000E+00  0.0000E+00  0.0000E+00
    -10.717  0.0000E+00  0.0000E+00  0.0000E+00  0.0000E+00
    -10.694  0.0000E+00  0.0000E+00  0.0000E+00  0.0000E+00
    -10.672  0.0000E+00  0.0000E+00  0.0000E+00  0.0000E+00
    -10.650  0.0000E+00  0.0000E+00  0.0000E+00  0.0000E+00
    -10.627  0.0000E+00  0.0000E+00  0.0000E+00  0.0000E+00
    -10.605  0.0000E+00  0.0000E+00  0.0000E+00  0.0000E+00
    -10.583  0.0000E+00  0.0000E+00  0.0000E+00  0.0000E+00
    -10.560  0.0000E+00  0.0000E+00  0.0000E+00  0.0000E+00
    -10.538  0.0000E+00  0.0000E+00  0.0000E+00  0.0000E+00
    -10.515  0.0000E+00  0.0000E+00  0.0000E+00  0.0000E+00
    -10.493  0.0000E+00  0.0000E+00  0.0000E+00  0.0000E+00
    -10.471  0.0000E+00  0.0000E+00  0.0000E+00  0.0000E+00
    -10.448  0.0000E+00  0.0000E+00  0.0000E+00  0.0000E+00
    -10.426  0.0000E+00  0.0000E+00  0.0000E+00  0.0000E+00
    -10.404  0.0000E+00  0.0000E+00  0.0000E+00  0.0000E+00
    -10.381  0.0000E+00  0.0000E+00  0.0000E+00  0.0000E+00
    -10.359  0.0000E+00  0.0000E+00  0.0000E+00  0.0000E+00
    -10.336  0.0000E+00  0.0000E+00  0.0000E+00  0.0000E+00
    -10.314  0.0000E+00  0.0000E+00  0.0000E+00  0.0000E+00
    -10.292  0.0000E+00  0.0000E+00  0.0000E+00  0.0000E+00
    -10.269  0.0000E+00  0.0000E+00  0.0000E+00  0.0000E+00
    -10.247  0.0000E+00  0.0000E+00  0.0000E+00  0.0000E+00
    -10.225  0.0000E+00  0.0000E+00  0.0000E+00  0.0000E+00
    -10.202  0.0000E+00  0.0000E+00  0.0000E+00  0.0000E+00
    -10.180  0.0000E+00  0.0000E+00  0.0000E+00  0.0000E+00
    -10.157  0.0000E+00  0.0000E+00  0.0000E+00  0.0000E+00
    -10.135  0.0000E+00  0.0000E+00  0.0000E+00  0.0000E+00
    -10.113  0.0000E+00  0.0000E+00  0.0000E+00  0.0000E+00
    -10.090  0.0000E+00  0.0000E+00  0.0000E+00  0.0000E+00
    -10.068  0.0000E+00  0.0000E+00  0.0000E+00  0.0000E+00
    -10.046  0.0000E+00  0.0000E+00  0.0000E+00  0.0000E+00
    -10.023  0.0000E+00  0.0000E+00  0.0000E+00  0.0000E+00
    -10.001  0.0000E+00  0.0000E+00  0.0000E+00  0.0000E+00
     -9.978  0.0000E+00  0.0000E+00  0.0000E+00  0.0000E+00
     -9.956  0.0000E+00  0.0000E+00  0.0000E+00  0.0000E+00
     -9.934  0.0000E+00  0.0000E+00  0.0000E+00  0.0000E+00
     -9.911  0.0000E+00  0.0000E+00  0.0000E+00  0.0000E+00
     -9.889  0.0000E+00  0.0000E+00  0.0000E+00  0.0000E+00
     -9.867  0.0000E+00  0.0000E+00  0.0000E+00  0.0000E+00
     -9.844  0.0000E+00  0.0000E+00  0.0000E+00  0.0000E+00
     -9.822  0.0000E+00  0.0000E+00  0.0000E+00  0.0000E+00
     -9.799  0.0000E+00  0.0000E+00  0.0000E+00  0.0000E+00
     -9.777  0.0000E+00  0.0000E+00  0.0000E+00  0.0000E+00
     -9.755  0.0000E+00  0.0000E+00  0.0000E+00  0.0000E+00
     -9.732  0.0000E+00  0.0000E+00  0.0000E+00  0.0000E+00
     -9.710  0.0000E+00  0.0000E+00  0.0000E+00  0.0000E+00
     -9.688  0.0000E+00  0.0000E+00  0.0000E+00  0.0000E+00
     -9.665  0.0000E+00  0.0000E+00  0.0000E+00  0.0000E+00
     -9.643  0.0000E+00  0.0000E+00  0.0000E+00  0.0000E+00
     -9.620  0.0000E+00  0.0000E+00  0.0000E+00  0.0000E+00
     -9.598  0.0000E+00  0.0000E+00  0.0000E+00  0.0000E+00
     -9.576  0.0000E+00  0.0000E+00  0.0000E+00  0.0000E+00
     -9.553  0.0000E+00  0.0000E+00  0.0000E+00  0.0000E+00
     -9.531  0.0000E+00  0.0000E+00  0.0000E+00  0.0000E+00
     -9.509  0.0000E+00  0.0000E+00  0.0000E+00  0.0000E+00
     -9.486  0.0000E+00  0.0000E+00  0.0000E+00  0.0000E+00
     -9.464  0.0000E+00  0.0000E+00  0.0000E+00  0.0000E+00
     -9.441  0.0000E+00  0.0000E+00  0.0000E+00  0.0000E+00
     -9.419  0.0000E+00  0.0000E+00  0.0000E+00  0.0000E+00
     -9.397  0.0000E+00  0.0000E+00  0.0000E+00  0.0000E+00
     -9.374  0.0000E+00  0.0000E+00  0.0000E+00  0.0000E+00
     -9.352  0.0000E+00  0.0000E+00  0.0000E+00  0.0000E+00
     -9.330  0.0000E+00  0.0000E+00  0.0000E+00  0.0000E+00
     -9.307  0.0000E+00  0.0000E+00  0.0000E+00  0.0000E+00
     -9.285  0.0000E+00  0.0000E+00  0.0000E+00  0.0000E+00
     -9.262  0.0000E+00  0.0000E+00  0.0000E+00  0.0000E+00
     -9.240  0.0000E+00  0.0000E+00  0.0000E+00  0.0000E+00
     -9.218  0.0000E+00  0.0000E+00  0.0000E+00  0.0000E+00
     -9.195  0.0000E+00  0.0000E+00  0.0000E+00  0.0000E+00
     -9.173  0.0000E+00  0.0000E+00  0.0000E+00  0.0000E+00
     -9.151  0.0000E+00  0.0000E+00  0.0000E+00  0.0000E+00
     -9.128  0.0000E+00  0.0000E+00  0.0000E+00  0.0000E+00
     -9.106  0.0000E+00  0.0000E+00  0.0000E+00  0.0000E+00
     -9.083  0.0000E+00  0.0000E+00  0.0000E+00  0.0000E+00
     -9.061  0.0000E+00  0.0000E+00  0.0000E+00  0.0000E+00
     -9.039  0.0000E+00  0.0000E+00  0.0000E+00  0.0000E+00
     -9.016  0.0000E+00  0.0000E+00  0.0000E+00  0.0000E+00
     -8.994  0.0000E+00  0.0000E+00  0.0000E+00  0.0000E+00
     -8.972  0.0000E+00  0.0000E+00  0.0000E+00  0.0000E+00
     -8.949  0.0000E+00  0.0000E+00  0.0000E+00  0.0000E+00
     -8.927  0.0000E+00  0.0000E+00  0.0000E+00  0.0000E+00
     -8.904  0.0000E+00  0.0000E+00  0.0000E+00  0.0000E+00
     -8.882  0.0000E+00  0.0000E+00  0.0000E+00  0.0000E+00
     -8.860  0.0000E+00  0.0000E+00  0.0000E+00  0.0000E+00
     -8.837  0.0000E+00  0.0000E+00  0.0000E+00  0.0000E+00
     -8.815  0.0000E+00  0.0000E+00  0.0000E+00  0.0000E+00
     -8.793  0.0000E+00  0.0000E+00  0.0000E+00  0.0000E+00
     -8.770  0.0000E+00  0.0000E+00  0.0000E+00  0.0000E+00
     -8.748  0.0000E+00  0.0000E+00  0.0000E+00  0.0000E+00
     -8.725  0.0000E+00  0.0000E+00  0.0000E+00  0.0000E+00
     -8.703  0.0000E+00  0.0000E+00  0.0000E+00  0.0000E+00
     -8.681  0.0000E+00  0.0000E+00  0.0000E+00  0.0000E+00
     -8.658  0.0000E+00  0.0000E+00  0.0000E+00  0.0000E+00
     -8.636  0.0000E+00  0.0000E+00  0.0000E+00  0.0000E+00
     -8.614  0.0000E+00  0.0000E+00  0.0000E+00  0.0000E+00
     -8.591  0.0000E+00  0.0000E+00  0.0000E+00  0.0000E+00
     -8.569  0.0000E+00  0.0000E+00  0.0000E+00  0.0000E+00
     -8.546  0.0000E+00  0.0000E+00  0.0000E+00  0.0000E+00
     -8.524  0.0000E+00  0.0000E+00  0.0000E+00  0.0000E+00
     -8.502  0.0000E+00  0.0000E+00  0.0000E+00  0.0000E+00
     -8.479  0.0000E+00  0.0000E+00  0.0000E+00  0.0000E+00
     -8.457  0.0000E+00  0.0000E+00  0.0000E+00  0.0000E+00
     -8.435  0.0000E+00  0.0000E+00  0.0000E+00  0.0000E+00
     -8.412  0.0000E+00  0.0000E+00  0.0000E+00  0.0000E+00
     -8.390  0.0000E+00  0.0000E+00  0.0000E+00  0.0000E+00
     -8.367  0.0000E+00  0.0000E+00  0.0000E+00  0.0000E+00
     -8.345  0.0000E+00  0.0000E+00  0.0000E+00  0.0000E+00
     -8.323  0.0000E+00  0.0000E+00  0.0000E+00  0.0000E+00
     -8.300  0.0000E+00  0.0000E+00  0.0000E+00  0.0000E+00
     -8.278  0.0000E+00  0.0000E+00  0.0000E+00  0.0000E+00
     -8.256  0.0000E+00  0.0000E+00  0.0000E+00  0.0000E+00
     -8.233  0.0000E+00  0.0000E+00  0.0000E+00  0.0000E+00
     -8.211  0.0000E+00  0.0000E+00  0.0000E+00  0.0000E+00
     -8.188  0.0000E+00  0.0000E+00  0.0000E+00  0.0000E+00
     -8.166  0.0000E+00  0.0000E+00  0.0000E+00  0.0000E+00
     -8.144  0.0000E+00  0.0000E+00  0.0000E+00  0.0000E+00
     -8.121  0.0000E+00  0.0000E+00  0.0000E+00  0.0000E+00
     -8.099  0.0000E+00  0.0000E+00  0.0000E+00  0.0000E+00
     -8.076  0.0000E+00  0.0000E+00  0.0000E+00  0.0000E+00
     -8.054  0.0000E+00  0.0000E+00  0.0000E+00  0.0000E+00
     -8.032  0.0000E+00  0.0000E+00  0.0000E+00  0.0000E+00
     -8.009  0.0000E+00  0.0000E+00  0.0000E+00  0.0000E+00
     -7.987  0.0000E+00  0.0000E+00  0.0000E+00  0.0000E+00
     -7.965  0.0000E+00  0.0000E+00  0.0000E+00  0.0000E+00
     -7.942  0.0000E+00  0.0000E+00  0.0000E+00  0.0000E+00
     -7.920  0.0000E+00  0.0000E+00  0.0000E+00  0.0000E+00
     -7.897  0.0000E+00  0.0000E+00  0.0000E+00  0.0000E+00
     -7.875  0.0000E+00  0.0000E+00  0.0000E+00  0.0000E+00
     -7.853  0.0000E+00  0.0000E+00  0.0000E+00  0.0000E+00
     -7.830  0.0000E+00  0.0000E+00  0.0000E+00  0.0000E+00
     -7.808  0.0000E+00  0.0000E+00  0.0000E+00  0.0000E+00
     -7.786  0.0000E+00  0.0000E+00  0.0000E+00  0.0000E+00
     -7.763  0.0000E+00  0.0000E+00  0.0000E+00  0.0000E+00
     -7.741  0.0000E+00  0.0000E+00  0.0000E+00  0.0000E+00
     -7.718  0.0000E+00  0.0000E+00  0.0000E+00  0.0000E+00
     -7.696  0.0000E+00  0.0000E+00  0.0000E+00  0.0000E+00
     -7.674  0.0000E+00  0.0000E+00  0.0000E+00  0.0000E+00
     -7.651  0.0000E+00  0.0000E+00  0.0000E+00  0.0000E+00
     -7.629  0.0000E+00  0.0000E+00  0.0000E+00  0.0000E+00
     -7.607  0.0000E+00  0.0000E+00  0.0000E+00  0.0000E+00
     -7.584  0.0000E+00  0.0000E+00  0.0000E+00  0.0000E+00
     -7.562  0.0000E+00  0.0000E+00  0.0000E+00  0.0000E+00
     -7.539  0.0000E+00  0.0000E+00  0.0000E+00  0.0000E+00
     -7.517  0.0000E+00  0.0000E+00  0.0000E+00  0.0000E+00
     -7.495  0.0000E+00  0.0000E+00  0.0000E+00  0.0000E+00
     -7.472  0.0000E+00  0.0000E+00  0.0000E+00  0.0000E+00
     -7.450  0.0000E+00  0.0000E+00  0.0000E+00  0.0000E+00
     -7.428  0.0000E+00  0.0000E+00  0.0000E+00  0.0000E+00
     -7.405  0.0000E+00  0.0000E+00  0.0000E+00  0.0000E+00
     -7.383  0.0000E+00  0.0000E+00  0.0000E+00  0.0000E+00
     -7.360  0.1129E-17  0.1129E-17  0.2527E-19  0.2527E-19
     -7.338  0.4517E-17  0.4517E-17  0.1263E-18  0.1263E-18
     -7.316  0.1355E-16  0.1355E-16  0.4295E-18  0.4295E-18
     -7.293  0.5872E-16  0.5872E-16  0.1743E-17  0.1743E-17
     -7.271  0.1942E-15  0.1942E-15  0.6089E-17  0.6089E-17
     -7.249  0.6493E-15  0.6493E-15  0.2062E-16  0.2062E-16
     -7.226  0.2127E-14  0.2127E-14  0.6822E-16  0.6822E-16
     -7.204  0.6850E-14  0.6850E-14  0.2215E-15  0.2215E-15
     -7.181  0.2152E-13  0.2152E-13  0.7030E-15  0.7030E-15
     -7.159  0.6594E-13  0.6594E-13  0.2179E-14  0.2179E-14
     -7.137  0.1973E-12  0.1973E-12  0.6594E-14  0.6594E-14
     -7.114  0.5766E-12  0.5766E-12  0.1950E-13  0.1950E-13
     -7.092  0.1646E-11  0.1646E-11  0.5632E-13  0.5632E-13
     -7.070  0.4586E-11  0.4586E-11  0.1589E-12  0.1589E-12
     -7.047  0.1249E-10  0.1249E-10  0.4383E-12  0.4383E-12
     -7.025  0.3320E-10  0.3320E-10  0.1181E-11  0.1181E-11
     -7.002  0.8626E-10  0.8626E-10  0.3111E-11  0.3111E-11
     -6.980  0.2189E-09  0.2189E-09  0.8010E-11  0.8010E-11
     -6.958  0.5429E-09  0.5429E-09  0.2016E-10  0.2016E-10
     -6.935  0.1315E-08  0.1315E-08  0.4959E-10  0.4959E-10
     -6.913  0.3115E-08  0.3115E-08  0.1193E-09  0.1193E-09
     -6.891  0.7208E-08  0.7208E-08  0.2806E-09  0.2806E-09
     -6.868  0.1630E-07  0.1630E-07  0.6453E-09  0.6453E-09
     -6.846  0.3603E-07  0.3603E-07  0.1451E-08  0.1451E-08
     -6.823  0.7784E-07  0.7784E-07  0.3193E-08  0.3193E-08
     -6.801  0.1644E-06  0.1644E-06  0.6872E-08  0.6872E-08
     -6.779  0.3394E-06  0.3394E-06  0.1447E-07  0.1447E-07
     -6.756  0.6850E-06  0.6850E-06  0.2979E-07  0.2979E-07
     -6.734  0.1352E-05  0.1352E-05  0.6004E-07  0.6004E-07
     -6.712  0.2608E-05  0.2608E-05  0.1184E-06  0.1184E-06
     -6.689  0.4918E-05  0.4918E-05  0.2284E-06  0.2284E-06
     -6.667  0.9071E-05  0.9071E-05  0.4314E-06  0.4314E-06
     -6.644  0.1636E-04  0.1636E-04  0.7975E-06  0.7975E-06
     -6.622  0.2885E-04  0.2885E-04  0.1443E-05  0.1443E-05
     -6.600  0.4976E-04  0.4976E-04  0.2556E-05  0.2556E-05
     -6.577  0.8393E-04  0.8393E-04  0.4434E-05  0.4434E-05
     -6.555  0.1385E-03  0.1385E-03  0.7532E-05  0.7532E-05
     -6.533  0.2234E-03  0.2234E-03  0.1253E-04  0.1253E-04
     -6.510  0.3528E-03  0.3528E-03  0.2043E-04  0.2043E-04
     -6.488  0.5450E-03  0.5450E-03  0.3262E-04  0.3262E-04
     -6.465  0.8239E-03  0.8239E-03  0.5105E-04  0.5105E-04
     -6.443  0.1219E-02  0.1219E-02  0.7833E-04  0.7833E-04
     -6.421  0.1766E-02  0.1766E-02  0.1179E-03  0.1179E-03
     -6.398  0.2506E-02  0.2506E-02  0.1739E-03  0.1739E-03
     -6.376  0.3485E-02  0.3485E-02  0.2519E-03  0.2519E-03
     -6.354  0.4748E-02  0.4748E-02  0.3581E-03  0.3582E-03
     -6.331  0.6344E-02  0.6344E-02  0.5001E-03  0.5001E-03
     -6.309  0.8317E-02  0.8317E-02  0.6862E-03  0.6862E-03
     -6.286  0.1070E-01  0.1070E-01  0.9257E-03  0.9257E-03
     -6.264  0.1353E-01  0.1353E-01  0.1228E-02  0.1228E-02
     -6.242  0.1681E-01  0.1681E-01  0.1605E-02  0.1605E-02
     -6.219  0.2054E-01  0.2054E-01  0.2064E-02  0.2064E-02
     -6.197  0.2472E-01  0.2472E-01  0.2617E-02  0.2617E-02
     -6.175  0.2929E-01  0.2929E-01  0.3273E-02  0.3273E-02
     -6.152  0.3422E-01  0.3422E-01  0.4038E-02  0.4038E-02
     -6.130  0.3944E-01  0.3944E-01  0.4921E-02  0.4921E-02
     -6.107  0.4487E-01  0.4487E-01  0.5925E-02  0.5925E-02
     -6.085  0.5044E-01  0.5044E-01  0.7054E-02  0.7054E-02
     -6.063  0.5604E-01  0.5604E-01  0.8308E-02  0.8308E-02
     -6.040  0.6161E-01  0.6161E-01  0.9686E-02  0.9686E-02
     -6.018  0.6705E-01  0.6705E-01  0.1119E-01  0.1119E-01
     -5.996  0.7232E-01  0.7232E-01  0.1280E-01  0.1280E-01
     -5.973  0.7737E-01  0.7737E-01  0.1454E-01  0.1454E-01
     -5.951  0.8219E-01  0.8219E-01  0.1637E-01  0.1637E-01
     -5.928  0.8679E-01  0.8679E-01  0.1832E-01  0.1832E-01
     -5.906  0.9122E-01  0.9122E-01  0.2036E-01  0.2036E-01
     -5.884  0.9552E-01  0.9552E-01  0.2250E-01  0.2250E-01
     -5.861  0.9976E-01  0.9976E-01  0.2473E-01  0.2473E-01
     -5.839  0.1040E+00  0.1040E+00  0.2705E-01  0.2705E-01
     -5.817  0.1082E+00  0.1082E+00  0.2948E-01  0.2948E-01
     -5.794  0.1124E+00  0.1124E+00  0.3199E-01  0.3199E-01
     -5.772  0.1167E+00  0.1167E+00  0.3460E-01  0.3460E-01
     -5.749  0.1208E+00  0.1208E+00  0.3730E-01  0.3730E-01
     -5.727  0.1247E+00  0.1247E+00  0.4009E-01  0.4009E-01
     -5.705  0.1283E+00  0.1283E+00  0.4296E-01  0.4296E-01
     -5.682  0.1316E+00  0.1316E+00  0.4591E-01  0.4591E-01
     -5.660  0.1345E+00  0.1345E+00  0.4892E-01  0.4892E-01
     -5.638  0.1370E+00  0.1370E+00  0.5198E-01  0.5198E-01
     -5.615  0.1391E+00  0.1391E+00  0.5510E-01  0.5510E-01
     -5.593  0.1410E+00  0.1410E+00  0.5825E-01  0.5825E-01
     -5.570  0.1428E+00  0.1428E+00  0.6145E-01  0.6145E-01
     -5.548  0.1448E+00  0.1448E+00  0.6469E-01  0.6469E-01
     -5.526  0.1470E+00  0.1470E+00  0.6798E-01  0.6798E-01
     -5.503  0.1497E+00  0.1497E+00  0.7133E-01  0.7133E-01
     -5.481  0.1529E+00  0.1529E+00  0.7475E-01  0.7475E-01
     -5.459  0.1567E+00  0.1567E+00  0.7825E-01  0.7825E-01
     -5.436  0.1610E+00  0.1610E+00  0.8186E-01  0.8186E-01
     -5.414  0.1656E+00  0.1656E+00  0.8556E-01  0.8556E-01
     -5.391  0.1705E+00  0.1705E+00  0.8938E-01  0.8938E-01
     -5.369  0.1752E+00  0.1752E+00  0.9330E-01  0.9330E-01
     -5.347  0.1796E+00  0.1796E+00  0.9732E-01  0.9732E-01
     -5.324  0.1834E+00  0.1834E+00  0.1014E+00  0.1014E+00
     -5.302  0.1865E+00  0.1865E+00  0.1056E+00  0.1056E+00
     -5.280  0.1886E+00  0.1886E+00  0.1098E+00  0.1098E+00
     -5.257  0.1899E+00  0.1899E+00  0.1141E+00  0.1141E+00
     -5.235  0.1904E+00  0.1904E+00  0.1183E+00  0.1183E+00
     -5.212  0.1902E+00  0.1902E+00  0.1226E+00  0.1226E+00
     -5.190  0.1898E+00  0.1898E+00  0.1268E+00  0.1268E+00
     -5.168  0.1893E+00  0.1893E+00  0.1311E+00  0.1311E+00
     -5.145  0.1891E+00  0.1891E+00  0.1353E+00  0.1353E+00
     -5.123  0.1896E+00  0.1896E+00  0.1395E+00  0.1395E+00
     -5.101  0.1910E+00  0.1910E+00  0.1438E+00  0.1438E+00
     -5.078  0.1934E+00  0.1934E+00  0.1481E+00  0.1481E+00
     -5.056  0.1971E+00  0.1971E+00  0.1525E+00  0.1525E+00
     -5.033  0.2019E+00  0.2019E+00  0.1571E+00  0.1571E+00
     -5.011  0.2078E+00  0.2078E+00  0.1617E+00  0.1617E+00
     -4.989  0.2144E+00  0.2144E+00  0.1665E+00  0.1665E+00
     -4.966  0.2215E+00  0.2215E+00  0.1715E+00  0.1715E+00
     -4.944  0.2286E+00  0.2286E+00  0.1766E+00  0.1766E+00
     -4.922  0.2352E+00  0.2352E+00  0.1818E+00  0.1818E+00
     -4.899  0.2409E+00  0.2409E+00  0.1872E+00  0.1872E+00
     -4.877  0.2455E+00  0.2455E+00  0.1927E+00  0.1927E+00
     -4.854  0.2485E+00  0.2485E+00  0.1983E+00  0.1983E+00
     -4.832  0.2501E+00  0.2501E+00  0.2039E+00  0.2039E+00
     -4.810  0.2501E+00  0.2501E+00  0.2095E+00  0.2095E+00
     -4.787  0.2489E+00  0.2489E+00  0.2151E+00  0.2151E+00
     -4.765  0.2467E+00  0.2467E+00  0.2206E+00  0.2206E+00
     -4.743  0.2441E+00  0.2441E+00  0.2260E+00  0.2260E+00
     -4.720  0.2415E+00  0.2415E+00  0.2314E+00  0.2314E+00
     -4.698  0.2395E+00  0.2395E+00  0.2368E+00  0.2368E+00
     -4.675  0.2384E+00  0.2384E+00  0.2421E+00  0.2421E+00
     -4.653  0.2387E+00  0.2387E+00  0.2475E+00  0.2475E+00
     -4.631  0.2405E+00  0.2405E+00  0.2529E+00  0.2529E+00
     -4.608  0.2439E+00  0.2439E+00  0.2583E+00  0.2583E+00
     -4.586  0.2489E+00  0.2489E+00  0.2639E+00  0.2639E+00
     -4.563  0.2553E+00  0.2553E+00  0.2696E+00  0.2696E+00
     -4.541  0.2627E+00  0.2627E+00  0.2755E+00  0.2755E+00
     -4.519  0.2710E+00  0.2710E+00  0.2815E+00  0.2815E+00
     -4.496  0.2795E+00  0.2795E+00  0.2878E+00  0.2878E+00
     -4.474  0.2882E+00  0.2882E+00  0.2942E+00  0.2942E+00
     -4.452  0.2965E+00  0.2965E+00  0.3009E+00  0.3009E+00
     -4.429  0.3042E+00  0.3042E+00  0.3077E+00  0.3077E+00
     -4.407  0.3112E+00  0.3112E+00  0.3146E+00  0.3146E+00
     -4.384  0.3172E+00  0.3172E+00  0.3217E+00  0.3217E+00
     -4.362  0.3222E+00  0.3222E+00  0.3289E+00  0.3289E+00
     -4.340  0.3260E+00  0.3260E+00  0.3362E+00  0.3362E+00
     -4.317  0.3288E+00  0.3288E+00  0.3436E+00  0.3436E+00
     -4.295  0.3305E+00  0.3305E+00  0.3510E+00  0.3510E+00
     -4.273  0.3313E+00  0.3313E+00  0.3584E+00  0.3584E+00
     -4.250  0.3314E+00  0.3314E+00  0.3658E+00  0.3658E+00
     -4.228  0.3310E+00  0.3310E+00  0.3732E+00  0.3732E+00
     -4.205  0.3306E+00  0.3306E+00  0.3806E+00  0.3806E+00
     -4.183  0.3305E+00  0.3305E+00  0.3880E+00  0.3880E+00
     -4.161  0.3312E+00  0.3312E+00  0.3954E+00  0.3954E+00
     -4.138  0.3332E+00  0.3332E+00  0.4029E+00  0.4029E+00
     -4.116  0.3369E+00  0.3369E+00  0.4104E+00  0.4104E+00
     -4.094  0.3425E+00  0.3425E+00  0.4181E+00  0.4181E+00
     -4.071  0.3502E+00  0.3502E+00  0.4259E+00  0.4259E+00
     -4.049  0.3599E+00  0.3599E+00  0.4340E+00  0.4340E+00
     -4.026  0.3713E+00  0.3713E+00  0.4423E+00  0.4423E+00
     -4.004  0.3841E+00  0.3841E+00  0.4509E+00  0.4509E+00
     -3.982  0.3975E+00  0.3975E+00  0.4598E+00  0.4598E+00
     -3.959  0.4110E+00  0.4110E+00  0.4690E+00  0.4690E+00
     -3.937  0.4239E+00  0.4239E+00  0.4785E+00  0.4785E+00
     -3.915  0.4353E+00  0.4353E+00  0.4882E+00  0.4882E+00
     -3.892  0.4447E+00  0.4447E+00  0.4981E+00  0.4981E+00
     -3.870  0.4517E+00  0.4517E+00  0.5083E+00  0.5083E+00
     -3.847  0.4558E+00  0.4558E+00  0.5185E+00  0.5185E+00
     -3.825  0.4571E+00  0.4571E+00  0.5287E+00  0.5287E+00
     -3.803  0.4555E+00  0.4555E+00  0.5389E+00  0.5389E+00
     -3.780  0.4513E+00  0.4513E+00  0.5490E+00  0.5490E+00
     -3.758  0.4449E+00  0.4449E+00  0.5589E+00  0.5589E+00
     -3.736  0.4369E+00  0.4369E+00  0.5687E+00  0.5687E+00
     -3.713  0.4278E+00  0.4278E+00  0.5783E+00  0.5783E+00
     -3.691  0.4183E+00  0.4183E+00  0.5876E+00  0.5876E+00
     -3.668  0.4089E+00  0.4089E+00  0.5968E+00  0.5968E+00
     -3.646  0.4004E+00  0.4004E+00  0.6057E+00  0.6057E+00
     -3.624  0.3930E+00  0.3930E+00  0.6145E+00  0.6145E+00
     -3.601  0.3872E+00  0.3872E+00  0.6232E+00  0.6232E+00
     -3.579  0.3829E+00  0.3829E+00  0.6318E+00  0.6318E+00
     -3.557  0.3802E+00  0.3802E+00  0.6403E+00  0.6403E+00
     -3.534  0.3788E+00  0.3788E+00  0.6488E+00  0.6488E+00
     -3.512  0.3783E+00  0.3783E+00  0.6572E+00  0.6572E+00
     -3.489  0.3783E+00  0.3783E+00  0.6657E+00  0.6657E+00
     -3.467  0.3783E+00  0.3783E+00  0.6741E+00  0.6741E+00
     -3.445  0.3779E+00  0.3779E+00  0.6826E+00  0.6826E+00
     -3.422  0.3769E+00  0.3769E+00  0.6910E+00  0.6910E+00
     -3.400  0.3751E+00  0.3751E+00  0.6994E+00  0.6994E+00
     -3.378  0.3726E+00  0.3726E+00  0.7078E+00  0.7078E+00
     -3.355  0.3696E+00  0.3696E+00  0.7160E+00  0.7160E+00
     -3.333  0.3663E+00  0.3663E+00  0.7242E+00  0.7242E+00
     -3.310  0.3629E+00  0.3629E+00  0.7324E+00  0.7324E+00
     -3.288  0.3595E+00  0.3595E+00  0.7404E+00  0.7404E+00
     -3.266  0.3564E+00  0.3564E+00  0.7484E+00  0.7484E+00
     -3.243  0.3534E+00  0.3534E+00  0.7563E+00  0.7563E+00
     -3.221  0.3503E+00  0.3503E+00  0.7641E+00  0.7641E+00
     -3.199  0.3469E+00  0.3469E+00  0.7719E+00  0.7719E+00
     -3.176  0.3429E+00  0.3429E+00  0.7795E+00  0.7795E+00
     -3.154  0.3381E+00  0.3381E+00  0.7871E+00  0.7871E+00
     -3.131  0.3323E+00  0.3323E+00  0.7946E+00  0.7946E+00
     -3.109  0.3253E+00  0.3253E+00  0.8018E+00  0.8018E+00
     -3.087  0.3172E+00  0.3172E+00  0.8089E+00  0.8089E+00
     -3.064  0.3083E+00  0.3083E+00  0.8158E+00  0.8158E+00
     -3.042  0.2988E+00  0.2988E+00  0.8225E+00  0.8225E+00
     -3.020  0.2893E+00  0.2893E+00  0.8290E+00  0.8290E+00
     -2.997  0.2802E+00  0.2802E+00  0.8353E+00  0.8353E+00
     -2.975  0.2719E+00  0.2719E+00  0.8413E+00  0.8413E+00
     -2.952  0.2650E+00  0.2650E+00  0.8473E+00  0.8473E+00
     -2.930  0.2596E+00  0.2596E+00  0.8531E+00  0.8531E+00
     -2.908  0.2560E+00  0.2560E+00  0.8588E+00  0.8588E+00
     -2.885  0.2542E+00  0.2542E+00  0.8645E+00  0.8645E+00
     -2.863  0.2540E+00  0.2540E+00  0.8702E+00  0.8702E+00
     -2.841  0.2552E+00  0.2552E+00  0.8759E+00  0.8759E+00
     -2.818  0.2573E+00  0.2573E+00  0.8816E+00  0.8816E+00
     -2.796  0.2598E+00  0.2598E+00  0.8875E+00  0.8875E+00
     -2.773  0.2619E+00  0.2619E+00  0.8933E+00  0.8933E+00
     -2.751  0.2632E+00  0.2632E+00  0.8992E+00  0.8992E+00
     -2.729  0.2630E+00  0.2630E+00  0.9051E+00  0.9051E+00
     -2.706  0.2609E+00  0.2609E+00  0.9109E+00  0.9109E+00
     -2.684  0.2566E+00  0.2566E+00  0.9167E+00  0.9167E+00
     -2.662  0.2499E+00  0.2499E+00  0.9223E+00  0.9223E+00
     -2.639  0.2411E+00  0.2411E+00  0.9277E+00  0.9277E+00
     -2.617  0.2304E+00  0.2304E+00  0.9328E+00  0.9328E+00
     -2.594  0.2182E+00  0.2182E+00  0.9377E+00  0.9377E+00
     -2.572  0.2052E+00  0.2052E+00  0.9423E+00  0.9423E+00
     -2.550  0.1919E+00  0.1919E+00  0.9466E+00  0.9466E+00
     -2.527  0.1789E+00  0.1789E+00  0.9506E+00  0.9506E+00
     -2.505  0.1668E+00  0.1668E+00  0.9543E+00  0.9543E+00
     -2.483  0.1560E+00  0.1560E+00  0.9578E+00  0.9578E+00
     -2.460  0.1466E+00  0.1466E+00  0.9611E+00  0.9611E+00
     -2.438  0.1389E+00  0.1389E+00  0.9642E+00  0.9642E+00
     -2.415  0.1329E+00  0.1329E+00  0.9672E+00  0.9672E+00
     -2.393  0.1282E+00  0.1282E+00  0.9700E+00  0.9700E+00
     -2.371  0.1248E+00  0.1248E+00  0.9728E+00  0.9728E+00
     -2.348  0.1223E+00  0.1223E+00  0.9756E+00  0.9756E+00
     -2.326  0.1203E+00  0.1203E+00  0.9783E+00  0.9783E+00
     -2.304  0.1185E+00  0.1185E+00  0.9809E+00  0.9809E+00
     -2.281  0.1167E+00  0.1167E+00  0.9835E+00  0.9835E+00
     -2.259  0.1145E+00  0.1145E+00  0.9861E+00  0.9861E+00
     -2.236  0.1118E+00  0.1118E+00  0.9886E+00  0.9886E+00
     -2.214  0.1087E+00  0.1087E+00  0.9910E+00  0.9910E+00
     -2.192  0.1050E+00  0.1050E+00  0.9934E+00  0.9934E+00
     -2.169  0.1009E+00  0.1009E+00  0.9956E+00  0.9956E+00
     -2.147  0.9662E-01  0.9662E-01  0.9978E+00  0.9978E+00
     -2.125  0.9223E-01  0.9223E-01  0.9998E+00  0.9998E+00
     -2.102  0.8798E-01  0.8797E-01  0.1002E+01  0.1002E+01
     -2.080  0.8403E-01  0.8403E-01  0.1004E+01  0.1004E+01
     -2.057  0.8056E-01  0.8056E-01  0.1006E+01  0.1006E+01
     -2.035  0.7772E-01  0.7772E-01  0.1007E+01  0.1007E+01
     -2.013  0.7561E-01  0.7561E-01  0.1009E+01  0.1009E+01
     -1.990  0.7435E-01  0.7435E-01  0.1011E+01  0.1011E+01
     -1.968  0.7402E-01  0.7402E-01  0.1012E+01  0.1012E+01
     -1.946  0.7472E-01  0.7472E-01  0.1014E+01  0.1014E+01
     -1.923  0.7654E-01  0.7654E-01  0.1016E+01  0.1016E+01
     -1.901  0.7961E-01  0.7961E-01  0.1017E+01  0.1017E+01
     -1.878  0.8402E-01  0.8402E-01  0.1019E+01  0.1019E+01
     -1.856  0.8989E-01  0.8989E-01  0.1021E+01  0.1021E+01
     -1.834  0.9728E-01  0.9729E-01  0.1023E+01  0.1023E+01
     -1.811  0.1062E+00  0.1062E+00  0.1026E+01  0.1026E+01
     -1.789  0.1167E+00  0.1167E+00  0.1028E+01  0.1028E+01
     -1.767  0.1286E+00  0.1286E+00  0.1031E+01  0.1031E+01
     -1.744  0.1417E+00  0.1417E+00  0.1035E+01  0.1035E+01
     -1.722  0.1557E+00  0.1557E+00  0.1038E+01  0.1038E+01
     -1.699  0.1701E+00  0.1701E+00  0.1042E+01  0.1042E+01
     -1.677  0.1846E+00  0.1846E+00  0.1046E+01  0.1046E+01
     -1.655  0.1987E+00  0.1987E+00  0.1050E+01  0.1050E+01
     -1.632  0.2119E+00  0.2119E+00  0.1055E+01  0.1055E+01
     -1.610  0.2239E+00  0.2239E+00  0.1060E+01  0.1060E+01
     -1.588  0.2345E+00  0.2345E+00  0.1065E+01  0.1065E+01
     -1.565  0.2436E+00  0.2436E+00  0.1071E+01  0.1071E+01
     -1.543  0.2514E+00  0.2514E+00  0.1076E+01  0.1076E+01
     -1.520  0.2582E+00  0.2582E+00  0.1082E+01  0.1082E+01
     -1.498  0.2647E+00  0.2647E+00  0.1088E+01  0.1088E+01
     -1.476  0.2714E+00  0.2714E+00  0.1094E+01  0.1094E+01
     -1.453  0.2792E+00  0.2792E+00  0.1100E+01  0.1100E+01
     -1.431  0.2887E+00  0.2887E+00  0.1107E+01  0.1107E+01
     -1.409  0.3007E+00  0.3008E+00  0.1114E+01  0.1114E+01
     -1.386  0.3158E+00  0.3158E+00  0.1121E+01  0.1121E+01
     -1.364  0.3341E+00  0.3341E+00  0.1128E+01  0.1128E+01
     -1.341  0.3559E+00  0.3559E+00  0.1136E+01  0.1136E+01
     -1.319  0.3809E+00  0.3809E+00  0.1145E+01  0.1145E+01
     -1.297  0.4086E+00  0.4086E+00  0.1154E+01  0.1154E+01
     -1.274  0.4384E+00  0.4384E+00  0.1164E+01  0.1164E+01
     -1.252  0.4692E+00  0.4692E+00  0.1174E+01  0.1174E+01
     -1.230  0.5001E+00  0.5001E+00  0.1185E+01  0.1185E+01
     -1.207  0.5296E+00  0.5296E+00  0.1197E+01  0.1197E+01
     -1.185  0.5568E+00  0.5568E+00  0.1210E+01  0.1210E+01
     -1.162  0.5805E+00  0.5805E+00  0.1223E+01  0.1223E+01
     -1.140  0.5998E+00  0.5998E+00  0.1236E+01  0.1236E+01
     -1.118  0.6140E+00  0.6140E+00  0.1250E+01  0.1250E+01
     -1.095  0.6226E+00  0.6226E+00  0.1264E+01  0.1264E+01
     -1.073  0.6256E+00  0.6256E+00  0.1278E+01  0.1278E+01
     -1.050  0.6229E+00  0.6229E+00  0.1292E+01  0.1292E+01
     -1.028  0.6151E+00  0.6151E+00  0.1305E+01  0.1305E+01
     -1.006  0.6027E+00  0.6027E+00  0.1319E+01  0.1319E+01
     -0.983  0.5864E+00  0.5864E+00  0.1332E+01  0.1332E+01
     -0.961  0.5669E+00  0.5669E+00  0.1345E+01  0.1345E+01
     -0.939  0.5451E+00  0.5451E+00  0.1357E+01  0.1357E+01
     -0.916  0.5218E+00  0.5218E+00  0.1369E+01  0.1369E+01
     -0.894  0.4976E+00  0.4976E+00  0.1380E+01  0.1380E+01
     -0.871  0.4733E+00  0.4733E+00  0.1390E+01  0.1390E+01
     -0.849  0.4495E+00  0.4495E+00  0.1400E+01  0.1400E+01
     -0.827  0.4267E+00  0.4267E+00  0.1410E+01  0.1410E+01
     -0.804  0.4055E+00  0.4055E+00  0.1419E+01  0.1419E+01
     -0.782  0.3860E+00  0.3860E+00  0.1428E+01  0.1428E+01
     -0.760  0.3688E+00  0.3688E+00  0.1436E+01  0.1436E+01
     -0.737  0.3539E+00  0.3539E+00  0.1444E+01  0.1444E+01
     -0.715  0.3415E+00  0.3415E+00  0.1451E+01  0.1451E+01
     -0.692  0.3316E+00  0.3316E+00  0.1459E+01  0.1459E+01
     -0.670  0.3243E+00  0.3243E+00  0.1466E+01  0.1466E+01
     -0.648  0.3193E+00  0.3193E+00  0.1473E+01  0.1473E+01
     -0.625  0.3165E+00  0.3165E+00  0.1480E+01  0.1480E+01
     -0.603  0.3156E+00  0.3156E+00  0.1487E+01  0.1487E+01
     -0.581  0.3164E+00  0.3164E+00  0.1495E+01  0.1495E+01
     -0.558  0.3182E+00  0.3182E+00  0.1502E+01  0.1502E+01
     -0.536  0.3208E+00  0.3208E+00  0.1509E+01  0.1509E+01
     -0.513  0.3236E+00  0.3236E+00  0.1516E+01  0.1516E+01
     -0.491  0.3258E+00  0.3258E+00  0.1523E+01  0.1523E+01
     -0.469  0.3270E+00  0.3270E+00  0.1531E+01  0.1531E+01
     -0.446  0.3265E+00  0.3265E+00  0.1538E+01  0.1538E+01
     -0.424  0.3239E+00  0.3239E+00  0.1545E+01  0.1545E+01
     -0.402  0.3188E+00  0.3188E+00  0.1552E+01  0.1552E+01
     -0.379  0.3112E+00  0.3112E+00  0.1559E+01  0.1559E+01
     -0.357  0.3012E+00  0.3012E+00  0.1566E+01  0.1566E+01
     -0.334  0.2893E+00  0.2893E+00  0.1573E+01  0.1573E+01
     -0.312  0.2761E+00  0.2761E+00  0.1579E+01  0.1579E+01
     -0.290  0.2624E+00  0.2624E+00  0.1585E+01  0.1585E+01
     -0.267  0.2491E+00  0.2491E+00  0.1590E+01  0.1590E+01
     -0.245  0.2372E+00  0.2372E+00  0.1595E+01  0.1595E+01
     -0.223  0.2272E+00  0.2272E+00  0.1601E+01  0.1601E+01
     -0.200  0.2197E+00  0.2197E+00  0.1605E+01  0.1605E+01