    2    2    1    2
  0.2072484E+02  0.3884592E-09  0.3884592E-09  0.3884592E-09  0.5000000E-15
   1.0000000000000000E-004
  CAR 
 unknown system                          
      8     84     96

  0.3742002E-15  0.3742002E-15  0.3742002E-15  0.4551661E-03
    1       -6.191846     -6.191846   1.000000   1.000000
    2        5.458920      5.458920   0.993044   0.993044
    3        5.458920      5.458920   0.993044   0.993044
    4        5.458920      5.458920   0.993044   0.993044
    5        8.074171      8.074171   0.000000   0.000000
    6        8.074171      8.074171   0.000000   0.000000
    7        8.074171      8.074171   0.000000   0.000000
    8        8.529767      8.529767   0.000000   0.000000
    9       13.214030     13.214030   0.000000   0.000000
   10       13.214030     13.214030   0.000000   0.000000
   11       13.348511     13.348511   0.000000   0.000000
   12       16.655526     16.655526   0.000000   0.000000
   13       16.655526     16.655526   0.000000   0.000000
   14       16.655526     16.655526   0.000000   0.000000
   15       20.750608     20.750608   0.000000   0.000000
   16       28.166235     28.166235   0.000000   0.000000
   17       28.166235     28.166235   0.000000   0.000000
   18       28.166235     28.166235   0.000000   0.000000
   19       29.268560     29.268561   0.000000   0.000000
   20       29.268560     29.268561   0.000000   0.000000
   21       30.474881     30.474881   0.000000   0.000000
   22       30.474881     30.474881   0.000000   0.000000
   23       30.474881     30.474881   0.000000   0.000000
   24       34.221367     34.221367   0.000000   0.000000
   25       34.221367     34.221367   0.000000   0.000000
   26       34.221367     34.221367   0.000000   0.000000
   27       39.664400     39.664400   0.000000   0.000000
   28       39.664400     39.664400   0.000000   0.000000
   29       39.664400     39.664400   0.000000   0.000000
   30       43.079919     43.079918   0.000000   0.000000
   31       43.392546     43.392546   0.000000   0.000000
   32       43.392546     43.392546   0.000000   0.000000
   33       45.341592     45.341592   0.000000   0.000000
   34       45.341592     45.341592   0.000000   0.000000
   35       46.614038     46.614038   0.000000   0.000000
   36       46.614038     46.614038   0.000000   0.000000
   37       46.614038     46.614038   0.000000   0.000000
   38       48.535439     48.535439   0.000000   0.000000
   39       48.535439     48.535439   0.000000   0.000000
   40       48.535439     48.535439   0.000000   0.000000
   41       48.899235     48.899235   0.000000   0.000000
   42       49.672110     49.672110   0.000000   0.000000
   43       49.672110     49.672110   0.000000   0.000000
   44       49.672110     49.672110   0.000000   0.000000
   45       49.711731     49.711731   0.000000   0.000000
   46       49.711731     49.711731   0.000000   0.000000
   47       49.711731     49.711731   0.000000   0.000000
   48       51.027243     51.027243   0.000000   0.000000
   49       51.027243     51.027243   0.000000   0.000000
   50       51.027243     51.027243   0.000000   0.000000
   51       55.059793     55.059792   0.000000   0.000000
   52       55.938233     55.938233   0.000000   0.000000
   53       55.938233     55.938233   0.000000   0.000000
   54       55.938233     55.938233   0.000000   0.000000
   55       56.289214     56.289214   0.000000   0.000000
   56       56.289214     56.289214   0.000000   0.000000
   57       56.289214     56.289214   0.000000   0.000000
   58       61.045141     61.045141   0.000000   0.000000
   59       61.735433     61.735432   0.000000   0.000000
   60       70.526810     70.526810   0.000000   0.000000
   61       70.526810     70.526810   0.000000   0.000000
   62       73.590170     73.590170   0.000000   0.000000
   63       73.590170     73.590170   0.000000   0.000000
   64       73.590170     73.590170   0.000000   0.000000
   65       75.907356     75.907356   0.000000   0.000000
   66       75.907356     75.907356   0.000000   0.000000
   67       76.158370     76.158370   0.000000   0.000000
   68       76.158370     76.158370   0.000000   0.000000
   69       76.158370     76.158370   0.000000   0.000000
   70       76.511165     76.511165   0.000000   0.000000
   71       76.511165     76.511165   0.000000   0.000000
   72       76.511165     76.511165   0.000000   0.000000
   73       76.671909     76.671909   0.000000   0.000000
   74       80.708386     80.708386   0.000000   0.000000
   75       80.708386     80.708386   0.000000   0.000000
   76       80.708386     80.708386   0.000000   0.000000
   77       86.567748     86.567748   0.000000   0.000000
   78       86.567748     86.567748   0.000000   0.000000
   79       86.567748     86.567748   0.000000   0.000000
   80       86.747262     86.747262   0.000000   0.000000
   81       86.747262     86.747262   0.000000   0.000000
   82       87.017318     87.017318   0.000000   0.000000
   83       87.017318     87.017318   0.000000   0.000000
   84       87.017318     87.017318   0.000000   0.000000
   85       88.304810     88.304810   0.000000   0.000000
   86       88.304810     88.304810   0.000000   0.000000
   87       88.304810     88.304810   0.000000   0.000000
   88       88.867701     88.867700   0.000000   0.000000
   89       90.134075     90.134076   0.000000   0.000000
   90       90.134075     90.134076   0.000000   0.000000
   91       90.730658     90.730658   0.000000   0.000000
   92       90.730658     90.730658   0.000000   0.000000
   93       90.730658     90.730658   0.000000   0.000000
   94       93.820227     93.820228   0.000000   0.000000
   95       93.820228     93.820228   0.000000   0.000000
   96       93.820241     93.820307   0.000000   0.000000

  0.7692308E-01  0.3747003E-15  0.3747003E-15  0.3641329E-02
    1       -6.116713     -6.116713   1.000000   1.000000
    2        4.723359      4.723359   1.000000   1.000000
    3        5.342964      5.342964   0.999480   0.999480
    4        5.342964      5.342964   0.999480   0.999480
    5        8.071169      8.071169   0.000000   0.000000
    6        8.246896      8.246896   0.000000   0.000000
    7        8.246896      8.246896   0.000000   0.000000
    8        9.143468      9.143468   0.000000   0.000000
    9       12.985933     12.985933   0.000000   0.000000
   10       12.985933     12.985933   0.000000   0.000000
   11       13.670181     13.670181   0.000000   0.000000
   12       16.384066     16.384067   0.000000   0.000000
   13       17.130276     17.130276   0.000000   0.000000
   14       17.130276     17.130276   0.000000   0.000000
   15       21.254341     21.254340   0.000000   0.000000
   16       27.300311     27.300311   0.000000   0.000000
   17       27.327505     27.327505   0.000000   0.000000
   18       27.327505     27.327505   0.000000   0.000000
   19       28.941497     28.941497   0.000000   0.000000
   20       28.941497     28.941497   0.000000   0.000000
   21       30.846155     30.846154   0.000000   0.000000
   22       30.846155     30.846154   0.000000   0.000000
   23       31.233979     31.233979   0.000000   0.000000
   24       34.290268     34.290268   0.000000   0.000000
   25       35.161635     35.161635   0.000000   0.000000
   26       35.161635     35.161635   0.000000   0.000000
   27       38.627618     38.627618   0.000000   0.000000
   28       39.457690     39.457690   0.000000   0.000000
   29       39.457690     39.457690   0.000000   0.000000
   30       42.656314     42.656314   0.000000   0.000000
   31       42.656314     42.656314   0.000000   0.000000
   32       43.358982     43.358981   0.000000   0.000000
   33       44.356630     44.356630   0.000000   0.000000
   34       44.356630     44.356630   0.000000   0.000000
   35       46.617682     46.617682   0.000000   0.000000
   36       46.617682     46.617682   0.000000   0.000000
   37       46.733315     46.733315   0.000000   0.000000
   38       47.867160     47.867160   0.000000   0.000000
   39       48.118599     48.118599   0.000000   0.000000
   40       48.409622     48.409622   0.000000   0.000000
   41       48.409622     48.409622   0.000000   0.000000
   42       49.126350     49.126350   0.000000   0.000000
   43       49.126350     49.126350   0.000000   0.000000
   44       49.338795     49.338795   0.000000   0.000000
   45       50.332989     50.332988   0.000000   0.000000
   46       50.745915     50.745915   0.000000   0.000000
   47       50.745915     50.745915   0.000000   0.000000
   48       52.695823     52.695823   0.000000   0.000000
   49       52.773650     52.773650   0.000000   0.000000
   50       53.076795     53.076795   0.000000   0.000000
   51       53.076795     53.076795   0.000000   0.000000
   52       55.060468     55.060468   0.000000   0.000000
   53       55.060468     55.060468   0.000000   0.000000
   54       55.608533     55.608532   0.000000   0.000000
   55       57.636818     57.636818   0.000000   0.000000
   56       57.636818     57.636818   0.000000   0.000000
   57       58.620852     58.620852   0.000000   0.000000
   58       61.870424     61.870423   0.000000   0.000000
   59       62.415697     62.415696   0.000000   0.000000
   60       69.041769     69.041769   0.000000   0.000000
   61       69.041769     69.041769   0.000000   0.000000
   62       71.845313     71.845312   0.000000   0.000000
   63       73.751031     73.751031   0.000000   0.000000
   64       73.751031     73.751031   0.000000   0.000000
   65       74.533067     74.533067   0.000000   0.000000
   66       75.077771     75.077771   0.000000   0.000000
   67       75.077771     75.077771   0.000000   0.000000
   68       76.048594     76.048594   0.000000   0.000000
   69       76.048594     76.048594   0.000000   0.000000
   70       76.587189     76.587189   0.000000   0.000000
   71       76.587189     76.587189   0.000000   0.000000
   72       77.325433     77.325432   0.000000   0.000000
   73       78.521655     78.521655   0.000000   0.000000
   74       80.604118     80.604118   0.000000   0.000000
   75       81.982381     81.982381   0.000000   0.000000
   76       81.982381     81.982381   0.000000   0.000000
   77       83.563090     83.563090   0.000000   0.000000
   78       83.563090     83.563090   0.000000   0.000000
   79       85.704311     85.704311   0.000000   0.000000
   80       86.706066     86.706066   0.000000   0.000000
   81       86.874005     86.874005   0.000000   0.000000
   82       86.874005     86.874005   0.000000   0.000000
   83       87.682915     87.682916   0.000000   0.000000
   84       87.682915     87.682916   0.000000   0.000000
   85       88.129309     88.129309   0.000000   0.000000
   86       88.129309     88.129309   0.000000   0.000000
   87       88.683291     88.683291   0.000000   0.000000
   88       89.175771     89.175770   0.000000   0.000000
   89       90.591816     90.591816   0.000000   0.000000
   90       90.797283     90.797283   0.000000   0.000000
   91       90.797283     90.797283   0.000000   0.000000
   92       90.978952     90.978952   0.000000   0.000000
   93       91.318736     91.318736   0.000000   0.000000
   94       91.318736     91.318736   0.000000   0.000000
   95       92.731939     92.731939   0.000000   0.000000
   96       92.732003     92.731954   0.000000   0.000000

  0.1538462E+00  0.3747003E-15  0.3747003E-15  0.3641329E-02
    1       -5.893370     -5.893370   1.000000   1.000000
    2        3.377011      3.377011   1.000000   1.000000
    3        5.082037      5.082036   1.000000   1.000000
    4        5.082037      5.082037   1.000000   1.000000
    5        7.820424      7.820424   0.000000   0.000000
    6        8.628869      8.628869   0.000000   0.000000
    7        8.628869      8.628869   0.000000   0.000000
    8       10.442580     10.442580   0.000000   0.000000
    9       12.633225     12.633225   0.000000   0.000000
   10       12.633225     12.633225   0.000000   0.000000
   11       14.377500     14.377500   0.000000   0.000000
   12       16.040528     16.040528   0.000000   0.000000
   13       18.256856     18.256856   0.000000   0.000000
   14       18.256856     18.256856   0.000000   0.000000
   15       22.422067     22.422067   0.000000   0.000000
   16       25.416075     25.416075   0.000000   0.000000
   17       25.416075     25.416076   0.000000   0.000000
   18       25.837234     25.837234   0.000000   0.000000
   19       28.944329     28.944330   0.000000   0.000000
   20       28.944329     28.944330   0.000000   0.000000
   21       31.143176     31.143175   0.000000   0.000000
   22       31.143176     31.143175   0.000000   0.000000
   23       32.410972     32.410972   0.000000   0.000000
   24       34.492473     34.492473   0.000000   0.000000
   25       36.471980     36.471980   0.000000   0.000000
   26       37.039555     37.039555   0.000000   0.000000
   27       37.039555     37.039555   0.000000   0.000000
   28       38.912884     38.912884   0.000000   0.000000
   29       38.912884     38.912884   0.000000   0.000000
   30       40.752865     40.752865   0.000000   0.000000
   31       40.752865     40.752865   0.000000   0.000000
   32       42.945075     42.945075   0.000000   0.000000
   33       42.945075     42.945075   0.000000   0.000000
   34       43.700571     43.700570   0.000000   0.000000
   35       45.873430     45.873430   0.000000   0.000000
   36       46.241510     46.241510   0.000000   0.000000
   37       46.302110     46.302110   0.000000   0.000000
   38       46.302110     46.302110   0.000000   0.000000
   39       47.971575     47.971575   0.000000   0.000000
   40       48.592020     48.592020   0.000000   0.000000
   41       48.592020     48.592020   0.000000   0.000000
   42       48.996701     48.996701   0.000000   0.000000
   43       49.707089     49.707089   0.000000   0.000000
   44       49.707089     49.707089   0.000000   0.000000
   45       50.016475     50.016475   0.000000   0.000000
   46       52.458189     52.458189   0.000000   0.000000
   47       52.597949     52.597949   0.000000   0.000000
   48       52.597949     52.597949   0.000000   0.000000
   49       54.043472     54.043472   0.000000   0.000000
   50       54.043472     54.043472   0.000000   0.000000
   51       55.233011     55.233011   0.000000   0.000000
   52       56.038899     56.038898   0.000000   0.000000
   53       56.868419     56.868419   0.000000   0.000000
   54       56.868419     56.868419   0.000000   0.000000
   55       59.441178     59.441178   0.000000   0.000000
   56       59.441178     59.441178   0.000000   0.000000
   57       60.098535     60.098535   0.000000   0.000000
   58       63.049848     63.049847   0.000000   0.000000
   59       65.382964     65.382963   0.000000   0.000000
   60       66.752102     66.752102   0.000000   0.000000
   61       66.752102     66.752102   0.000000   0.000000
   62       69.229743     69.229742   0.000000   0.000000
   63       70.809750     70.809750   0.000000   0.000000
   64       70.809750     70.809750   0.000000   0.000000
   65       72.493711     72.493711   0.000000   0.000000
   66       73.794638     73.794638   0.000000   0.000000
   67       73.794638     73.794638   0.000000   0.000000
   68       76.049339     76.049338   0.000000   0.000000
   69       76.049339     76.049338   0.000000   0.000000
   70       77.302938     77.302937   0.000000   0.000000
   71       78.243312     78.243312   0.000000   0.000000
   72       78.243312     78.243312   0.000000   0.000000
   73       80.257305     80.257305   0.000000   0.000000
   74       81.050591     81.050591   0.000000   0.000000
   75       81.528324     81.528324   0.000000   0.000000
   76       81.528324     81.528324   0.000000   0.000000
   77       82.694718     82.694718   0.000000   0.000000
   78       82.694718     82.694718   0.000000   0.000000
   79       83.817782     83.817782   0.000000   0.000000
   80       84.996293     84.996293   0.000000   0.000000
   81       84.996293     84.996293   0.000000   0.000000
   82       86.564609     86.564609   0.000000   0.000000
   83       87.141024     87.141024   0.000000   0.000000
   84       87.460817     87.460817   0.000000   0.000000
   85       87.460817     87.460817   0.000000   0.000000
   86       87.922564     87.922564   0.000000   0.000000
   87       88.389437     88.389437   0.000000   0.000000
   88       88.389437     88.389437   0.000000   0.000000
   89       88.845408     88.845408   0.000000   0.000000
   90       88.845408     88.845408   0.000000   0.000000
   91       89.391262     89.391262   0.000000   0.000000
   92       91.442174     91.442174   0.000000   0.000000
   93       92.555218     92.555218   0.000000   0.000000
   94       92.555218     92.555218   0.000000   0.000000
   95       92.941400     92.941402   0.000000   0.000000
   96       93.346615     93.346615   0.000000   0.000000

  0.2307692E+00  0.3747003E-15  0.3747003E-15  0.3641329E-02
    1       -5.529401     -5.529401   1.000000   1.000000
    2        1.980976      1.980976   1.000000   1.000000
    3        4.801558      4.801558   1.000000   1.000000
    4        4.801558      4.801558   1.000000   1.000000
    5        7.515010      7.515010   0.000000   0.000000
    6        8.949659      8.949659   0.000000   0.000000
    7        8.949659      8.949659   0.000000   0.000000
    8       11.808848     11.808848   0.000000   0.000000
    9       12.610041     12.610041   0.000000   0.000000
   10       12.610041     12.610041   0.000000   0.000000
   11       14.484894     14.484894   0.000000   0.000000
   12       16.785464     16.785464   0.000000   0.000000
   13       19.626924     19.626924   0.000000   0.000000
   14       19.626924     19.626924   0.000000   0.000000
   15       23.239958     23.239958   0.000000   0.000000
   16       23.463542     23.463542   0.000000   0.000000
   17       23.463542     23.463542   0.000000   0.000000
   18       25.034680     25.034680   0.000000   0.000000
   19       29.060722     29.060722   0.000000   0.000000
   20       29.060722     29.060722   0.000000   0.000000
   21       31.361105     31.361104   0.000000   0.000000
   22       31.361105     31.361104   0.000000   0.000000
   23       33.048374     33.048374   0.000000   0.000000
   24       34.408150     34.408150   0.000000   0.000000
   25       34.812351     34.812351   0.000000   0.000000
   26       37.236555     37.236555   0.000000   0.000000
   27       37.236555     37.236555   0.000000   0.000000
   28       38.486830     38.486831   0.000000   0.000000
   29       38.486830     38.486831   0.000000   0.000000
   30       39.283578     39.283578   0.000000   0.000000
   31       39.283578     39.283578   0.000000   0.000000
   32       42.700340     42.700340   0.000000   0.000000
   33       42.700340     42.700340   0.000000   0.000000
   34       43.514096     43.514096   0.000000   0.000000
   35       43.911058     43.911058   0.000000   0.000000
   36       44.555250     44.555250   0.000000   0.000000
   37       45.979293     45.979293   0.000000   0.000000
   38       45.979293     45.979293   0.000000   0.000000
   39       48.250374     48.250374   0.000000   0.000000
   40       48.513503     48.513503   0.000000   0.000000
   41       48.513503     48.513503   0.000000   0.000000
   42       48.802379     48.802379   0.000000   0.000000
   43       48.900356     48.900355   0.000000   0.000000
   44       51.139162     51.139162   0.000000   0.000000
   45       51.139162     51.139162   0.000000   0.000000
   46       54.021793     54.021793   0.000000   0.000000
   47       54.021793     54.021793   0.000000   0.000000
   48       54.810269     54.810269   0.000000   0.000000
   49       54.813581     54.813581   0.000000   0.000000
   50       54.813581     54.813581   0.000000   0.000000
   51       56.796611     56.796611   0.000000   0.000000
   52       57.905350     57.905350   0.000000   0.000000
   53       60.570690     60.570690   0.000000   0.000000
   54       60.570690     60.570690   0.000000   0.000000
   55       61.457075     61.457075   0.000000   0.000000
   56       61.457075     61.457075   0.000000   0.000000
   57       61.472567     61.472566   0.000000   0.000000
   58       64.402945     64.402945   0.000000   0.000000
   59       64.574772     64.574772   0.000000   0.000000
   60       64.574772     64.574772   0.000000   0.000000
   61       66.338270     66.338270   0.000000   0.000000
   62       67.546658     67.546658   0.000000   0.000000
   63       67.546658     67.546658   0.000000   0.000000
   64       69.478889     69.478889   0.000000   0.000000
   65       70.594460     70.594460   0.000000   0.000000
   66       71.470541     71.470540   0.000000   0.000000
   67       71.470541     71.470540   0.000000   0.000000
   68       74.723949     74.723949   0.000000   0.000000
   69       74.723949     74.723949   0.000000   0.000000
   70       76.458542     76.458542   0.000000   0.000000
   71       79.394242     79.394243   0.000000   0.000000
   72       79.556061     79.556061   0.000000   0.000000
   73       79.556061     79.556061   0.000000   0.000000
   74       80.528595     80.528595   0.000000   0.000000
   75       80.597540     80.597540   0.000000   0.000000
   76       80.597540     80.597540   0.000000   0.000000
   77       81.885171     81.885171   0.000000   0.000000
   78       81.885171     81.885171   0.000000   0.000000
   79       83.207725     83.207725   0.000000   0.000000
   80       84.263871     84.263872   0.000000   0.000000
   81       84.263871     84.263872   0.000000   0.000000
   82       84.372968     84.372968   0.000000   0.000000
   83       85.610525     85.610525   0.000000   0.000000
   84       85.610525     85.610525   0.000000   0.000000
   85       86.384027     86.384027   0.000000   0.000000
   86       87.569693     87.569693   0.000000   0.000000
   87       88.496008     88.496009   0.000000   0.000000
   88       88.496008     88.496009   0.000000   0.000000
   89       89.123076     89.123076   0.000000   0.000000
   90       89.159304     89.159304   0.000000   0.000000
   91       89.159304     89.159304   0.000000   0.000000
   92       91.539989     91.539989   0.000000   0.000000
   93       92.866386     92.866386   0.000000   0.000000
   94       92.866386     92.866386   0.000000   0.000000
   95       93.602302     93.602293   0.000000   0.000000
   96       93.837280     93.837271   0.000000   0.000000

  0.3076923E+00  0.3330669E-15  0.3330669E-15  0.3641329E-02
    1       -5.043803     -5.043803   1.000000   1.000000
    2        0.679539      0.679539   1.000000   1.000000
    3        4.567022      4.567022   1.000000   1.000000
    4        4.567022      4.567022   1.000000   1.000000
    5        7.248882      7.248882   0.000000   0.000000
    6        9.033384      9.033384   0.000000   0.000000
    7        9.033384      9.033384   0.000000   0.000000
    8       13.000315     13.000315   0.000000   0.000000
    9       13.142187     13.142187   0.000000   0.000000
   10       13.142187     13.142187   0.000000   0.000000
   11       14.297078     14.297078   0.000000   0.000000
   12       18.336923     18.336923   0.000000   0.000000
   13       20.213468     20.213468   0.000000   0.000000
   14       20.213468     20.213468   0.000000   0.000000
   15       22.218815     22.218815   0.000000   0.000000
   16       22.590432     22.590432   0.000000   0.000000
   17       22.590432     22.590432   0.000000   0.000000
   18       26.462760     26.462760   0.000000   0.000000
   19       29.127501     29.127502   0.000000   0.000000
   20       29.127501     29.127502   0.000000   0.000000
   21       31.042530     31.042530   0.000000   0.000000
   22       31.545502     31.545502   0.000000   0.000000
   23       31.545502     31.545502   0.000000   0.000000
   24       34.621356     34.621356   0.000000   0.000000
   25       35.042477     35.042477   0.000000   0.000000
   26       35.042477     35.042477   0.000000   0.000000
   27       35.214642     35.214642   0.000000   0.000000
   28       37.822981     37.822981   0.000000   0.000000
   29       37.822981     37.822981   0.000000   0.000000
   30       38.957386     38.957386   0.000000   0.000000
   31       38.957386     38.957386   0.000000   0.000000
   32       41.279597     41.279596   0.000000   0.000000
   33       43.035673     43.035673   0.000000   0.000000
   34       43.121886     43.121887   0.000000   0.000000
   35       44.356395     44.356395   0.000000   0.000000
   36       44.356395     44.356395   0.000000   0.000000
   37       45.808238     45.808238   0.000000   0.000000
   38       45.808238     45.808238   0.000000   0.000000
   39       47.889671     47.889671   0.000000   0.000000
   40       48.413216     48.413216   0.000000   0.000000
   41       48.413216     48.413216   0.000000   0.000000
   42       48.621448     48.621448   0.000000   0.000000
   43       49.927195     49.927194   0.000000   0.000000
   44       52.528839     52.528838   0.000000   0.000000
   45       52.528839     52.528838   0.000000   0.000000
   46       54.711095     54.711095   0.000000   0.000000
   47       54.711095     54.711096   0.000000   0.000000
   48       56.553072     56.553072   0.000000   0.000000
   49       57.203583     57.203583   0.000000   0.000000
   50       57.203583     57.203583   0.000000   0.000000
   51       58.162461     58.162461   0.000000   0.000000
   52       60.761712     60.761712   0.000000   0.000000
   53       61.960517     61.960517   0.000000   0.000000
   54       61.960517     61.960517   0.000000   0.000000
   55       62.886479     62.886479   0.000000   0.000000
   56       63.364989     63.364989   0.000000   0.000000
   57       63.364989     63.364989   0.000000   0.000000
   58       64.340604     64.340604   0.000000   0.000000
   59       64.602461     64.602461   0.000000   0.000000
   60       64.602461     64.602461   0.000000   0.000000
   61       65.219438     65.219438   0.000000   0.000000
   62       65.219438     65.219438   0.000000   0.000000
   63       65.478529     65.478528   0.000000   0.000000
   64       68.863440     68.863440   0.000000   0.000000
   65       68.863440     68.863440   0.000000   0.000000
   66       69.509055     69.509055   0.000000   0.000000
   67       72.544833     72.544833   0.000000   0.000000
   68       72.544833     72.544833   0.000000   0.000000
   69       72.573765     72.573765   0.000000   0.000000
   70       75.642452     75.642452   0.000000   0.000000
   71       77.092638     77.092638   0.000000   0.000000
   72       78.346762     78.346762   0.000000   0.000000
   73       78.473617     78.473616   0.000000   0.000000
   74       78.473617     78.473616   0.000000   0.000000
   75       78.854262     78.854262   0.000000   0.000000
   76       78.854262     78.854262   0.000000   0.000000
   77       81.408125     81.408125   0.000000   0.000000
   78       81.761874     81.761874   0.000000   0.000000
   79       81.761874     81.761874   0.000000   0.000000
   80       82.719978     82.719977   0.000000   0.000000
   81       84.438596     84.438596   0.000000   0.000000
   82       84.438596     84.438596   0.000000   0.000000
   83       86.066698     86.066698   0.000000   0.000000
   84       86.066698     86.066698   0.000000   0.000000
   85       87.943851     87.943851   0.000000   0.000000
   86       87.999170     87.999170   0.000000   0.000000
   87       88.097653     88.097653   0.000000   0.000000
   88       88.097653     88.097653   0.000000   0.000000
   89       88.986413     88.986413   0.000000   0.000000
   90       89.003462     89.003462   0.000000   0.000000
   91       89.003462     89.003462   0.000000   0.000000
   92       91.025004     91.025004   0.000000   0.000000
   93       91.025004     91.025004   0.000000   0.000000
   94       91.088459     91.088460   0.000000   0.000000
   95       93.108782     93.108782   0.000000   0.000000
   96       93.109883     93.110029   0.000000   0.000000

  0.3846154E+00  0.3885781E-15  0.3885781E-15  0.3641329E-02
    1       -4.488596     -4.488596   1.000000   1.000000
    2       -0.433761     -0.433761   1.000000   1.000000
    3        4.404084      4.404083   1.000000   1.000000
    4        4.404084      4.404084   1.000000   1.000000
    5        7.059930      7.059930   0.000000   0.000000
    6        8.960654      8.960654   0.000000   0.000000
    7        8.960654      8.960654   0.000000   0.000000
    8       13.322093     13.322092   0.000000   0.000000
    9       14.155168     14.155168   0.000000   0.000000
   10       14.155168     14.155168   0.000000   0.000000
   11       15.039790     15.039790   0.000000   0.000000
   12       18.816415     18.816415   0.000000   0.000000
   13       18.816415     18.816415   0.000000   0.000000
   14       19.203794     19.203794   0.000000   0.000000
   15       21.873559     21.873559   0.000000   0.000000
   16       23.995583     23.995583   0.000000   0.000000
   17       23.995583     23.995583   0.000000   0.000000
   18       28.273915     28.273915   0.000000   0.000000
   19       28.684073     28.684072   0.000000   0.000000
   20       28.858050     28.858050   0.000000   0.000000
   21       28.858050     28.858050   0.000000   0.000000
   22       31.632090     31.632089   0.000000   0.000000
   23       31.632090     31.632089   0.000000   0.000000
   24       33.082794     33.082794   0.000000   0.000000
   25       33.082794     33.082794   0.000000   0.000000
   26       34.692216     34.692216   0.000000   0.000000
   27       35.625026     35.625026   0.000000   0.000000