       N       E                     dE             d eps       ncg     rms          rms(c)
DAV:   1     0.209516068399E+02    0.20952E+02   -0.25989E+03 32256   0.659E+01
DAV:   2    -0.739169058916E+01   -0.28343E+02   -0.26992E+02 40112   0.226E+01
DAV:   3    -0.789877936221E+01   -0.50709E+00   -0.50447E+00 39440   0.279E+00
DAV:   4    -0.789902802324E+01   -0.24866E-03   -0.24865E-03 37552   0.579E-02
DAV:   5    -0.789902818182E+01   -0.15858E-06   -0.15923E-06 39776   0.148E-03    0.513E+00
DAV:   6    -0.832581227043E+01   -0.42678E+00   -0.67601E-02 37760   0.194E-01    0.252E+00
DAV:   7    -0.832282536188E+01    0.29869E-02   -0.46662E-02 38000   0.152E-01    0.156E+00
DAV:   8    -0.834850083852E+01   -0.25675E-01   -0.21692E-02 37872   0.102E-01    0.662E-01
DAV:   9    -0.834587320041E+01    0.26276E-02   -0.19834E-04 39040   0.146E-02    0.111E-01
DAV:  10    -0.833881276322E+01    0.70604E-02   -0.62725E-04 37792   0.174E-02    0.598E-02
DAV:  11    -0.833832612001E+01    0.48664E-03   -0.42651E-05 38000   0.670E-03    0.275E-02
DAV:  12    -0.833847614417E+01   -0.15002E-03   -0.14048E-05 39248   0.266E-03    0.131E-02
DAV:  13    -0.833838736585E+01    0.88778E-04   -0.30662E-06 37360   0.161E-03    0.337E-03
DAV:  14    -0.833839212573E+01   -0.47599E-05   -0.16707E-07 37616   0.412E-04    0.862E-04
DAV:  15    -0.833840279319E+01   -0.10667E-04   -0.11494E-08 34000   0.110E-04    0.490E-04
DAV:  16    -0.833840995246E+01   -0.71593E-05   -0.63984E-09 35136   0.918E-05    0.126E-04
DAV:  17    -0.833840925016E+01    0.70230E-06   -0.16450E-09 25360   0.317E-05    0.231E-05
DAV:  18    -0.833840921470E+01    0.35463E-07   -0.18721E-11 23248   0.539E-06
   1 F= -.83384092E+01 E0= -.83383935E+01  d E =-.833841E+01  mag=    -0.0000
 imaginary and real dielectric function
