 vasp.5.4.1 24Jun15 (build Feb  9 2019 14:16:27) complex                         
 executed on           IFC91_ompi date 2020.09.26  22:46:09
 running on   16 total cores
 distrk:  each k-point on   16 cores,    1 groups
 distr:  one band on NCORES_PER_BAND=   1 cores,   16 groups


--------------------------------------------------------------------------------------------------------


 INCAR:
 POTCAR:    PAW_PBE Si 05Jan2001                  

 ----------------------------------------------------------------------------- 
|                                                                             |
|           W    W    AA    RRRRR   N    N  II  N    N   GGGG   !!!           |
|           W    W   A  A   R    R  NN   N  II  NN   N  G    G  !!!           |
|           W    W  A    A  R    R  N N  N  II  N N  N  G       !!!           |
|           W WW W  AAAAAA  RRRRR   N  N N  II  N  N N  G  GGG   !            |
|           WW  WW  A    A  R   R   N   NN  II  N   NN  G    G                |
|           W    W  A    A  R    R  N    N  II  N    N   GGGG   !!!           |
|                                                                             |
|      For optimal performance we recommend to set                            |
|        NCORE= 4 - approx SQRT( number of cores)                             |
|      NCORE specifies how many cores store one orbital (NPAR=cpu/NCORE).     |
|      This setting can  greatly improve the performance of VASP for DFT.     |
|      The default, NPAR=number of cores might be grossly inefficient         |
|      on modern multi-core architectures or massively parallel machines.     |
|      Do your own testing !!!!                                               |
|      Unfortunately you need to use the default for GW and RPA calculations. |
|      (for HF NCORE is supported but not extensively tested yet)             |
|                                                                             |
 ----------------------------------------------------------------------------- 


 ----------------------------------------------------------------------------- 
|                                                                             |
|  ADVICE TO THIS USER RUNNING 'VASP/VAMP'   (HEAR YOUR MASTER'S VOICE ...):  |
|                                                                             |
|      You have switched on vdW-DFT.                                          |
|      This routine was written and supplied by Jiri Klimes.                  |
|      We recommed that you carefully read and cite the following             |
|      publication                                                            |
|      J. Klimes, D.R. Bowler, A. Michelides                                  |
|        J. Phys.: Cond Matt. 22 022201 (2010)                                |
|      J. Klimes, D.R. Bowler, A. Michelides                                  |
|        Phys. Rev. B. 83, 195131 (2011)                                      |
|      and references therein.                                                |
|                                                                             |
 ----------------------------------------------------------------------------- 

 POTCAR:    PAW_PBE Si 05Jan2001                  
   VRHFIN =Si: s2p2                                                             
   LEXCH  = PE                                                                  
   EATOM  =   103.0669 eV,    7.5752 Ry                                         
                                                                                
   TITEL  = PAW_PBE Si 05Jan2001                                                
   LULTRA =        F    use ultrasoft PP ?                                      
   IUNSCR =        1    unscreen: 0-lin 1-nonlin 2-no                           
   RPACOR =    1.500    partial core radius                                     
   POMASS =   28.085; ZVAL   =    4.000    mass and valenz                      
   RCORE  =    1.900    outmost cutoff radius                                   
   RWIGS  =    2.480; RWIGS  =    1.312    wigner-seitz radius (au A)           
   ENMAX  =  245.345; ENMIN  =  184.009 eV                                      
   ICORE  =        2    local potential                                         
   LCOR   =        T    correct aug charges                                     
   LPAW   =        T    paw PP                                                  
   EAUG   =  322.069                                                            
   DEXC   =    0.000                                                            
   RMAX   =    1.950    core radius for proj-oper                               
   RAUG   =    1.300    factor for augmentation sphere                          
   RDEP   =    1.993    radius for radial grids                                 
   RDEPT  =    1.837    core radius for aug-charge                              
                                                                                
   Atomic configuration                                                         
    6 entries                                                                   
     n  l   j            E        occ.                                          
     1  0  0.50     -1785.8828   2.0000                                         
     2  0  0.50      -139.4969   2.0000                                         
     2  1  1.50       -95.5546   6.0000                                         
     3  0  0.50       -10.8127   2.0000                                         
     3  1  0.50        -4.0811   2.0000                                         
     3  2  1.50        -4.0817   0.0000                                         
   Description                                                                  
     l       E           TYP  RCUT    TYP  RCUT                                 
     0    -10.8127223     23  1.900                                             
     0     -7.6451159     23  1.900                                             
     1     -4.0811372     23  1.900                                             
     1      2.4879257     23  1.900                                             
     2     -4.0817478      7  1.900                                             
  local pseudopotential read in
  partial core-charges read in
  partial kinetic energy density read in
  atomic valenz-charges read in
  non local Contribution for L=           0  read in
    real space projection operators read in
  non local Contribution for L=           0  read in
    real space projection operators read in
  non local Contribution for L=           1  read in
    real space projection operators read in
  non local Contribution for L=           1  read in
    real space projection operators read in
    PAW grid and wavefunctions read in

   number of l-projection  operators is LMAX  =           4
   number of lm-projection operators is LMMAX =           8


 ----------------------------------------------------------------------------- 
|                                                                             |
|  ADVICE TO THIS USER RUNNING 'VASP/VAMP'   (HEAR YOUR MASTER'S VOICE ...):  |
|                                                                             |
|      You enforced a specific xc-type in the INCAR file,                     |
|      a different type was found on the POTCAR file                          |
|          I HOPE YOU KNOW, WHAT YOU ARE  DOING                               |
|                                                                             |
 ----------------------------------------------------------------------------- 

  PAW_PBE Si 05Jan2001                  :
 energy of atom  1       EATOM= -103.0669
 kinetic energy error for atom=    0.0006 (will be added to EATOM!!)


 POSCAR: bulk@JVASP-1002                         
  positions in direct lattice
  No initial velocities read in
 exchange correlation table for  LEXCH =       42
   RHO(1)=    0.500       N(1)  =     2000
   RHO(2)=  100.500       N(2)  =     4000



--------------------------------------------------------------------------------------------------------


 ion  position               nearest neighbor table
   1  0.750  0.750  0.750-   2 2.38   2 2.38   2 2.38   2 2.38
   2  0.500  0.500  0.500-   1 2.38   1 2.38   1 2.38   1 2.38

  LATTYP: Found a face centered cubic cell.
 ALAT       =     5.4936422752
  
  Lattice vectors:
  
 A1 = (   0.0000000000,   2.7468211376,   2.7468211376)
 A2 = (   2.7468211376,   0.0000000000,   2.7468211376)
 A3 = (   2.7468211376,   2.7468211376,   0.0000000000)


Analysis of symmetry for initial positions (statically):
=====================================================================
 Subroutine PRICEL returns:
 Original cell was already a primitive cell.
 

 Routine SETGRP: Setting up the symmetry group for a 
 face centered cubic supercell.


 Subroutine GETGRP returns: Found 48 space group operations
 (whereof 24 operations were pure point group operations)
 out of a pool of 48 trial point group operations.


The static configuration has the point symmetry T_d .
 The point group associated with its full space group is O_h .


Analysis of symmetry for dynamics (positions and initial velocities):
=====================================================================
 Subroutine PRICEL returns:
 Original cell was already a primitive cell.
 

 Routine SETGRP: Setting up the symmetry group for a 
 face centered cubic supercell.


 Subroutine GETGRP returns: Found 48 space group operations
 (whereof 24 operations were pure point group operations)
 out of a pool of 48 trial point group operations.


The dynamic configuration has the point symmetry T_d .
 The point group associated with its full space group is O_h .


Analysis of magnetic symmetry:
=====================================================================
 Subroutine PRICEL returns:
 Original cell was already a primitive cell.
 

 Subroutine MAGSYM returns: Found 48 space group operations
 (whereof 24 operations were pure point group operations)
 out of a pool of 48 trial space group operations
 (whereof 24 operations were pure point group operations)
 and found also     1 'primitive' translations


The magnetic configuration has the point symmetry T_d .
 The point group associated with its full space group is O_h .


 KPOINTS: Automatic kpoint scheme                 

Automatic generation of k-mesh.
Space group operators:
 irot       det(A)        alpha          n_x          n_y          n_z        tau_x        tau_y        tau_z
    1     1.000000     0.000000     1.000000     0.000000     0.000000     0.000000     0.000000     0.000000
    2     1.000000   120.000000    -0.577350    -0.577350    -0.577350     0.000000     0.000000     0.000000
    3     1.000000   120.000000     0.577350     0.577350     0.577350     0.000000     0.000000     0.000000
    4    -1.000000    90.000000     0.000000     0.000000    -1.000000     0.000000     0.000000     0.000000
    5    -1.000000   180.000000     0.000000     0.707107     0.707107     0.000000     0.000000     0.000000
    6    -1.000000    90.000000     0.000000     1.000000     0.000000     0.000000     0.000000     0.000000
    7     1.000000   180.000000     0.000000     0.000000     1.000000     0.000000     0.000000     0.000000
    8     1.000000   120.000000    -0.577350     0.577350     0.577350     0.000000     0.000000     0.000000
    9     1.000000   120.000000    -0.577350     0.577350    -0.577350     0.000000     0.000000     0.000000
   10    -1.000000    90.000000     0.000000     0.000000     1.000000     0.000000     0.000000     0.000000
   11    -1.000000    90.000000    -1.000000     0.000000     0.000000     0.000000     0.000000     0.000000
   12    -1.000000   180.000000     0.707107     0.000000     0.707107     0.000000     0.000000     0.000000
   13     1.000000   120.000000     0.577350    -0.577350     0.577350     0.000000     0.000000     0.000000
   14     1.000000   120.000000    -0.577350    -0.577350     0.577350     0.000000     0.000000     0.000000
   15     1.000000   180.000000     1.000000     0.000000     0.000000     0.000000     0.000000     0.000000
   16    -1.000000    90.000000     0.000000    -1.000000     0.000000     0.000000     0.000000     0.000000
   17    -1.000000   180.000000     0.707107     0.707107     0.000000     0.000000     0.000000     0.000000
   18    -1.000000    90.000000     1.000000     0.000000     0.000000     0.000000     0.000000     0.000000
   19     1.000000   120.000000     0.577350    -0.577350    -0.577350     0.000000     0.000000     0.000000
   20     1.000000   180.000000     0.000000     1.000000     0.000000     0.000000     0.000000     0.000000
   21     1.000000   120.000000     0.577350     0.577350    -0.577350     0.000000     0.000000     0.000000
   22    -1.000000   180.000000     0.000000    -0.707107     0.707107     0.000000     0.000000     0.000000
   23    -1.000000   180.000000     0.707107    -0.707107     0.000000     0.000000     0.000000     0.000000
   24    -1.000000   180.000000     0.707107     0.000000    -0.707107     0.000000     0.000000     0.000000
   25    -1.000000     0.000000     1.000000     0.000000     0.000000     0.250000     0.250000     0.250000
   26    -1.000000   120.000000    -0.577350    -0.577350    -0.577350     0.250000     0.250000     0.250000
   27    -1.000000   120.000000     0.577350     0.577350     0.577350     0.250000     0.250000     0.250000
   28     1.000000    90.000000     0.000000     0.000000    -1.000000     0.250000     0.250000     0.250000
   29     1.000000   180.000000     0.000000     0.707107     0.707107     0.250000     0.250000     0.250000
   30     1.000000    90.000000     0.000000     1.000000     0.000000     0.250000     0.250000     0.250000
   31    -1.000000   180.000000     0.000000     0.000000     1.000000     0.250000     0.250000     0.250000
   32    -1.000000   120.000000    -0.577350     0.577350     0.577350     0.250000     0.250000     0.250000
   33    -1.000000   120.000000    -0.577350     0.577350    -0.577350     0.250000     0.250000     0.250000
   34     1.000000    90.000000     0.000000     0.000000     1.000000     0.250000     0.250000     0.250000
   35     1.000000    90.000000    -1.000000     0.000000     0.000000     0.250000     0.250000     0.250000
   36     1.000000   180.000000     0.707107     0.000000     0.707107     0.250000     0.250000     0.250000
   37    -1.000000   120.000000     0.577350    -0.577350     0.577350     0.250000     0.250000     0.250000
   38    -1.000000   120.000000    -0.577350    -0.577350     0.577350     0.250000     0.250000     0.250000
   39    -1.000000   180.000000     1.000000     0.000000     0.000000     0.250000     0.250000     0.250000
   40     1.000000    90.000000     0.000000    -1.000000     0.000000     0.250000     0.250000     0.250000
   41     1.000000   180.000000     0.707107     0.707107     0.000000     0.250000     0.250000     0.250000
   42     1.000000    90.000000     1.000000     0.000000     0.000000     0.250000     0.250000     0.250000
   43    -1.000000   120.000000     0.577350    -0.577350    -0.577350     0.250000     0.250000     0.250000
   44    -1.000000   180.000000     0.000000     1.000000     0.000000     0.250000     0.250000     0.250000
   45    -1.000000   120.000000     0.577350     0.577350    -0.577350     0.250000     0.250000     0.250000
   46     1.000000   180.000000     0.000000    -0.707107     0.707107     0.250000     0.250000     0.250000
   47     1.000000   180.000000     0.707107    -0.707107     0.000000     0.250000     0.250000     0.250000
   48     1.000000   180.000000     0.707107     0.000000    -0.707107     0.250000     0.250000     0.250000
 
 Subroutine IBZKPT returns following result:
 ===========================================
 
 Found     84 irreducible k-points:
 
 Following reciprocal coordinates:
            Coordinates               Weight
  0.000000  0.000000  0.000000      1.000000
  0.076923  0.000000  0.000000      8.000000
  0.153846  0.000000  0.000000      8.000000
  0.230769  0.000000  0.000000      8.000000
  0.307692  0.000000  0.000000      8.000000
  0.384615  0.000000  0.000000      8.000000
  0.461538  0.000000  0.000000      8.000000
  0.076923  0.076923  0.000000      6.000000
  0.153846  0.076923  0.000000     24.000000
  0.230769  0.076923  0.000000     24.000000
  0.307692  0.076923  0.000000     24.000000
  0.384615  0.076923  0.000000     24.000000
  0.461538  0.076923  0.000000     24.000000
 -0.461538  0.076923  0.000000     24.000000
 -0.384615  0.076923  0.000000     24.000000
 -0.307692  0.076923  0.000000     24.000000
 -0.230769  0.076923  0.000000     24.000000
 -0.153846  0.076923  0.000000     24.000000
 -0.076923  0.076923  0.000000     12.000000
  0.153846  0.153846  0.000000      6.000000
  0.230769  0.153846  0.000000     24.000000
  0.307692  0.153846  0.000000     24.000000
  0.384615  0.153846  0.000000     24.000000
  0.461538  0.153846  0.000000     24.000000
 -0.461538  0.153846  0.000000     24.000000
 -0.384615  0.153846  0.000000     24.000000
 -0.307692  0.153846  0.000000     24.000000
 -0.230769  0.153846  0.000000     24.000000
 -0.153846  0.153846  0.000000     12.000000
  0.230769  0.230769  0.000000      6.000000
  0.307692  0.230769  0.000000     24.000000
  0.384615  0.230769  0.000000     24.000000
  0.461538  0.230769  0.000000     24.000000
 -0.461538  0.230769  0.000000     24.000000
 -0.384615  0.230769  0.000000     24.000000
 -0.307692  0.230769  0.000000     24.000000
 -0.230769  0.230769  0.000000     12.000000
  0.307692  0.307692  0.000000      6.000000
  0.384615  0.307692  0.000000     24.000000
  0.461538  0.307692  0.000000     24.000000
 -0.461538  0.307692  0.000000     24.000000
 -0.384615  0.307692  0.000000     24.000000
 -0.307692  0.307692  0.000000     12.000000
  0.384615  0.384615  0.000000      6.000000
  0.461538  0.384615  0.000000     24.000000
 -0.461538  0.384615  0.000000     24.000000
 -0.384615  0.384615  0.000000     12.000000
  0.461538  0.461538  0.000000      6.000000
 -0.461538  0.461538  0.000000     12.000000
  0.230769  0.153846  0.076923     24.000000
  0.307692  0.153846  0.076923     48.000000
  0.384615  0.153846  0.076923     48.000000
  0.461538  0.153846  0.076923     48.000000
 -0.461538  0.153846  0.076923     48.000000
  0.307692  0.230769  0.076923     24.000000
  0.384615  0.230769  0.076923     48.000000
  0.461538  0.230769  0.076923     48.000000
 -0.461538  0.230769  0.076923     48.000000
 -0.384615  0.230769  0.076923     48.000000
 -0.307692  0.230769  0.076923     48.000000
 -0.230769  0.230769  0.076923     48.000000
 -0.153846  0.230769  0.076923     24.000000
  0.384615  0.307692  0.076923     24.000000
  0.461538  0.307692  0.076923     48.000000
 -0.461538  0.307692  0.076923     48.000000
 -0.384615  0.307692  0.076923     48.000000
 -0.307692  0.307692  0.076923     48.000000
 -0.230769  0.307692  0.076923     24.000000
  0.461538  0.384615  0.076923     24.000000
 -0.461538  0.384615  0.076923     48.000000
 -0.384615  0.384615  0.076923     48.000000
 -0.307692  0.384615  0.076923     24.000000
 -0.461538  0.461538  0.076923     24.000000
 -0.384615  0.461538  0.076923     24.000000
  0.461538  0.307692  0.153846     24.000000
 -0.461538  0.307692  0.153846     48.000000
 -0.384615  0.307692  0.153846     48.000000
 -0.461538  0.384615  0.153846     24.000000
 -0.384615  0.384615  0.153846     48.000000
 -0.307692  0.384615  0.153846     48.000000
 -0.230769  0.384615  0.153846     24.000000
 -0.384615  0.461538  0.153846     24.000000
 -0.307692  0.461538  0.153846     24.000000
 -0.307692  0.461538  0.230769     24.000000
 
 Following cartesian coordinates:
            Coordinates               Weight
  0.000000  0.000000  0.000000      1.000000
 -0.014002  0.014002  0.014002      8.000000
 -0.028004  0.028004  0.028004      8.000000
 -0.042007  0.042007  0.042007      8.000000
 -0.056009  0.056009  0.056009      8.000000
 -0.070011  0.070011  0.070011      8.000000
 -0.084013  0.084013  0.084013      8.000000
  0.000000  0.000000  0.028004      6.000000
 -0.014002  0.014002  0.042007     24.000000
 -0.028004  0.028004  0.056009     24.000000
 -0.042007  0.042007  0.070011     24.000000
 -0.056009  0.056009  0.084013     24.000000
 -0.070011  0.070011  0.098015     24.000000
  0.098015 -0.098015 -0.070011     24.000000
  0.084013 -0.084013 -0.056009     24.000000
  0.070011 -0.070011 -0.042007     24.000000
  0.056009 -0.056009 -0.028004     24.000000
  0.042007 -0.042007 -0.014002     24.000000
  0.028004 -0.028004  0.000000     12.000000
  0.000000  0.000000  0.056009      6.000000
 -0.014002  0.014002  0.070011     24.000000
 -0.028004  0.028004  0.084013     24.000000
 -0.042007  0.042007  0.098015     24.000000
 -0.056009  0.056009  0.112018     24.000000
  0.112018 -0.112018 -0.056009     24.000000
  0.098015 -0.098015 -0.042007     24.000000
  0.084013 -0.084013 -0.028004     24.000000
  0.070011 -0.070011 -0.014002     24.000000
  0.056009 -0.056009  0.000000     12.000000
  0.000000  0.000000  0.084013      6.000000
 -0.014002  0.014002  0.098015     24.000000
 -0.028004  0.028004  0.112018     24.000000
 -0.042007  0.042007  0.126020     24.000000
  0.126020 -0.126020 -0.042007     24.000000
  0.112018 -0.112018 -0.028004     24.000000
  0.098015 -0.098015 -0.014002     24.000000
  0.084013 -0.084013  0.000000     12.000000
  0.000000  0.000000  0.112018      6.000000
 -0.014002  0.014002  0.126020     24.000000
 -0.028004  0.028004  0.140022     24.000000
  0.140022 -0.140022 -0.028004     24.000000
  0.126020 -0.126020 -0.014002     24.000000
  0.112018 -0.112018  0.000000     12.000000
  0.000000  0.000000  0.140022      6.000000
 -0.014002  0.014002  0.154024     24.000000
  0.154024 -0.154024 -0.014002     24.000000
  0.140022 -0.140022  0.000000     12.000000
  0.000000  0.000000  0.168026      6.000000
  0.168026 -0.168026  0.000000     12.000000
  0.000000  0.028004  0.056009     24.000000
 -0.014002  0.042007  0.070011     48.000000
 -0.028004  0.056009  0.084013     48.000000
 -0.042007  0.070011  0.098015     48.000000
  0.126020 -0.098015 -0.070011     48.000000
  0.000000  0.028004  0.084013     24.000000
 -0.014002  0.042007  0.098015     48.000000
 -0.028004  0.056009  0.112018     48.000000
  0.140022 -0.112018 -0.056009     48.000000
  0.126020 -0.098015 -0.042007     48.000000
  0.112018 -0.084013 -0.028004     48.000000
  0.098015 -0.070011 -0.014002     48.000000
  0.084013 -0.056009  0.000000     24.000000
 -0.000000  0.028004  0.112018     24.000000
 -0.014002  0.042007  0.126020     48.000000
  0.154024 -0.126020 -0.042007     48.000000
  0.140022 -0.112018 -0.028004     48.000000
  0.126020 -0.098015 -0.014002     48.000000
  0.112018 -0.084013  0.000000     24.000000
  0.000000  0.028004  0.140022     24.000000
  0.168026 -0.140022 -0.028004     48.000000
  0.154024 -0.126020 -0.014002     48.000000
  0.140022 -0.112018  0.000000     24.000000
  0.182029 -0.154024 -0.014002     24.000000
  0.168026 -0.140022  0.000000     24.000000
  0.000000  0.056009  0.112018     24.000000
  0.168026 -0.112018 -0.056009     48.000000
  0.154024 -0.098015 -0.042007     48.000000
  0.182029 -0.126020 -0.042007     24.000000
  0.168026 -0.112018 -0.028004     48.000000
  0.154024 -0.098015 -0.014002     48.000000
  0.140022 -0.084013  0.000000     24.000000
  0.182029 -0.126020 -0.014002     24.000000
  0.168026 -0.112018  0.000000     24.000000
  0.182029 -0.098015 -0.014002     24.000000
 


--------------------------------------------------------------------------------------------------------




 Dimension of arrays:
   k-points           NKPTS =       84   k-points in BZ     NKDIM =       84   number of bands    NBANDS=     96
   number of dos      NEDOS =   5000   number of ions     NIONS =      2
   non local maximal  LDIM  =      4   non local SUM 2l+1 LMDIM =      8
   total plane-waves  NPLWV =  21952
   max r-space proj   IRMAX =      1   max aug-charges    IRDMAX=  17905
   dimension x,y,z NGX =    28 NGY =   28 NGZ =   28
   dimension x,y,z NGXF=    56 NGYF=   56 NGZF=   56
   support grid    NGXF=    56 NGYF=   56 NGZF=   56
   ions per type =               2
 NGX,Y,Z   is equivalent  to a cutoff of  11.98, 11.98, 11.98 a.u.
 NGXF,Y,Z  is equivalent  to a cutoff of  23.97, 23.97, 23.97 a.u.


 I would recommend the setting:
   dimension x,y,z NGX =    28 NGY =   28 NGZ =   28
 SYSTEM =  unknown system                          
 POSCAR =  bulk@JVASP-1002                         

 Startparameter for this run:
   NWRITE =      2    write-flag & timer
   PREC   = accura    normal or accurate (medium, high low for compatibility)
   ISTART =      0    job   : 0-new  1-cont  2-samecut
   ICHARG =      2    charge: 1-file 2-atom 10-const
   ISPIN  =      2    spin polarized calculation?
   LNONCOLLINEAR =      F non collinear calculations
   LSORBIT =      F    spin-orbit coupling
   INIWAV =      1    electr: 0-lowe 1-rand  2-diag
   LASPH  =      F    aspherical Exc in radial PAW
   METAGGA=      F    non-selfconsistent MetaGGA calc.

 Electronic Relaxation 1
   ENCUT  =  500.0 eV  36.75 Ry    6.06 a.u.   7.08  7.08  7.08*2*pi/ulx,y,z
   ENINI  =  500.0     initial cutoff
   ENAUG  =  322.1 eV  augmentation charge cutoff
   NELM   =    500;   NELMIN=  2; NELMDL= -5     # of ELM steps 
   EDIFF  = 0.1E-06   stopping-criterion for ELM
   LREAL  =      F    real-space projection
   NLSPLINE    = F    spline interpolate recip. space projectors
   LCOMPAT=      F    compatible to vasp.4.4
   GGA_COMPAT  = T    GGA compatible to vasp.4.4-vasp.4.6
   LMAXPAW     = -100 max onsite density
   LMAXMIX     =    2 max onsite mixed and CHGCAR
   VOSKOWN=      0    Vosko Wilk Nusair interpolation
   ROPT   =    0.00000
 Ionic relaxation
   EDIFFG = 0.1E-05   stopping-criterion for IOM
   NSW    =      1    number of steps for IOM
   NBLOCK =      1;   KBLOCK =      1    inner block; outer block 
   IBRION =      1    ionic relax: 0-MD 1-quasi-New 2-CG
   NFREE  =      0    steps in history (QN), initial steepest desc. (CG)
   ISIF   =      2    stress and relaxation
   IWAVPR =     11    prediction:  0-non 1-charg 2-wave 3-comb
   ISYM   =      2    0-nonsym 1-usesym 2-fastsym
   LCORR  =      T    Harris-Foulkes like correction to forces

   POTIM  = 0.5000    time-step for ionic-motion
   TEIN   =    0.0    initial temperature
   TEBEG  =    0.0;   TEEND  =   0.0 temperature during run
   SMASS  =  -3.00    Nose mass-parameter (am)
   estimated Nose-frequenzy (Omega)   =  0.10E-29 period in steps =****** mass=  -0.345E-27a.u.
   SCALEE = 1.0000    scale energy and forces
   NPACO  =    256;   APACO  = 16.0  distance and # of slots for P.C.
   PSTRESS=    0.0 pullay stress

  Mass of Ions in am
   POMASS =  28.09
  Ionic Valenz
   ZVAL   =   4.00
  Atomic Wigner-Seitz radii
   RWIGS  =  -1.00
  virtual crystal weights 
   VCA    =   1.00
   NELECT =       8.0000    total number of electrons
   NUPDOWN=      -1.0000    fix difference up-down

 DOS related values:
   EMIN   =  10.00;   EMAX   =-10.00  energy-range for DOS
   EFERMI =   0.00
   ISMEAR =     0;   SIGMA  =   0.20  broadening in eV -4-tet -1-fermi 0-gaus

 Electronic relaxation 2 (details)
   IALGO  =     38    algorithm
   LDIAG  =      T    sub-space diagonalisation (order eigenvalues)
   LSUBROT=      F    optimize rotation matrix (better conditioning)
   TURBO    =      0    0=normal 1=particle mesh
   IRESTART =      0    0=no restart 2=restart with 2 vectors
   NREBOOT  =      0    no. of reboots
   NMIN     =      0    reboot dimension
   EREF     =   0.00    reference energy to select bands
   IMIX   =      4    mixing-type and parameters
     AMIX     =   0.40;   BMIX     =  1.00
     AMIX_MAG =   1.60;   BMIX_MAG =  1.00
     AMIN     =   0.10
     WC   =   100.;   INIMIX=   1;  MIXPRE=   1;  MAXMIX= -45

 Intra band minimization:
   WEIMIN = 0.0010     energy-eigenvalue tresh-hold
   EBREAK =  0.26E-09  absolut break condition
   DEPER  =   0.30     relativ break condition  

   TIME   =   0.40     timestep for ELM

  volume/ion in A,a.u.               =      20.72       139.86
  Fermi-wavevector in a.u.,A,eV,Ry     =   0.946087  1.787845 12.178313  0.895081
  Thomas-Fermi vector in A             =   2.074051

 Write flags
   LWAVE  =      F    write WAVECAR
   LCHARG =      F    write CHGCAR
   LVTOT  =      F    write LOCPOT, total local potential
   LVHAR  =      F    write LOCPOT, Hartree potential only
   LELF   =      F    write electronic localiz. function (ELF)
   LORBIT =     11    0 simple, 1 ext, 2 COOP (PROOUT)


 Dipole corrections
   LMONO  =      F    monopole corrections only (constant potential shift)
   LDIPOL =      F    correct potential (dipole corrections)
   IDIPOL =      0    1-x, 2-y, 3-z, 4-all directions 
   EPSILON=  1.0000000 bulk dielectric constant

 Exchange correlation treatment:
   GGA     =    BO    GGA type
   LEXCH   =    42    internal setting for exchange type
   VOSKOWN=      0    Vosko Wilk Nusair interpolation
   LHFCALC =     F    Hartree Fock is set to
   LHFONE  =     F    Hartree Fock one center treatment
   AEXX    =    0.0000 exact exchange contribution

 vdW DFT:
   LUSE_VDW   =     T    switch on vdW DFT
   Zab_VDW    =-.8491    correlation parameter
   PARAM1     =0.1833
   PARAM2     =0.2200
   PARAM3     =0.0000

 Linear response parameters
   LEPSILON=     F    determine dielectric tensor
   LRPA    =     F    only Hartree local field effects (RPA)
   LNABLA  =     F    use nabla operator in PAW spheres
   LVEL    =     F    velocity operator in full k-point grid
   LINTERFAST=   F  fast interpolation
   KINTER  =     0    interpolate to denser k-point grid
   CSHIFT  =0.1000    complex shift for real part using Kramers Kronig
   OMEGAMAX=  -1.0    maximum frequency
   DEG_THRESHOLD= 0.2000000E-02 threshold for treating states as degnerate
   RTIME   =    0.100 relaxation time in fs

 Orbital magnetization related:
   ORBITALMAG=     F  switch on orbital magnetization
   LCHIMAG   =     F  perturbation theory with respect to B field
   DQ        =  0.001000  dq finite difference perturbation B field



--------------------------------------------------------------------------------------------------------


 quasi-Newton-method for relaxation of ions
 charge density and potential will be updated during run
 spin polarized calculation
 Variant of blocked Davidson
 Davidson routine will perform the subspace rotation
 perform sub-space diagonalisation
    after iterative eigenvector-optimisation
 modified Broyden-mixing scheme, WC =      100.0
 initial mixing is a Kerker type mixing with AMIX =  0.4000 and BMIX =      1.0000
 Hartree-type preconditioning will be used
 using additional bands           92
 reciprocal scheme for non local part
 use partial core corrections
 calculate Harris-corrections to forces   (improved forces if not selfconsistent)
 use gradient corrections 
 use of overlap-Matrix (Vanderbilt PP)
 Gauss-broadening in eV      SIGMA  =   0.20


--------------------------------------------------------------------------------------------------------


  energy-cutoff  :      500.00
  volume of cell :       41.45
      direct lattice vectors                 reciprocal lattice vectors
     0.000000000  2.746821138  2.746821138    -0.182028598  0.182028598  0.182028598
     2.746821138  0.000000000  2.746821138     0.182028598 -0.182028598  0.182028598
     2.746821138  2.746821138  0.000000000     0.182028598  0.182028598 -0.182028598

  length of vectors
     3.884591706  3.884591706  3.884591706     0.315282780  0.315282780  0.315282780



 k-points in units of 2pi/SCALE and weight: Automatic kpoint scheme                 
   0.00000000  0.00000000  0.00000000       0.000
  -0.01400220  0.01400220  0.01400220       0.004
  -0.02800440  0.02800440  0.02800440       0.004
  -0.04200660  0.04200660  0.04200660       0.004
  -0.05600880  0.05600880  0.05600880       0.004
  -0.07001100  0.07001100  0.07001100       0.004
  -0.08401320  0.08401320  0.08401320       0.004
   0.00000000  0.00000000  0.02800440       0.003
  -0.01400220  0.01400220  0.04200660       0.011
  -0.02800440  0.02800440  0.05600880       0.011
  -0.04200660  0.04200660  0.07001100       0.011
  -0.05600880  0.05600880  0.08401320       0.011
  -0.07001100  0.07001100  0.09801540       0.011
   0.09801540 -0.09801540 -0.07001100       0.011
   0.08401320 -0.08401320 -0.05600880       0.011
   0.07001100 -0.07001100 -0.04200660       0.011
   0.05600880 -0.05600880 -0.02800440       0.011
   0.04200660 -0.04200660 -0.01400220       0.011
   0.02800440 -0.02800440  0.00000000       0.005
   0.00000000  0.00000000  0.05600880       0.003
  -0.01400220  0.01400220  0.07001100       0.011
  -0.02800440  0.02800440  0.08401320       0.011
  -0.04200660  0.04200660  0.09801540       0.011
  -0.05600880  0.05600880  0.11201760       0.011
   0.11201760 -0.11201760 -0.05600880       0.011
   0.09801540 -0.09801540 -0.04200660       0.011
   0.08401320 -0.08401320 -0.02800440       0.011
   0.07001100 -0.07001100 -0.01400220       0.011
   0.05600880 -0.05600880  0.00000000       0.005
   0.00000000  0.00000000  0.08401320       0.003
  -0.01400220  0.01400220  0.09801540       0.011
  -0.02800440  0.02800440  0.11201760       0.011
  -0.04200660  0.04200660  0.12601980       0.011
   0.12601980 -0.12601980 -0.04200660       0.011
   0.11201760 -0.11201760 -0.02800440       0.011
   0.09801540 -0.09801540 -0.01400220       0.011
   0.08401320 -0.08401320  0.00000000       0.005
   0.00000000  0.00000000  0.11201760       0.003
  -0.01400220  0.01400220  0.12601980       0.011
  -0.02800440  0.02800440  0.14002200       0.011
   0.14002200 -0.14002200 -0.02800440       0.011
   0.12601980 -0.12601980 -0.01400220       0.011
   0.11201760 -0.11201760  0.00000000       0.005
   0.00000000  0.00000000  0.14002200       0.003
  -0.01400220  0.01400220  0.15402420       0.011
   0.15402420 -0.15402420 -0.01400220       0.011
   0.14002200 -0.14002200  0.00000000       0.005
   0.00000000  0.00000000  0.16802640       0.003
   0.16802640 -0.16802640  0.00000000       0.005
   0.00000000  0.02800440  0.05600880       0.011
  -0.01400220  0.04200660  0.07001100       0.022
  -0.02800440  0.05600880  0.08401320       0.022
  -0.04200660  0.07001100  0.09801540       0.022
   0.12601980 -0.09801540 -0.07001100       0.022
   0.00000000  0.02800440  0.08401320       0.011
  -0.01400220  0.04200660  0.09801540       0.022
  -0.02800440  0.05600880  0.11201760       0.022
   0.14002200 -0.11201760 -0.05600880       0.022
   0.12601980 -0.09801540 -0.04200660       0.022
   0.11201760 -0.08401320 -0.02800440       0.022
   0.09801540 -0.07001100 -0.01400220       0.022
   0.08401320 -0.05600880  0.00000000       0.011
  -0.00000000  0.02800440  0.11201760       0.011
  -0.01400220  0.04200660  0.12601980       0.022
   0.15402420 -0.12601980 -0.04200660       0.022
   0.14002200 -0.11201760 -0.02800440       0.022
   0.12601980 -0.09801540 -0.01400220       0.022
   0.11201760 -0.08401320  0.00000000       0.011
   0.00000000  0.02800440  0.14002200       0.011
   0.16802640 -0.14002200 -0.02800440       0.022
   0.15402420 -0.12601980 -0.01400220       0.022
   0.14002200 -0.11201760  0.00000000       0.011
   0.18202860 -0.15402420 -0.01400220       0.011
   0.16802640 -0.14002200  0.00000000       0.011
   0.00000000  0.05600880  0.11201760       0.011
   0.16802640 -0.11201760 -0.05600880       0.022
   0.15402420 -0.09801540 -0.04200660       0.022
   0.18202860 -0.12601980 -0.04200660       0.011
   0.16802640 -0.11201760 -0.02800440       0.022
   0.15402420 -0.09801540 -0.01400220       0.022
   0.14002200 -0.08401320  0.00000000       0.011
   0.18202860 -0.12601980 -0.01400220       0.011
   0.16802640 -0.11201760  0.00000000       0.011
   0.18202860 -0.09801540 -0.01400220       0.011

 k-points in reciprocal lattice and weights: Automatic kpoint scheme                 
   0.00000000  0.00000000  0.00000000       0.000
   0.07692308  0.00000000  0.00000000       0.004
   0.15384615  0.00000000  0.00000000       0.004
   0.23076923  0.00000000  0.00000000       0.004
   0.30769231  0.00000000  0.00000000       0.004
   0.38461538  0.00000000  0.00000000       0.004
   0.46153846  0.00000000  0.00000000       0.004
   0.07692308  0.07692308  0.00000000       0.003
   0.15384615  0.07692308  0.00000000       0.011
   0.23076923  0.07692308  0.00000000       0.011
   0.30769231  0.07692308  0.00000000       0.011
   0.38461538  0.07692308  0.00000000       0.011
   0.46153846  0.07692308  0.00000000       0.011
  -0.46153846  0.07692308  0.00000000       0.011
  -0.38461538  0.07692308  0.00000000       0.011
  -0.30769231  0.07692308  0.00000000       0.011
  -0.23076923  0.07692308  0.00000000       0.011
  -0.15384615  0.07692308  0.00000000       0.011
  -0.07692308  0.07692308  0.00000000       0.005
   0.15384615  0.15384615  0.00000000       0.003
   0.23076923  0.15384615  0.00000000       0.011
   0.30769231  0.15384615  0.00000000       0.011
   0.38461538  0.15384615  0.00000000       0.011
   0.46153846  0.15384615  0.00000000       0.011
  -0.46153846  0.15384615  0.00000000       0.011
  -0.38461538  0.15384615  0.00000000       0.011
  -0.30769231  0.15384615  0.00000000       0.011
  -0.23076923  0.15384615  0.00000000       0.011
  -0.15384615  0.15384615  0.00000000       0.005
   0.23076923  0.23076923  0.00000000       0.003
   0.30769231  0.23076923  0.00000000       0.011
   0.38461538  0.23076923  0.00000000       0.011
   0.46153846  0.23076923  0.00000000       0.011
  -0.46153846  0.23076923  0.00000000       0.011
  -0.38461538  0.23076923  0.00000000       0.011
  -0.30769231  0.23076923  0.00000000       0.011
  -0.23076923  0.23076923  0.00000000       0.005
   0.30769231  0.30769231  0.00000000       0.003
   0.38461538  0.30769231  0.00000000       0.011
   0.46153846  0.30769231  0.00000000       0.011
  -0.46153846  0.30769231  0.00000000       0.011
  -0.38461538  0.30769231  0.00000000       0.011
  -0.30769231  0.30769231  0.00000000       0.005
   0.38461538  0.38461538  0.00000000       0.003
   0.46153846  0.38461538  0.00000000       0.011
  -0.46153846  0.38461538  0.00000000       0.011
  -0.38461538  0.38461538  0.00000000       0.005
   0.46153846  0.46153846  0.00000000       0.003
  -0.46153846  0.46153846  0.00000000       0.005
   0.23076923  0.15384615  0.07692308       0.011
   0.30769231  0.15384615  0.07692308       0.022
   0.38461538  0.15384615  0.07692308       0.022
   0.46153846  0.15384615  0.07692308       0.022
  -0.46153846  0.15384615  0.07692308       0.022
   0.30769231  0.23076923  0.07692308       0.011
   0.38461538  0.23076923  0.07692308       0.022
   0.46153846  0.23076923  0.07692308       0.022
  -0.46153846  0.23076923  0.07692308       0.022
  -0.38461538  0.23076923  0.07692308       0.022
  -0.30769231  0.23076923  0.07692308       0.022
  -0.23076923  0.23076923  0.07692308       0.022
  -0.15384615  0.23076923  0.07692308       0.011
   0.38461538  0.30769231  0.07692308       0.011
   0.46153846  0.30769231  0.07692308       0.022
  -0.46153846  0.30769231  0.07692308       0.022
  -0.38461538  0.30769231  0.07692308       0.022
  -0.30769231  0.30769231  0.07692308       0.022
  -0.23076923  0.30769231  0.07692308       0.011
   0.46153846  0.38461538  0.07692308       0.011
  -0.46153846  0.38461538  0.07692308       0.022
  -0.38461538  0.38461538  0.07692308       0.022
  -0.30769231  0.38461538  0.07692308       0.011
  -0.46153846  0.46153846  0.07692308       0.011
  -0.38461538  0.46153846  0.07692308       0.011
   0.46153846  0.30769231  0.15384615       0.011
  -0.46153846  0.30769231  0.15384615       0.022
  -0.38461538  0.30769231  0.15384615       0.022
  -0.46153846  0.38461538  0.15384615       0.011
  -0.38461538  0.38461538  0.15384615       0.022
  -0.30769231  0.38461538  0.15384615       0.022
  -0.23076923  0.38461538  0.15384615       0.011
  -0.38461538  0.46153846  0.15384615       0.011
  -0.30769231  0.46153846  0.15384615       0.011
  -0.30769231  0.46153846  0.23076923       0.011

 position of ions in fractional coordinates (direct lattice) 
   0.75000000  0.75000000  0.75000000
   0.50000000  0.50000000  0.50000000

 position of ions in cartesian coordinates  (Angst):
   4.12023171  4.12023171  4.12023171
   2.74682114  2.74682114  2.74682114



--------------------------------------------------------------------------------------------------------


 k-point  1 :   0.0000 0.0000 0.0000  plane waves:    1067
 k-point  2 :   0.0769 0.0000 0.0000  plane waves:    1034
 k-point  3 :   0.1538 0.0000 0.0000  plane waves:    1031
 k-point  4 :   0.2308 0.0000 0.0000  plane waves:    1047
 k-point  5 :   0.3077 0.0000 0.0000  plane waves:    1056
 k-point  6 :   0.3846 0.0000 0.0000  plane waves:    1050
 k-point  7 :   0.4615 0.0000 0.0000  plane waves:    1056
 k-point  8 :   0.0769 0.0769 0.0000  plane waves:    1034
 k-point  9 :   0.1538 0.0769 0.0000  plane waves:    1033
 k-point 10 :   0.2308 0.0769 0.0000  plane waves:    1037
 k-point 11 :   0.3077 0.0769 0.0000  plane waves:    1053
 k-point 12 :   0.3846 0.0769 0.0000  plane waves:    1053
 k-point 13 :   0.4615 0.0769 0.0000  plane waves:    1051
 k-point 14 :  -0.4615 0.0769 0.0000  plane waves:    1055
 k-point 15 :  -0.3846 0.0769 0.0000  plane waves:    1049
 k-point 16 :  -0.3077 0.0769 0.0000  plane waves:    1055
 k-point 17 :  -0.2308 0.0769 0.0000  plane waves:    1053
 k-point 18 :  -0.1538 0.0769 0.0000  plane waves:    1032
 k-point 19 :  -0.0769 0.0769 0.0000  plane waves:    1031
 k-point 20 :   0.1538 0.1538 0.0000  plane waves:    1034
 k-point 21 :   0.2308 0.1538 0.0000  plane waves:    1037
 k-point 22 :   0.3077 0.1538 0.0000  plane waves:    1054
 k-point 23 :   0.3846 0.1538 0.0000  plane waves:    1054
 k-point 24 :   0.4615 0.1538 0.0000  plane waves:    1055
 k-point 25 :  -0.4615 0.1538 0.0000  plane waves:    1057
 k-point 26 :  -0.3846 0.1538 0.0000  plane waves:    1058
 k-point 27 :  -0.3077 0.1538 0.0000  plane waves:    1053
 k-point 28 :  -0.2308 0.1538 0.0000  plane waves:    1050
 k-point 29 :  -0.1538 0.1538 0.0000  plane waves:    1043
 k-point 30 :   0.2308 0.2308 0.0000  plane waves:    1054
 k-point 31 :   0.3077 0.2308 0.0000  plane waves:    1039
 k-point 32 :   0.3846 0.2308 0.0000  plane waves:    1050
 k-point 33 :   0.4615 0.2308 0.0000  plane waves:    1052
 k-point 34 :  -0.4615 0.2308 0.0000  plane waves:    1055
 k-point 35 :  -0.3846 0.2308 0.0000  plane waves:    1064
 k-point 36 :  -0.3077 0.2308 0.0000  plane waves:    1056
 k-point 37 :  -0.2308 0.2308 0.0000  plane waves:    1055
 k-point 38 :   0.3077 0.3077 0.0000  plane waves:    1030
 k-point 39 :   0.3846 0.3077 0.0000  plane waves:    1050
 k-point 40 :   0.4615 0.3077 0.0000  plane waves:    1052
 k-point 41 :  -0.4615 0.3077 0.0000  plane waves:    1055
 k-point 42 :  -0.3846 0.3077 0.0000  plane waves:    1054
 k-point 43 :  -0.3077 0.3077 0.0000  plane waves:    1059
 k-point 44 :   0.3846 0.3846 0.0000  plane waves:    1042
 k-point 45 :   0.4615 0.3846 0.0000  plane waves:    1050
 k-point 46 :  -0.4615 0.3846 0.0000  plane waves:    1049
 k-point 47 :  -0.3846 0.3846 0.0000  plane waves:    1059
 k-point 48 :   0.4615 0.4615 0.0000  plane waves:    1050
 k-point 49 :  -0.4615 0.4615 0.0000  plane waves:    1052
 k-point 50 :   0.2308 0.1538 0.0769  plane waves:    1036
 k-point 51 :   0.3077 0.1538 0.0769  plane waves:    1046
 k-point 52 :   0.3846 0.1538 0.0769  plane waves:    1053
 k-point 53 :   0.4615 0.1538 0.0769  plane waves:    1052
 k-point 54 :  -0.4615 0.1538 0.0769  plane waves:    1047
 k-point 55 :   0.3077 0.2308 0.0769  plane waves:    1046
 k-point 56 :   0.3846 0.2308 0.0769  plane waves:    1052
 k-point 57 :   0.4615 0.2308 0.0769  plane waves:    1049
 k-point 58 :  -0.4615 0.2308 0.0769  plane waves:    1056
 k-point 59 :  -0.3846 0.2308 0.0769  plane waves:    1056
 k-point 60 :  -0.3077 0.2308 0.0769  plane waves:    1057
 k-point 61 :  -0.2308 0.2308 0.0769  plane waves:    1055
 k-point 62 :  -0.1538 0.2308 0.0769  plane waves:    1057
 k-point 63 :   0.3846 0.3077 0.0769  plane waves:    1046
 k-point 64 :   0.4615 0.3077 0.0769  plane waves:    1056
 k-point 65 :  -0.4615 0.3077 0.0769  plane waves:    1055
 k-point 66 :  -0.3846 0.3077 0.0769  plane waves:    1054
 k-point 67 :  -0.3077 0.3077 0.0769  plane waves:    1056
 k-point 68 :  -0.2308 0.3077 0.0769  plane waves:    1050
 k-point 69 :   0.4615 0.3846 0.0769  plane waves:    1055
 k-point 70 :  -0.4615 0.3846 0.0769  plane waves:    1055
 k-point 71 :  -0.3846 0.3846 0.0769  plane waves:    1061
 k-point 72 :  -0.3077 0.3846 0.0769  plane waves:    1056
 k-point 73 :  -0.4615 0.4615 0.0769  plane waves:    1058
 k-point 74 :  -0.3846 0.4615 0.0769  plane waves:    1057
 k-point 75 :   0.4615 0.3077 0.1538  plane waves:    1046
 k-point 76 :  -0.4615 0.3077 0.1538  plane waves:    1053
 k-point 77 :  -0.3846 0.3077 0.1538  plane waves:    1062
 k-point 78 :  -0.4615 0.3846 0.1538  plane waves:    1049
 k-point 79 :  -0.3846 0.3846 0.1538  plane waves:    1056
 k-point 80 :  -0.3077 0.3846 0.1538  plane waves:    1058
 k-point 81 :  -0.2308 0.3846 0.1538  plane waves:    1054
 k-point 82 :  -0.3846 0.4615 0.1538  plane waves:    1059
 k-point 83 :  -0.3077 0.4615 0.1538  plane waves:    1060
 k-point 84 :  -0.3077 0.4615 0.2308  plane waves:    1054

 maximum and minimum number of plane-waves per node :      1067     1030

 maximum number of plane-waves:      1067
 maximum index in each direction: 
   IXMAX=    7   IYMAX=    7   IZMAX=    7
   IXMIN=   -7   IYMIN=   -7   IZMIN=   -7

 WARNING: aliasing errors must be expected set NGX to  30 to avoid them
 WARNING: aliasing errors must be expected set NGY to  30 to avoid them
 WARNING: aliasing errors must be expected set NGZ to  30 to avoid them
 aliasing errors are usually negligible using standard VASP settings
 and one can safely disregard these warnings

 serial   3D FFT for wavefunctions
 parallel 3D FFT for charge:
    minimum data exchange during FFTs selected (reduces bandwidth)


 total amount of memory used by VASP on root node    56582. kBytes
========================================================================

   base      :      30000. kBytes
   nonl-proj :       5797. kBytes
   fftplans  :        517. kBytes
   grid      :       2709. kBytes
   one-center:         12. kBytes
   wavefun   :      17547. kBytes

     INWAV:  cpu time    0.0000: real time    0.0000
 Broyden mixing: mesh for mixing (old mesh)
   NGX = 15   NGY = 15   NGZ = 15
  (NGX  = 56   NGY  = 56   NGZ  = 56)
  gives a total of   3375 points

 initial charge density was supplied:
 charge density of overlapping atoms calculated
 number of electron       8.0000000 magnetization       2.0000000
 keeping initial charge density in first step


--------------------------------------------------------------------------------------------------------


 Maximum index for augmentation-charges         1417 (set IRDMAX)


--------------------------------------------------------------------------------------------------------


 First call to EWALD:  gamma=   0.512
 Maximum number of real-space cells 3x 3x 3
 Maximum number of reciprocal cells 3x 3x 3

 FEWALD executed in parallel
    FEWALD:  cpu time    0.0000: real time    0.0008


----------------------------------------- Iteration    1(   1)  ---------------------------------------


vdW kernel read from vdw_kernel.bindat
  0.0000  0.2424  0.5071  0.7962  1.1119  1.4567  1.8333  2.2446  2.6937  3.1842
  3.7199  4.3049  4.9438  5.6415  6.4036  7.2358  8.1446  9.1372 10.2212 11.4050
 12.6979 14.1099 15.6519 17.3360 19.1751 21.1837 23.3773 25.7729 28.3892 31.2465
 34.3669 37.7748 41.4965 45.5611 50.0000

    POTLOK:  cpu time    2.0920: real time    2.0984
    SETDIJ:  cpu time    0.0080: real time    0.0101
     EDDAV:  cpu time   14.2280: real time   14.2223
       DOS:  cpu time    0.0160: real time    0.0163
    --------------------------------------------
      LOOP:  cpu time   16.3480: real time   16.3495

 eigenvalue-minimisations  : 32256
 total energy-change (2. order) : 0.2095161E+02  (-0.2598873E+03)
 number of electron       8.0000000 magnetization       2.0000000
 augmentation part        8.0000000 magnetization       2.0000000

 Free energy of the ion-electron system (eV)
  ---------------------------------------------------
  alpha Z        PSCENC =         3.24857844
  Ewald energy   TEWEN  =      -225.91568183
  -Hartree energ DENC   =       -11.53197166
  -exchange      EXHF   =         0.00000000
  -V(xc)+E(xc)   XCENC  =       -20.06771024
  PAW double counting   =       189.18569288     -152.40348104
  entropy T*S    EENTRO =        -0.00510422
  eigenvalues    EBANDS =        29.84754623
  atomic energy  EATOM  =       208.59373829
  Solvation  Ediel_sol  =         0.00000000
  ---------------------------------------------------
  free energy    TOTEN  =        20.95160684 eV

  energy without entropy =       20.95671106  energy(sigma->0) =       20.95415895


--------------------------------------------------------------------------------------------------------




----------------------------------------- Iteration    1(   2)  ---------------------------------------


     EDDAV:  cpu time   19.6320: real time   19.6247
       DOS:  cpu time    0.0200: real time    0.0185
    --------------------------------------------
      LOOP:  cpu time   19.6520: real time   20.1049

 eigenvalue-minimisations  : 40112
 total energy-change (2. order) :-0.2834330E+02  (-0.2699227E+02)
 number of electron       8.0000000 magnetization       2.0000000
 augmentation part        8.0000000 magnetization       2.0000000

 Free energy of the ion-electron system (eV)
  ---------------------------------------------------
  alpha Z        PSCENC =         3.24857844
  Ewald energy   TEWEN  =      -225.91568183
  -Hartree energ DENC   =       -11.53197166
  -exchange      EXHF   =         0.00000000
  -V(xc)+E(xc)   XCENC  =       -20.06771024
  PAW double counting   =       189.18569288     -152.40348104
  entropy T*S    EENTRO =        -0.00165118
  eigenvalues    EBANDS =         1.50079575
  atomic energy  EATOM  =       208.59373829
  Solvation  Ediel_sol  =         0.00000000
  ---------------------------------------------------
  free energy    TOTEN  =        -7.39169059 eV

  energy without entropy =       -7.39003941  energy(sigma->0) =       -7.39086500


--------------------------------------------------------------------------------------------------------




----------------------------------------- Iteration    1(   3)  ---------------------------------------


     EDDAV:  cpu time   18.6520: real time   18.6479
       DOS:  cpu time    0.0200: real time    0.0195
    --------------------------------------------
      LOOP:  cpu time   18.6720: real time   18.9060

 eigenvalue-minimisations  : 39440
 total energy-change (2. order) :-0.5070888E+00  (-0.5044657E+00)
 number of electron       8.0000000 magnetization       2.0000000
 augmentation part        8.0000000 magnetization       2.0000000

 Free energy of the ion-electron system (eV)
  ---------------------------------------------------
  alpha Z        PSCENC =         3.24857844
  Ewald energy   TEWEN  =      -225.91568183
  -Hartree energ DENC   =       -11.53197166
  -exchange      EXHF   =         0.00000000
  -V(xc)+E(xc)   XCENC  =       -20.06771024
  PAW double counting   =       189.18569288     -152.40348104
  entropy T*S    EENTRO =        -0.00164702
  eigenvalues    EBANDS =         0.99370282
  atomic energy  EATOM  =       208.59373829
  Solvation  Ediel_sol  =         0.00000000
  ---------------------------------------------------
  free energy    TOTEN  =        -7.89877936 eV

  energy without entropy =       -7.89713235  energy(sigma->0) =       -7.89795585


--------------------------------------------------------------------------------------------------------




----------------------------------------- Iteration    1(   4)  ---------------------------------------


     EDDAV:  cpu time   17.8840: real time   17.8793
       DOS:  cpu time    0.0200: real time    0.0196
    --------------------------------------------
      LOOP:  cpu time   17.9040: real time   17.9303

 eigenvalue-minimisations  : 37552
 total energy-change (2. order) :-0.2486610E-03  (-0.2486481E-03)
 number of electron       8.0000000 magnetization       2.0000000
 augmentation part        8.0000000 magnetization       2.0000000

 Free energy of the ion-electron system (eV)
  ---------------------------------------------------
  alpha Z        PSCENC =         3.24857844
  Ewald energy   TEWEN  =      -225.91568183
  -Hartree energ DENC   =       -11.53197166
  -exchange      EXHF   =         0.00000000
  -V(xc)+E(xc)   XCENC  =       -20.06771024
  PAW double counting   =       189.18569288     -152.40348104
  entropy T*S    EENTRO =        -0.00164692
  eigenvalues    EBANDS =         0.99345407
  atomic energy  EATOM  =       208.59373829
  Solvation  Ediel_sol  =         0.00000000
  ---------------------------------------------------
  free energy    TOTEN  =        -7.89902802 eV

  energy without entropy =       -7.89738110  energy(sigma->0) =       -7.89820456


--------------------------------------------------------------------------------------------------------




----------------------------------------- Iteration    1(   5)  ---------------------------------------


     EDDAV:  cpu time   19.1960: real time   19.1885
       DOS:  cpu time    0.0200: real time    0.0193
    CHARGE:  cpu time    0.1280: real time    0.1287
    MIXING:  cpu time    0.0000: real time    0.0006
    --------------------------------------------
      LOOP:  cpu time   19.3440: real time   19.6245

 eigenvalue-minimisations  : 39776
 total energy-change (2. order) :-0.1585834E-06  (-0.1592272E-06)
 number of electron       7.9999999 magnetization      -0.5388673
 augmentation part       -0.4830370 magnetization      -0.5451250

 Broyden mixing:
  rms(total) = 0.51339E+00    rms(broyden)= 0.51339E+00
  rms(prec ) = 0.94949E+00
  weight for this iteration     100.00

 Free energy of the ion-electron system (eV)
  ---------------------------------------------------
  alpha Z        PSCENC =         3.24857844
  Ewald energy   TEWEN  =      -225.91568183
  -Hartree energ DENC   =       -11.53197166
  -exchange      EXHF   =         0.00000000
  -V(xc)+E(xc)   XCENC  =       -20.06771024
  PAW double counting   =       189.18569288     -152.40348104
  entropy T*S    EENTRO =        -0.00164692
  eigenvalues    EBANDS =         0.99345391
  atomic energy  EATOM  =       208.59373829
  Solvation  Ediel_sol  =         0.00000000
  ---------------------------------------------------
  free energy    TOTEN  =        -7.89902818 eV

  energy without entropy =       -7.89738126  energy(sigma->0) =       -7.89820472


--------------------------------------------------------------------------------------------------------




----------------------------------------- Iteration    1(   6)  ---------------------------------------


    POTLOK:  cpu time    1.6360: real time    1.6333
    SETDIJ:  cpu time    0.0040: real time    0.0073
     EDDAV:  cpu time   17.7440: real time   17.7376
       DOS:  cpu time    0.0200: real time    0.0203
    CHARGE:  cpu time    0.1600: real time    0.1600
    MIXING:  cpu time    0.0040: real time    0.0006
    --------------------------------------------
      LOOP:  cpu time   19.5680: real time   19.8366

 eigenvalue-minimisations  : 37760
 total energy-change (2. order) :-0.4267841E+00  (-0.6760080E-02)
 number of electron       7.9999999 magnetization       0.4219797
 augmentation part       -0.4759106 magnetization       0.4219099

 Broyden mixing:
  rms(total) = 0.25163E+00    rms(broyden)= 0.25163E+00
  rms(prec ) = 0.54730E+00
  weight for this iteration     100.00

 eigenvalues of (default mixing * dielectric matrix)
  average eigenvalue GAMMA=   0.8155
  0.8155

 Free energy of the ion-electron system (eV)
  ---------------------------------------------------
  alpha Z        PSCENC =         3.24857844
  Ewald energy   TEWEN  =      -225.91568183
  -Hartree energ DENC   =       -13.04609152
  -exchange      EXHF   =         0.00000000
  -V(xc)+E(xc)   XCENC  =       -20.04423114
  PAW double counting   =       303.69886881     -267.04061238
  entropy T*S    EENTRO =        -0.00004162
  eigenvalues    EBANDS =         2.17966068
  atomic energy  EATOM  =       208.59373829
  Solvation  Ediel_sol  =         0.00000000
  ---------------------------------------------------
  free energy    TOTEN  =        -8.32581227 eV

  energy without entropy =       -8.32577065  energy(sigma->0) =       -8.32579146


--------------------------------------------------------------------------------------------------------




----------------------------------------- Iteration    1(   7)  ---------------------------------------


    POTLOK:  cpu time    1.6320: real time    1.6342
    SETDIJ:  cpu time    0.0120: real time    0.0101
     EDDAV:  cpu time   18.2320: real time   18.2271
       DOS:  cpu time    0.0200: real time    0.0199
    CHARGE:  cpu time    0.1200: real time    0.1196
    MIXING:  cpu time    0.0000: real time    0.0006
    --------------------------------------------
      LOOP:  cpu time   20.0160: real time   20.0767

 eigenvalue-minimisations  : 38000
 total energy-change (2. order) : 0.2986909E-02  (-0.4666240E-02)
 number of electron       7.9999999 magnetization       0.0547355
 augmentation part       -0.4707270 magnetization       0.0547393

 Broyden mixing:
  rms(total) = 0.15590E+00    rms(broyden)= 0.15590E+00
  rms(prec ) = 0.26463E+00
  weight for this iteration     100.00

 eigenvalues of (default mixing * dielectric matrix)
  average eigenvalue GAMMA=   1.0820
  1.4340  0.7300

 Free energy of the ion-electron system (eV)
  ---------------------------------------------------
  alpha Z        PSCENC =         3.24857844
  Ewald energy   TEWEN  =      -225.91568183
  -Hartree energ DENC   =       -14.43984133
  -exchange      EXHF   =         0.00000000
  -V(xc)+E(xc)   XCENC  =       -19.82368568
  PAW double counting   =       426.04582889     -389.47839171
  entropy T*S    EENTRO =        -0.00006427
  eigenvalues    EBANDS =         3.44669386
  atomic energy  EATOM  =       208.59373829
  Solvation  Ediel_sol  =         0.00000000
  ---------------------------------------------------
  free energy    TOTEN  =        -8.32282536 eV

  energy without entropy =       -8.32276109  energy(sigma->0) =       -8.32279323


--------------------------------------------------------------------------------------------------------




----------------------------------------- Iteration    1(   8)  ---------------------------------------


    POTLOK:  cpu time    1.6480: real time    1.6482
    SETDIJ:  cpu time    0.0080: real time    0.0073
     EDDAV:  cpu time   18.0000: real time   17.9956
       DOS:  cpu time    0.0200: real time    0.0198
    CHARGE:  cpu time    0.1480: real time    0.1477
    MIXING:  cpu time    0.0000: real time    0.0006
    --------------------------------------------
      LOOP:  cpu time   19.8240: real time   20.3307

 eigenvalue-minimisations  : 37872
 total energy-change (2. order) :-0.2567548E-01  (-0.2169165E-02)
 number of electron       7.9999999 magnetization      -0.0049812
 augmentation part       -0.4674115 magnetization      -0.0050938

 Broyden mixing:
  rms(total) = 0.66179E-01    rms(broyden)= 0.66179E-01
  rms(prec ) = 0.73542E-01
  weight for this iteration     100.00

 eigenvalues of (default mixing * dielectric matrix)
  average eigenvalue GAMMA=   1.2988
  2.5129  0.7867  0.5968

 Free energy of the ion-electron system (eV)
  ---------------------------------------------------
  alpha Z        PSCENC =         3.24857844
  Ewald energy   TEWEN  =      -225.91568183
  -Hartree energ DENC   =       -15.51164235
  -exchange      EXHF   =         0.00000000
  -V(xc)+E(xc)   XCENC  =       -19.65466752
  PAW double counting   =       529.87521406     -493.35795688
  entropy T*S    EENTRO =        -0.00003760
  eigenvalues    EBANDS =         4.37395457
  atomic energy  EATOM  =       208.59373829
  Solvation  Ediel_sol  =         0.00000000
  ---------------------------------------------------
  free energy    TOTEN  =        -8.34850084 eV

  energy without entropy =       -8.34846324  energy(sigma->0) =       -8.34848204


--------------------------------------------------------------------------------------------------------




----------------------------------------- Iteration    1(   9)  ---------------------------------------


    POTLOK:  cpu time    1.6440: real time    1.6422
    SETDIJ:  cpu time    0.0080: real time    0.0096
     EDDAV:  cpu time   19.0680: real time   19.0595
       DOS:  cpu time    0.0200: real time    0.0198
    CHARGE:  cpu time    0.1440: real time    0.1456
    MIXING:  cpu time    0.0000: real time    0.0007
    --------------------------------------------
      LOOP:  cpu time   20.8840: real time   20.9429

 eigenvalue-minimisations  : 39040
 total energy-change (2. order) : 0.2627638E-02  (-0.1983442E-04)
 number of electron       7.9999999 magnetization      -0.0015026
 augmentation part       -0.4673750 magnetization      -0.0014436

 Broyden mixing:
  rms(total) = 0.11116E-01    rms(broyden)= 0.11116E-01
  rms(prec ) = 0.24961E-01
  weight for this iteration     100.00

 eigenvalues of (default mixing * dielectric matrix)
  average eigenvalue GAMMA=   1.2385
  2.4998  1.0823  0.7753  0.5967

 Free energy of the ion-electron system (eV)
  ---------------------------------------------------
  alpha Z        PSCENC =         3.24857844
  Ewald energy   TEWEN  =      -225.91568183
  -Hartree energ DENC   =       -15.55873064
  -exchange      EXHF   =         0.00000000
  -V(xc)+E(xc)   XCENC  =       -19.64276983
  PAW double counting   =       534.76369938     -498.23867137
  entropy T*S    EENTRO =        -0.00003609
  eigenvalues    EBANDS =         4.40400044
  atomic energy  EATOM  =       208.59373829
  Solvation  Ediel_sol  =         0.00000000
  ---------------------------------------------------
  free energy    TOTEN  =        -8.34587320 eV

  energy without entropy =       -8.34583711  energy(sigma->0) =       -8.34585516


--------------------------------------------------------------------------------------------------------




----------------------------------------- Iteration    1(  10)  ---------------------------------------


    POTLOK:  cpu time    1.6480: real time    1.6480
    SETDIJ:  cpu time    0.0080: real time    0.0070
     EDDAV:  cpu time   18.1280: real time   18.1217
       DOS:  cpu time    0.0200: real time    0.0197
    CHARGE:  cpu time    0.1440: real time    0.1475
    MIXING:  cpu time    0.0040: real time    0.0007
    --------------------------------------------
      LOOP:  cpu time   19.9520: real time   20.0192

 eigenvalue-minimisations  : 37792
 total energy-change (2. order) : 0.7060437E-02  (-0.6272495E-04)
 number of electron       7.9999999 magnetization       0.0010811
 augmentation part       -0.4679461 magnetization       0.0010129

 Broyden mixing:
  rms(total) = 0.59833E-02    rms(broyden)= 0.59833E-02
  rms(prec ) = 0.78429E-02
  weight for this iteration     100.00

 eigenvalues of (default mixing * dielectric matrix)
  average eigenvalue GAMMA=   1.3317
  2.2901  2.2901  0.7938  0.6814  0.6033

 Free energy of the ion-electron system (eV)
  ---------------------------------------------------
  alpha Z        PSCENC =         3.24857844
  Ewald energy   TEWEN  =      -225.91568183
  -Hartree energ DENC   =       -15.50658574
  -exchange      EXHF   =         0.00000000
  -V(xc)+E(xc)   XCENC  =       -19.64085703
  PAW double counting   =       528.66148587     -492.11019927
  entropy T*S    EENTRO =        -0.00003142
  eigenvalues    EBANDS =         4.33073992
  atomic energy  EATOM  =       208.59373829
  Solvation  Ediel_sol  =         0.00000000
  ---------------------------------------------------
  free energy    TOTEN  =        -8.33881276 eV

  energy without entropy =       -8.33878135  energy(sigma->0) =       -8.33879706


--------------------------------------------------------------------------------------------------------




----------------------------------------- Iteration    1(  11)  ---------------------------------------


    POTLOK:  cpu time    1.6240: real time    1.6265
    SETDIJ:  cpu time    0.0080: real time    0.0070
     EDDAV:  cpu time   17.2680: real time   17.2609
       DOS:  cpu time    0.0200: real time    0.0201
    CHARGE:  cpu time    0.1120: real time    0.1126
    MIXING:  cpu time    0.0000: real time    0.0008
    --------------------------------------------
      LOOP:  cpu time   19.0320: real time   19.0843

 eigenvalue-minimisations  : 38000
 total energy-change (2. order) : 0.4866432E-03  (-0.4265079E-05)
 number of electron       7.9999999 magnetization      -0.0003315
 augmentation part       -0.4679518 magnetization      -0.0003514

 Broyden mixing:
  rms(total) = 0.27525E-02    rms(broyden)= 0.27525E-02
  rms(prec ) = 0.34833E-02
  weight for this iteration     100.00

 eigenvalues of (default mixing * dielectric matrix)
  average eigenvalue GAMMA=   1.3929
  2.5358  2.5358  1.2251  0.6074  0.6703  0.7831

 Free energy of the ion-electron system (eV)
  ---------------------------------------------------
  alpha Z        PSCENC =         3.24857844
  Ewald energy   TEWEN  =      -225.91568183
  -Hartree energ DENC   =       -15.51926311
  -exchange      EXHF   =         0.00000000
  -V(xc)+E(xc)   XCENC  =       -19.63799693
  PAW double counting   =       527.57661157     -491.02377369
  entropy T*S    EENTRO =        -0.00003129
  eigenvalues    EBANDS =         4.33949244
  atomic energy  EATOM  =       208.59373829
  Solvation  Ediel_sol  =         0.00000000
  ---------------------------------------------------
  free energy    TOTEN  =        -8.33832612 eV

  energy without entropy =       -8.33829483  energy(sigma->0) =       -8.33831047


--------------------------------------------------------------------------------------------------------




----------------------------------------- Iteration    1(  12)  ---------------------------------------


    POTLOK:  cpu time    1.6440: real time    1.6413
    SETDIJ:  cpu time    0.0080: real time    0.0069
     EDDAV:  cpu time   17.9200: real time   17.9155
       DOS:  cpu time    0.0200: real time    0.0202
    CHARGE:  cpu time    0.1520: real time    0.1505
    MIXING:  cpu time    0.0000: real time    0.0008
    --------------------------------------------
      LOOP:  cpu time   19.7440: real time   19.8203

 eigenvalue-minimisations  : 39248
 total energy-change (2. order) :-0.1500242E-03  (-0.1404832E-05)
 number of electron       7.9999999 magnetization      -0.0002974
 augmentation part       -0.4678939 magnetization      -0.0002779

 Broyden mixing:
  rms(total) = 0.13114E-02    rms(broyden)= 0.13114E-02
  rms(prec ) = 0.15619E-02
  weight for this iteration     100.00

 eigenvalues of (default mixing * dielectric matrix)
  average eigenvalue GAMMA=   1.3754
  2.6596  2.6596  1.3344  0.9283  0.7792  0.6109  0.6561

 Free energy of the ion-electron system (eV)
  ---------------------------------------------------
  alpha Z        PSCENC =         3.24857844
  Ewald energy   TEWEN  =      -225.91568183
  -Hartree energ DENC   =       -15.53406067
  -exchange      EXHF   =         0.00000000
  -V(xc)+E(xc)   XCENC  =       -19.63603205
  PAW double counting   =       525.12767185     -488.57578818
  entropy T*S    EENTRO =        -0.00003151
  eigenvalues    EBANDS =         4.35312952
  atomic energy  EATOM  =       208.59373829
  Solvation  Ediel_sol  =         0.00000000
  ---------------------------------------------------
  free energy    TOTEN  =        -8.33847614 eV

  energy without entropy =       -8.33844463  energy(sigma->0) =       -8.33846039


--------------------------------------------------------------------------------------------------------




----------------------------------------- Iteration    1(  13)  ---------------------------------------


    POTLOK:  cpu time    1.6520: real time    1.6496
    SETDIJ:  cpu time    0.0080: real time    0.0096
     EDDAV:  cpu time   17.8080: real time   17.8035
       DOS:  cpu time    0.0240: real time    0.0204
    CHARGE:  cpu time    0.1280: real time    0.1311
    MIXING:  cpu time    0.0040: real time    0.0008
    --------------------------------------------
      LOOP:  cpu time   19.6240: real time   19.6842

 eigenvalue-minimisations  : 37360
 total energy-change (2. order) : 0.8877832E-04  (-0.3066174E-06)
 number of electron       7.9999999 magnetization      -0.0000593
 augmentation part       -0.4679012 magnetization      -0.0000608

 Broyden mixing:
  rms(total) = 0.33716E-03    rms(broyden)= 0.33716E-03
  rms(prec ) = 0.39441E-03
  weight for this iteration     100.00

 eigenvalues of (default mixing * dielectric matrix)
  average eigenvalue GAMMA=   1.3882
  2.7296  2.6194  1.8735  1.1203  0.7765  0.7413  0.6226  0.6226

 Free energy of the ion-electron system (eV)
  ---------------------------------------------------
  alpha Z        PSCENC =         3.24857844
  Ewald energy   TEWEN  =      -225.91568183
  -Hartree energ DENC   =       -15.53115196
  -exchange      EXHF   =         0.00000000
  -V(xc)+E(xc)   XCENC  =       -19.63662113
  PAW double counting   =       523.44791801     -486.89569791
  entropy T*S    EENTRO =        -0.00003138
  eigenvalues    EBANDS =         4.35056210
  atomic energy  EATOM  =       208.59373829
  Solvation  Ediel_sol  =         0.00000000
  ---------------------------------------------------
  free energy    TOTEN  =        -8.33838737 eV

  energy without entropy =       -8.33835599  energy(sigma->0) =       -8.33837168


--------------------------------------------------------------------------------------------------------




----------------------------------------- Iteration    1(  14)  ---------------------------------------


    POTLOK:  cpu time    1.6360: real time    1.6359
    SETDIJ:  cpu time    0.0080: real time    0.0096
     EDDAV:  cpu time   18.2560: real time   18.2517
       DOS:  cpu time    0.0240: real time    0.0207
    CHARGE:  cpu time    0.1320: real time    0.1348
    MIXING:  cpu time    0.0000: real time    0.0009
    --------------------------------------------
      LOOP:  cpu time   20.0560: real time   20.1063

 eigenvalue-minimisations  : 37616
 total energy-change (2. order) :-0.4759881E-05  (-0.1670727E-07)
 number of electron       7.9999999 magnetization      -0.0000008
 augmentation part       -0.4678992 magnetization      -0.0000011

 Broyden mixing:
  rms(total) = 0.86158E-04    rms(broyden)= 0.86158E-04
  rms(prec ) = 0.13369E-03
  weight for this iteration     100.00

 eigenvalues of (default mixing * dielectric matrix)
  average eigenvalue GAMMA=   1.3329
  2.8035  2.5041  2.0460  1.0756  0.8474  0.7932  0.6111  0.6335  0.6812

 Free energy of the ion-electron system (eV)
  ---------------------------------------------------
  alpha Z        PSCENC =         3.24857844
  Ewald energy   TEWEN  =      -225.91568183
  -Hartree energ DENC   =       -15.53123919
  -exchange      EXHF   =         0.00000000
  -V(xc)+E(xc)   XCENC  =       -19.63666688
  PAW double counting   =       523.14425537     -486.59205744
  entropy T*S    EENTRO =        -0.00003136
  eigenvalues    EBANDS =         4.35071248
  atomic energy  EATOM  =       208.59373829
  Solvation  Ediel_sol  =         0.00000000
  ---------------------------------------------------
  free energy    TOTEN  =        -8.33839213 eV

  energy without entropy =       -8.33836076  energy(sigma->0) =       -8.33837644


--------------------------------------------------------------------------------------------------------




----------------------------------------- Iteration    1(  15)  ---------------------------------------


    POTLOK:  cpu time    1.6520: real time    1.6496
    SETDIJ:  cpu time    0.0080: real time    0.0094
     EDDAV:  cpu time   16.1240: real time   16.1151
       DOS:  cpu time    0.0200: real time    0.0203
    CHARGE:  cpu time    0.1600: real time    0.1590
    MIXING:  cpu time    0.0000: real time    0.0009
    --------------------------------------------
      LOOP:  cpu time   17.9640: real time   18.0178

 eigenvalue-minimisations  : 34000
 total energy-change (2. order) :-0.1066745E-04  (-0.1149407E-08)
 number of electron       7.9999999 magnetization       0.0000182
 augmentation part       -0.4678975 magnetization       0.0000186

 Broyden mixing:
  rms(total) = 0.48991E-04    rms(broyden)= 0.48991E-04
  rms(prec ) = 0.80155E-04
  weight for this iteration     100.00

 eigenvalues of (default mixing * dielectric matrix)
  average eigenvalue GAMMA=   1.3207
  2.8163  2.4784  2.0520  1.1742  1.1742  0.7982  0.7982  0.6099  0.6713  0.6339

 Free energy of the ion-electron system (eV)
  ---------------------------------------------------
  alpha Z        PSCENC =         3.24857844
  Ewald energy   TEWEN  =      -225.91568183
  -Hartree energ DENC   =       -15.53161921
  -exchange      EXHF   =         0.00000000
  -V(xc)+E(xc)   XCENC  =       -19.63662548
  PAW double counting   =       523.16804264     -486.61588608
  entropy T*S    EENTRO =        -0.00003137
  eigenvalues    EBANDS =         4.35108180
  atomic energy  EATOM  =       208.59373829
  Solvation  Ediel_sol  =         0.00000000
  ---------------------------------------------------
  free energy    TOTEN  =        -8.33840279 eV

  energy without entropy =       -8.33837143  energy(sigma->0) =       -8.33838711


--------------------------------------------------------------------------------------------------------




----------------------------------------- Iteration    1(  16)  ---------------------------------------


    POTLOK:  cpu time    1.6200: real time    1.6191
    SETDIJ:  cpu time    0.0080: real time    0.0069
     EDDAV:  cpu time   17.4120: real time   17.4071
       DOS:  cpu time    0.0200: real time    0.0201
    CHARGE:  cpu time    0.1480: real time    0.1481
    MIXING:  cpu time    0.0000: real time    0.0009
    --------------------------------------------
      LOOP:  cpu time   19.2080: real time   19.4845

 eigenvalue-minimisations  : 35136
 total energy-change (2. order) :-0.7159275E-05  (-0.6398431E-09)
 number of electron       7.9999999 magnetization       0.0000011
 augmentation part       -0.4678969 magnetization       0.0000011

 Broyden mixing:
  rms(total) = 0.12585E-04    rms(broyden)= 0.12585E-04
  rms(prec ) = 0.22961E-04
  weight for this iteration     100.00

 eigenvalues of (default mixing * dielectric matrix)
  average eigenvalue GAMMA=   1.4332
  2.9704  2.6948  2.3978  2.2061  1.0127  1.0127  0.7910  0.7725  0.6667  0.6099
  0.6308

 Free energy of the ion-electron system (eV)
  ---------------------------------------------------
  alpha Z        PSCENC =         3.24857844
  Ewald energy   TEWEN  =      -225.91568183
  -Hartree energ DENC   =       -15.53173996
  -exchange      EXHF   =         0.00000000
  -V(xc)+E(xc)   XCENC  =       -19.63662476
  PAW double counting   =       523.22260479     -486.67046739
  entropy T*S    EENTRO =        -0.00003136
  eigenvalues    EBANDS =         4.35121384
  atomic energy  EATOM  =       208.59373829
  Solvation  Ediel_sol  =         0.00000000
  ---------------------------------------------------
  free energy    TOTEN  =        -8.33840995 eV

  energy without entropy =       -8.33837859  energy(sigma->0) =       -8.33839427


--------------------------------------------------------------------------------------------------------




----------------------------------------- Iteration    1(  17)  ---------------------------------------


    POTLOK:  cpu time    1.6200: real time    1.6194
    SETDIJ:  cpu time    0.0120: real time    0.0093
     EDDAV:  cpu time   13.2160: real time   13.2123
       DOS:  cpu time    0.0200: real time    0.0199
    CHARGE:  cpu time    0.1440: real time    0.1451
    MIXING:  cpu time    0.0000: real time    0.0010
    --------------------------------------------
      LOOP:  cpu time   15.0120: real time   15.0682

 eigenvalue-minimisations  : 25360
 total energy-change (2. order) : 0.7023003E-06  (-0.1644960E-09)
 number of electron       7.9999999 magnetization      -0.0000000
 augmentation part       -0.4678972 magnetization      -0.0000000

 Broyden mixing:
  rms(total) = 0.23070E-05    rms(broyden)= 0.23070E-05
  rms(prec ) = 0.26983E-05
  weight for this iteration     100.00

 eigenvalues of (default mixing * dielectric matrix)
  average eigenvalue GAMMA=   1.3771
  3.0251  2.6993  2.4295  2.1742  1.0135  1.0135  0.7934  0.7754  0.7078  0.6116
  0.6226  0.6588

 Free energy of the ion-electron system (eV)
  ---------------------------------------------------
  alpha Z        PSCENC =         3.24857844
  Ewald energy   TEWEN  =      -225.91568183
  -Hartree energ DENC   =       -15.53167023
  -exchange      EXHF   =         0.00000000
  -V(xc)+E(xc)   XCENC  =       -19.63663859
  PAW double counting   =       523.22506470     -486.67292181
  entropy T*S    EENTRO =        -0.00003136
  eigenvalues    EBANDS =         4.35115314
  atomic energy  EATOM  =       208.59373829
  Solvation  Ediel_sol  =         0.00000000
  ---------------------------------------------------
  free energy    TOTEN  =        -8.33840925 eV

  energy without entropy =       -8.33837789  energy(sigma->0) =       -8.33839357


--------------------------------------------------------------------------------------------------------




----------------------------------------- Iteration    1(  18)  ---------------------------------------


    POTLOK:  cpu time    1.6320: real time    1.6318
    SETDIJ:  cpu time    0.0080: real time    0.0096
     EDDAV:  cpu time   12.4640: real time   12.4593
       DOS:  cpu time    0.0200: real time    0.0200
    --------------------------------------------
      LOOP:  cpu time   14.1280: real time   14.7714

 eigenvalue-minimisations  : 23248
 total energy-change (2. order) : 0.3546302E-07  (-0.1872140E-11)
 number of electron       7.9999999 magnetization      -0.0000000
 augmentation part       -0.4678972 magnetization      -0.0000000

 Free energy of the ion-electron system (eV)
  ---------------------------------------------------
  alpha Z        PSCENC =         3.24857844
  Ewald energy   TEWEN  =      -225.91568183
  -Hartree energ DENC   =       -15.53167614
  -exchange      EXHF   =         0.00000000
  -V(xc)+E(xc)   XCENC  =       -19.63663771
  PAW double counting   =       523.22391258     -486.67176986
  entropy T*S    EENTRO =        -0.00003136
  eigenvalues    EBANDS =         4.35115839
  atomic energy  EATOM  =       208.59373829
  Solvation  Ediel_sol  =         0.00000000
  ---------------------------------------------------
  free energy    TOTEN  =        -8.33840921 eV

  energy without entropy =       -8.33837785  energy(sigma->0) =       -8.33839353


[...]
   70.056584    0.947240    0.947240    0.947240   -0.000000   -0.000000   -0.000000
   70.300683    0.947505    0.947505    0.947505   -0.000000   -0.000000   -0.000000
   70.544783    0.947933    0.947933    0.947933   -0.000000   -0.000000   -0.000000
   70.788882    0.947914    0.947914    0.947914   -0.000000   -0.000000   -0.000000
   71.032982    0.948028    0.948028    0.948028   -0.000000   -0.000000   -0.000000
   71.277082    0.948567    0.948567    0.948567   -0.000000   -0.000000   -0.000000
   71.521181    0.948990    0.948990    0.948990   -0.000000   -0.000000   -0.000000
   71.765281    0.949246    0.949246    0.949246   -0.000000   -0.000000   -0.000000
   72.009380    0.949627    0.949627    0.949627   -0.000000   -0.000000   -0.000000
   72.253480    0.950107    0.950107    0.950107   -0.000000   -0.000000   -0.000000
   72.497580    0.950611    0.950611    0.950611   -0.000000   -0.000000   -0.000000
   72.741679    0.950901    0.950901    0.950901   -0.000000   -0.000000   -0.000000
   72.985779    0.951014    0.951014    0.951014   -0.000000   -0.000000    0.000000
   73.229878    0.951414    0.951414    0.951414   -0.000000   -0.000000    0.000000
   73.473978    0.952057    0.952057    0.952057   -0.000000   -0.000000    0.000000
   73.718078    0.952332    0.952332    0.952332   -0.000000   -0.000000    0.000000
   73.962177    0.952443    0.952443    0.952443   -0.000000   -0.000000   -0.000000
   74.206277    0.952781    0.952781    0.952781   -0.000000   -0.000000   -0.000000
   74.450376    0.953219    0.953219    0.953219   -0.000000   -0.000000    0.000000
   74.694476    0.953417    0.953417    0.953417   -0.000000   -0.000000   -0.000000
   74.938576    0.953762    0.953762    0.953762   -0.000000   -0.000000   -0.000000
   75.182675    0.954154    0.954154    0.954154   -0.000000   -0.000000   -0.000000
   75.426775    0.954545    0.954545    0.954545   -0.000000   -0.000000   -0.000000
   75.670874    0.955000    0.955000    0.955000   -0.000000   -0.000000    0.000000
   75.914974    0.955333    0.955333    0.955333   -0.000000   -0.000000   -0.000000
   76.159074    0.955653    0.955653    0.955653   -0.000000   -0.000000   -0.000000
   76.403173    0.956103    0.956103    0.956103   -0.000000   -0.000000   -0.000000
   76.647273    0.956517    0.956517    0.956517   -0.000000   -0.000000   -0.000000
   76.891372    0.956643    0.956643    0.956643   -0.000000   -0.000000   -0.000000
   77.135472    0.956751    0.956751    0.956751   -0.000000   -0.000000   -0.000000
   77.379571    0.956999    0.956999    0.956999   -0.000000   -0.000000   -0.000000
   77.623671    0.957328    0.957328    0.957328   -0.000000   -0.000000   -0.000000
   77.867771    0.957625    0.957625    0.957625   -0.000000   -0.000000   -0.000000
   78.111870    0.957697    0.957697    0.957697   -0.000000   -0.000000   -0.000000
   78.355970    0.958038    0.958038    0.958038   -0.000000   -0.000000   -0.000000
   78.600069    0.958497    0.958497    0.958497   -0.000000   -0.000000   -0.000000
   78.844169    0.958755    0.958755    0.958755   -0.000000   -0.000000   -0.000000
   79.088269    0.958759    0.958759    0.958759   -0.000000   -0.000000   -0.000000
   79.332368    0.958994    0.958994    0.958994   -0.000000   -0.000000    0.000000
   79.576468    0.959400    0.959400    0.959400   -0.000000   -0.000000    0.000000
   79.820567    0.959773    0.959773    0.959773   -0.000000   -0.000000    0.000000
   80.064667    0.960139    0.960139    0.960139   -0.000000   -0.000000   -0.000000
   80.308767    0.960410    0.960410    0.960410   -0.000000   -0.000000   -0.000000
   80.552866    0.960432    0.960432    0.960432   -0.000000   -0.000000   -0.000000
   80.796966    0.960491    0.960491    0.960491   -0.000000   -0.000000   -0.000000
   81.041065    0.960556    0.960556    0.960556   -0.000000   -0.000000   -0.000000
   81.285165    0.960791    0.960791    0.960791   -0.000000   -0.000000   -0.000000
   81.529265    0.961161    0.961161    0.961161   -0.000000   -0.000000    0.000000
   81.773364    0.961425    0.961425    0.961425   -0.000000   -0.000000    0.000000
   82.017464    0.961745    0.961745    0.961745   -0.000000   -0.000000   -0.000000
   82.261563    0.962076    0.962076    0.962076   -0.000000   -0.000000    0.000000
   82.505663    0.962200    0.962200    0.962200   -0.000000   -0.000000    0.000000
   82.749763    0.962361    0.962361    0.962361   -0.000000   -0.000000    0.000000
   82.993862    0.962659    0.962659    0.962659   -0.000000   -0.000000    0.000000
   83.237962    0.962945    0.962945    0.962945   -0.000000   -0.000000   -0.000000
   83.482061    0.963106    0.963106    0.963106   -0.000000   -0.000000   -0.000000
   83.726161    0.963387    0.963387    0.963387   -0.000000   -0.000000   -0.000000
   83.970261    0.963407    0.963407    0.963407   -0.000000   -0.000000    0.000000
   84.214360    0.963468    0.963468    0.963468   -0.000000   -0.000000    0.000000
   84.458460    0.963740    0.963740    0.963740   -0.000000   -0.000000    0.000000
   84.702559    0.963927    0.963927    0.963927   -0.000000   -0.000000    0.000000
   84.946659    0.964126    0.964126    0.964126   -0.000000   -0.000000    0.000000
   85.190759    0.964282    0.964282    0.964282   -0.000000   -0.000000   -0.000000
   85.434858    0.964580    0.964580    0.964580   -0.000000   -0.000000   -0.000000
   85.678958    0.964780    0.964780    0.964780   -0.000000   -0.000000   -0.000000
   85.923057    0.964718    0.964718    0.964718   -0.000000   -0.000000   -0.000000
   86.167157    0.964860    0.964860    0.964860   -0.000000   -0.000000    0.000000
   86.411256    0.965197    0.965197    0.965197   -0.000000   -0.000000   -0.000000
   86.655356    0.965424    0.965424    0.965424   -0.000000   -0.000000   -0.000000
   86.899456    0.965556    0.965556    0.965556   -0.000000   -0.000000   -0.000000
   87.143555    0.965702    0.965702    0.965702   -0.000000   -0.000000   -0.000000
   87.387655    0.965918    0.965918    0.965918   -0.000000   -0.000000   -0.000000
   87.631754    0.965965    0.965965    0.965965   -0.000000   -0.000000   -0.000000
   87.875854    0.966227    0.966227    0.966227   -0.000000   -0.000000   -0.000000
   88.119954    0.966462    0.966462    0.966462   -0.000000   -0.000000   -0.000000
   88.364053    0.966575    0.966575    0.966575   -0.000000   -0.000000   -0.000000
   88.608153    0.966709    0.966709    0.966709   -0.000000   -0.000000   -0.000000
   88.852252    0.966901    0.966901    0.966901   -0.000000   -0.000000   -0.000000
   89.096352    0.967019    0.967019    0.967019   -0.000000   -0.000000   -0.000000
   89.340452    0.967103    0.967103    0.967103   -0.000000   -0.000000   -0.000000
   89.584551    0.967357    0.967357    0.967357   -0.000000   -0.000000   -0.000000
   89.828651    0.967519    0.967519    0.967519   -0.000000   -0.000000   -0.000000
   90.072750    0.967580    0.967580    0.967580   -0.000000   -0.000000   -0.000000
   90.316850    0.967690    0.967690    0.967690   -0.000000   -0.000000   -0.000000
   90.560950    0.967850    0.967850    0.967850   -0.000000   -0.000000   -0.000000
   90.805049    0.967893    0.967893    0.967893   -0.000000   -0.000000   -0.000000
   91.049149    0.968037    0.968037    0.968037   -0.000000   -0.000000   -0.000000
   91.293248    0.968233    0.968233    0.968233   -0.000000   -0.000000   -0.000000
   91.537348    0.968480    0.968480    0.968480   -0.000000   -0.000000   -0.000000
   91.781448    0.968718    0.968718    0.968718   -0.000000   -0.000000   -0.000000
   92.025547    0.968783    0.968783    0.968783   -0.000000   -0.000000   -0.000000
   92.269647    0.968964    0.968964    0.968964   -0.000000   -0.000000   -0.000000
   92.513746    0.969190    0.969190    0.969190   -0.000000   -0.000000   -0.000000
   92.757846    0.969348    0.969348    0.969348   -0.000000   -0.000000   -0.000000
   93.001946    0.969560    0.969560    0.969560   -0.000000   -0.000000   -0.000000
   93.246045    0.969743    0.969743    0.969743   -0.000000   -0.000000    0.000000
   93.490145    0.969858    0.969858    0.969858   -0.000000   -0.000000    0.000000
   93.734244    0.969971    0.969971    0.969971   -0.000000   -0.000000   -0.000000
   93.978344    0.970116    0.970116    0.970116   -0.000000   -0.000000   -0.000000
   94.222444    0.970303    0.970303    0.970303   -0.000000   -0.000000   -0.000000
   94.466543    0.970494    0.970494    0.970494   -0.000000   -0.000000   -0.000000
   94.710643    0.970679    0.970679    0.970679   -0.000000   -0.000000   -0.000000
   94.954742    0.970852    0.970852    0.970852   -0.000000   -0.000000   -0.000000
   95.198842    0.970992    0.970992    0.970992   -0.000000   -0.000000   -0.000000
   95.442941    0.971119    0.971119    0.971119   -0.000000   -0.000000   -0.000000
   95.687041    0.971261    0.971261    0.971261   -0.000000   -0.000000   -0.000000
   95.931141    0.971446    0.971446    0.971446   -0.000000   -0.000000   -0.000000
   96.175240    0.971622    0.971622    0.971622   -0.000000   -0.000000   -0.000000
   96.419340    0.971780    0.971780    0.971780   -0.000000   -0.000000   -0.000000
   96.663439    0.971954    0.971954    0.971954   -0.000000   -0.000000   -0.000000
   96.907539    0.972094    0.972094    0.972094   -0.000000   -0.000000   -0.000000
   97.151639    0.972221    0.972221    0.972221   -0.000000   -0.000000   -0.000000
   97.395738    0.972406    0.972406    0.972406   -0.000000   -0.000000   -0.000000
   97.639838    0.972548    0.972548    0.972548   -0.000000   -0.000000   -0.000000
   97.883937    0.972655    0.972655    0.972655   -0.000000   -0.000000   -0.000000
   98.128037    0.972820    0.972820    0.972820   -0.000000   -0.000000   -0.000000
   98.372137    0.972971    0.972971    0.972971   -0.000000   -0.000000   -0.000000
   98.616236    0.973087    0.973087    0.973087   -0.000000   -0.000000   -0.000000
   98.860336    0.973206    0.973206    0.973206   -0.000000   -0.000000   -0.000000
   99.104435    0.973357    0.973357    0.973357   -0.000000   -0.000000   -0.000000
   99.348535    0.973536    0.973536    0.973536   -0.000000   -0.000000   -0.000000
   99.592635    0.973707    0.973707    0.973707   -0.000000   -0.000000   -0.000000
   99.836734    0.973867    0.973867    0.973867   -0.000000   -0.000000   -0.000000
  100.080834    0.974022    0.974022    0.974022   -0.000000   -0.000000   -0.000000
  100.324933    0.974173    0.974173    0.974173   -0.000000   -0.000000   -0.000000
  100.569033    0.974319    0.974319    0.974319   -0.000000   -0.000000   -0.000000
  100.813133    0.974463    0.974463    0.974463   -0.000000   -0.000000   -0.000000
  101.057232    0.974604    0.974604    0.974604   -0.000000   -0.000000   -0.000000
  101.301332    0.974742    0.974742    0.974742   -0.000000   -0.000000   -0.000000
  101.545431    0.974879    0.974879    0.974879   -0.000000   -0.000000   -0.000000
  101.789531    0.975013    0.975013    0.975013   -0.000000   -0.000000   -0.000000
  102.033631    0.975146    0.975146    0.975146   -0.000000   -0.000000   -0.000000
  102.277730    0.975277    0.975277    0.975277   -0.000000   -0.000000   -0.000000
  102.521830    0.975407    0.975407    0.975407   -0.000000   -0.000000   -0.000000
  102.765929    0.975535    0.975535    0.975535   -0.000000   -0.000000   -0.000000
  103.010029    0.975662    0.975662    0.975662   -0.000000   -0.000000   -0.000000
  103.254129    0.975787    0.975787    0.975787   -0.000000   -0.000000   -0.000000
  103.498228    0.975912    0.975912    0.975912   -0.000000   -0.000000   -0.000000
  103.742328    0.976034    0.976034    0.976034   -0.000000   -0.000000   -0.000000
  103.986427    0.976156    0.976156    0.976156   -0.000000   -0.000000   -0.000000
  104.230527    0.976277    0.976277    0.976277   -0.000000   -0.000000   -0.000000
  104.474626    0.976396    0.976396    0.976396   -0.000000   -0.000000   -0.000000
  104.718726    0.976514    0.976514    0.976514   -0.000000   -0.000000   -0.000000
  104.962826    0.976631    0.976631    0.976631   -0.000000   -0.000000   -0.000000
  105.206925    0.976748    0.976748    0.976748   -0.000000   -0.000000   -0.000000
  105.451025    0.976863    0.976863    0.976863   -0.000000   -0.000000   -0.000000
  105.695124    0.976977    0.976977    0.976977   -0.000000   -0.000000   -0.000000
  105.939224    0.977090    0.977090    0.977090   -0.000000   -0.000000   -0.000000
  106.183324    0.977202    0.977202    0.977202   -0.000000   -0.000000   -0.000000
  106.427423    0.977313    0.977313    0.977313   -0.000000   -0.000000   -0.000000
  106.671523    0.977423    0.977423    0.977423   -0.000000   -0.000000   -0.000000
  106.915622    0.977532    0.977532    0.977532   -0.000000   -0.000000   -0.000000
  107.159722    0.977641    0.977641    0.977641   -0.000000   -0.000000   -0.000000
  107.403822    0.977748    0.977748    0.977748   -0.000000   -0.000000   -0.000000
  107.647921    0.977855    0.977855    0.977855   -0.000000   -0.000000   -0.000000
  107.892021    0.977961    0.977961    0.977961   -0.000000   -0.000000   -0.000000
  108.136120    0.978066    0.978066    0.978066   -0.000000   -0.000000   -0.000000
  108.380220    0.978170    0.978170    0.978170   -0.000000   -0.000000   -0.000000
  108.624320    0.978273    0.978273    0.978273   -0.000000   -0.000000   -0.000000
  108.868419    0.978375    0.978375    0.978375   -0.000000   -0.000000   -0.000000
  109.112519    0.978477    0.978477    0.978477   -0.000000   -0.000000   -0.000000
  109.356618    0.978578    0.978578    0.978578   -0.000000   -0.000000   -0.000000
  109.600718    0.978678    0.978678    0.978678   -0.000000   -0.000000   -0.000000
  109.844818    0.978777    0.978777    0.978777   -0.000000   -0.000000   -0.000000
  110.088917    0.978876    0.978876    0.978876   -0.000000   -0.000000   -0.000000
  110.333017    0.978974    0.978974    0.978974   -0.000000   -0.000000   -0.000000
  110.577116    0.979071    0.979071    0.979071   -0.000000   -0.000000   -0.000000
  110.821216    0.979167    0.979167    0.979167   -0.000000   -0.000000   -0.000000
  111.065316    0.979263    0.979263    0.979263   -0.000000   -0.000000   -0.000000
  111.309415    0.979358    0.979358    0.979358   -0.000000   -0.000000   -0.000000
  111.553515    0.979452    0.979452    0.979452   -0.000000   -0.000000   -0.000000
  111.797614    0.979545    0.979545    0.979545   -0.000000   -0.000000   -0.000000
  112.041714    0.979638    0.979638    0.979638   -0.000000   -0.000000   -0.000000
  112.285814    0.979731    0.979731    0.979731   -0.000000   -0.000000   -0.000000
  112.529913    0.979822    0.979822    0.979822   -0.000000   -0.000000   -0.000000
  112.774013    0.979913    0.979913    0.979913   -0.000000   -0.000000   -0.000000
  113.018112    0.980003    0.980003    0.980003   -0.000000   -0.000000   -0.000000
  113.262212    0.980093    0.980093    0.980093   -0.000000   -0.000000   -0.000000
  113.506311    0.980182    0.980182    0.980182   -0.000000   -0.000000   -0.000000
  113.750411    0.980270    0.980270    0.980270   -0.000000   -0.000000   -0.000000
  113.994511    0.980357    0.980357    0.980357   -0.000000   -0.000000   -0.000000
  114.238610    0.980445    0.980445    0.980445   -0.000000   -0.000000   -0.000000
  114.482710    0.980531    0.980531    0.980531   -0.000000   -0.000000   -0.000000
  114.726809    0.980617    0.980617    0.980617   -0.000000   -0.000000   -0.000000
  114.970909    0.980702    0.980702    0.980702   -0.000000   -0.000000   -0.000000
  115.215009    0.980787    0.980787    0.980787   -0.000000   -0.000000   -0.000000
  115.459108    0.980871    0.980871    0.980871   -0.000000   -0.000000   -0.000000
  115.703208    0.980954    0.980954    0.980954   -0.000000   -0.000000   -0.000000
  115.947307    0.981037    0.981037    0.981037   -0.000000   -0.000000   -0.000000
  116.191407    0.981120    0.981120    0.981120   -0.000000   -0.000000   -0.000000
  116.435507    0.981201    0.981201    0.981201   -0.000000   -0.000000   -0.000000
  116.679606    0.981283    0.981283    0.981283   -0.000000   -0.000000   -0.000000
  116.923706    0.981363    0.981363    0.981363   -0.000000   -0.000000   -0.000000
  117.167805    0.981444    0.981444    0.981444   -0.000000   -0.000000   -0.000000
  117.411905    0.981523    0.981523    0.981523   -0.000000   -0.000000   -0.000000
  117.656005    0.981602    0.981602    0.981602   -0.000000   -0.000000   -0.000000
  117.900104    0.981681    0.981681    0.981681   -0.000000   -0.000000   -0.000000
  118.144204    0.981759    0.981759    0.981759   -0.000000   -0.000000   -0.000000
  118.388303    0.981836    0.981836    0.981836   -0.000000   -0.000000   -0.000000
  118.632403    0.981913    0.981913    0.981913   -0.000000   -0.000000   -0.000000
  118.876503    0.981990    0.981990    0.981990   -0.000000   -0.000000   -0.000000
  119.120602    0.982066    0.982066    0.982066   -0.000000   -0.000000   -0.000000
  119.364702    0.982141    0.982141    0.982141   -0.000000   -0.000000   -0.000000
  119.608801    0.982216    0.982216    0.982216   -0.000000   -0.000000   -0.000000
  119.852901    0.982291    0.982291    0.982291   -0.000000   -0.000000   -0.000000
  120.097001    0.982365    0.982365    0.982365   -0.000000   -0.000000   -0.000000
  120.341100    0.982438    0.982438    0.982438   -0.000000   -0.000000   -0.000000
  120.585200    0.982511    0.982511    0.982511   -0.000000   -0.000000   -0.000000
  120.829299    0.982584    0.982584    0.982584   -0.000000   -0.000000   -0.000000
  121.073399    0.982656    0.982656    0.982656   -0.000000   -0.000000   -0.000000
  121.317499    0.982728    0.982728    0.982728   -0.000000   -0.000000   -0.000000
  121.561598    0.982799    0.982799    0.982799   -0.000000   -0.000000   -0.000000
  121.805698    0.982870    0.982870    0.982870   -0.000000   -0.000000   -0.000000

 The outermost node in the dielectric function lies at epsilon=  16.5


--------------------------------------------------------------------------------------------------------


    OPTICS:  cpu time   46.3920: real time   81.5128
    4ORBIT:  cpu time    0.0000: real time    0.0000



 total charge     

# of ion     s       p       d       tot
----------------------------------------
  1        0.733   0.909   0.000   1.642
  2        0.733   0.909   0.000   1.642
------------------------------------------------
tot        1.466   1.818   0.000   3.284



 magnetization (x)

# of ion     s       p       d       tot
----------------------------------------
  1       -0.000  -0.000   0.000  -0.000
  2       -0.000  -0.000   0.000  -0.000
------------------------------------------------
tot       -0.000  -0.000   0.000  -0.000


 total amount of memory used by VASP on root node    56582. kBytes
========================================================================

   base      :      30000. kBytes
   nonl-proj :       5797. kBytes
   fftplans  :        517. kBytes
   grid      :       2709. kBytes
   one-center:         12. kBytes
   wavefun   :      17547. kBytes

  
  
 General timing and accounting informations for this job:
 ========================================================
  
                  Total CPU time used (sec):      398.244
                            User time (sec):      391.460
                          System time (sec):        6.784
                         Elapsed time (sec):      439.508
  
                   Maximum memory used (kb):      164012.
                   Average memory used (kb):           0.
  
                          Minor page faults:      5354163
                          Major page faults:            5
                 Voluntary context switches:         2993
