   2   2   0   0
  0.2044415E+02  0.3866974E-09  0.3866975E-09  0.3866975E-09  0.5000000E-15
  1.000000000000000E-004
  CAR 
 unknown system                          
     17.59020351     -8.14121296  301      5.98230231      1.00000000
     -8.141  0.0000E+00  0.0000E+00
     -8.055  0.0000E+00  0.0000E+00
     -7.970  0.0000E+00  0.0000E+00
     -7.884  0.0000E+00  0.0000E+00
     -7.798  0.0000E+00  0.0000E+00
     -7.712  0.0000E+00  0.0000E+00
     -7.627  0.0000E+00  0.0000E+00
     -7.541  0.0000E+00  0.0000E+00
     -7.455  0.0000E+00  0.0000E+00
     -7.369  0.0000E+00  0.0000E+00
     -7.283  0.3596E-16  0.3084E-17
     -7.198  0.4273E-14  0.3696E-15
     -7.112  0.3566E-12  0.3096E-13
     -7.026  0.2073E-10  0.1809E-11
     -6.940  0.8389E-09  0.7376E-10
     -6.855  0.2366E-07  0.2103E-08
     -6.769  0.4651E-06  0.4200E-07
     -6.683  0.6379E-05  0.5891E-06
     -6.597  0.6108E-04  0.5828E-05
     -6.512  0.4086E-03  0.4087E-04
     -6.426  0.1912E-02  0.2048E-03
     -6.340  0.6278E-02  0.7433E-03
     -6.254  0.1465E-01  0.2000E-02
     -6.168  0.2557E-01  0.4193E-02
     -6.083  0.3932E-01  0.7566E-02
     -5.997  0.6915E-01  0.1350E-01
     -5.911  0.1367E+00  0.2522E-01
     -5.825  0.2374E+00  0.4558E-01
     -5.740  0.3184E+00  0.7290E-01
     -5.654  0.3209E+00  0.1004E+00
     -5.568  0.2464E+00  0.1216E+00
     -5.482  0.1622E+00  0.1355E+00
     -5.397  0.1426E+00  0.1477E+00
     -5.311  0.2074E+00  0.1655E+00
     -5.225  0.3029E+00  0.1915E+00
     -5.139  0.3651E+00  0.2228E+00
     -5.053  0.4220E+00  0.2590E+00
     -4.968  0.5608E+00  0.3071E+00
     -4.882  0.7499E+00  0.3714E+00
     -4.796  0.8112E+00  0.4410E+00
     -4.710  0.6476E+00  0.4965E+00
     -4.625  0.3754E+00  0.5287E+00
     -4.539  0.1703E+00  0.5433E+00
     -4.453  0.1024E+00  0.5521E+00
     -4.367  0.1555E+00  0.5655E+00
     -4.282  0.3044E+00  0.5916E+00
     -4.196  0.5332E+00  0.6373E+00
     -4.110  0.8052E+00  0.7064E+00
     -4.024  0.1049E+01  0.7964E+00
     -3.938  0.1205E+01  0.8998E+00
     -3.853  0.1252E+01  0.1007E+01
     -3.767  0.1185E+01  0.1109E+01
     -3.681  0.9940E+00  0.1194E+01
     -3.595  0.6998E+00  0.1254E+01
     -3.510  0.3949E+00  0.1288E+01
     -3.424  0.2048E+00  0.1305E+01
     -3.338  0.2047E+00  0.1323E+01
     -3.252  0.3983E+00  0.1357E+01
     -3.166  0.7201E+00  0.1419E+01
     -3.081  0.1045E+01  0.1509E+01
     -2.995  0.1238E+01  0.1615E+01
     -2.909  0.1191E+01  0.1717E+01
     -2.823  0.8963E+00  0.1794E+01
     -2.738  0.5046E+00  0.1837E+01
     -2.652  0.2058E+00  0.1855E+01
     -2.566  0.5995E-01  0.1860E+01
     -2.480  0.1399E-01  0.1861E+01
     -2.395  0.1216E-01  0.1862E+01
     -2.309  0.4502E-01  0.1866E+01
     -2.223  0.1425E+00  0.1878E+01
     -2.137  0.3346E+00  0.1907E+01
     -2.051  0.5785E+00  0.1957E+01
     -1.966  0.7306E+00  0.2019E+01
     -1.880  0.6677E+00  0.2077E+01
     -1.794  0.4375E+00  0.2114E+01
     -1.708  0.2041E+00  0.2132E+01
     -1.623  0.6842E-01  0.2137E+01
     -1.537  0.2326E-01  0.2139E+01
     -1.451  0.4027E-01  0.2143E+01
     -1.365  0.1368E+00  0.2155E+01
     -1.280  0.3637E+00  0.2186E+01
     -1.194  0.7218E+00  0.2248E+01
     -1.108  0.1106E+01  0.2343E+01
     -1.022  0.1397E+01  0.2462E+01
     -0.936  0.1563E+01  0.2596E+01
     -0.851  0.1558E+01  0.2730E+01
     -0.765  0.1284E+01  0.2840E+01
     -0.679  0.8114E+00  0.2910E+01
     -0.593  0.3973E+00  0.2944E+01
     -0.508  0.2271E+00  0.2963E+01
     -0.422  0.3035E+00  0.2989E+01
     -0.336  0.5039E+00  0.3033E+01
     -0.250  0.6530E+00  0.3089E+01
     -0.164  0.6667E+00  0.3146E+01
     -0.079  0.6391E+00  0.3201E+01
      0.007  0.6659E+00  0.3258E+01
      0.093  0.6734E+00  0.3315E+01
      0.179  0.5663E+00  0.3364E+01
      0.264  0.4070E+00  0.3399E+01
      0.350  0.3055E+00  0.3425E+01
      0.436  0.2661E+00  0.3448E+01
      0.522  0.2410E+00  0.3469E+01
      0.607  0.2173E+00  0.3487E+01
      0.693  0.1913E+00  0.3504E+01
      0.779  0.1470E+00  0.3516E+01
      0.865  0.9370E-01  0.3524E+01
      0.951  0.7714E-01  0.3531E+01
      1.036  0.1565E+00  0.3544E+01
      1.122  0.3717E+00  0.3576E+01
      1.208  0.6697E+00  0.3634E+01
      1.294  0.8732E+00  0.3709E+01
      1.379  0.8339E+00  0.3780E+01
      1.465  0.6248E+00  0.3834E+01
      1.551  0.4766E+00  0.3875E+01
      1.637  0.5242E+00  0.3919E+01
      1.722  0.6889E+00  0.3979E+01
      1.808  0.8427E+00  0.4051E+01
      1.894  0.1033E+01  0.4139E+01
      1.980  0.1398E+01  0.4259E+01
      2.066  0.1842E+01  0.4417E+01
      2.151  0.1994E+01  0.4588E+01
      2.237  0.1632E+01  0.4728E+01
      2.323  0.9933E+00  0.4814E+01
      2.409  0.5044E+00  0.4857E+01
      2.494  0.3716E+00  0.4889E+01
      2.580  0.5264E+00  0.4934E+01
      2.666  0.7944E+00  0.5002E+01
      2.752  0.1075E+01  0.5094E+01
      2.838  0.1375E+01  0.5212E+01
      2.923  0.1642E+01  0.5353E+01
      3.009  0.1750E+01  0.5503E+01
      3.095  0.1721E+01  0.5651E+01
      3.181  0.1715E+01  0.5798E+01
      3.266  0.1770E+01  0.5949E+01
      3.352  0.1764E+01  0.6101E+01
      3.438  0.1638E+01  0.6241E+01
      3.524  0.1487E+01  0.6369E+01
      3.609  0.1415E+01  0.6490E+01
      3.695  0.1418E+01  0.6612E+01
      3.781  0.1469E+01  0.6738E+01
      3.867  0.1520E+01  0.6868E+01
      3.953  0.1422E+01  0.6990E+01
      4.038  0.1090E+01  0.7084E+01
      4.124  0.7136E+00  0.7145E+01
      4.210  0.5850E+00  0.7195E+01
      4.296  0.7691E+00  0.7261E+01
      4.381  0.1055E+01  0.7351E+01
      4.467  0.1184E+01  0.7453E+01
      4.553  0.1083E+01  0.7546E+01
      4.639  0.8493E+00  0.7619E+01
      4.724  0.5876E+00  0.7669E+01
      4.810  0.3744E+00  0.7701E+01
      4.896  0.2931E+00  0.7726E+01
      4.982  0.3810E+00  0.7759E+01
      5.068  0.5585E+00  0.7807E+01
      5.153  0.6655E+00  0.7864E+01
      5.239  0.5966E+00  0.7915E+01
      5.325  0.3992E+00  0.7949E+01
      5.411  0.2094E+00  0.7967E+01
      5.496  0.1110E+00  0.7977E+01
      5.582  0.8658E-01  0.7984E+01
      5.668  0.7895E-01  0.7991E+01
      5.754  0.5796E-01  0.7996E+01
      5.840  0.3057E-01  0.7999E+01
      5.925  0.1156E-01  0.8000E+01
      6.011  0.4894E-02  0.8000E+01
      6.097  0.1151E-01  0.8001E+01
      6.183  0.4310E-01  0.8005E+01
      6.268  0.1183E+00  0.8015E+01
      6.354  0.2299E+00  0.8035E+01
      6.440  0.3260E+00  0.8063E+01
      6.526  0.3739E+00  0.8095E+01
      6.611  0.4291E+00  0.8132E+01
      6.697  0.5450E+00  0.8178E+01
      6.783  0.6384E+00  0.8233E+01
      6.869  0.5836E+00  0.8283E+01
      6.955  0.4156E+00  0.8319E+01
      7.040  0.3014E+00  0.8345E+01
      7.126  0.3440E+00  0.8374E+01
      7.212  0.5043E+00  0.8417E+01
      7.298  0.6684E+00  0.8475E+01
      7.383  0.7639E+00  0.8540E+01
      7.469  0.8516E+00  0.8613E+01
      7.555  0.1055E+01  0.8704E+01
      7.641  0.1328E+01  0.8818E+01
      7.726  0.1422E+01  0.8940E+01
      7.812  0.1222E+01  0.9044E+01
      7.898  0.9407E+00  0.9125E+01
      7.984  0.8310E+00  0.9196E+01
      8.070  0.8948E+00  0.9273E+01
      8.155  0.1005E+01  0.9359E+01
      8.241  0.1172E+01  0.9460E+01
      8.327  0.1486E+01  0.9587E+01
      8.413  0.1823E+01  0.9744E+01
      8.498  0.1890E+01  0.9906E+01
      8.584  0.1604E+01  0.1004E+02
      8.670  0.1204E+01  0.1015E+02
      8.756  0.9697E+00  0.1023E+02
      8.842  0.1002E+01  0.1032E+02
      8.927  0.1251E+01  0.1042E+02
      9.013  0.1609E+01  0.1056E+02
      9.099  0.1939E+01  0.1073E+02
      9.185  0.2096E+01  0.1091E+02
      9.270  0.2012E+01  0.1108E+02
      9.356  0.1772E+01  0.1123E+02
      9.442  0.1548E+01  0.1136E+02
      9.528  0.1537E+01  0.1150E+02
      9.613  0.1894E+01  0.1166E+02
      9.699  0.2510E+01  0.1187E+02
      9.785  0.2965E+01  0.1213E+02
      9.871  0.2919E+01  0.1238E+02
      9.957  0.2434E+01  0.1259E+02
     10.042  0.1871E+01  0.1275E+02
     10.128  0.1522E+01  0.1288E+02
     10.214  0.1349E+01  0.1299E+02
     10.300  0.1126E+01  0.1309E+02
     10.385  0.7944E+00  0.1316E+02
     10.471  0.5248E+00  0.1320E+02
     10.557  0.4758E+00  0.1324E+02
     10.643  0.5914E+00  0.1330E+02
     10.728  0.6713E+00  0.1335E+02
     10.814  0.6066E+00  0.1341E+02
     10.900  0.4654E+00  0.1345E+02
     10.986  0.3500E+00  0.1348E+02
     11.072  0.3045E+00  0.1350E+02
     11.157  0.3446E+00  0.1353E+02
     11.243  0.4475E+00  0.1357E+02
     11.329  0.5379E+00  0.1362E+02
     11.415  0.5596E+00  0.1366E+02
     11.500  0.5469E+00  0.1371E+02
     11.586  0.5839E+00  0.1376E+02
     11.672  0.6772E+00  0.1382E+02
     11.758  0.7471E+00  0.1388E+02
     11.844  0.8143E+00  0.1395E+02
     11.929  0.1029E+01  0.1404E+02
     12.015  0.1385E+01  0.1416E+02
     12.101  0.1612E+01  0.1430E+02
     12.187  0.1526E+01  0.1443E+02
     12.272  0.1267E+01  0.1454E+02
     12.358  0.1060E+01  0.1463E+02
     12.444  0.9934E+00  0.1471E+02
     12.530  0.1078E+01  0.1481E+02
     12.615  0.1263E+01  0.1491E+02
     12.701  0.1448E+01  0.1504E+02
     12.787  0.1605E+01  0.1518E+02
     12.873  0.1764E+01  0.1533E+02
     12.959  0.1850E+01  0.1549E+02
     13.044  0.1703E+01  0.1563E+02
     13.130  0.1280E+01  0.1574E+02
     13.216  0.7801E+00  0.1581E+02
     13.302  0.4572E+00  0.1585E+02
     13.387  0.3517E+00  0.1588E+02
     13.473  0.3186E+00  0.1591E+02
     13.559  0.2436E+00  0.1593E+02
     13.645  0.1371E+00  0.1594E+02
     13.730  0.5505E-01  0.1594E+02
     13.816  0.1564E-01  0.1594E+02
     13.902  0.3132E-02  0.1594E+02
     13.988  0.4414E-03  0.1594E+02
     14.074  0.4370E-04  0.1594E+02
     14.159  0.3034E-05  0.1594E+02
     14.245  0.1474E-06  0.1594E+02
     14.331  0.5008E-08  0.1594E+02
     14.417  0.1188E-09  0.1594E+02
     14.502  0.1970E-11  0.1594E+02
     14.588  0.4675E-12  0.1594E+02
     14.674  0.2951E-10  0.1594E+02
     14.760  0.1363E-08  0.1594E+02
     14.846  0.4383E-07  0.1594E+02
     14.931  0.9827E-06  0.1594E+02
     15.017  0.1537E-04  0.1594E+02
     15.103  0.1677E-03  0.1594E+02
     15.189  0.1278E-02  0.1594E+02
     15.274  0.6807E-02  0.1595E+02
     15.360  0.2534E-01  0.1595E+02
     15.446  0.6601E-01  0.1595E+02
     15.532  0.1203E+00  0.1596E+02
     15.617  0.1534E+00  0.1598E+02
     15.703  0.1370E+00  0.1599E+02
     15.789  0.8561E-01  0.1600E+02
     15.875  0.3744E-01  0.1600E+02
     15.961  0.1145E-01  0.1600E+02
     16.046  0.2451E-02  0.1600E+02
     16.132  0.3664E-03  0.1600E+02
     16.218  0.3827E-04  0.1600E+02
     16.304  0.2791E-05  0.1600E+02
     16.389  0.1419E-06  0.1600E+02
     16.475  0.5033E-08  0.1600E+02
     16.561  0.1244E-09  0.1600E+02
     16.647  0.2140E-11  0.1600E+02
     16.732  0.2567E-13  0.1600E+02
     16.818  0.2157E-15  0.1600E+02
     16.904  0.0000E+00  0.1600E+02
     16.990  0.0000E+00  0.1600E+02
     17.076  0.0000E+00  0.1600E+02
     17.161  0.0000E+00  0.1600E+02
     17.247  0.0000E+00  0.1600E+02
     17.333  0.0000E+00  0.1600E+02
     17.419  0.0000E+00  0.1600E+02
     17.504  0.0000E+00  0.1600E+02
     17.590  0.0000E+00  0.1600E+02
