 running on   16 total cores
 distrk:  each k-point on   16 cores,    1 groups
 distr:  one band on    4 cores,    4 groups
 using from now: INCAR     
 vasp.5.3.3 18Dez12 (build Jan 30 2013 10:57:47) complex                        
  
 POSCAR found type information on POSCAR  Si
 POSCAR found :  1 types and       2 ions

 ----------------------------------------------------------------------------- 
|                                                                             |
|  ADVICE TO THIS USER RUNNING 'VASP/VAMP'   (HEAR YOUR MASTER'S VOICE ...):  |
|                                                                             |
|      You have switched on vdW-DFT.                                          |
|      This routine was written and supplied by Jiri Klimes.                  |
|      We recommed that you carefully read and cite the following             |
|      publication                                                            |
|      J. Klimes, D.R. Bowler, A. Michelides                                  |
|        J. Phys.: Cond Matt. 22 022201 (2010)                                |
|      J. Klimes, D.R. Bowler, A. Michelides                                  |
|        Phys. Rev. B. 83, 195131 (2011)                                      |
|      and references therein.                                                |
|                                                                             |
 ----------------------------------------------------------------------------- 


 ----------------------------------------------------------------------------- 
|                                                                             |
|  ADVICE TO THIS USER RUNNING 'VASP/VAMP'   (HEAR YOUR MASTER'S VOICE ...):  |
|                                                                             |
|      You enforced a specific xc-type in the INCAR file,                     |
|      a different type was found on the POTCAR file                          |
|          I HOPE YOU KNOW, WHAT YOU ARE  DOING                               |
|                                                                             |
 ----------------------------------------------------------------------------- 

 LDA part: xc-table for Pade appr. of Perdew
 POSCAR, INCAR and KPOINTS ok, starting setup
 FFT: planning ...
 WAVECAR not read
 entering main loop
       N       E                     dE             d eps       ncg     rms          rms(c)
Total vdW correction in eV:      1.0792472
DAV:   1     0.707240311218E+01    0.70724E+01   -0.33470E+03   256   0.845E+02
DAV:   2    -0.816837930134E+01   -0.15241E+02   -0.14406E+02   392   0.753E+01
DAV:   3    -0.839537622146E+01   -0.22700E+00   -0.22700E+00   384   0.120E+01
DAV:   4    -0.839587517306E+01   -0.49895E-03   -0.49895E-03   384   0.541E-01
DAV:   5    -0.839587623191E+01   -0.10588E-05   -0.10591E-05   360   0.230E-02    0.376E+00
Total vdW correction in eV:      1.1280316
DAV:   6    -0.834055838091E+01    0.55318E-01   -0.90108E-02   312   0.177E+00    0.231E+00
Total vdW correction in eV:      1.2212566
DAV:   7    -0.833414688986E+01    0.64115E-02   -0.20688E-01   328   0.266E+00    0.187E-01
Total vdW correction in eV:      1.2164085
DAV:   8    -0.831715690061E+01    0.16990E-01   -0.63966E-03   280   0.559E-01    0.992E-02
Total vdW correction in eV:      1.2219781
DAV:   9    -0.831886731507E+01   -0.17104E-02   -0.61963E-04   360   0.167E-01    0.752E-02
Total vdW correction in eV:      1.2221209
DAV:  10    -0.831817077431E+01    0.69654E-03   -0.42833E-05   304   0.566E-02    0.373E-02
Total vdW correction in eV:      1.2221162
DAV:  11    -0.831815269364E+01    0.18081E-04   -0.14016E-06   376   0.110E-02    0.306E-03
Total vdW correction in eV:      1.2221414
DAV:  12    -0.831815113300E+01    0.15606E-05   -0.61323E-08   320   0.238E-03    0.134E-03
Total vdW correction in eV:      1.2221466
DAV:  13    -0.831814875408E+01    0.23789E-05   -0.28515E-09   208   0.508E-04    0.545E-05
Total vdW correction in eV:      1.2221474
DAV:  14    -0.831814867766E+01    0.76417E-07   -0.21251E-10   168   0.154E-04
Total vdW correction in eV:      1.2221471
Total vdW correction in eV:      1.2221471
   1 F= -.83181487E+01 E0= -.83181045E+01  d E =-.831815E+01
 curvature:   0.00 expect dE= 0.000E+00 dE for cont linesearch  0.000E+00
 trial: gam= 0.00000 g(F)=  0.269E-43 g(S)=  0.000E+00 ort = 0.000E+00 (trialstep = 0.100E+01)
 search vector abs. value=  0.100E-09
 reached required accuracy - stopping structural energy minimisation
