   2   2   0   0
  0.2072484E+02  0.3884592E-09  0.3884592E-09  0.3884592E-09  0.5000000E-15
   1.0000000000000000E-004
  CAR 
 unknown system                          
     30.89431809     -7.43984718  301      7.38469330      1.00000000
     -7.440  0.0000E+00  0.0000E+00
     -7.312  0.0000E+00  0.0000E+00
     -7.184  0.0000E+00  0.0000E+00
     -7.057  0.0000E+00  0.0000E+00
     -6.929  0.0000E+00  0.0000E+00
     -6.801  0.0000E+00  0.0000E+00
     -6.673  0.0000E+00  0.0000E+00
     -6.545  0.4257E-13  0.5440E-14
     -6.418  0.3689E-10  0.4719E-11
     -6.290  0.1446E-07  0.1853E-08
     -6.162  0.2551E-05  0.3279E-06
     -6.034  0.2034E-03  0.2632E-04
     -5.906  0.7371E-02  0.9682E-03
     -5.779  0.1221E+00  0.1657E-01
     -5.651  0.9312E+00  0.1356E+00
     -5.523  0.3289E+01  0.5559E+00
     -5.395  0.5408E+01  0.1247E+01
     -5.268  0.4147E+01  0.1777E+01
     -5.140  0.1482E+01  0.1966E+01
     -5.012  0.2456E+00  0.1998E+01
     -4.884  0.1878E-01  0.2000E+01
     -4.756  0.6576E-03  0.2000E+01
     -4.629  0.1049E-04  0.2000E+01
     -4.501  0.7568E-07  0.2000E+01
     -4.373  0.2461E-09  0.2000E+01
     -4.245  0.3597E-12  0.2000E+01
     -4.118  0.0000E+00  0.2000E+01
     -3.990  0.0000E+00  0.2000E+01
     -3.862  0.0000E+00  0.2000E+01
     -3.734  0.0000E+00  0.2000E+01
     -3.606  0.0000E+00  0.2000E+01
     -3.479  0.0000E+00  0.2000E+01
     -3.351  0.0000E+00  0.2000E+01
     -3.223  0.0000E+00  0.2000E+01
     -3.095  0.0000E+00  0.2000E+01
     -2.968  0.0000E+00  0.2000E+01
     -2.840  0.0000E+00  0.2000E+01
     -2.712  0.0000E+00  0.2000E+01
     -2.584  0.0000E+00  0.2000E+01
     -2.456  0.0000E+00  0.2000E+01
     -2.329  0.0000E+00  0.2000E+01
     -2.201  0.0000E+00  0.2000E+01
     -2.073  0.0000E+00  0.2000E+01
     -1.945  0.0000E+00  0.2000E+01
     -1.818  0.0000E+00  0.2000E+01
     -1.690  0.0000E+00  0.2000E+01
     -1.562  0.0000E+00  0.2000E+01
     -1.434  0.0000E+00  0.2000E+01
     -1.306  0.0000E+00  0.2000E+01
     -1.179  0.0000E+00  0.2000E+01
     -1.051  0.0000E+00  0.2000E+01
     -0.923  0.0000E+00  0.2000E+01
     -0.795  0.0000E+00  0.2000E+01
     -0.667  0.0000E+00  0.2000E+01
     -0.540  0.0000E+00  0.2000E+01
     -0.412  0.0000E+00  0.2000E+01
     -0.284  0.0000E+00  0.2000E+01
     -0.156  0.0000E+00  0.2000E+01
     -0.029  0.0000E+00  0.2000E+01
      0.099  0.0000E+00  0.2000E+01
      0.227  0.0000E+00  0.2000E+01
      0.355  0.0000E+00  0.2000E+01
      0.483  0.0000E+00  0.2000E+01
      0.610  0.0000E+00  0.2000E+01
      0.738  0.0000E+00  0.2000E+01
      0.866  0.0000E+00  0.2000E+01
      0.994  0.0000E+00  0.2000E+01
      1.121  0.0000E+00  0.2000E+01
      1.249  0.0000E+00  0.2000E+01
      1.377  0.0000E+00  0.2000E+01
      1.505  0.0000E+00  0.2000E+01
      1.633  0.0000E+00  0.2000E+01
      1.760  0.0000E+00  0.2000E+01
      1.888  0.0000E+00  0.2000E+01
      2.016  0.0000E+00  0.2000E+01
      2.144  0.0000E+00  0.2000E+01
      2.271  0.0000E+00  0.2000E+01
      2.399  0.0000E+00  0.2000E+01
      2.527  0.0000E+00  0.2000E+01
      2.655  0.0000E+00  0.2000E+01
      2.783  0.0000E+00  0.2000E+01
      2.910  0.0000E+00  0.2000E+01
      3.038  0.0000E+00  0.2000E+01
      3.166  0.0000E+00  0.2000E+01
      3.294  0.0000E+00  0.2000E+01
      3.421  0.0000E+00  0.2000E+01
      3.549  0.0000E+00  0.2000E+01
      3.677  0.0000E+00  0.2000E+01
      3.805  0.0000E+00  0.2000E+01
      3.933  0.0000E+00  0.2000E+01
      4.060  0.0000E+00  0.2000E+01
      4.188  0.0000E+00  0.2000E+01
      4.316  0.0000E+00  0.2000E+01
      4.444  0.0000E+00  0.2000E+01
      4.572  0.0000E+00  0.2000E+01
      4.699  0.0000E+00  0.2000E+01
      4.827  0.0000E+00  0.2000E+01
      4.955  0.0000E+00  0.2000E+01
      5.083  0.0000E+00  0.2000E+01
      5.210  0.2607E-14  0.2000E+01
      5.338  0.1999E-11  0.2000E+01
      5.466  0.1274E-08  0.2000E+01
      5.594  0.3648E-06  0.2000E+01
      5.722  0.4707E-04  0.2000E+01
      5.849  0.2750E-02  0.2000E+01
      5.977  0.7320E-01  0.2010E+01
      6.105  0.8931E+00  0.2124E+01
      6.233  0.5029E+01  0.2766E+01
      6.360  0.1314E+02  0.4446E+01
      6.488  0.1601E+02  0.6491E+01
      6.616  0.9093E+01  0.7653E+01
      6.744  0.2403E+01  0.7960E+01
      6.872  0.2941E+00  0.7998E+01
      6.999  0.1655E-01  0.8000E+01
      7.127  0.4258E-03  0.8000E+01
      7.255  0.4974E-05  0.8000E+01
      7.383  0.2625E-07  0.8000E+01
      7.510  0.6234E-10  0.8000E+01
      7.638  0.9384E-13  0.8000E+01
      7.766  0.3164E-10  0.8000E+01
      7.894  0.1449E-07  0.8000E+01
      8.022  0.2984E-05  0.8000E+01
      8.149  0.2775E-03  0.8000E+01
      8.277  0.1171E-01  0.8002E+01
      8.405  0.2258E+00  0.8030E+01
      8.533  0.2000E+01  0.8286E+01
      8.661  0.8201E+01  0.9334E+01
      8.788  0.1564E+02  0.1133E+02
      8.916  0.1390E+02  0.1311E+02
      9.044  0.5763E+01  0.1385E+02
      9.172  0.1113E+01  0.1399E+02
      9.299  0.1749E+00  0.1401E+02
      9.427  0.6772E+00  0.1410E+02
      9.555  0.2749E+01  0.1445E+02
      9.683  0.5220E+01  0.1511E+02
      9.811  0.4622E+01  0.1571E+02
      9.938  0.1908E+01  0.1595E+02
     10.066  0.3658E+00  0.1600E+02
     10.194  0.3238E-01  0.1600E+02
     10.322  0.1315E-02  0.1600E+02
     10.449  0.2434E-04  0.1600E+02
     10.577  0.2041E-06  0.1600E+02
     10.705  0.7719E-09  0.1600E+02
     10.833  0.1312E-11  0.1600E+02
     10.961  0.0000E+00  0.1600E+02
     11.088  0.0000E+00  0.1600E+02
     11.216  0.0000E+00  0.1600E+02
     11.344  0.0000E+00  0.1600E+02
     11.472  0.0000E+00  0.1600E+02
     11.599  0.0000E+00  0.1600E+02
     11.727  0.0000E+00  0.1600E+02
     11.855  0.0000E+00  0.1600E+02
     11.983  0.0000E+00  0.1600E+02
     12.111  0.0000E+00  0.1600E+02
     12.238  0.2607E-14  0.1600E+02
     12.366  0.3511E-11  0.1600E+02
     12.494  0.1837E-08  0.1600E+02
     12.622  0.4322E-06  0.1600E+02
     12.749  0.4588E-04  0.1600E+02
     12.877  0.2209E-02  0.1600E+02
     13.005  0.4851E-01  0.1601E+02
     13.133  0.4898E+00  0.1607E+02
     13.261  0.2306E+01  0.1636E+02
     13.388  0.5319E+01  0.1704E+02
     13.516  0.7506E+01  0.1800E+02
     13.644  0.1003E+02  0.1928E+02
     13.772  0.1142E+02  0.2074E+02
     13.900  0.7268E+01  0.2167E+02
     14.027  0.2226E+01  0.2196E+02
     14.155  0.3177E+00  0.2200E+02
     14.283  0.2090E-01  0.2200E+02
     14.411  0.6290E-03  0.2200E+02
     14.538  0.8610E-05  0.2200E+02
     14.666  0.5330E-07  0.2200E+02
     14.794  0.1485E-09  0.2200E+02
     14.922  0.1877E-12  0.2200E+02
     15.050  0.0000E+00  0.2200E+02
     15.177  0.0000E+00  0.2200E+02
     15.305  0.0000E+00  0.2200E+02
     15.433  0.0000E+00  0.2200E+02
     15.561  0.0000E+00  0.2200E+02
     15.688  0.2346E-13  0.2200E+02
     15.816  0.2408E-10  0.2200E+02
     15.944  0.1140E-07  0.2200E+02
     16.072  0.2428E-05  0.2200E+02
     16.200  0.2334E-03  0.2200E+02
     16.327  0.1018E-01  0.2200E+02
     16.455  0.2027E+00  0.2203E+02
     16.583  0.1855E+01  0.2226E+02
     16.711  0.7852E+01  0.2327E+02
     16.838  0.1546E+02  0.2524E+02
     16.966  0.1419E+02  0.2706E+02
     17.094  0.6070E+01  0.2783E+02
     17.222  0.1207E+01  0.2799E+02
     17.350  0.1108E+00  0.2800E+02
     17.477  0.4668E-02  0.2800E+02
     17.605  0.8965E-04  0.2800E+02
     17.733  0.7804E-06  0.2800E+02
     17.861  0.3064E-08  0.2800E+02
     17.988  0.5406E-11  0.2800E+02
     18.116  0.5213E-14  0.2800E+02
     18.244  0.0000E+00  0.2800E+02
     18.372  0.0000E+00  0.2800E+02
     18.500  0.0000E+00  0.2800E+02
     18.627  0.0000E+00  0.2800E+02
     18.755  0.0000E+00  0.2800E+02
     18.883  0.0000E+00  0.2800E+02
     19.011  0.0000E+00  0.2800E+02
     19.139  0.0000E+00  0.2800E+02
     19.266  0.0000E+00  0.2800E+02
     19.394  0.0000E+00  0.2800E+02
     19.522  0.2607E-14  0.2800E+02
     19.650  0.3071E-11  0.2800E+02
     19.777  0.1633E-08  0.2800E+02
     19.905  0.3904E-06  0.2800E+02
     20.033  0.4211E-04  0.2800E+02
     20.161  0.2059E-02  0.2800E+02
     20.289  0.4593E-01  0.2801E+02
     20.416  0.4704E+00  0.2807E+02
     20.544  0.2226E+01  0.2835E+02
     20.672  0.4896E+01  0.2898E+02
     20.800  0.5020E+01  0.2962E+02
     20.927  0.2400E+01  0.2992E+02
     21.055  0.5334E+00  0.2999E+02
     21.183  0.5481E-01  0.3000E+02
     21.311  0.2587E-02  0.3000E+02
     21.439  0.5571E-04  0.3000E+02
     21.566  0.5442E-06  0.3000E+02
     21.694  0.2399E-08  0.3000E+02
     21.822  0.4754E-11  0.3000E+02
     21.950  0.3475E-14  0.3000E+02
     22.077  0.0000E+00  0.3000E+02
     22.205  0.0000E+00  0.3000E+02
     22.333  0.0000E+00  0.3000E+02
     22.461  0.0000E+00  0.3000E+02
     22.589  0.0000E+00  0.3000E+02
     22.716  0.0000E+00  0.3000E+02
     22.844  0.0000E+00  0.3000E+02
     22.972  0.0000E+00  0.3000E+02
     23.100  0.0000E+00  0.3000E+02
     23.227  0.0000E+00  0.3000E+02
     23.355  0.0000E+00  0.3000E+02
     23.483  0.0000E+00  0.3000E+02
     23.611  0.0000E+00  0.3000E+02
     23.739  0.0000E+00  0.3000E+02
     23.866  0.0000E+00  0.3000E+02
     23.994  0.0000E+00  0.3000E+02
     24.122  0.0000E+00  0.3000E+02
     24.250  0.0000E+00  0.3000E+02
     24.378  0.0000E+00  0.3000E+02
     24.505  0.0000E+00  0.3000E+02
     24.633  0.0000E+00  0.3000E+02
     24.761  0.0000E+00  0.3000E+02
     24.889  0.0000E+00  0.3000E+02
     25.016  0.0000E+00  0.3000E+02
     25.144  0.0000E+00  0.3000E+02
     25.272  0.0000E+00  0.3000E+02
     25.400  0.0000E+00  0.3000E+02
     25.528  0.0000E+00  0.3000E+02
     25.655  0.0000E+00  0.3000E+02
     25.783  0.0000E+00  0.3000E+02
     25.911  0.0000E+00  0.3000E+02
     26.039  0.0000E+00  0.3000E+02
     26.166  0.0000E+00  0.3000E+02
     26.294  0.0000E+00  0.3000E+02
     26.422  0.0000E+00  0.3000E+02
     26.550  0.0000E+00  0.3000E+02
     26.678  0.0000E+00  0.3000E+02
     26.805  0.0000E+00  0.3000E+02
     26.933  0.0000E+00  0.3000E+02
     27.061  0.0000E+00  0.3000E+02
     27.189  0.0000E+00  0.3000E+02
     27.316  0.0000E+00  0.3000E+02
     27.444  0.0000E+00  0.3000E+02
     27.572  0.0000E+00  0.3000E+02
     27.700  0.0000E+00  0.3000E+02
     27.828  0.3597E-12  0.3000E+02
     27.955  0.2461E-09  0.3000E+02
     28.083  0.7568E-07  0.3000E+02
     28.211  0.1049E-04  0.3000E+02
     28.339  0.6576E-03  0.3000E+02
     28.466  0.1878E-01  0.3000E+02
     28.594  0.2456E+00  0.3003E+02
     28.722  0.1482E+01  0.3022E+02
     28.850  0.4147E+01  0.3075E+02
     28.978  0.5408E+01  0.3144E+02
     29.105  0.3289E+01  0.3186E+02
     29.233  0.9312E+00  0.3198E+02
     29.361  0.1221E+00  0.3200E+02
     29.489  0.7371E-02  0.3200E+02
     29.617  0.2034E-03  0.3200E+02
     29.744  0.2551E-05  0.3200E+02
     29.872  0.1446E-07  0.3200E+02
     30.000  0.3689E-10  0.3200E+02
     30.128  0.4170E-13  0.3200E+02
     30.255  0.0000E+00  0.3200E+02
     30.383  0.0000E+00  0.3200E+02
     30.511  0.0000E+00  0.3200E+02
     30.639  0.0000E+00  0.3200E+02
     30.767  0.0000E+00  0.3200E+02
     30.894  0.0000E+00  0.3200E+02
