    2    2    1    1
  0.2072484E+02  0.3884592E-09  0.3884592E-09  0.3884592E-09  0.5000000E-15
   1.0000000000000000E-004
  CAR 
 unknown system                          
      8      1     16

  0.1262379E-14  0.1262379E-14  0.1262379E-14  0.1000000E+01
    1       -5.439847   1.000000
    2        6.393494   1.000000
    3        6.393494   1.000000
    4        6.393494   1.000000
    5        8.768603   0.000000
    6        8.768603   0.000000
    7        8.768603   0.000000
    8        9.662387   0.000000
    9       13.390018   0.000000
   10       13.702563   0.000000
   11       13.702563   0.000000
   12       16.824104   0.000000
   13       16.824104   0.000000
   14       16.824104   0.000000
   15       20.676074   0.000000
   16       28.894318   0.000000
