Automatically generated mesh
       1
Reciprocal lattice
    0.00000000000000    0.00000000000000    0.00000000000000             1
