       N       E                     dE             d eps       ncg     rms          rms(c)
DAV:   1     0.218123276829E+02    0.21812E+02   -0.40427E+03    32   0.397E+02
DAV:   2     0.739159266482E+01   -0.14421E+02   -0.14421E+02    48   0.405E+01
DAV:   3     0.725391036927E+01   -0.13768E+00   -0.13768E+00    48   0.475E+00
DAV:   4     0.725387923977E+01   -0.31129E-04   -0.31129E-04    64   0.887E-02
DAV:   5     0.725387923937E+01   -0.39893E-09   -0.39713E-09    32   0.333E-04    0.730E+00
DAV:   6     0.774611726191E+01    0.49224E+00   -0.37487E-01    32   0.177E+00    0.455E+00
DAV:   7     0.807492600806E+01    0.32881E+00   -0.13279E+00    32   0.338E+00    0.469E-01
DAV:   8     0.809955554294E+01    0.24630E-01   -0.29203E-02    32   0.547E-01    0.311E-01
DAV:   9     0.810360985870E+01    0.40543E-02   -0.85382E-03    64   0.323E-01    0.153E-01
DAV:  10     0.810432340456E+01    0.71355E-03   -0.19495E-05    32   0.247E-02    0.188E-01
DAV:  11     0.810232338570E+01   -0.20000E-02   -0.71918E-05    32   0.345E-02    0.135E-02
DAV:  12     0.810269096670E+01    0.36758E-03   -0.23162E-06    64   0.495E-03    0.526E-03
DAV:  13     0.810266555538E+01   -0.25411E-04   -0.16374E-07    32   0.237E-03    0.537E-04
DAV:  14     0.810266271295E+01   -0.28424E-05   -0.25686E-09    64   0.238E-04    0.605E-04
DAV:  15     0.810266522761E+01    0.25147E-05   -0.11497E-09    48   0.180E-04    0.537E-05
DAV:  16     0.810266555270E+01    0.32509E-06   -0.15987E-12    16   0.189E-05    0.188E-05
DAV:  17     0.810266559865E+01    0.45944E-07    0.38192E-12    16   0.111E-05
   1 F= 0.81026656E+01 E0= 0.81026656E+01  d E =0.810267E+01
