 vasp.5.4.1 24Jun15 (build Feb  9 2019 14:16:27) complex                         
 executed on           IFC91_ompi date 2020.09.26  22:26:48
 running on   16 total cores
 distrk:  each k-point on   16 cores,    1 groups
 distr:  one band on NCORES_PER_BAND=   1 cores,   16 groups


--------------------------------------------------------------------------------------------------------


 INCAR:
 POTCAR:    PAW_PBE Si 05Jan2001                  

 ----------------------------------------------------------------------------- 
|                                                                             |
|           W    W    AA    RRRRR   N    N  II  N    N   GGGG   !!!           |
|           W    W   A  A   R    R  NN   N  II  NN   N  G    G  !!!           |
|           W    W  A    A  R    R  N N  N  II  N N  N  G       !!!           |
|           W WW W  AAAAAA  RRRRR   N  N N  II  N  N N  G  GGG   !            |
|           WW  WW  A    A  R   R   N   NN  II  N   NN  G    G                |
|           W    W  A    A  R    R  N    N  II  N    N   GGGG   !!!           |
|                                                                             |
|      For optimal performance we recommend to set                            |
|        NCORE= 4 - approx SQRT( number of cores)                             |
|      NCORE specifies how many cores store one orbital (NPAR=cpu/NCORE).     |
|      This setting can  greatly improve the performance of VASP for DFT.     |
|      The default, NPAR=number of cores might be grossly inefficient         |
|      on modern multi-core architectures or massively parallel machines.     |
|      Do your own testing !!!!                                               |
|      Unfortunately you need to use the default for GW and RPA calculations. |
|      (for HF NCORE is supported but not extensively tested yet)             |
|                                                                             |
 ----------------------------------------------------------------------------- 


 ----------------------------------------------------------------------------- 
|                                                                             |
|  ADVICE TO THIS USER RUNNING 'VASP/VAMP'   (HEAR YOUR MASTER'S VOICE ...):  |
|                                                                             |
|      You have switched on vdW-DFT.                                          |
|      This routine was written and supplied by Jiri Klimes.                  |
|      We recommed that you carefully read and cite the following             |
|      publication                                                            |
|      J. Klimes, D.R. Bowler, A. Michelides                                  |
|        J. Phys.: Cond Matt. 22 022201 (2010)                                |
|      J. Klimes, D.R. Bowler, A. Michelides                                  |
|        Phys. Rev. B. 83, 195131 (2011)                                      |
|      and references therein.                                                |
|                                                                             |
 ----------------------------------------------------------------------------- 

 POTCAR:    PAW_PBE Si 05Jan2001                  
   VRHFIN =Si: s2p2                                                             
   LEXCH  = PE                                                                  
   EATOM  =   103.0669 eV,    7.5752 Ry                                         
                                                                                
   TITEL  = PAW_PBE Si 05Jan2001                                                
   LULTRA =        F    use ultrasoft PP ?                                      
   IUNSCR =        1    unscreen: 0-lin 1-nonlin 2-no                           
   RPACOR =    1.500    partial core radius                                     
   POMASS =   28.085; ZVAL   =    4.000    mass and valenz                      
   RCORE  =    1.900    outmost cutoff radius                                   
   RWIGS  =    2.480; RWIGS  =    1.312    wigner-seitz radius (au A)           
   ENMAX  =  245.345; ENMIN  =  184.009 eV                                      
   ICORE  =        2    local potential                                         
   LCOR   =        T    correct aug charges                                     
   LPAW   =        T    paw PP                                                  
   EAUG   =  322.069                                                            
   DEXC   =    0.000                                                            
   RMAX   =    1.950    core radius for proj-oper                               
   RAUG   =    1.300    factor for augmentation sphere                          
   RDEP   =    1.993    radius for radial grids                                 
   RDEPT  =    1.837    core radius for aug-charge                              
                                                                                
   Atomic configuration                                                         
    6 entries                                                                   
     n  l   j            E        occ.                                          
     1  0  0.50     -1785.8828   2.0000                                         
     2  0  0.50      -139.4969   2.0000                                         
     2  1  1.50       -95.5546   6.0000                                         
     3  0  0.50       -10.8127   2.0000                                         
     3  1  0.50        -4.0811   2.0000                                         
     3  2  1.50        -4.0817   0.0000                                         
   Description                                                                  
     l       E           TYP  RCUT    TYP  RCUT                                 
     0    -10.8127223     23  1.900                                             
     0     -7.6451159     23  1.900                                             
     1     -4.0811372     23  1.900                                             
     1      2.4879257     23  1.900                                             
     2     -4.0817478      7  1.900                                             
  local pseudopotential read in
  partial core-charges read in
  partial kinetic energy density read in
  atomic valenz-charges read in
  non local Contribution for L=           0  read in
    real space projection operators read in
  non local Contribution for L=           0  read in
    real space projection operators read in
  non local Contribution for L=           1  read in
    real space projection operators read in
  non local Contribution for L=           1  read in
    real space projection operators read in
    PAW grid and wavefunctions read in

   number of l-projection  operators is LMAX  =           4
   number of lm-projection operators is LMMAX =           8


 ----------------------------------------------------------------------------- 
|                                                                             |
|  ADVICE TO THIS USER RUNNING 'VASP/VAMP'   (HEAR YOUR MASTER'S VOICE ...):  |
|                                                                             |
|      You enforced a specific xc-type in the INCAR file,                     |
|      a different type was found on the POTCAR file                          |
|          I HOPE YOU KNOW, WHAT YOU ARE  DOING                               |
|                                                                             |
 ----------------------------------------------------------------------------- 

  PAW_PBE Si 05Jan2001                  :
 energy of atom  1       EATOM= -103.0669
 kinetic energy error for atom=    0.0006 (will be added to EATOM!!)


 POSCAR: bulk@JVASP-1002                         
  positions in direct lattice
  No initial velocities read in
 exchange correlation table for  LEXCH =       42
   RHO(1)=    0.500       N(1)  =     2000
   RHO(2)=  100.500       N(2)  =     4000



--------------------------------------------------------------------------------------------------------


 ion  position               nearest neighbor table
   1  0.750  0.750  0.750-   2 2.38   2 2.38   2 2.38   2 2.38
   2  0.500  0.500  0.500-   1 2.38   1 2.38   1 2.38   1 2.38

  LATTYP: Found a face centered cubic cell.
 ALAT       =     5.4936422752
  
  Lattice vectors:
  
 A1 = (   0.0000000000,   2.7468211376,   2.7468211376)
 A2 = (   2.7468211376,   0.0000000000,   2.7468211376)
 A3 = (   2.7468211376,   2.7468211376,   0.0000000000)


Analysis of symmetry for initial positions (statically):
=====================================================================
 Subroutine PRICEL returns:
 Original cell was already a primitive cell.
 

 Routine SETGRP: Setting up the symmetry group for a 
 face centered cubic supercell.


 Subroutine GETGRP returns: Found 48 space group operations
 (whereof 24 operations were pure point group operations)
 out of a pool of 48 trial point group operations.


The static configuration has the point symmetry T_d .
 The point group associated with its full space group is O_h .


Analysis of symmetry for dynamics (positions and initial velocities):
=====================================================================
 Subroutine PRICEL returns:
 Original cell was already a primitive cell.
 

 Routine SETGRP: Setting up the symmetry group for a 
 face centered cubic supercell.


 Subroutine GETGRP returns: Found 48 space group operations
 (whereof 24 operations were pure point group operations)
 out of a pool of 48 trial point group operations.


The dynamic configuration has the point symmetry T_d .
 The point group associated with its full space group is O_h .


 KPOINTS: Automatic kpoint scheme                 

Automatic generation of k-mesh.
Space group operators:
 irot       det(A)        alpha          n_x          n_y          n_z        tau_x        tau_y        tau_z
    1     1.000000     0.000000     1.000000     0.000000     0.000000     0.000000     0.000000     0.000000
    2     1.000000   120.000000    -0.577350    -0.577350    -0.577350     0.000000     0.000000     0.000000
    3     1.000000   120.000000     0.577350     0.577350     0.577350     0.000000     0.000000     0.000000
    4    -1.000000    90.000000     0.000000     0.000000    -1.000000     0.000000     0.000000     0.000000
    5    -1.000000   180.000000     0.000000     0.707107     0.707107     0.000000     0.000000     0.000000
    6    -1.000000    90.000000     0.000000     1.000000     0.000000     0.000000     0.000000     0.000000
    7     1.000000   180.000000     0.000000     0.000000     1.000000     0.000000     0.000000     0.000000
    8     1.000000   120.000000    -0.577350     0.577350     0.577350     0.000000     0.000000     0.000000
    9     1.000000   120.000000    -0.577350     0.577350    -0.577350     0.000000     0.000000     0.000000
   10    -1.000000    90.000000     0.000000     0.000000     1.000000     0.000000     0.000000     0.000000
   11    -1.000000    90.000000    -1.000000     0.000000     0.000000     0.000000     0.000000     0.000000
   12    -1.000000   180.000000     0.707107     0.000000     0.707107     0.000000     0.000000     0.000000
   13     1.000000   120.000000     0.577350    -0.577350     0.577350     0.000000     0.000000     0.000000
   14     1.000000   120.000000    -0.577350    -0.577350     0.577350     0.000000     0.000000     0.000000
   15     1.000000   180.000000     1.000000     0.000000     0.000000     0.000000     0.000000     0.000000
   16    -1.000000    90.000000     0.000000    -1.000000     0.000000     0.000000     0.000000     0.000000
   17    -1.000000   180.000000     0.707107     0.707107     0.000000     0.000000     0.000000     0.000000
   18    -1.000000    90.000000     1.000000     0.000000     0.000000     0.000000     0.000000     0.000000
   19     1.000000   120.000000     0.577350    -0.577350    -0.577350     0.000000     0.000000     0.000000
   20     1.000000   180.000000     0.000000     1.000000     0.000000     0.000000     0.000000     0.000000
   21     1.000000   120.000000     0.577350     0.577350    -0.577350     0.000000     0.000000     0.000000
   22    -1.000000   180.000000     0.000000    -0.707107     0.707107     0.000000     0.000000     0.000000
   23    -1.000000   180.000000     0.707107    -0.707107     0.000000     0.000000     0.000000     0.000000
   24    -1.000000   180.000000     0.707107     0.000000    -0.707107     0.000000     0.000000     0.000000
   25    -1.000000     0.000000     1.000000     0.000000     0.000000     0.250000     0.250000     0.250000
   26    -1.000000   120.000000    -0.577350    -0.577350    -0.577350     0.250000     0.250000     0.250000
   27    -1.000000   120.000000     0.577350     0.577350     0.577350     0.250000     0.250000     0.250000
   28     1.000000    90.000000     0.000000     0.000000    -1.000000     0.250000     0.250000     0.250000
   29     1.000000   180.000000     0.000000     0.707107     0.707107     0.250000     0.250000     0.250000
   30     1.000000    90.000000     0.000000     1.000000     0.000000     0.250000     0.250000     0.250000
   31    -1.000000   180.000000     0.000000     0.000000     1.000000     0.250000     0.250000     0.250000
   32    -1.000000   120.000000    -0.577350     0.577350     0.577350     0.250000     0.250000     0.250000
   33    -1.000000   120.000000    -0.577350     0.577350    -0.577350     0.250000     0.250000     0.250000
   34     1.000000    90.000000     0.000000     0.000000     1.000000     0.250000     0.250000     0.250000
   35     1.000000    90.000000    -1.000000     0.000000     0.000000     0.250000     0.250000     0.250000
   36     1.000000   180.000000     0.707107     0.000000     0.707107     0.250000     0.250000     0.250000
   37    -1.000000   120.000000     0.577350    -0.577350     0.577350     0.250000     0.250000     0.250000
   38    -1.000000   120.000000    -0.577350    -0.577350     0.577350     0.250000     0.250000     0.250000
   39    -1.000000   180.000000     1.000000     0.000000     0.000000     0.250000     0.250000     0.250000
   40     1.000000    90.000000     0.000000    -1.000000     0.000000     0.250000     0.250000     0.250000
   41     1.000000   180.000000     0.707107     0.707107     0.000000     0.250000     0.250000     0.250000
   42     1.000000    90.000000     1.000000     0.000000     0.000000     0.250000     0.250000     0.250000
   43    -1.000000   120.000000     0.577350    -0.577350    -0.577350     0.250000     0.250000     0.250000
   44    -1.000000   180.000000     0.000000     1.000000     0.000000     0.250000     0.250000     0.250000
   45    -1.000000   120.000000     0.577350     0.577350    -0.577350     0.250000     0.250000     0.250000
   46     1.000000   180.000000     0.000000    -0.707107     0.707107     0.250000     0.250000     0.250000
   47     1.000000   180.000000     0.707107    -0.707107     0.000000     0.250000     0.250000     0.250000
   48     1.000000   180.000000     0.707107     0.000000    -0.707107     0.250000     0.250000     0.250000
 
 Subroutine IBZKPT returns following result:
 ===========================================
 
 Found      1 irreducible k-points:
 
 Following reciprocal coordinates:
            Coordinates               Weight
  0.000000  0.000000  0.000000      1.000000
 
 Following cartesian coordinates:
            Coordinates               Weight
  0.000000  0.000000  0.000000      1.000000
 


--------------------------------------------------------------------------------------------------------




 Dimension of arrays:
   k-points           NKPTS =        1   k-points in BZ     NKDIM =        1   number of bands    NBANDS=     16
   number of dos      NEDOS =    301   number of ions     NIONS =      2
   non local maximal  LDIM  =      4   non local SUM 2l+1 LMDIM =      8
   total plane-waves  NPLWV =  21952
   max r-space proj   IRMAX =      1   max aug-charges    IRDMAX=  17905
   dimension x,y,z NGX =    28 NGY =   28 NGZ =   28
   dimension x,y,z NGXF=    56 NGYF=   56 NGZF=   56
   support grid    NGXF=    56 NGYF=   56 NGZF=   56
   ions per type =               2
 NGX,Y,Z   is equivalent  to a cutoff of  11.98, 11.98, 11.98 a.u.
 NGXF,Y,Z  is equivalent  to a cutoff of  23.97, 23.97, 23.97 a.u.


 I would recommend the setting:
   dimension x,y,z NGX =    28 NGY =   28 NGZ =   28
 SYSTEM =  unknown system                          
 POSCAR =  bulk@JVASP-1002                         

 Startparameter for this run:
   NWRITE =      2    write-flag & timer
   PREC   = accura    normal or accurate (medium, high low for compatibility)
   ISTART =      0    job   : 0-new  1-cont  2-samecut
   ICHARG =      2    charge: 1-file 2-atom 10-const
   ISPIN  =      1    spin polarized calculation?
   LNONCOLLINEAR =      F non collinear calculations
   LSORBIT =      F    spin-orbit coupling
   INIWAV =      1    electr: 0-lowe 1-rand  2-diag
   LASPH  =      F    aspherical Exc in radial PAW
   METAGGA=      F    non-selfconsistent MetaGGA calc.

 Electronic Relaxation 1
   ENCUT  =  500.0 eV  36.75 Ry    6.06 a.u.   7.08  7.08  7.08*2*pi/ulx,y,z
   ENINI  =  500.0     initial cutoff
   ENAUG  =  322.1 eV  augmentation charge cutoff
   NELM   =    400;   NELMIN=  2; NELMDL= -5     # of ELM steps 
   EDIFF  = 0.1E-06   stopping-criterion for ELM
   LREAL  =      F    real-space projection
   NLSPLINE    = F    spline interpolate recip. space projectors
   LCOMPAT=      F    compatible to vasp.4.4
   GGA_COMPAT  = T    GGA compatible to vasp.4.4-vasp.4.6
   LMAXPAW     = -100 max onsite density
   LMAXMIX     =    2 max onsite mixed and CHGCAR
   VOSKOWN=      0    Vosko Wilk Nusair interpolation
   ROPT   =    0.00000
 Ionic relaxation
   EDIFFG = 0.1E-05   stopping-criterion for IOM
   NSW    =      1    number of steps for IOM
   NBLOCK =      1;   KBLOCK =      1    inner block; outer block 
   IBRION =      2    ionic relax: 0-MD 1-quasi-New 2-CG
   NFREE  =      1    steps in history (QN), initial steepest desc. (CG)
   ISIF   =      2    stress and relaxation
   IWAVPR =     11    prediction:  0-non 1-charg 2-wave 3-comb
   ISYM   =      2    0-nonsym 1-usesym 2-fastsym
   LCORR  =      T    Harris-Foulkes like correction to forces

   POTIM  = 0.5000    time-step for ionic-motion
   TEIN   =    0.0    initial temperature
   TEBEG  =    0.0;   TEEND  =   0.0 temperature during run
   SMASS  =  -3.00    Nose mass-parameter (am)
   estimated Nose-frequenzy (Omega)   =  0.10E-29 period in steps =****** mass=  -0.345E-27a.u.
   SCALEE = 1.0000    scale energy and forces
   NPACO  =    256;   APACO  = 16.0  distance and # of slots for P.C.
   PSTRESS=    0.0 pullay stress

  Mass of Ions in am
   POMASS =  28.09
  Ionic Valenz
   ZVAL   =   4.00
  Atomic Wigner-Seitz radii
   RWIGS  =  -1.00
  virtual crystal weights 
   VCA    =   1.00
   NELECT =       8.0000    total number of electrons
   NUPDOWN=      -1.0000    fix difference up-down

 DOS related values:
   EMIN   =  10.00;   EMAX   =-10.00  energy-range for DOS
   EFERMI =   0.00
   ISMEAR =     0;   SIGMA  =   0.20  broadening in eV -4-tet -1-fermi 0-gaus

 Electronic relaxation 2 (details)
   IALGO  =     38    algorithm
   LDIAG  =      T    sub-space diagonalisation (order eigenvalues)
   LSUBROT=      F    optimize rotation matrix (better conditioning)
   TURBO    =      0    0=normal 1=particle mesh
   IRESTART =      0    0=no restart 2=restart with 2 vectors
   NREBOOT  =      0    no. of reboots
   NMIN     =      0    reboot dimension
   EREF     =   0.00    reference energy to select bands
   IMIX   =      4    mixing-type and parameters
     AMIX     =   0.40;   BMIX     =  1.00
     AMIX_MAG =   1.60;   BMIX_MAG =  1.00
     AMIN     =   0.10
     WC   =   100.;   INIMIX=   1;  MIXPRE=   1;  MAXMIX= -45

 Intra band minimization:
   WEIMIN = 0.0010     energy-eigenvalue tresh-hold
   EBREAK =  0.16E-08  absolut break condition
   DEPER  =   0.30     relativ break condition  

   TIME   =   0.40     timestep for ELM

  volume/ion in A,a.u.               =      20.72       139.86
  Fermi-wavevector in a.u.,A,eV,Ry     =   0.946087  1.787845 12.178313  0.895081
  Thomas-Fermi vector in A             =   2.074051

 Write flags
   LWAVE  =      F    write WAVECAR
   LCHARG =      F    write CHGCAR
   LVTOT  =      F    write LOCPOT, total local potential
   LVHAR  =      F    write LOCPOT, Hartree potential only
   LELF   =      F    write electronic localiz. function (ELF)
   LORBIT =      0    0 simple, 1 ext, 2 COOP (PROOUT)


 Dipole corrections
   LMONO  =      F    monopole corrections only (constant potential shift)
   LDIPOL =      F    correct potential (dipole corrections)
   IDIPOL =      0    1-x, 2-y, 3-z, 4-all directions 
   EPSILON=  1.0000000 bulk dielectric constant

 Exchange correlation treatment:
   GGA     =    BO    GGA type
   LEXCH   =    42    internal setting for exchange type
   VOSKOWN=      0    Vosko Wilk Nusair interpolation
   LHFCALC =     F    Hartree Fock is set to
   LHFONE  =     F    Hartree Fock one center treatment
   AEXX    =    0.0000 exact exchange contribution

 vdW DFT:
   LUSE_VDW   =     T    switch on vdW DFT
   Zab_VDW    =-.8491    correlation parameter
   PARAM1     =0.1833
   PARAM2     =0.2200
   PARAM3     =0.0000

 Linear response parameters
   LEPSILON=     F    determine dielectric tensor
   LRPA    =     F    only Hartree local field effects (RPA)
   LNABLA  =     F    use nabla operator in PAW spheres
   LVEL    =     F    velocity operator in full k-point grid
   LINTERFAST=   F  fast interpolation
   KINTER  =     0    interpolate to denser k-point grid
   CSHIFT  =0.1000    complex shift for real part using Kramers Kronig
   OMEGAMAX=  -1.0    maximum frequency
   DEG_THRESHOLD= 0.2000000E-02 threshold for treating states as degnerate
   RTIME   =    0.100 relaxation time in fs

 Orbital magnetization related:
   ORBITALMAG=     F  switch on orbital magnetization
   LCHIMAG   =     F  perturbation theory with respect to B field
   DQ        =  0.001000  dq finite difference perturbation B field



--------------------------------------------------------------------------------------------------------


 conjugate gradient relaxation of ions
 charge density and potential will be updated during run
 non-spin polarized calculation
 Variant of blocked Davidson
 Davidson routine will perform the subspace rotation
 perform sub-space diagonalisation
    after iterative eigenvector-optimisation
 modified Broyden-mixing scheme, WC =      100.0
 initial mixing is a Kerker type mixing with AMIX =  0.4000 and BMIX =      1.0000
 Hartree-type preconditioning will be used
 using additional bands           12
 reciprocal scheme for non local part
 use partial core corrections
 calculate Harris-corrections to forces   (improved forces if not selfconsistent)
 use gradient corrections 
 use of overlap-Matrix (Vanderbilt PP)
 Gauss-broadening in eV      SIGMA  =   0.20


--------------------------------------------------------------------------------------------------------


  energy-cutoff  :      500.00
  volume of cell :       41.45
      direct lattice vectors                 reciprocal lattice vectors
     0.000000000  2.746821138  2.746821138    -0.182028598  0.182028598  0.182028598
     2.746821138  0.000000000  2.746821138     0.182028598 -0.182028598  0.182028598
     2.746821138  2.746821138  0.000000000     0.182028598  0.182028598 -0.182028598

  length of vectors
     3.884591706  3.884591706  3.884591706     0.315282780  0.315282780  0.315282780



 k-points in units of 2pi/SCALE and weight: Automatic kpoint scheme                 
   0.00000000  0.00000000  0.00000000       1.000

 k-points in reciprocal lattice and weights: Automatic kpoint scheme                 
   0.00000000  0.00000000  0.00000000       1.000

 position of ions in fractional coordinates (direct lattice) 
   0.75000000  0.75000000  0.75000000
   0.50000000  0.50000000  0.50000000

 position of ions in cartesian coordinates  (Angst):
   4.12023171  4.12023171  4.12023171
   2.74682114  2.74682114  2.74682114



--------------------------------------------------------------------------------------------------------


 k-point  1 :   0.0000 0.0000 0.0000  plane waves:    1067

 maximum and minimum number of plane-waves per node :      1067     1067

 maximum number of plane-waves:      1067
 maximum index in each direction: 
   IXMAX=    7   IYMAX=    7   IZMAX=    7
   IXMIN=   -7   IYMIN=   -7   IZMIN=   -7

 WARNING: aliasing errors must be expected set NGX to  30 to avoid them
 WARNING: aliasing errors must be expected set NGY to  30 to avoid them
 WARNING: aliasing errors must be expected set NGZ to  30 to avoid them
 aliasing errors are usually negligible using standard VASP settings
 and one can safely disregard these warnings

 serial   3D FFT for wavefunctions
 parallel 3D FFT for charge:
    minimum data exchange during FFTs selected (reduces bandwidth)


 total amount of memory used by VASP on root node    32149. kBytes
========================================================================

   base      :      30000. kBytes
   nonl-proj :        102. kBytes
   fftplans  :        517. kBytes
   grid      :       1507. kBytes
   one-center:          6. kBytes
   wavefun   :         17. kBytes

     INWAV:  cpu time    0.0000: real time    0.0000
 Broyden mixing: mesh for mixing (old mesh)
   NGX = 15   NGY = 15   NGZ = 15
  (NGX  = 56   NGY  = 56   NGZ  = 56)
  gives a total of   3375 points

 initial charge density was supplied:
 charge density of overlapping atoms calculated
 number of electron       8.0000000 magnetization 
 keeping initial charge density in first step


--------------------------------------------------------------------------------------------------------


 Maximum index for augmentation-charges         1417 (set IRDMAX)


--------------------------------------------------------------------------------------------------------


 First call to EWALD:  gamma=   0.512
 Maximum number of real-space cells 3x 3x 3
 Maximum number of reciprocal cells 3x 3x 3

 FEWALD executed in parallel
    FEWALD:  cpu time    0.0000: real time    0.0010


----------------------------------------- Iteration    1(   1)  ---------------------------------------


vdW kernel read from vdw_kernel.bindat
  0.0000  0.2424  0.5071  0.7962  1.1119  1.4567  1.8333  2.2446  2.6937  3.1842
  3.7199  4.3049  4.9438  5.6415  6.4036  7.2358  8.1446  9.1372 10.2212 11.4050
 12.6979 14.1099 15.6519 17.3360 19.1751 21.1837 23.3773 25.7729 28.3892 31.2465
 34.3669 37.7748 41.4965 45.5611 50.0000

    POTLOK:  cpu time    2.1080: real time    2.1072
    SETDIJ:  cpu time    0.0040: real time    0.0026
     EDDAV:  cpu time    0.0120: real time    0.0129
       DOS:  cpu time    0.0000: real time    0.0003
    --------------------------------------------
      LOOP:  cpu time    2.1240: real time    2.1248

 eigenvalue-minimisations  :    32
 total energy-change (2. order) : 0.2181233E+02  (-0.4042708E+03)
 number of electron       8.0000000 magnetization 
 augmentation part        8.0000000 magnetization 

 Free energy of the ion-electron system (eV)
  ---------------------------------------------------
  alpha Z        PSCENC =         3.24857844
  Ewald energy   TEWEN  =      -225.91568183
  -Hartree energ DENC   =       -11.53197166
  -exchange      EXHF   =         0.00000000
  -V(xc)+E(xc)   XCENC  =       -20.29573795
  PAW double counting   =       189.40224250     -152.61488262
  entropy T*S    EENTRO =        -0.00010893
  eigenvalues    EBANDS =        30.92615145
  atomic energy  EATOM  =       208.59373829
  Solvation  Ediel_sol  =         0.00000000
  ---------------------------------------------------
  free energy    TOTEN  =        21.81232768 eV

  energy without entropy =       21.81243661  energy(sigma->0) =       21.81238215


--------------------------------------------------------------------------------------------------------




----------------------------------------- Iteration    1(   2)  ---------------------------------------


     EDDAV:  cpu time    0.0240: real time    0.0224
       DOS:  cpu time    0.0000: real time    0.0001
    --------------------------------------------
      LOOP:  cpu time    0.0240: real time    0.1064

 eigenvalue-minimisations  :    48
 total energy-change (2. order) :-0.1442074E+02  (-0.1442059E+02)
 number of electron       8.0000000 magnetization 
 augmentation part        8.0000000 magnetization 

 Free energy of the ion-electron system (eV)
  ---------------------------------------------------
  alpha Z        PSCENC =         3.24857844
  Ewald energy   TEWEN  =      -225.91568183
  -Hartree energ DENC   =       -11.53197166
  -exchange      EXHF   =         0.00000000
  -V(xc)+E(xc)   XCENC  =       -20.29573795
  PAW double counting   =       189.40224250     -152.61488262
  entropy T*S    EENTRO =        -0.00000000
  eigenvalues    EBANDS =        16.50530750
  atomic energy  EATOM  =       208.59373829
  Solvation  Ediel_sol  =         0.00000000
  ---------------------------------------------------
  free energy    TOTEN  =         7.39159266 eV

  energy without entropy =        7.39159266  energy(sigma->0) =        7.39159266


--------------------------------------------------------------------------------------------------------




----------------------------------------- Iteration    1(   3)  ---------------------------------------


     EDDAV:  cpu time    0.0200: real time    0.0219
       DOS:  cpu time    0.0000: real time    0.0001
    --------------------------------------------
      LOOP:  cpu time    0.0200: real time    0.0663

 eigenvalue-minimisations  :    48
 total energy-change (2. order) :-0.1376823E+00  (-0.1376823E+00)
 number of electron       8.0000000 magnetization 
 augmentation part        8.0000000 magnetization 

 Free energy of the ion-electron system (eV)
  ---------------------------------------------------
  alpha Z        PSCENC =         3.24857844
  Ewald energy   TEWEN  =      -225.91568183
  -Hartree energ DENC   =       -11.53197166
  -exchange      EXHF   =         0.00000000
  -V(xc)+E(xc)   XCENC  =       -20.29573795
  PAW double counting   =       189.40224250     -152.61488262
  entropy T*S    EENTRO =        -0.00000000
  eigenvalues    EBANDS =        16.36762521
  atomic energy  EATOM  =       208.59373829
  Solvation  Ediel_sol  =         0.00000000
  ---------------------------------------------------
  free energy    TOTEN  =         7.25391037 eV

  energy without entropy =        7.25391037  energy(sigma->0) =        7.25391037


--------------------------------------------------------------------------------------------------------




----------------------------------------- Iteration    1(   4)  ---------------------------------------


     EDDAV:  cpu time    0.0400: real time    0.0373
       DOS:  cpu time    0.0000: real time    0.0001
    --------------------------------------------
      LOOP:  cpu time    0.0400: real time    0.0588

 eigenvalue-minimisations  :    64
 total energy-change (2. order) :-0.3112950E-04  (-0.3112949E-04)
 number of electron       8.0000000 magnetization 
 augmentation part        8.0000000 magnetization 

 Free energy of the ion-electron system (eV)
  ---------------------------------------------------
  alpha Z        PSCENC =         3.24857844
  Ewald energy   TEWEN  =      -225.91568183
  -Hartree energ DENC   =       -11.53197166
  -exchange      EXHF   =         0.00000000
  -V(xc)+E(xc)   XCENC  =       -20.29573795
  PAW double counting   =       189.40224250     -152.61488262
  entropy T*S    EENTRO =        -0.00000000
  eigenvalues    EBANDS =        16.36759408
  atomic energy  EATOM  =       208.59373829
  Solvation  Ediel_sol  =         0.00000000
  ---------------------------------------------------
  free energy    TOTEN  =         7.25387924 eV

  energy without entropy =        7.25387924  energy(sigma->0) =        7.25387924


--------------------------------------------------------------------------------------------------------




----------------------------------------- Iteration    1(   5)  ---------------------------------------


     EDDAV:  cpu time    0.0120: real time    0.0131
       DOS:  cpu time    0.0000: real time    0.0002
    CHARGE:  cpu time    0.0200: real time    0.0197
    MIXING:  cpu time    0.0000: real time    0.0004
    --------------------------------------------
      LOOP:  cpu time    0.0320: real time    0.0569

 eigenvalue-minimisations  :    32
 total energy-change (2. order) :-0.3989271E-09  (-0.3971294E-09)
 number of electron       8.0000000 magnetization 
 augmentation part       -0.3556541 magnetization 

 Broyden mixing:
  rms(total) = 0.72992E+00    rms(broyden)= 0.72992E+00
  rms(prec ) = 0.20293E+01
  weight for this iteration     100.00

 Free energy of the ion-electron system (eV)
  ---------------------------------------------------
  alpha Z        PSCENC =         3.24857844
  Ewald energy   TEWEN  =      -225.91568183
  -Hartree energ DENC   =       -11.53197166
  -exchange      EXHF   =         0.00000000
  -V(xc)+E(xc)   XCENC  =       -20.29573795
  PAW double counting   =       189.40224250     -152.61488262
  entropy T*S    EENTRO =        -0.00000000
  eigenvalues    EBANDS =        16.36759408
  atomic energy  EATOM  =       208.59373829
  Solvation  Ediel_sol  =         0.00000000
  ---------------------------------------------------
  free energy    TOTEN  =         7.25387924 eV

  energy without entropy =        7.25387924  energy(sigma->0) =        7.25387924


--------------------------------------------------------------------------------------------------------




----------------------------------------- Iteration    1(   6)  ---------------------------------------


    POTLOK:  cpu time    1.6080: real time    1.6083
    SETDIJ:  cpu time    0.0040: real time    0.0026
     EDDAV:  cpu time    0.0120: real time    0.0105
       DOS:  cpu time    0.0000: real time    0.0002
    CHARGE:  cpu time    0.0120: real time    0.0132
    MIXING:  cpu time    0.0000: real time    0.0005
    --------------------------------------------
      LOOP:  cpu time    1.6360: real time    1.6586

 eigenvalue-minimisations  :    32
 total energy-change (2. order) : 0.4922380E+00  (-0.3748672E-01)
 number of electron       8.0000000 magnetization 
 augmentation part       -0.3435824 magnetization 

 Broyden mixing:
  rms(total) = 0.45496E+00    rms(broyden)= 0.45496E+00
  rms(prec ) = 0.12527E+01
  weight for this iteration     100.00

 eigenvalues of (default mixing * dielectric matrix)
  average eigenvalue GAMMA=   2.6275
  2.6275

 Free energy of the ion-electron system (eV)
  ---------------------------------------------------
  alpha Z        PSCENC =         3.24857844
  Ewald energy   TEWEN  =      -225.91568183
  -Hartree energ DENC   =       -15.44569203
  -exchange      EXHF   =         0.00000000
  -V(xc)+E(xc)   XCENC  =       -19.76233909
  PAW double counting   =       292.25583032     -255.63505935
  entropy T*S    EENTRO =        -0.00000000
  eigenvalues    EBANDS =        20.40674251
  atomic energy  EATOM  =       208.59373829
  Solvation  Ediel_sol  =         0.00000000
  ---------------------------------------------------
  free energy    TOTEN  =         7.74611726 eV

  energy without entropy =        7.74611726  energy(sigma->0) =        7.74611726


--------------------------------------------------------------------------------------------------------




----------------------------------------- Iteration    1(   7)  ---------------------------------------


    POTLOK:  cpu time    1.6480: real time    1.6451
    SETDIJ:  cpu time    0.0000: real time    0.0026
     EDDAV:  cpu time    0.0160: real time    0.0104
       DOS:  cpu time    0.0000: real time    0.0002
    CHARGE:  cpu time    0.0120: real time    0.0128
    MIXING:  cpu time    0.0000: real time    0.0005
    --------------------------------------------
      LOOP:  cpu time    1.6760: real time    1.7296

 eigenvalue-minimisations  :    32
 total energy-change (2. order) : 0.3288087E+00  (-0.1327892E+00)
 number of electron       8.0000000 magnetization 
 augmentation part       -0.3249615 magnetization 

 Broyden mixing:
  rms(total) = 0.46862E-01    rms(broyden)= 0.46862E-01
  rms(prec ) = 0.11921E+00
  weight for this iteration     100.00

 eigenvalues of (default mixing * dielectric matrix)
  average eigenvalue GAMMA=   2.1679
  2.1679  2.1679

 Free energy of the ion-electron system (eV)
  ---------------------------------------------------
  alpha Z        PSCENC =         3.24857844
  Ewald energy   TEWEN  =      -225.91568183
  -Hartree energ DENC   =       -23.81807671
  -exchange      EXHF   =         0.00000000
  -V(xc)+E(xc)   XCENC  =       -18.49908309
  PAW double counting   =       529.17377887     -492.75781766
  entropy T*S    EENTRO =        -0.00000000
  eigenvalues    EBANDS =        28.04948970
  atomic energy  EATOM  =       208.59373829
  Solvation  Ediel_sol  =         0.00000000
  ---------------------------------------------------
  free energy    TOTEN  =         8.07492601 eV

  energy without entropy =        8.07492601  energy(sigma->0) =        8.07492601


--------------------------------------------------------------------------------------------------------




----------------------------------------- Iteration    1(   8)  ---------------------------------------


    POTLOK:  cpu time    1.6040: real time    1.6051
    SETDIJ:  cpu time    0.0000: real time    0.0021
     EDDAV:  cpu time    0.0120: real time    0.0107
       DOS:  cpu time    0.0000: real time    0.0002
    CHARGE:  cpu time    0.0160: real time    0.0137
    MIXING:  cpu time    0.0000: real time    0.0005
    --------------------------------------------
      LOOP:  cpu time    1.6320: real time    1.7234

 eigenvalue-minimisations  :    32
 total energy-change (2. order) : 0.2462953E-01  (-0.2920327E-02)
 number of electron       8.0000000 magnetization 
 augmentation part       -0.3276839 magnetization 

 Broyden mixing:
  rms(total) = 0.31148E-01    rms(broyden)= 0.31148E-01
  rms(prec ) = 0.89299E-01
  weight for this iteration     100.00

 eigenvalues of (default mixing * dielectric matrix)
  average eigenvalue GAMMA=   1.9645
  0.9891  2.4522  2.4522

 Free energy of the ion-electron system (eV)
  ---------------------------------------------------
  alpha Z        PSCENC =         3.24857844
  Ewald energy   TEWEN  =      -225.91568183
  -Hartree energ DENC   =       -22.69059939
  -exchange      EXHF   =         0.00000000
  -V(xc)+E(xc)   XCENC  =       -18.64542455
  PAW double counting   =       506.76827378     -470.21344869
  entropy T*S    EENTRO =        -0.00000000
  eigenvalues    EBANDS =        26.95411950
  atomic energy  EATOM  =       208.59373829
  Solvation  Ediel_sol  =         0.00000000
  ---------------------------------------------------
  free energy    TOTEN  =         8.09955554 eV

  energy without entropy =        8.09955554  energy(sigma->0) =        8.09955554


--------------------------------------------------------------------------------------------------------




----------------------------------------- Iteration    1(   9)  ---------------------------------------


    POTLOK:  cpu time    1.5880: real time    1.5873
    SETDIJ:  cpu time    0.0000: real time    0.0025
     EDDAV:  cpu time    0.0280: real time    0.0253
       DOS:  cpu time    0.0000: real time    0.0002
    CHARGE:  cpu time    0.0120: real time    0.0126
    MIXING:  cpu time    0.0000: real time    0.0005
    --------------------------------------------
      LOOP:  cpu time    1.6280: real time    1.7509

 eigenvalue-minimisations  :    64
 total energy-change (2. order) : 0.4054316E-02  (-0.8538161E-03)
 number of electron       8.0000000 magnetization 
 augmentation part       -0.3269855 magnetization 

 Broyden mixing:
  rms(total) = 0.15261E-01    rms(broyden)= 0.15261E-01
  rms(prec ) = 0.15812E-01
  weight for this iteration     100.00

 eigenvalues of (default mixing * dielectric matrix)
  average eigenvalue GAMMA=   1.8608
  2.5755  2.5755  0.9520  1.3403

 Free energy of the ion-electron system (eV)
  ---------------------------------------------------
  alpha Z        PSCENC =         3.24857844
  Ewald energy   TEWEN  =      -225.91568183
  -Hartree energ DENC   =       -23.34009923
  -exchange      EXHF   =         0.00000000
  -V(xc)+E(xc)   XCENC  =       -18.53522870
  PAW double counting   =       525.01007645     -488.45150699
  entropy T*S    EENTRO =        -0.00000000
  eigenvalues    EBANDS =        27.49373343
  atomic energy  EATOM  =       208.59373829
  Solvation  Ediel_sol  =         0.00000000
  ---------------------------------------------------
  free energy    TOTEN  =         8.10360986 eV

  energy without entropy =        8.10360986  energy(sigma->0) =        8.10360986


--------------------------------------------------------------------------------------------------------




----------------------------------------- Iteration    1(  10)  ---------------------------------------


    POTLOK:  cpu time    1.6080: real time    1.6064
    SETDIJ:  cpu time    0.0000: real time    0.0019
     EDDAV:  cpu time    0.0120: real time    0.0105
       DOS:  cpu time    0.0000: real time    0.0002
    CHARGE:  cpu time    0.0120: real time    0.0129
    MIXING:  cpu time    0.0000: real time    0.0006
    --------------------------------------------
      LOOP:  cpu time    1.6320: real time    1.6926

 eigenvalue-minimisations  :    32
 total energy-change (2. order) : 0.7135459E-03  (-0.1949523E-05)
 number of electron       8.0000000 magnetization 
 augmentation part       -0.3269785 magnetization 

 Broyden mixing:
  rms(total) = 0.18802E-01    rms(broyden)= 0.18802E-01
  rms(prec ) = 0.19164E-01
  weight for this iteration     100.00

 eigenvalues of (default mixing * dielectric matrix)
  average eigenvalue GAMMA=   1.9550
  2.8113  2.4846  2.4846  0.9973  0.9973

 Free energy of the ion-electron system (eV)
  ---------------------------------------------------
  alpha Z        PSCENC =         3.24857844
  Ewald energy   TEWEN  =      -225.91568183
  -Hartree energ DENC   =       -23.32917905
  -exchange      EXHF   =         0.00000000
  -V(xc)+E(xc)   XCENC  =       -18.53637855
  PAW double counting   =       528.67083030     -492.10924645
  entropy T*S    EENTRO =        -0.00000000
  eigenvalues    EBANDS =        27.48166227
  atomic energy  EATOM  =       208.59373829
  Solvation  Ediel_sol  =         0.00000000
  ---------------------------------------------------
  free energy    TOTEN  =         8.10432340 eV

  energy without entropy =        8.10432340  energy(sigma->0) =        8.10432340


--------------------------------------------------------------------------------------------------------




----------------------------------------- Iteration    1(  11)  ---------------------------------------


    POTLOK:  cpu time    1.6360: real time    1.6335
    SETDIJ:  cpu time    0.0000: real time    0.0020
     EDDAV:  cpu time    0.0120: real time    0.0104
       DOS:  cpu time    0.0000: real time    0.0001
    CHARGE:  cpu time    0.0120: real time    0.0134
    MIXING:  cpu time    0.0000: real time    0.0006
    --------------------------------------------
      LOOP:  cpu time    1.6600: real time    1.7227

 eigenvalue-minimisations  :    32
 total energy-change (2. order) :-0.2000019E-02  (-0.7191791E-05)
 number of electron       8.0000000 magnetization 
 augmentation part       -0.3269154 magnetization 

 Broyden mixing:
  rms(total) = 0.13508E-02    rms(broyden)= 0.13508E-02
  rms(prec ) = 0.20750E-02
  weight for this iteration     100.00

 eigenvalues of (default mixing * dielectric matrix)
  average eigenvalue GAMMA=   1.7560
  2.9648  2.4778  2.2791  0.9764  0.9191  0.9191

 Free energy of the ion-electron system (eV)
  ---------------------------------------------------
  alpha Z        PSCENC =         3.24857844
  Ewald energy   TEWEN  =      -225.91568183
  -Hartree energ DENC   =       -23.33183864
  -exchange      EXHF   =         0.00000000
  -V(xc)+E(xc)   XCENC  =       -18.53724250
  PAW double counting   =       508.64783855     -472.09437143
  entropy T*S    EENTRO =        -0.00000000
  eigenvalues    EBANDS =        27.49130252
  atomic energy  EATOM  =       208.59373829
  Solvation  Ediel_sol  =         0.00000000
  ---------------------------------------------------
  free energy    TOTEN  =         8.10232339 eV

  energy without entropy =        8.10232339  energy(sigma->0) =        8.10232339


--------------------------------------------------------------------------------------------------------




----------------------------------------- Iteration    1(  12)  ---------------------------------------


    POTLOK:  cpu time    1.6280: real time    1.6257
    SETDIJ:  cpu time    0.0000: real time    0.0026
     EDDAV:  cpu time    0.0360: real time    0.0352
       DOS:  cpu time    0.0000: real time    0.0002
    CHARGE:  cpu time    0.0160: real time    0.0137
    MIXING:  cpu time    0.0000: real time    0.0006
    --------------------------------------------
      LOOP:  cpu time    1.6800: real time    1.9089

 eigenvalue-minimisations  :    64
 total energy-change (2. order) : 0.3675810E-03  (-0.2316206E-06)
 number of electron       8.0000000 magnetization 
 augmentation part       -0.3269391 magnetization 

 Broyden mixing:
  rms(total) = 0.52584E-03    rms(broyden)= 0.52584E-03
  rms(prec ) = 0.58225E-03
  weight for this iteration     100.00

 eigenvalues of (default mixing * dielectric matrix)
  average eigenvalue GAMMA=   1.8713
  3.0813  2.5196  2.5196  1.7198  0.9585  0.9585  1.3414

 Free energy of the ion-electron system (eV)
  ---------------------------------------------------
  alpha Z        PSCENC =         3.24857844
  Ewald energy   TEWEN  =      -225.91568183
  -Hartree energ DENC   =       -23.32334964
  -exchange      EXHF   =         0.00000000
  -V(xc)+E(xc)   XCENC  =       -18.53798514
  PAW double counting   =       509.24285950     -472.68774723
  entropy T*S    EENTRO =        -0.00000000
  eigenvalues    EBANDS =        27.48227858
  atomic energy  EATOM  =       208.59373829
  Solvation  Ediel_sol  =         0.00000000
  ---------------------------------------------------
  free energy    TOTEN  =         8.10269097 eV

  energy without entropy =        8.10269097  energy(sigma->0) =        8.10269097


--------------------------------------------------------------------------------------------------------




----------------------------------------- Iteration    1(  13)  ---------------------------------------


    POTLOK:  cpu time    1.6080: real time    1.6057
    SETDIJ:  cpu time    0.0000: real time    0.0025
     EDDAV:  cpu time    0.0120: real time    0.0124
       DOS:  cpu time    0.0000: real time    0.0002
    CHARGE:  cpu time    0.0160: real time    0.0136
    MIXING:  cpu time    0.0000: real time    0.0006
    --------------------------------------------
      LOOP:  cpu time    1.6360: real time    1.6828

 eigenvalue-minimisations  :    32
 total energy-change (2. order) :-0.2541132E-04  (-0.1637355E-07)
 number of electron       8.0000000 magnetization 
 augmentation part       -0.3269449 magnetization 

 Broyden mixing:
  rms(total) = 0.53747E-04    rms(broyden)= 0.53746E-04
  rms(prec ) = 0.75737E-04
  weight for this iteration     100.00

 eigenvalues of (default mixing * dielectric matrix)
  average eigenvalue GAMMA=   1.7584
  2.9511  2.5979  2.5979  2.0184  1.1483  0.9878  0.9878  0.7777

 Free energy of the ion-electron system (eV)
  ---------------------------------------------------
  alpha Z        PSCENC =         3.24857844
  Ewald energy   TEWEN  =      -225.91568183
  -Hartree energ DENC   =       -23.32302825
  -exchange      EXHF   =         0.00000000
  -V(xc)+E(xc)   XCENC  =       -18.53769071
  PAW double counting   =       510.00149809     -473.44634689
  entropy T*S    EENTRO =        -0.00000000
  eigenvalues    EBANDS =        27.48159842
  atomic energy  EATOM  =       208.59373829
  Solvation  Ediel_sol  =         0.00000000
  ---------------------------------------------------
  free energy    TOTEN  =         8.10266556 eV

  energy without entropy =        8.10266556  energy(sigma->0) =        8.10266556


--------------------------------------------------------------------------------------------------------




----------------------------------------- Iteration    1(  14)  ---------------------------------------


    POTLOK:  cpu time    1.5960: real time    1.5954
    SETDIJ:  cpu time    0.0040: real time    0.0026
     EDDAV:  cpu time    0.0240: real time    0.0256
       DOS:  cpu time    0.0000: real time    0.0001
    CHARGE:  cpu time    0.0120: real time    0.0133
    MIXING:  cpu time    0.0000: real time    0.0007
    --------------------------------------------
      LOOP:  cpu time    1.6360: real time    1.6780

 eigenvalue-minimisations  :    64
 total energy-change (2. order) :-0.2842433E-05  (-0.2568559E-09)
 number of electron       8.0000000 magnetization 
 augmentation part       -0.3269456 magnetization 

 Broyden mixing:
  rms(total) = 0.60484E-04    rms(broyden)= 0.60484E-04
  rms(prec ) = 0.65240E-04
  weight for this iteration     100.00

 eigenvalues of (default mixing * dielectric matrix)
  average eigenvalue GAMMA=   1.8407
  2.9292  2.7694  2.5882  2.3027  1.7046  1.3372  0.9915  0.9717  0.9717

 Free energy of the ion-electron system (eV)
  ---------------------------------------------------
  alpha Z        PSCENC =         3.24857844
  Ewald energy   TEWEN  =      -225.91568183
  -Hartree energ DENC   =       -23.32278000
  -exchange      EXHF   =         0.00000000
  -V(xc)+E(xc)   XCENC  =       -18.53772116
  PAW double counting   =       510.00756722     -473.45242164
  entropy T*S    EENTRO =        -0.00000000
  eigenvalues    EBANDS =        27.48138340
  atomic energy  EATOM  =       208.59373829
  Solvation  Ediel_sol  =         0.00000000
  ---------------------------------------------------
  free energy    TOTEN  =         8.10266271 eV

  energy without entropy =        8.10266271  energy(sigma->0) =        8.10266271


--------------------------------------------------------------------------------------------------------




----------------------------------------- Iteration    1(  15)  ---------------------------------------


    POTLOK:  cpu time    1.6360: real time    1.6380
    SETDIJ:  cpu time    0.0040: real time    0.0020
     EDDAV:  cpu time    0.0160: real time    0.0162
       DOS:  cpu time    0.0000: real time    0.0001
    CHARGE:  cpu time    0.0120: real time    0.0126
    MIXING:  cpu time    0.0000: real time    0.0007
    --------------------------------------------
      LOOP:  cpu time    1.6720: real time    1.9009

 eigenvalue-minimisations  :    48
 total energy-change (2. order) : 0.2514660E-05  (-0.1149711E-09)
 number of electron       8.0000000 magnetization 
 augmentation part       -0.3269455 magnetization 

 Broyden mixing:
  rms(total) = 0.53729E-05    rms(broyden)= 0.53729E-05
  rms(prec ) = 0.62834E-05
  weight for this iteration     100.00

 eigenvalues of (default mixing * dielectric matrix)
  average eigenvalue GAMMA=   1.7776
  2.9795  2.8412  2.4995  2.3508  1.7397  1.3558  0.9567  0.9910  0.9910  1.0711

 Free energy of the ion-electron system (eV)
  ---------------------------------------------------
  alpha Z        PSCENC =         3.24857844
  Ewald energy   TEWEN  =      -225.91568183
  -Hartree energ DENC   =       -23.32265093
  -exchange      EXHF   =         0.00000000
  -V(xc)+E(xc)   XCENC  =       -18.53775220
  PAW double counting   =       509.92600734     -473.37086217
  entropy T*S    EENTRO =        -0.00000000
  eigenvalues    EBANDS =        27.48128830
  atomic energy  EATOM  =       208.59373829
  Solvation  Ediel_sol  =         0.00000000
  ---------------------------------------------------
  free energy    TOTEN  =         8.10266523 eV

  energy without entropy =        8.10266523  energy(sigma->0) =        8.10266523


--------------------------------------------------------------------------------------------------------




----------------------------------------- Iteration    1(  16)  ---------------------------------------


    POTLOK:  cpu time    1.6120: real time    1.6116
    SETDIJ:  cpu time    0.0040: real time    0.0019
     EDDAV:  cpu time    0.0040: real time    0.0068
       DOS:  cpu time    0.0000: real time    0.0002
    CHARGE:  cpu time    0.0160: real time    0.0135
    MIXING:  cpu time    0.0000: real time    0.0007
    --------------------------------------------
      LOOP:  cpu time    1.6360: real time    1.6755

 eigenvalue-minimisations  :    16
 total energy-change (2. order) : 0.3250949E-06  (-0.1598721E-12)
 number of electron       8.0000000 magnetization 
 augmentation part       -0.3269456 magnetization 

 Broyden mixing:
  rms(total) = 0.18809E-05    rms(broyden)= 0.18809E-05
  rms(prec ) = 0.21631E-05
  weight for this iteration     100.00

 eigenvalues of (default mixing * dielectric matrix)
  average eigenvalue GAMMA=   1.8785
  3.0612  2.8596  2.7601  2.4745  2.4745  1.8214  1.2880  0.9936  0.9936  0.9685
  0.9685

 Free energy of the ion-electron system (eV)
  ---------------------------------------------------
  alpha Z        PSCENC =         3.24857844
  Ewald energy   TEWEN  =      -225.91568183
  -Hartree energ DENC   =       -23.32262960
  -exchange      EXHF   =         0.00000000
  -V(xc)+E(xc)   XCENC  =       -18.53775593
  PAW double counting   =       509.92118490     -473.36603870
  entropy T*S    EENTRO =        -0.00000000
  eigenvalues    EBANDS =        27.48127000
  atomic energy  EATOM  =       208.59373829
  Solvation  Ediel_sol  =         0.00000000
  ---------------------------------------------------
  free energy    TOTEN  =         8.10266555 eV

  energy without entropy =        8.10266555  energy(sigma->0) =        8.10266555


--------------------------------------------------------------------------------------------------------




----------------------------------------- Iteration    1(  17)  ---------------------------------------


    POTLOK:  cpu time    1.6240: real time    1.6217
    SETDIJ:  cpu time    0.0000: real time    0.0019
     EDDAV:  cpu time    0.0080: real time    0.0068
       DOS:  cpu time    0.0000: real time    0.0001
    --------------------------------------------
      LOOP:  cpu time    1.6320: real time    1.7330

 eigenvalue-minimisations  :    16
 total energy-change (2. order) : 0.4594420E-07  ( 0.3819167E-12)
 number of electron       8.0000000 magnetization 
 augmentation part       -0.3269456 magnetization 

 Free energy of the ion-electron system (eV)
  ---------------------------------------------------
  alpha Z        PSCENC =         3.24857844
  Ewald energy   TEWEN  =      -225.91568183
  -Hartree energ DENC   =       -23.32262840
  -exchange      EXHF   =         0.00000000
  -V(xc)+E(xc)   XCENC  =       -18.53775729
  PAW double counting   =       509.91935919     -473.36421319
  entropy T*S    EENTRO =        -0.00000000
  eigenvalues    EBANDS =        27.48127039
  atomic energy  EATOM  =       208.59373829
  Solvation  Ediel_sol  =         0.00000000
  ---------------------------------------------------
  free energy    TOTEN  =         8.10266560 eV

  energy without entropy =        8.10266560  energy(sigma->0) =        8.10266560


--------------------------------------------------------------------------------------------------------




 average (electrostatic) potential at core
  the test charge radii are     0.9892
  (the norm of the test charge is              1.0000)
       1 -82.5844       2 -82.5844



 E-fermi :   7.3847     XC(G=0):  -8.9180     alpha+bet :-11.5728


 k-point     1 :       0.0000    0.0000    0.0000
  band No.  band energies     occupation 
      1      -5.4398      2.00000
      2       6.3935      2.00000
      3       6.3935      2.00000
      4       6.3935      2.00000
      5       8.7686      0.00000
      6       8.7686      0.00000
      7       8.7686      0.00000
      8       9.6624      0.00000
      9      13.3900      0.00000
     10      13.7026      0.00000
     11      13.7026      0.00000
     12      16.8241      0.00000
     13      16.8241      0.00000
     14      16.8241      0.00000
     15      20.6761      0.00000
     16      28.8943      0.00000


--------------------------------------------------------------------------------------------------------


 soft charge-density along one line, spin component           1
         0         1         2         3         4         5         6         7         8         9
 total charge-density along one line

 pseudopotential strength for first ion, spin component:           1
 18.401  25.668  -0.000  -0.000  -0.000  -0.000  -0.000  -0.000
 25.668  35.808  -0.000  -0.000  -0.000  -0.000  -0.000  -0.000
 -0.000  -0.000   4.182  -0.000  -0.000   7.783  -0.000  -0.000
 -0.000  -0.000  -0.000   4.182  -0.000  -0.000   7.783  -0.000
 -0.000  -0.000  -0.000  -0.000   4.182  -0.000  -0.000   7.783
 -0.000  -0.000   7.783  -0.000  -0.000  14.498  -0.000  -0.000
 -0.000  -0.000  -0.000   7.783  -0.000  -0.000  14.498  -0.000
 -0.000  -0.000  -0.000  -0.000   7.783  -0.000  -0.000  14.498
 total augmentation occupancy for first ion, spin component:           1
  5.232  -2.347  -0.000  -0.000  -0.000  -0.000   0.000   0.000
 -2.347   1.053   0.000  -0.000   0.000  -0.000   0.000   0.000
 -0.000   0.000   1.641   0.000   0.000  -0.053   0.000   0.000
  0.000  -0.000   0.000   1.641   0.000   0.000  -0.053   0.000
  0.000   0.000   0.000   0.000   1.641   0.000   0.000  -0.053
 -0.000  -0.000  -0.053   0.000   0.000   0.002   0.000   0.000
  0.000   0.000   0.000  -0.053   0.000   0.000   0.002   0.000
  0.000   0.000   0.000   0.000  -0.053   0.000   0.000   0.002


------------------------ aborting loop because EDIFF is reached ----------------------------------------


    CHARGE:  cpu time    0.0120: real time    0.0135
    FORLOC:  cpu time    0.0000: real time    0.0005
    FORNL :  cpu time    0.0040: real time    0.0035
    STRESS:  cpu time    0.0160: real time    0.0159
    FORCOR:  cpu time    1.6160: real time    1.6137
    FORHAR:  cpu time    0.0040: real time    0.0040
    MIXING:  cpu time    0.0000: real time    0.0008
    OFIELD:  cpu time    0.0000: real time    0.0000

  FORCE on cell =-STRESS in cart. coord.  units (eV):
  Direction    XX          YY          ZZ          XY          YZ          ZX
  --------------------------------------------------------------------------------------
  Alpha Z     3.24858     3.24858     3.24858
  Ewald     -75.30526   -75.30526   -75.30526     0.00000    -0.00000    -0.00000
  Hartree     7.77421     7.77421     7.77421     0.00000     0.00000     0.00000
  E(xc)     -26.54835   -26.54835   -26.54835    -0.00000    -0.00000    -0.00000
  Local     -33.34182   -33.34182   -33.34182     0.00000     0.00000     0.00000
  n-local    66.39221    66.39221    66.39221     0.00000     0.00000     0.00000
  augment    -8.39046    -8.39046    -8.39046    -0.00000    -0.00000    -0.00000
  Kinetic    75.50348    75.50348    75.50348     0.00000     0.00000     0.00000
  Fock        0.00000     0.00000     0.00000     0.00000     0.00000     0.00000
  -------------------------------------------------------------------------------------
  Total       9.33258     9.33258     9.33258     0.00000     0.00000    -0.00000
  in kB     360.73735   360.73735   360.73735     0.00000     0.00000    -0.00000
  external pressure =      360.74 kB  Pullay stress =        0.00 kB


 VOLUME and BASIS-vectors are now :
 -----------------------------------------------------------------------------
  energy-cutoff  :      500.00
  volume of cell :       41.45
      direct lattice vectors                 reciprocal lattice vectors
     0.000000000  2.746821138  2.746821138    -0.182028598  0.182028598  0.182028598
     2.746821138  0.000000000  2.746821138     0.182028598 -0.182028598  0.182028598
     2.746821138  2.746821138  0.000000000     0.182028598  0.182028598 -0.182028598

  length of vectors
     3.884591706  3.884591706  3.884591706     0.315282780  0.315282780  0.315282780


 FORCES acting on ions
    electron-ion (+dipol)            ewald-force                    non-local-force                 convergence-correction
 -----------------------------------------------------------------------------------------------
   0.119E-07 0.119E-07 0.124E-07   -.313E-14 -.268E-14 -.153E-14   -.827E-24 -.414E-23 -.186E-23   -.909E-12 -.906E-12 -.905E-12
   -.119E-07 -.119E-07 -.124E-07   0.307E-14 0.301E-14 0.222E-14   0.414E-23 0.579E-23 0.145E-23   0.907E-12 0.905E-12 0.906E-12
 -----------------------------------------------------------------------------------------------
   0.292E-13 0.127E-12 -.152E-12   -.615E-16 0.330E-15 0.690E-15   0.331E-23 0.165E-23 -.414E-24   -.115E-14 -.808E-15 0.889E-15


 POSITION                                       TOTAL-FORCE (eV/Angst)
 -----------------------------------------------------------------------------------
      4.12023      4.12023      4.12023         0.000000     -0.000000      0.000000
      2.74682      2.74682      2.74682         0.000000      0.000000     -0.000000
 -----------------------------------------------------------------------------------
    total drift:                                0.000000      0.000000     -0.000000


--------------------------------------------------------------------------------------------------------



  FREE ENERGIE OF THE ION-ELECTRON SYSTEM (eV)
  ---------------------------------------------------
  free  energy   TOTEN  =         8.10266560 eV

  energy  without entropy=        8.10266560  energy(sigma->0) =        8.10266560



--------------------------------------------------------------------------------------------------------


    POTLOK:  cpu time    1.6080: real time    1.6061


--------------------------------------------------------------------------------------------------------




--------------------------------------------------------------------------------------------------------


  
 reached required accuracy - stopping structural energy minimisation
     LOOP+:  cpu time   25.2600: real time   27.0313
    4ORBIT:  cpu time    0.0000: real time    0.0000

 total amount of memory used by VASP on root node    32149. kBytes
========================================================================

   base      :      30000. kBytes
   nonl-proj :        102. kBytes
   fftplans  :        517. kBytes
   grid      :       1507. kBytes
   one-center:          6. kBytes
   wavefun   :         17. kBytes

  
  
 General timing and accounting informations for this job:
 ========================================================
  
                  Total CPU time used (sec):       25.780
                            User time (sec):       25.592
                          System time (sec):        0.188
                         Elapsed time (sec):       28.888
  
                   Maximum memory used (kb):      109240.
                   Average memory used (kb):           0.
  
                          Minor page faults:        70942
                          Major page faults:            7
                 Voluntary context switches:          269
