 running on   16 total cores
 distrk:  each k-point on   16 cores,    1 groups
 distr:  one band on    1 cores,   16 groups
 using from now: INCAR     
 vasp.5.4.1 24Jun15 (build Feb  9 2019 14:16:27) complex                         
 POSCAR found type information on POSCAR  Si
 POSCAR found :  1 types and       2 ions
 scaLAPACK will be used

 ----------------------------------------------------------------------------- 
|                                                                             |
|           W    W    AA    RRRRR   N    N  II  N    N   GGGG   !!!           |
|           W    W   A  A   R    R  NN   N  II  NN   N  G    G  !!!           |
|           W    W  A    A  R    R  N N  N  II  N N  N  G       !!!           |
|           W WW W  AAAAAA  RRRRR   N  N N  II  N  N N  G  GGG   !            |
|           WW  WW  A    A  R   R   N   NN  II  N   NN  G    G                |
|           W    W  A    A  R    R  N    N  II  N    N   GGGG   !!!           |
|                                                                             |
|      For optimal performance we recommend to set                            |
|        NCORE= 4 - approx SQRT( number of cores)                             |
|      NCORE specifies how many cores store one orbital (NPAR=cpu/NCORE).     |
|      This setting can  greatly improve the performance of VASP for DFT.     |
|      The default, NPAR=number of cores might be grossly inefficient         |
|      on modern multi-core architectures or massively parallel machines.     |
|      Do your own testing !!!!                                               |
|      Unfortunately you need to use the default for GW and RPA calculations. |
|      (for HF NCORE is supported but not extensively tested yet)             |
|                                                                             |
 ----------------------------------------------------------------------------- 


 ----------------------------------------------------------------------------- 
|                                                                             |
|  ADVICE TO THIS USER RUNNING 'VASP/VAMP'   (HEAR YOUR MASTER'S VOICE ...):  |
|                                                                             |
|      You have switched on vdW-DFT.                                          |
|      This routine was written and supplied by Jiri Klimes.                  |
|      We recommed that you carefully read and cite the following             |
|      publication                                                            |
|      J. Klimes, D.R. Bowler, A. Michelides                                  |
|        J. Phys.: Cond Matt. 22 022201 (2010)                                |
|      J. Klimes, D.R. Bowler, A. Michelides                                  |
|        Phys. Rev. B. 83, 195131 (2011)                                      |
|      and references therein.                                                |
|                                                                             |
 ----------------------------------------------------------------------------- 


 ----------------------------------------------------------------------------- 
|                                                                             |
|  ADVICE TO THIS USER RUNNING 'VASP/VAMP'   (HEAR YOUR MASTER'S VOICE ...):  |
|                                                                             |
|      You enforced a specific xc-type in the INCAR file,                     |
|      a different type was found on the POTCAR file                          |
|          I HOPE YOU KNOW, WHAT YOU ARE  DOING                               |
|                                                                             |
 ----------------------------------------------------------------------------- 

 LDA part: xc-table for Pade appr. of Perdew
 POSCAR, INCAR and KPOINTS ok, starting setup
 WARNING: small aliasing (wrap around) errors must be expected
 FFT: planning ...
 WAVECAR not read
 entering main loop
       N       E                     dE             d eps       ncg     rms          rms(c)
Total vdW correction in eV:      1.0901334
DAV:   1     0.218123276829E+02    0.21812E+02   -0.40427E+03    32   0.397E+02
DAV:   2     0.739159266482E+01   -0.14421E+02   -0.14421E+02    48   0.405E+01
DAV:   3     0.725391036927E+01   -0.13768E+00   -0.13768E+00    48   0.475E+00
DAV:   4     0.725387923977E+01   -0.31129E-04   -0.31129E-04    64   0.887E-02
DAV:   5     0.725387923937E+01   -0.39893E-09   -0.39713E-09    32   0.333E-04    0.730E+00
Total vdW correction in eV:      1.2092412
DAV:   6     0.774611726191E+01    0.49224E+00   -0.37487E-01    32   0.177E+00    0.455E+00
Total vdW correction in eV:      1.5010235
DAV:   7     0.807492600806E+01    0.32881E+00   -0.13279E+00    32   0.338E+00    0.469E-01
Total vdW correction in eV:      1.4744457
DAV:   8     0.809955554294E+01    0.24630E-01   -0.29203E-02    32   0.547E-01    0.311E-01
Total vdW correction in eV:      1.5023910
DAV:   9     0.810360985870E+01    0.40543E-02   -0.85382E-03    64   0.323E-01    0.153E-01
Total vdW correction in eV:      1.5020306
DAV:  10     0.810432340456E+01    0.71355E-03   -0.19495E-05    32   0.247E-02    0.188E-01
Total vdW correction in eV:      1.5028909
DAV:  11     0.810232338570E+01   -0.20000E-02   -0.71918E-05    32   0.345E-02    0.135E-02
Total vdW correction in eV:      1.5027640
DAV:  12     0.810269096670E+01    0.36758E-03   -0.23162E-06    64   0.495E-03    0.526E-03
Total vdW correction in eV:      1.5027518
DAV:  13     0.810266555538E+01   -0.25411E-04   -0.16374E-07    32   0.237E-03    0.537E-04
Total vdW correction in eV:      1.5027395
DAV:  14     0.810266271295E+01   -0.28424E-05   -0.25686E-09    64   0.238E-04    0.605E-04
Total vdW correction in eV:      1.5027348
DAV:  15     0.810266522761E+01    0.25147E-05   -0.11497E-09    48   0.180E-04    0.537E-05
Total vdW correction in eV:      1.5027342
DAV:  16     0.810266555270E+01    0.32509E-06   -0.15987E-12    16   0.189E-05    0.188E-05
Total vdW correction in eV:      1.5027341
DAV:  17     0.810266559865E+01    0.45944E-07    0.38192E-12    16   0.111E-05
Total vdW correction in eV:      1.5027340
Total vdW correction in eV:      1.5027341
   1 F= 0.81026656E+01 E0= 0.81026656E+01  d E =0.810267E+01
 curvature:   0.00 expect dE= 0.000E+00 dE for cont linesearch  0.000E+00
 trial: gam= 0.00000 g(F)=  0.182E-49 g(S)=  0.000E+00 ort = 0.000E+00 (trialstep = 0.100E+01)
 search vector abs. value=  0.100E-09
 reached required accuracy - stopping structural energy minimisation
