       N       E                     dE             d eps       ncg     rms          rms(c)
DAV:   1     0.852609326900E+01    0.85261E+01   -0.36922E+03    64   0.893E+02
DAV:   2    -0.767186233803E+01   -0.16198E+02   -0.15269E+02    96   0.782E+01
DAV:   3    -0.787430617376E+01   -0.20244E+00   -0.20244E+00    96   0.117E+01
DAV:   4    -0.787509717629E+01   -0.79100E-03   -0.79100E-03    88   0.703E-01
DAV:   5    -0.787509768230E+01   -0.50601E-06   -0.50621E-06    88   0.200E-02    0.400E+00
DAV:   6    -0.778911413513E+01    0.85984E-01   -0.11264E-01    80   0.198E+00    0.247E+00
DAV:   7    -0.776732216288E+01    0.21792E-01   -0.26802E-01    80   0.303E+00    0.214E-01
DAV:   8    -0.774849053201E+01    0.18832E-01   -0.76626E-03    80   0.617E-01    0.108E-01
DAV:   9    -0.775041128618E+01   -0.19208E-02   -0.92589E-04    96   0.202E-01    0.787E-02
DAV:  10    -0.774967665811E+01    0.73463E-03   -0.51088E-05    64   0.581E-02    0.309E-02
DAV:  11    -0.774957085399E+01    0.10580E-03   -0.12872E-06   104   0.101E-02    0.129E-03
DAV:  12    -0.774957460358E+01   -0.37496E-05   -0.80197E-08    72   0.266E-03    0.258E-04
DAV:  13    -0.774957634324E+01   -0.17397E-05   -0.32264E-09    80   0.544E-04    0.877E-05
DAV:  14    -0.774957575769E+01    0.58555E-06   -0.14371E-10    48   0.103E-04    0.811E-06
DAV:  15    -0.774957532640E+01    0.43129E-06   -0.20364E-11    56   0.285E-05    0.627E-06
DAV:  16    -0.774957546599E+01   -0.13959E-06   -0.65514E-12    40   0.105E-05    0.233E-06
DAV:  17    -0.774957545507E+01    0.10923E-07   -0.20829E-12    56   0.550E-06
   1 F= -.77495755E+01 E0= -.77491861E+01  d E =-.774958E+01
