datafile (written by JARVIS-FF) 

2 	 atoms 
1  atom types
0.0 3.2205000000  xlo xhi
0.0 3.2204999999  ylo yhi
0.0 3.2204999998  zlo zhi
0E-10 0E-10 0E-10  xy xz yz


Atoms 

     1   1 0.000000 0E-10 0E-10 0E-10
     2   1 0.000000 1.6102500000 1.6102500000 1.6102500000
