LAMMPS data file via write_data, version 13 Jan 2016, timestep = 274

2 atoms
1 atom types

-4.1474998376677252e-01 3.6352499837668129e+00 xlo xhi
1.7835877952585166e-01 3.0421412203741469e+00 ylo yhi
1.7835877947585135e-01 3.0421412203241474e+00 zlo zhi
0.0000000000000000e+00 0.0000000000000000e+00 0.0000000000000000e+00 xy xz yz

Masses

1 26.982

Atoms # charge

1 1 0.0000000000000000e+00 3.6352499837665952e+00 1.7835877954789789e-01 1.7835877952066614e-01 -1 0 0
2 1 0.0000000000000000e+00 1.6102499999998026e+00 1.6102499999720454e+00 1.6102499999448137e+00 0 0 0

Velocities

1 0.0000000000000000e+00 0.0000000000000000e+00 0.0000000000000000e+00
2 0.0000000000000000e+00 0.0000000000000000e+00 0.0000000000000000e+00
