LAMMPS (13 Jan 2016)
include /users/knc6/inelast.mod
# Compute elastic constant tensor for a crystal
#
# Written by Aidan Thompson (Sandia, athomps@sandia.gov)
#
#  This script uses the following three include files.
#
#   init.mod      (must be modified for different crystal structures)
# 	       	  Define units, deformation parameters and initial
#		  configuration of the atoms and simulation cell.
#
#
#   potential.mod    (must be modified for different pair styles)
# 		     Define pair style and other attributes
#		     not stored in restart file
#
#
#   displace.mod    (displace.mod should not need to be modified)
# 		    Perform positive and negative box displacements
# 		    in direction ${dir} and size ${up}.
# 		    It uses the resultant changes
#		    in stress to compute one
# 		    row of the elastic stiffness tensor
#
#		    Inputs variables:
#		    	   dir = the Voigt deformation component
#		    		    (1,2,3,4,5,6)
#		    Global constants:
#       	    	   up = the deformation magnitude (strain units)
#       		   cfac = conversion from LAMMPS pressure units to
#               	   output units for elastic constants
#
#
#  To run this on a different system, it should only be necessary to
#  modify the files init.mod and potential.mod. In order to calculate
#  the elastic constants correctly, care must be taken to specify
#  the correct units in init.mod (units, cfac and cunits). It is also
#  important to verify that the minimization of energy w.r.t atom
#  positions in the deformed cell is fully converged.
#  One indication of this is that the elastic constants are insensitive
#  to the choice of the variable ${up} in init.mod. Another is to check
#  the final max and two-norm forces reported in the log file. If you know
#  that minimization is not required, you can set maxiter = 0.0 in
#  init.mod.
#
#  There are two alternate versions of displace.mod provided.
#  They are displace_restart.mod and displace_reverse.mod.
#  The former resets the box using a restart file while
#  the latter reverses the deformation. Copy whichever
#  one you like best to displace.mod.
#

include init.mod
variable dump_file string "None"
variable up  equal 1.0e-6
variable cfac  equal 1.0e-4
variable cunits  string GPa
variable etol  equal 0
variable ftol  equal 1.0e-10
variable maxiter equal 1000
variable maxeval equal 10000
variable dmax equal 1.0e-2
variable data_file string "data"
units metal
atom_style charge
boundary p p p
atom_modify sort 0 0.0

read_data data
  triclinic box = (0 0 0) to (3.2205 3.2205 3.2205) with tilt (0 0 0)
  1 by 1 by 1 MPI processor grid
  reading atoms ...
  2 atoms

### interactions
mass 1 26.98154
include potential.mod
pair_style eam/alloy
pair_coeff * * /users/knc6/Software/jarvis/jarvis/lammps/examples/Al03.eam.alloy  Al
neighbor 1.0 nsq
neigh_modify once no every 1 delay 0 check yes
min_style  cg
min_modify           dmax ${dmax} line quadratic
min_modify           dmax 0.01 line quadratic
thermo          1
thermo_style custom step temp press cpu pxx pyy pzz pxy pxz pyz ke pe etotal vol lx ly lz atoms
thermo_modify norm no
#fix 3 all nph aniso 0.0 0.0 1.0
#fix langevin all langevin 0.0 0.0 1.0 12233

#fix 3 all box/relax tri 0.0 vmax 0.001
fix            3 all box/relax aniso 0.0 vmax 0.001
#fix 3 all box/relax  aniso 0.0
#dump            2a all cfg 100 *.cfg mass type xs ys zs  vx vy vz fx fy fz
#dump_modify     2a element  Mo S

#fix 1a all qeq/comb 1 0.0001 file fq.out
#fix             2 all qeq/reax 1 0.0 10.0 1e-6 /scratch/lfs/kamal/JARVIS/All2/ReaxFF/param.qeq
minimize ${etol} ${ftol} ${maxiter} ${maxeval}
minimize 0 ${ftol} ${maxiter} ${maxeval}
minimize 0 1e-10 ${maxiter} ${maxeval}
minimize 0 1e-10 1000 ${maxeval}
minimize 0 1e-10 1000 10000
Neighbor list info ...
  1 neighbor list requests
  update every 1 steps, delay 0 steps, check yes
  max neighbors/atom: 2000, page size: 100000
  master list distance cutoff = 7.72488
  ghost atom cutoff = 7.72488
Memory usage per processor = 3.34162 Mbytes
Step Temp Press CPU Pxx Pyy Pzz Pxy Pxz Pyz KinEng PotEng TotEng Volume Lx Ly Lz Atoms 
       0            0    7448.5844            0    7448.5844    7448.5844    7448.5843 -2.3298541e-12 -3.3283631e-13 5.9910535e-12            0   -6.5336804   -6.5336804    33.401803       3.2205       3.2205       3.2205        2 
       1            0    5838.9808 3.2901764e-05    5838.9808    5838.9808    5838.9808 4.9941889e-11 5.2430687e-11 -3.3183979e-11            0   -6.5340963   -6.5340963    33.502109    3.2237205    3.2237205    3.2237205        2 
       2            0    4236.9464 7.1048737e-05    4236.9464    4236.9464    4236.9464 -1.5549821e-11 5.8229116e-11 3.970167e-11            0   -6.5344122   -6.5344122    33.602615     3.226941     3.226941     3.226941        2 
       3            0    2642.4281 0.00010895729    2642.4281    2642.4281    2642.4281 6.1848499e-11 4.2221909e-11 -8.0485514e-11            0   -6.5346284   -6.5346284    33.703322    3.2301615    3.2301615    3.2301615        2 
       4            0     1054.867 0.00014400482     1054.867     1054.867     1054.867 -2.8283165e-11 3.2229653e-11 -6.0512818e-11            0   -6.5347448   -6.5347448     33.80423     3.233382     3.233382     3.233382        2 
       5            0 -0.044423349 0.00020003319 -0.044394147 -0.044423349 -0.044452551 4.9397042e-11 -3.6760589e-11 -2.888332e-11            0   -6.5347669   -6.5347669    33.871635    3.2355297    3.2355297    3.2355297        2 
       6            0 2.7247312e-08 0.00025391579 3.8073142e-05 2.7231393e-08 -3.8018632e-05 3.9714569e-11 -4.3324984e-11 -5.382801e-11            0   -6.5347669   -6.5347669    33.871632    3.2355296    3.2355296    3.2355296        2 
       7            0 1.8650804e-07 0.00028991699 0.00042121657 1.8627577e-07 -0.00042084333 4.3653203e-11 -3.4134836e-11 -6.0392402e-11            0   -6.5347669   -6.5347669    33.871632    3.2355296    3.2355296    3.2355296        2 
       8            0 1.1196163e-05 0.00032401085  0.046026223 1.1162604e-05 -0.046003797 3.118086e-12 1.0503026e-11 1.9102379e-10            0   -6.5347669   -6.5347669    33.871632    3.2355299    3.2355296    3.2355293        2 
       9            0 -0.00035939779 0.00035905838   0.50886069 -0.00036141536  -0.50957747 5.0545815e-11 -1.7067418e-11 3.6333907e-09            0   -6.5347669   -6.5347669    33.871632     3.235533    3.2355296    3.2355262        2 
      10            0 -0.0095130305 0.00039505959    56.720309 -0.031529357   -56.717319 -5.0578634e-10 -8.0610724e-10 5.9662036e-05            0   -6.5347671   -6.5347671    33.871634    3.2359115    3.2355296    3.2351478        2 
      11            0    1.9363156 0.00043010712     537.9276  -0.33472126   -531.78393 -3.6991193e-08 -7.9317599e-08 0.0052516366            0   -6.5347794   -6.5347794    33.871608     3.239132    3.2355301    3.2319283        2 
      12            0    7.4039402  0.000467062    1024.3233  -0.71894566   -1001.3925 -1.2871536e-07 -2.7198994e-07  0.018619933            0   -6.5348118   -6.5348118    33.871515    3.2423525    3.2355306    3.2287088        2 
      13            0    16.438741 0.00050401688    1515.7406   -1.1907552   -1465.2336 -2.5524384e-07 -5.5621167e-07   0.03787787            0   -6.5348641   -6.5348641    33.871355     3.245573    3.2355311    3.2254894        2 
      14            0    28.977712 0.00054001808    2011.9715    -1.750889   -1923.2874 -4.2917842e-07 -9.5948279e-07  0.065268901            0   -6.5349363   -6.5349363    33.871129    3.2487935    3.2355316    3.2222699        2 
      15            0     45.03608 0.00057697296     2512.811   -2.4164875   -2375.2863 -6.8521977e-07 -1.4865158e-06  0.097385077            0   -6.5350284   -6.5350284    33.870836     3.252014    3.2355321    3.2190505        2 
      16            0    64.551321 0.00061392784    3018.0474   -3.2576949   -2821.1358 -1.0095719e-06 -2.0956397e-06    0.1385772            0   -6.5351404   -6.5351404     33.87048    3.2552345    3.2355326    3.2158316        2 
      17            0     87.13325 0.00065088272    3526.9964   -4.7434714   -3260.8532 -1.4227511e-06 -2.9136979e-06   0.18764568            0   -6.5352722   -6.5352722    33.870085     3.258455     3.235533    3.2126153        2 
      18            0    80.895373 0.0007019043    3998.4672   -47.875778   -3707.9053 -1.1561867e-06 -2.3118206e-06   0.15289036            0   -6.5354207   -6.5354207    33.871645    3.2616755    3.2355287    3.2095953        2 
      19            0    85.083344 0.00074100494    4483.1564   -86.310417    -4141.596 -9.6538657e-07 -1.8931223e-06   0.12769166            0   -6.5355881   -6.5355881    33.872683     3.264896    3.2354939    3.2065622        2 
      20            0    95.883746 0.00077795982    4975.9432   -123.97056   -4564.3214 -8.4392207e-07 -1.6781848e-06   0.11035334            0   -6.5357741   -6.5357741    33.873439    3.2681165    3.2354346    3.2035325        2 
      21            0    110.60046 0.0008161068     5473.297   -163.50269   -4977.9929 -7.120398e-07 -1.4262841e-06  0.096400715            0   -6.5359782   -6.5359782    33.874079     3.271337    3.2353559    3.2005171        2 
      22            0    127.88109 0.00085306168    5973.2829   -206.15493   -5383.4847 -6.5066092e-07 -1.2515784e-06  0.084809161            0   -6.5362002   -6.5362002    33.874687    3.2745575    3.2352604    3.1975211        2 
      23            0    147.07873 0.00089097023    6474.9647   -252.44079   -5781.2877 -5.9040822e-07 -1.1188139e-06  0.075417878            0   -6.5364397   -6.5364397    33.875297     3.277778    3.2351494    3.1945467        2 
      24            0    167.91829 0.0009291172    6977.8798   -302.54411   -6171.5808 -5.6222108e-07 -1.0280274e-06  0.068475756            0   -6.5366966   -6.5366966    33.875924    3.2809985    3.2350235    3.1915943        2 
      25            0     190.2028 0.00096607208    7481.6619    -356.5281   -6554.5254 -5.0501881e-07 -8.9404172e-07  0.060724308            0   -6.5369706   -6.5369706    33.876576     3.284219     3.234883    3.1886644        2 
      26            0    213.81482 0.0010039806     7986.044   -414.39512   -6930.2044 -4.506036e-07 -7.943486e-07  0.056158796            0   -6.5372614   -6.5372614    33.877253    3.2874395    3.2347283    3.1857568        2 
      27            0    238.60984 0.0010409355    8490.7557   -476.36967   -7298.5565 -4.0455469e-07 -7.3350321e-07   0.05237363            0   -6.5375688   -6.5375688    33.877964      3.29066    3.2345584    3.1828729        2 
      28            0    264.64666 0.0010790825    8995.6788   -541.92469   -7659.8142 -3.6746216e-07 -6.9952076e-07  0.048422246            0   -6.5378927   -6.5378927    33.878697    3.2938805    3.2343754    3.1800096        2 
      29            0    291.82017 0.0011160374    9500.6561   -611.20817   -8013.9874 -3.4015122e-07 -6.8652241e-07  0.047661081            0   -6.5382327   -6.5382327    33.879455     3.297101    3.2341786    3.1771679        2 
      30            0    320.04874 0.0011539459      10005.4   -684.18898   -8361.0652 -3.1037082e-07 -6.4990424e-07  0.045322954            0   -6.5385888   -6.5385888     33.88024    3.3003215    3.2339681    3.1743477        2 
      31            0    349.25602 0.0011920929     10509.75   -760.80735   -8701.1743 -2.7789059e-07 -5.9823246e-07  0.043201136            0   -6.5389606   -6.5389606    33.881049     3.303542    3.2337441    3.1715486        2 
      32            0    379.38753 0.0012290478    11013.488   -840.99834   -9034.3268 -2.7526348e-07 -5.8860024e-07  0.041861186            0    -6.539348    -6.539348     33.88188    3.3067625    3.2335066    3.1687703        2 
      33            0    410.40919 0.0012669563     11516.45   -924.69121   -9360.5308 -2.6834356e-07 -5.6164709e-07  0.039396066            0   -6.5397507   -6.5397507    33.882734     3.309983    3.2332557    3.1660125        2 
      34            0    442.22992 0.0013051033    12018.429   -1011.8205   -9679.9187 -2.6052532e-07 -5.2889478e-07  0.036451185            0   -6.5401686   -6.5401686    33.883606    3.3132035    3.2329916     3.163275        2 
      35            0    474.81623 0.0013430119    12519.265    -1102.318   -9992.4983 -2.4727615e-07 -5.0744348e-07  0.034294302            0   -6.5406015   -6.5406015    33.884497     3.316424    3.2327142    3.1605574        2 
      36            0    508.05058 0.0013799667    13018.695   -1196.2419   -10298.301 -2.3623926e-07 -4.6962319e-07  0.031439229            0    -6.541049    -6.541049    33.885406    3.3196445    3.2324233    3.1578601        2 
      37            0    541.99292 0.0014181137    13516.665   -1293.2893   -10597.397 -2.3234382e-07 -4.676131e-07  0.032606532            0   -6.5415111   -6.5415111    33.886326     3.322865    3.2321199    3.1551814        2 
      38            0    576.52096 0.0014550686      14012.9   -1393.4959   -10889.841 -2.1424176e-07 -4.4649693e-07  0.031180366            0   -6.5419876   -6.5419876    33.887258    3.3260855    3.2318035    3.1525216        2 
      39            0     611.5746 0.0014920235    14507.208   -1496.7882   -11175.696 -2.0146963e-07 -4.229927e-07  0.029998371            0   -6.5424783   -6.5424783    33.888199     3.329306    3.2314744    3.1498804        2 
      40            0    647.12333  0.001529932    14999.409   -1603.0953   -11454.944 -1.9481221e-07 -4.087138e-07  0.028580276            0   -6.5429828   -6.5429828    33.889148    3.3325265    3.2311325    3.1472575        2 
      41            0    683.09894  0.001568079    15489.313   -1712.3093   -11727.706 -1.7649212e-07 -3.770562e-07  0.025591538            0   -6.5435012   -6.5435012    33.890103     3.335747    3.2307779    3.1446527        2 
      42            0    719.43868 0.0016059875    15976.701   -1824.3747   -11994.011 -1.6583751e-07 -3.4027256e-07   0.02367489            0   -6.5440331   -6.5440331    33.891062    3.3389675    3.2304107    3.1420656        2 
      43            0    756.07518 0.0016429424    16461.363   -1939.2634   -12253.874 -1.6791452e-07 -3.3366574e-07  0.023185953            0   -6.5445784   -6.5445784    33.892022     3.342188    3.2300309    3.1394959        2 
      44            0    792.93894 0.0016810894    16943.124   -2056.8917   -12507.416 -1.5469709e-07 -3.1298362e-07  0.021902006            0   -6.5451369   -6.5451369    33.892981    3.3454085    3.2296387    3.1369433        2 
      45            0    829.98528  0.001718998    17421.775   -2177.2498    -12754.57 -1.4699964e-07 -2.9345151e-07   0.02173606            0   -6.5457083   -6.5457083    33.893938     3.348629    3.2292337     3.134408        2 
      46            0    867.18649 0.0017640591    17897.132   -2300.1096   -12995.463 -1.3400948e-07 -2.8253501e-07  0.019162827            0   -6.5462926   -6.5462926    33.894888    3.3518495    3.2288166    3.1318887        2 
      47            0    904.45987 0.0018019676    18368.976   -2425.4542   -13230.142 -1.3196007e-07 -2.8334646e-07  0.019254221            0   -6.5468895   -6.5468895    33.895831      3.35507    3.2283873    3.1293856        2 
      48            0    941.75755 0.0018401146    18837.107   -2553.2396   -13458.595 -1.2649682e-07 -2.6102939e-07  0.018598677            0   -6.5474988   -6.5474988    33.896764    3.3582905    3.2279457    3.1268984        2 
      49            0    979.00675 0.0018780231    19301.306   -2683.3954   -13680.891 -1.2940721e-07 -2.5798664e-07  0.018092292            0   -6.5481203   -6.5481203    33.897684     3.361511    3.2274918    3.1244268        2 
      50            0     1016.147 0.0019159317      19761.4   -2815.8569   -13897.102 -1.2212508e-07 -2.5413279e-07   0.01796092            0   -6.5487539   -6.5487539     33.89859    3.3647315    3.2270257    3.1219705        2 
      51            0    1053.1815 0.0019528866    20217.259   -2950.5148     -14107.2 -1.1322087e-07 -2.4520786e-07  0.017111491            0   -6.5493993   -6.5493993    33.899479     3.367952    3.2265475    3.1195293        2 
      52            0     1090.079 0.0019910336    20668.824   -3087.3382   -14311.249 -1.0672419e-07 -2.3870587e-07  0.016524888            0   -6.5500564   -6.5500564    33.900348    3.3711725    3.2260572    3.1171028        2 
      53            0     1126.821 0.0020279884     21116.05    -3226.249   -14509.338 -1.085789e-07 -2.3311355e-07  0.015918197            0    -6.550725    -6.550725    33.901196     3.374393    3.2255547    3.1146909        2 
      54            0    1163.3888 0.0020730495    21558.861   -3367.2519   -14701.443 -1.0806268e-07 -2.2435481e-07  0.015561606            0   -6.5514048   -6.5514048    33.902021    3.3776135      3.22504    3.1122935        2 
      55            0    1199.8112 0.0021119118    21997.229   -3510.1637   -14887.632 -1.1758085e-07 -2.2417097e-07  0.015771224            0   -6.5520957   -6.5520957    33.902821     3.380834    3.2245134    3.1099099        2 
      56            0    1236.0319 0.0021491051    22431.052   -3654.9837   -15067.972 -1.1382403e-07 -2.3934679e-07   0.01681196            0   -6.5527976   -6.5527976    33.903593    3.3840545    3.2239748    3.1075401        2 
      57            0    1272.0719   0.00218606    22860.338   -3801.6502   -15242.472 -1.0706671e-07 -2.3797148e-07  0.016329062            0   -6.5535102   -6.5535102    33.904337     3.387275    3.2234242     3.105184        2 
      58            0    1307.8812 0.0022239685    23284.964   -3950.1633   -15411.157 -1.1041324e-07 -2.3464988e-07  0.017218404            0   -6.5542333   -6.5542333    33.905051    3.3904955    3.2228616    3.1028414        2 
      59            0    1343.4496 0.0022609234    23704.874    -4100.385    -15574.14 -9.9172258e-08 -2.2479069e-07  0.015807649            0   -6.5549667   -6.5549667    33.905734     3.393716     3.222287    3.1005121        2 
      60            0    1378.7991 0.0022990704    24120.047   -4252.2624   -15731.387 -9.586343e-08 -1.92972e-07  0.013295688            0   -6.5557104   -6.5557104    33.906384    3.3969365    3.2217005    3.0981959        2 
      61            0    1413.8581 0.0023360252    24530.402   -4405.8155   -15883.013 -8.2678616e-08 -1.7590939e-07  0.012277451            0    -6.556464    -6.556464       33.907     3.400157     3.221102    3.0958928        2 
      62            0    1448.5932 0.0023739338    24935.837   -4561.0171    -16029.04 -9.6722431e-08 -1.9365327e-07  0.012271137            0   -6.5572275   -6.5572275     33.90758    3.4033775    3.2204917    3.0936024        2 
      63            0    1483.0182 0.0024120808    25336.371   -4717.8092   -16169.508 -8.3213106e-08 -1.7321239e-07  0.013024823            0   -6.5580006   -6.5580006    33.908124     3.406598    3.2198691    3.0913249        2 
      64            0    1517.1208 0.0024490356    25731.886   -4876.0714   -16304.453 -6.6314779e-08 -1.6191386e-07  0.011281248            0   -6.5587831   -6.5587831     33.90863    3.4098185    3.2192348    3.0890599        2 
      65            0    1550.8725 0.0024859905    26122.354   -5035.7677   -16433.969 -6.9340111e-08 -1.3560632e-07 0.0086830947            0   -6.5595749   -6.5595749    33.909097     3.413039    3.2185886    3.0868072        2 
      66            0    1584.2501 0.0025238991    26507.732   -5196.9329   -16558.049 -6.2183296e-08 -1.1790091e-07 0.0087308735            0   -6.5603759   -6.5603759    33.909523    3.4162595    3.2179304    3.0845668        2 
      67            0    1617.2302 0.0025610924    26887.929   -5359.4851   -16676.754 -8.2230167e-08 -1.4511183e-07   0.01038071            0   -6.5611857   -6.5611857    33.909908      3.41948    3.2172603    3.0823387        2 
      68            0    1649.8132 0.0025990009     27262.93   -5523.3265   -16790.164 -7.5153154e-08 -1.9061687e-07   0.01276122            0   -6.5620043   -6.5620043    33.910251    3.4227005    3.2165781    3.0801226        2 
      69            0    1681.9664 0.0026359558    27632.668   -5688.4882    -16898.28 -1.0293621e-07 -2.1918937e-07   0.01568178            0   -6.5628315   -6.5628315     33.91055     3.425921     3.215884    3.0779185        2 
      70            0    1713.6777 0.0026741028    27997.107   -5854.8983   -17001.176 -8.5840757e-08 -2.0702189e-07  0.015427188            0   -6.5636671   -6.5636671    33.910804    3.4291415    3.2151779    3.0757262        2 
      71            0    1744.9351 0.0027110577     28356.18   -6022.5125   -17098.862 -8.8339137e-08 -1.7387493e-07  0.011964638            0    -6.564511    -6.564511    33.911012     3.432362    3.2144597    3.0735457        2 
      72            0    1775.7325 0.0027489662    28709.897   -6191.3118   -17191.388 -7.2491309e-08 -1.6051393e-07  0.011054606            0   -6.5653629   -6.5653629    33.911173    3.4355825    3.2137293    3.0713771        2 
      73            0     1806.038 0.0027859211    29058.147   -6361.2114   -17278.822 -7.3177801e-08 -1.6885968e-07  0.011900988            0   -6.5662227   -6.5662227    33.911286     3.438803     3.212987    3.0692198        2 
      74            0    1835.8226 0.0028240681    29400.915   -6532.1966    -17361.25 -7.115203e-08 -1.5555303e-07  0.011095255            0   -6.5670903   -6.5670903     33.91135    3.4420235    3.2122326    3.0670741        2 
      75            0    1865.1057 0.0028610229    29738.158   -6704.2158   -17438.625 -5.7850259e-08 -1.30722e-07 0.0095761154            0   -6.5679654   -6.5679654    33.911364     3.445244     3.211466    3.0649398        2 
      76            0    1893.8444 0.0028989315     30069.82   -6877.2396   -17511.047 -5.4862472e-08 -1.1428448e-07 0.0080721179            0   -6.5688479   -6.5688479    33.911327    3.4484645    3.2106872    3.0628169        2 
      77            0    1922.0416 0.0029358864    30395.894   -7051.2193    -17578.55 -4.3650453e-08 -1.0015159e-07   0.00704851            0   -6.5697377   -6.5697377    33.911238     3.451685    3.2098962    3.0607052        2 
      78            0    1949.6431 0.0029740334    30716.301   -7226.1565   -17641.215 -5.9087362e-08 -1.143128e-07 0.0085611207            0   -6.5706346   -6.5706346    33.911095    3.4549055     3.209093    3.0586047        2 
      79            0    1976.6695 0.0030119419    31031.036   -7401.9721   -17699.056 -5.816496e-08 -1.2762038e-07 0.0092672323            0   -6.5715383   -6.5715383    33.910899     3.458126    3.2082774    3.0565153        2 
      80            0    2003.1314 0.0030488968    31340.076   -7578.5973   -17752.084 -5.3672031e-08 -1.2281206e-07 0.0086635981            0   -6.5724489   -6.5724489    33.910647    3.4613465    3.2074495     3.054437        2 
      81            0    2028.9755 0.0030870438     31643.36   -7756.0442   -17800.389 -5.4565364e-08 -1.1555272e-07  0.008113306            0    -6.573366    -6.573366    33.910338     3.464567    3.2066091    3.0523698        2 
      82            0    2054.1914 0.0031249523    31940.875   -7934.2693   -17844.031 -5.1514298e-08 -1.1796939e-07 0.0080952656            0   -6.5742896   -6.5742896    33.909973    3.4677875    3.2057563    3.0503134        2 
      83            0    2078.7816 0.0031619072    32232.596   -8113.2184   -17883.033 -5.4885594e-08 -1.2110612e-07 0.0089997681            0   -6.5752195   -6.5752195    33.909549     3.471008     3.204891    3.0482679        2 
      84            0    2102.7521 0.0031991005    32518.483   -8292.8012   -17917.425 -5.3440033e-08 -1.2231977e-07 0.0086282944            0   -6.5761555   -6.5761555    33.909066    3.4742285    3.2040132    3.0462333        2 
      85            0    2126.0868 0.0032360554    32798.543   -8473.0357   -17947.247 -5.1513181e-08 -1.1501924e-07 0.0080017815            0   -6.5770974   -6.5770974    33.908523     3.477449    3.2031227    3.0442094        2 
      86            0    2148.7632 0.0032739639    33072.708   -8653.8586    -17972.56 -5.290131e-08 -1.3362602e-07 0.0086058949            0   -6.5780453   -6.5780453    33.907918    3.4806695    3.2022196    3.0421963        2 
      87            0    2170.7681 0.0033109188    33341.006   -8835.2823    -17993.42 -6.449051e-08 -1.3978368e-07 0.0099193637            0   -6.5789987   -6.5789987    33.907252      3.48389    3.2013037    3.0401939        2 
      88            0    2192.1251 0.0033481121    33603.391   -9017.1494   -18009.866 -5.6393545e-08 -1.3348676e-07 0.0093782167            0   -6.5799577   -6.5799577    33.906522    3.4871105    3.2003751    3.0382021        2 
      89            0    2212.8119 0.0033919811    33859.847   -9199.4998   -18021.911 -4.9562795e-08 -1.0489989e-07 0.0073076578            0   -6.5809221   -6.5809221    33.905728     3.490331    3.1994335     3.036221        2 
      90            0    2232.7756 0.0034310818    34110.334   -9382.3385   -18029.669 -3.5678726e-08 -8.476175e-08 0.0058195203            0   -6.5818918   -6.5818918     33.90487    3.4935515     3.198479    3.0342505        2 
      91            0    2252.1006 0.0034680367    34354.886   -9565.5169   -18033.067 -3.4401354e-08 -7.8768123e-08 0.0058350418            0   -6.5828665   -6.5828665    33.903945     3.496772    3.1975115    3.0322905        2 
      92            0       2270.7 0.0035059452    34593.453   -9749.0477   -18032.305 -3.440195e-08 -9.5050981e-08 0.0068092287            0   -6.5838461   -6.5838461    33.902953    3.4999925     3.196531     3.030341        2 
      93            0    2288.6046 0.0035429001    34825.997   -9932.9082   -18027.275 -4.6995078e-08 -9.1488405e-08 0.0069163811            0   -6.5848306   -6.5848306    33.901894     3.503213    3.1955373    3.0284021        2 
      94            0    2305.7886 0.0035800934    35052.553    -10117.02   -18018.168 -3.5683454e-08 -8.0507018e-08 0.0057721715            0   -6.5858197   -6.5858197    33.900766    3.5064335    3.1945304    3.0264736        2 
      95            0    2322.2583 0.0036170483    35273.097   -10301.384   -18004.939 -3.7468184e-08 -7.9896269e-08 0.0055694603            0   -6.5868133   -6.5868133    33.899569     3.509654    3.1935102    3.0245556        2 
      96            0    2338.0129 0.0036540031    35487.606   -10485.911   -17987.657 -5.0823434e-08 -1.0886349e-07 0.0078214966            0   -6.5878113   -6.5878113      33.8983    3.5128745    3.1924766     3.022648        2 
      97            0    2353.0906 0.0036919117    35696.129   -10670.521   -17966.337 -6.3549699e-08 -1.3845666e-07 0.0097992671            0   -6.5888136   -6.5888136    33.896961     3.516095    3.1914296    3.0207508        2 
      98            0    2367.4199  0.003729105    35898.617   -10855.284   -17941.073 -6.318131e-08 -1.3295813e-07 0.0095074369            0     -6.58982     -6.58982    33.895549    3.5193155     3.190369     3.018864        2 
      99            0    2381.0661 0.0037660599    36095.091   -11040.045   -17911.847 -4.7554192e-08 -9.6245405e-08 0.0067256123            0   -6.5908303   -6.5908303    33.894063     3.522536    3.1892947    3.0169877        2 
     100            0    2393.9771 0.0038039684    36285.521   -11224.823   -17878.766 -2.830561e-08 -7.1089254e-08 0.0050747681            0   -6.5918445   -6.5918445    33.892504    3.5257565    3.1882069    3.0151217        2 
     101            0    2406.1862 0.0038409233    36469.942   -11409.525   -17841.859 -2.9925491e-08 -6.9770052e-08 0.0049705691            0   -6.5928625   -6.5928625    33.890869     3.528977    3.1871052    3.0132661        2 
     102            0    2417.6459 0.0038781166    36648.313   -11594.216   -17801.159 -3.8750475e-08 -7.6874868e-08 0.0060659552            0    -6.593884    -6.593884    33.889159    3.5321975    3.1859896    3.0114209        2 
     103            0    2428.3994 0.0039150715    36820.637   -11778.704   -17756.735 -3.7322064e-08 -6.834852e-08 0.0049220823            0   -6.5949089   -6.5949089    33.887372     3.535418    3.1848601     3.009586        2 
     104            0    2438.4358 0.0039520264    36986.968   -11963.021   -17708.639 -2.2362614e-08 -4.9923737e-08 0.0037259861            0   -6.5959372   -6.5959372    33.885508    3.5386385    3.1837166    3.0077616        2 
     105            0    2447.7454 0.0039889812    37147.243   -12147.141   -17656.865 -2.4916955e-08 -5.3627284e-08 0.0036458307            0   -6.5969687   -6.5969687    33.883565     3.541859    3.1825589    3.0059475        2 
     106            0    2456.3243 0.0040268898    37301.508   -12331.002   -17601.533 -3.5775231e-08 -8.8077554e-08  0.006300345            0   -6.5980033   -6.5980033    33.881543    3.5450795    3.1813869    3.0041438        2 
     107            0    2464.2037 0.0040640831    37449.777   -12514.483   -17542.683 -4.8943816e-08 -1.0861663e-07 0.0077500065            0   -6.5990408   -6.5990408     33.87944       3.5483    3.1802006    3.0023504        2 
     108            0    2471.3892  0.004101038     37592.06   -12697.625   -17480.267 -4.7658594e-08 -1.0374447e-07 0.0075471555            0   -6.6000812   -6.6000812    33.877257    3.5515205    3.1789999    3.0005675        2 
     109            0    2477.8728 0.0041389465    37728.378   -12880.327   -17414.433 -4.1321208e-08 -8.0581729e-08 0.0056640338            0   -6.6011244   -6.6011244    33.874992     3.554741    3.1777846     2.998795        2 
     110            0     2483.654 0.0041759014    37858.714   -13062.564   -17345.188 -3.0479857e-08 -7.620998e-08 0.0057524515            0   -6.6021701   -6.6021701    33.872644    3.5579615    3.1765548    2.9970329        2 
     111            0    2488.7644 0.0042130947    37983.124   -13244.249   -17272.582 -3.4660126e-08 -8.1855155e-08 0.0059186938            0   -6.6032184   -6.6032184    33.870213     3.561182    3.1753102    2.9952812        2 
     112            0    2493.2048 0.0042510033    38101.602   -13425.319   -17196.669 -3.2495871e-08 -7.9763011e-08 0.0059218847            0    -6.604269    -6.604269    33.867698    3.5644025    3.1740508      2.99354        2 
     113            0    2496.9331 0.0042879581    38214.124   -13605.841   -17117.484 -3.2324704e-08 -6.5718954e-08 0.0049602829            0   -6.6053219   -6.6053219    33.865098     3.567623    3.1727766    2.9918093        2 
     114            0    2500.0169 0.0043261051    38320.763   -13785.605   -17035.107 -2.432802e-08 -5.9962672e-08 0.0041752765            0   -6.6063769   -6.6063769    33.862413    3.5708435    3.1714873     2.990089        2 
     115            0    2502.4188   0.00436306    38421.505   -13964.656   -16949.593 -3.0281263e-08 -6.1827603e-08 0.0042957632            0    -6.607434    -6.607434    33.859641     3.574064    3.1701829    2.9883793        2 
     116            0     2504.169 0.0044009686    38516.402   -14142.946    -16860.95 -2.4613802e-08 -6.5931457e-08  0.004730701            0   -6.6084931   -6.6084931    33.856782    3.5772845    3.1688632    2.9866801        2 
     117            0    2505.2516 0.0044379234    38605.404   -14320.362   -16769.287 -2.4357993e-08 -5.6912324e-08 0.0041172886            0    -6.609554    -6.609554    33.853836     3.580505    3.1675283    2.9849915        2 
     118            0    2505.7173 0.0044751167    38688.609   -14496.847    -16674.61 -2.413882e-08 -5.8465606e-08 0.0041353057            0   -6.6106166   -6.6106166    33.850801    3.5837255    3.1661779    2.9833135        2 
     119            0    2505.5335 0.0045130253    38766.006   -14672.443   -16576.963 -2.7458741e-08 -6.2980647e-08 0.0046464538            0   -6.6116809   -6.6116809    33.847676     3.586946    3.1648121    2.9816461        2 
     120            0    2504.7451 0.0045499802     38837.63   -14846.946   -16476.448 -3.2081299e-08 -6.9521142e-08 0.0051748793            0   -6.6127467   -6.6127467    33.844462    3.5901665    3.1634306    2.9799894        2 
     121            0    2503.3463  0.004586935    38903.493   -15020.385   -16373.068 -2.976068e-08 -7.1234239e-08 0.0050282094            0    -6.613814    -6.613814    33.841157     3.593387    3.1620334    2.9783434        2 
     122            0    2501.3487 0.0046238899    38963.641    -15192.69   -16266.905 -2.4233216e-08 -6.5793075e-08 0.0047382662            0   -6.6148826   -6.6148826    33.837761    3.5966075    3.1606204    2.9767081        2 
     123            0    2498.7764 0.0046610832    39018.109   -15363.788   -16157.992 -2.5554314e-08 -7.0533738e-08 0.0048937812            0   -6.6159524   -6.6159524    33.834273     3.599828    3.1591914    2.9750835        2 
     124            0    2495.6168 0.0046980381    39066.883   -15533.624   -16046.408 -3.5320222e-08 -8.1969507e-08 0.0059423625            0   -6.6170234   -6.6170234    33.830693    3.6030485    3.1577465    2.9734698        2 
     125            0    2491.9433 0.0047419071    39110.061   -15702.071    -15932.16 -3.4297183e-08 -7.9072792e-08  0.005769562            0   -6.6180954   -6.6180954     33.82702     3.606269    3.1562854    2.9718669        2 
     126            0    2487.6963 0.0047800541    39147.613   -15869.173   -15815.351 -2.4481089e-08 -5.7704978e-08  0.004287635            0   -6.6191684   -6.6191684    33.823253    3.6094895    3.1548081     2.970275        2 
     127            0    2482.9279 0.0048179626    39179.591   -16034.774   -15696.033 -1.4576456e-08 -3.684573e-08 0.0027089673            0   -6.6202423   -6.6202423    33.819392      3.61271    3.1533144    2.9686939        2 
     128            0    2477.6278 0.0048561096    39205.996    -16198.88   -15574.233 -1.3044196e-08 -3.4111605e-08 0.0024318386            0   -6.6213169   -6.6213169    33.815436    3.6159305    3.1518044    2.9671238        2 
     129            0    2471.8462 0.0048930645    39226.893   -16361.376   -15449.979 -2.3382576e-08 -4.2385284e-08 0.0032816834            0   -6.6223923   -6.6223923    33.811385     3.619151    3.1502778    2.9655648        2 
     130            0    2465.6205 0.0049309731    39242.285   -16522.161   -15323.262 -2.6964904e-08 -5.2759417e-08 0.0039800956            0   -6.6234682   -6.6234682    33.807239    3.6223715    3.1487346    2.9640168        2 
     131            0    2458.9386   0.00496912    39252.206   -16681.221   -15194.169 -1.8510655e-08 -4.3795804e-08 0.0033222523            0   -6.6245447   -6.6245447    33.802996     3.625592    3.1471747    2.9624799        2 
     132            0     2451.865 0.0050060749    39256.717    -16838.43   -15062.692 -1.9138779e-08 -4.5553279e-08 0.0033496518            0   -6.6256216   -6.6256216    33.798658    3.6288125    3.1455981    2.9609543        2 
     133            0      2444.44 0.0050439835    39255.823   -16993.683    -14928.82 -2.5892829e-08 -5.329992e-08 0.0039679481            0   -6.6266988   -6.6266988    33.794222     3.632033    3.1440045    2.9594398        2 
     134            0    2436.6297  0.005081892     39249.57    -17146.97    -14792.71 -3.3627072e-08 -7.6165034e-08 0.0057362728            0   -6.6277763   -6.6277763     33.78969    3.6352535    3.1423939    2.9579367        2 
     135            0     2428.539 0.0051391125    39237.996   -17298.143   -14654.236 -3.3097771e-08 -7.7022743e-08 0.0058067687            0    -6.628854    -6.628854    33.785061     3.638474    3.1407663     2.956445        2 
     136            0    2420.2049 0.0051810741    39221.159   -17447.061   -14513.483 -2.0472227e-08 -6.2876542e-08 0.0045051446            0   -6.6299317   -6.6299317    33.780335    3.6416945    3.1391216    2.9549648        2 
     137            0    2411.6106   0.00522089    39199.051   -17593.729    -14370.49 -1.4464294e-08 -4.1305003e-08 0.0031742992            0   -6.6310094   -6.6310094    33.775513     3.644915    3.1374596    2.9534961        2 
     138            0    2402.8131 0.0052609444    39171.697   -17737.974   -14225.284 -1.6773667e-08 -4.0105263e-08 0.0030872967            0    -6.632087    -6.632087    33.770594    3.6481355    3.1357804    2.9520391        2 
     139            0     2393.852  0.005300045    39139.142    -17879.71   -14077.875 -1.628959e-08 -3.9837631e-08 0.0030714933            0   -6.6331644   -6.6331644    33.765579     3.651356    3.1340838    2.9505938        2 
     140            0    2384.7374  0.005341053    39101.394    -18018.88   -13928.302 -1.5432193e-08 -4.6071255e-08 0.0035931053            0   -6.6342416   -6.6342416    33.760468    3.6545765    3.1323697    2.9491603        2 
     141            0    2375.5108 0.0053799152    39058.497   -18155.306   -13776.659 -1.4747289e-08 -3.7681995e-08  0.002977373            0   -6.6353183   -6.6353183    33.755261     3.657797    3.1306382    2.9477387        2 
     142            0    2366.2444 0.0054199696    39010.496   -18288.918   -13622.844 -1.4497163e-08 -3.5042454e-08 0.0028229224            0   -6.6363946   -6.6363946    33.749959    3.6610175    3.1288892    2.9463292        2 
     143            0    2356.8989 0.0054600239    38957.385   -18419.628   -13467.061 -1.7825693e-08 -3.8937121e-08 0.0031388567            0   -6.6374703   -6.6374703    33.744563     3.664238    3.1271226    2.9449318        2 
     144            0    2347.5311 0.0055000782    38899.192   -18547.348   -13309.251 -2.0038648e-08 -4.7233376e-08 0.0037696407            0   -6.6385454   -6.6385454    33.739074    3.6674585    3.1253384    2.9435465        2 
     145            0    2338.2073 0.0055398941    38835.986   -18671.874   -13149.489 -1.8540752e-08 -4.499082e-08 0.0035107804            0   -6.6396197   -6.6396197    33.733491     3.670679    3.1235365    2.9421737        2 
     146            0    2328.8992 0.0055799484    38767.749   -18793.229   -12987.822 -1.8916998e-08 -4.5366682e-08 0.0036921742            0   -6.6406932   -6.6406932    33.727816    3.6738995    3.1217168    2.9408132        2 
     147            0     2319.653 0.0056190491     38694.52   -18911.231   -12824.329 -1.8522924e-08 -4.121399e-08 0.0033722807            0   -6.6417657   -6.6417657     33.72205      3.67712    3.1198795    2.9394654        2 
     148            0    2310.5195 0.0056591034    38616.343   -19025.791   -12658.994 -1.7885205e-08 -4.3206033e-08 0.0035240896            0   -6.6428372   -6.6428372    33.716194    3.6803405    3.1180244    2.9381302        2 
     149            0    2301.5014 0.0056989193    38533.223   -19136.794   -12491.925 -1.7154065e-08 -4.1943908e-08 0.0034054565            0   -6.6439075   -6.6439075    33.710249     3.683561    3.1161516    2.9368077        2 
     150            0    2292.6257 0.0057458878    38445.207   -19244.128   -12323.203 -1.6405483e-08 -4.2400915e-08 0.0034955523            0   -6.6449766   -6.6449766    33.704215    3.6867815    3.1142609    2.9354982        2 
     151            0     2283.922 0.0057880878    38352.307   -19347.721    -12152.82 -1.6089906e-08 -3.8308168e-08 0.0032593756            0   -6.6460444   -6.6460444    33.698095     3.690002    3.1123525    2.9342017        2 
     152            0    2275.4109 0.0058279037    38254.546   -19447.451   -11980.863 -1.6436557e-08 -4.0305807e-08 0.0034133171            0   -6.6471108   -6.6471108     33.69189    3.6932225    3.1104263    2.9329184        2 
     153            0    2267.0983 0.0058670044    38151.939   -19543.184    -11807.46 -1.5752107e-08 -3.8984186e-08 0.0032763444            0   -6.6481755   -6.6481755      33.6856     3.696443    3.1084824    2.9316483        2 
     154            0    2259.0255 0.0059070587    38044.494   -19634.825   -11632.592 -1.5175086e-08 -3.769267e-08 0.0032797366            0   -6.6492387   -6.6492387    33.679228    3.6996635    3.1065207    2.9303916        2 
     155            0    2251.1688  0.005947113    37932.281   -19722.346   -11456.429 -1.4082835e-08 -3.4838442e-08 0.0030272648            0   -6.6503001   -6.6503001    33.672775     3.702884    3.1045412    2.9291484        2 
     156            0    2243.6061 0.0059859753    37815.265   -19805.526   -11278.921 -1.4239861e-08 -3.4526816e-08 0.0030774671            0   -6.6513596   -6.6513596    33.666242    3.7061045     3.102544    2.9279188        2 
     157            0    2236.2831 0.0060260296     37693.48   -19884.356   -11100.274 -1.416132e-08 -3.271845e-08 0.0028912935            0   -6.6524171   -6.6524171    33.659631     3.709325    3.1005292    2.9267029        2 
     158            0    2229.2533 0.0060660839    37566.945   -19958.671   -10920.514 -1.4811522e-08 -3.6120195e-08 0.0032684818            0   -6.6534726   -6.6534726    33.652944    3.7125455    3.0984967    2.9255009        2 
     159            0    2222.5185 0.0061058998    37435.686    -20028.42   -10739.711 -1.3983663e-08 -3.4272134e-08 0.0030554311            0   -6.6545258   -6.6545258    33.646182     3.715766    3.0964466    2.9243129        2 
     160            0     2216.099 0.0061540604    37299.716   -20093.458   -10557.961 -1.3732533e-08 -3.272139e-08 0.0029561681            0   -6.6555768   -6.6555768    33.639347    3.7189865     3.094379    2.9231389        2 
     161            0    2209.9977 0.0061950684    37159.043   -20153.707   -10375.343 -1.3723683e-08 -3.3034498e-08 0.0030098384            0   -6.6566253   -6.6566253    33.632442     3.722207    3.0922939    2.9219791        2 
     162            0     2204.234 0.0062348843    37013.702   -20209.064   -10191.937 -1.340652e-08 -3.3266813e-08 0.0030304542            0   -6.6576713   -6.6576713    33.625467    3.7254275    3.0901914    2.9208337        2 
     163            0    2198.8316 0.0062749386    36863.734   -20259.391   -10007.848 -1.3018673e-08 -3.2982738e-08 0.0029876668            0   -6.6587146   -6.6587146    33.618425     3.728648    3.0880716    2.9197026        2 
     164            0    2193.8583 0.0063149929     36709.17   -20304.553   -9823.0416 -1.2772776e-08 -3.0422807e-08 0.0028254696            0   -6.6597551   -6.6597551    33.611318    3.7318685    3.0859346    2.9185861        2 
     165            0    2189.2279 0.0063550472    36549.984   -20344.527   -9637.7729 -1.2156071e-08 -2.7825325e-08 0.0026854257            0   -6.6607927   -6.6607927    33.604149     3.735089    3.0837804    2.9174841        2 
     166            0    2185.0068 0.0063951015    36386.233   -20379.156   -9452.0563 -9.8619356e-09 -2.4999099e-08  0.002359603            0   -6.6618272   -6.6618272    33.596919    3.7383095    3.0816092     2.916397        2 
     167            0    2181.2119 0.0064339638    36217.904   -20408.347   -9265.9214 -9.7352202e-09 -2.4652097e-08 0.0023617582            0   -6.6628586   -6.6628586     33.58963      3.74153    3.0794211    2.9153246        2 
     168            0    2177.8106 0.0064749718     36045.02   -20432.031    -9079.558 -1.0505113e-08 -2.8434308e-08 0.0027036745            0   -6.6638866   -6.6638866    33.582286    3.7447505    3.0772162    2.9142672        2 
     169            0    2174.8104 0.0065150261    35867.593   -20450.113   -8893.0487 -1.2037235e-08 -2.8453751e-08 0.0028577104            0   -6.6649112   -6.6649112    33.574888     3.747971    3.0749946    2.9132248        2 
     170            0    2172.1968 0.0065550804    35685.618   -20462.527   -8706.5003 -1.1202609e-08 -2.7992639e-08 0.0027325099            0   -6.6659322   -6.6659322    33.567439    3.7511915    3.0727566    2.9121975        2 
     171            0    2169.9941 0.0065948963    35499.121   -20469.145   -8519.9934 -1.08513e-08 -2.6655156e-08 0.0026156316            0   -6.6669495   -6.6669495    33.559942     3.754412    3.0705022    2.9111854        2 
     172            0    2168.2054 0.0066349506    35308.117   -20469.877   -8333.6246 -1.0667196e-08 -2.9211888e-08 0.0029096141            0   -6.6679628   -6.6679628    33.552398    3.7576325    3.0682316    2.9101886        2 
     173            0    2166.8155  0.006675005    35112.622   -20464.651   -8147.5242 -1.2318172e-08 -3.1005197e-08 0.0030050126            0   -6.6689722   -6.6689722    33.544811     3.760853     3.065945    2.9092071        2 
     174            0     2165.862 0.0067150593    34912.687   -20453.367   -7961.7335 -1.2029871e-08 -2.9988581e-08 0.0029729828            0   -6.6699774   -6.6699774    33.537184    3.7640735    3.0636426     2.908241        2 
     175            0     2165.354 0.0067551136    34708.306   -20435.925   -7776.3189 -1.007057e-08 -2.4507141e-08 0.0024013493            0   -6.6709782   -6.6709782    33.529518     3.767294    3.0613245    2.9072905        2 
     176            0    2165.2438 0.0067949295    34499.502   -20412.291    -7591.479 -9.1762045e-09 -2.3768835e-08 0.0023958015            0   -6.6719746   -6.6719746    33.521817    3.7705145     3.058991    2.9063555        2 
     177            0    2165.5599 0.0068349838    34286.273   -20382.331   -7407.2618 -9.3676568e-09 -2.3738126e-08 0.0024685133            0   -6.6729663   -6.6729663    33.514084     3.773735    3.0566424    2.9054361        2 
     178            0    2166.2979 0.0068750381    34068.623   -20345.979   -7223.7503 -9.5666972e-09 -2.3471576e-08  0.002476393            0   -6.6739532   -6.6739532    33.506322    3.7769555    3.0542787    2.9045324        2 
     179            0    2167.4583 0.0069150925    33846.608   -20303.166   -7041.0674 -8.6427407e-09 -2.1901902e-08 0.0023366597            0    -6.674935    -6.674935    33.498534     3.780176    3.0519003    2.9036445        2 
     180            0    2169.0094 0.0069549084    33620.207   -20253.871   -6859.3079 -8.470917e-09 -2.1425061e-08 0.0023080926            0   -6.6759118   -6.6759118    33.490723    3.7833965    3.0495075    2.9027723        2 
     181            0    2170.9444 0.0069949627    33389.427    -20197.98    -6678.614 -8.5894459e-09 -2.0604738e-08  0.002296521            0   -6.6768832   -6.6768832    33.482892     3.786617    3.0471004    2.9019159        2 
     182            0    2173.2641  0.007035017    33154.287   -20135.439   -6499.0562 -8.1679489e-09 -2.0092844e-08 0.0020691762            0   -6.6778491   -6.6778491    33.475045    3.7898375    3.0446795    2.9010753        2 
     183            0    2175.9566 0.0070750713    32914.802   -20066.206   -6320.7261 -7.1377548e-09 -1.8588634e-08 0.0020138222            0   -6.6788093   -6.6788093    33.467185     3.793058    3.0422449    2.9002506        2 
     184            0    2178.9914 0.0071148872     32670.98   -19990.238   -6143.7674 -7.1344082e-09 -1.8758786e-08 0.0020581073            0   -6.6797636   -6.6797636    33.459315    3.7962785     3.039797    2.8994418        2 
     185            0    2182.3627 0.0071539879    32422.834   -19907.499   -5968.2468 -7.9554888e-09 -2.1135827e-08 0.0023083505            0   -6.6807119   -6.6807119    33.451438     3.799499    3.0373361    2.8986489        2 
     186            0    2186.0539 0.0071949959    32170.374   -19817.957   -5794.2549 -7.8206135e-09 -2.0015053e-08 0.0022298024            0   -6.6816539   -6.6816539    33.443559    3.8027195    3.0348626    2.8978718        2 
     187            0    2190.0615 0.0072350502    31913.592   -19721.502   -5621.9062 -7.7604972e-09 -1.9790615e-08 0.0022100834            0   -6.6825895   -6.6825895     33.43568      3.80594    3.0323767    2.8971107        2 
     188            0    2194.3903 0.0072751045    31652.556   -19618.099   -5451.2859 -6.7794759e-09 -1.8712353e-08 0.0020544406            0   -6.6835184   -6.6835184    33.427806    3.8091605    3.0298788    2.8963654        2 
     189            0    2199.0537 0.0073161125    31387.219   -19507.555   -5282.5025 -7.4341267e-09 -1.9194815e-08 0.0021708745            0   -6.6844405   -6.6844405     33.41994     3.812381    3.0273694    2.8956359        2 
     190            0    2204.0665 0.0073559284    31117.609   -19389.819   -5115.5908 -7.4382033e-09 -1.8899149e-08 0.0021895226            0   -6.6853555   -6.6853555    33.412086    3.8156015    3.0248488    2.8949223        2 
     191            0    2209.4661 0.0073959827    30843.721   -19264.697   -4950.6254 -6.6526195e-09 -1.798576e-08  0.002050595            0   -6.6862632   -6.6862632    33.404249     3.818822    3.0223175    2.8942245        2 
     192            0    2215.2181 0.0074360371    30565.555   -19132.193   -4787.7072 -6.5005686e-09 -1.7091084e-08 0.0019982767            0   -6.6871634   -6.6871634    33.396432    3.8220425    3.0197759    2.8935424        2 
     193            0    2221.3383 0.0074760914    30283.099   -18992.136   -4626.9476 -6.4420784e-09 -1.6292724e-08 0.0019403078            0   -6.6880559   -6.6880559    33.388642     3.825263    3.0172245    2.8928761        2 
     194            0    2227.8326 0.0075170994     29996.37   -18844.468   -4468.4047 -6.4660668e-09 -1.6752263e-08  0.002020817            0   -6.6889405   -6.6889405    33.380882    3.8284835    3.0146638    2.8922255        2 
     195            0    2234.6706 0.0075569153     29705.32    -18689.16    -4312.148 -6.1284867e-09 -1.5966276e-08 0.0019109254            0   -6.6898168   -6.6898168    33.373159     3.831704    3.0120944    2.8915904        2 
     196            0    2241.8499 0.0076029301    29409.953    -18526.11    -4158.294 -5.4804519e-09 -1.5758038e-08 0.0018870834            0   -6.6906847   -6.6906847    33.365476    3.8349245    3.0095169    2.8909709        2 
     197            0     2249.328 0.0076439381     29110.24   -18355.328   -4006.9283 -5.5359885e-09 -1.4327979e-08 0.0017712955            0   -6.6915439   -6.6915439    33.357841     3.838145    3.0069318    2.8903669        2 
     198            0    2257.0932 0.0076849461    28806.176   -18176.727   -3858.1692 -5.4501801e-09 -1.4356499e-08 0.0017919182            0   -6.6923942   -6.6923942    33.350258    3.8413655    3.0043398    2.8897783        2 
     199            0    2265.0948 0.0077240467    28497.717   -17990.378   -3712.0549 -4.921492e-09 -1.4735822e-08 0.0018705063            0   -6.6932352   -6.6932352    33.342734     3.844586    3.0017415    2.8892049        2 
     200            0    2273.3329 0.0077650547    28184.855   -17796.181   -3568.6754 -4.1894966e-09 -1.10021e-08 0.0014644493            0   -6.6940668   -6.6940668    33.335274    3.8478065    2.9991376    2.8886467        2 
     201            0    2281.7047  0.007805109    27867.552   -17594.267   -3428.1716 -4.0971913e-09 -1.0770558e-08 0.0014647693            0   -6.6948887   -6.6948887    33.327885     3.851027    2.9965287    2.8881035        2 
     202            0     2290.185 0.0078449249    27545.776   -17384.596   -3290.6253 -5.5325462e-09 -1.4419315e-08  0.001839282            0   -6.6957005   -6.6957005    33.320573    3.8542475    2.9939156    2.8875752        2 
     203            0    2298.7088 0.0078849792    27219.499   -17167.247   -3156.1263 -5.3261311e-09 -1.4093563e-08 0.0017945683            0   -6.6965022   -6.6965022    33.313344     3.857468    2.9912991    2.8870617        2 
     204            0    2307.2443 0.0079250336    26888.724   -16942.269   -3024.7225 -5.6255157e-09 -1.0530062e-08  0.001451193            0   -6.6972933   -6.6972933    33.306205    3.8606885    2.9886798    2.8865628        2 
     205            0     2315.722 0.0079650879    26553.405   -16709.742   -2896.4972 -5.8833204e-09 -1.5008819e-08 0.0019833226            0   -6.6980737   -6.6980737    33.299162     3.863909    2.9860585    2.8860783        2 
     206            0    2324.0898 0.0080049038    26213.557   -16469.735   -2771.5525 -5.8288429e-09 -1.4703165e-08 0.0019409113            0    -6.698843    -6.698843    33.292222    3.8671295    2.9834361    2.8856079        2 
     207            0    2332.2409 0.0080459118    25869.082   -16222.398   -2649.9608 -2.8670174e-09 -7.7918946e-09 0.0011668877            0    -6.699601    -6.699601    33.285391      3.87035    2.9808133    2.8851516        2 
     208            0    2340.0804 0.0080859661    25519.958   -15967.871    -2531.846 -2.8506628e-09 -7.4985266e-09 0.0011650805            0   -6.7003475   -6.7003475    33.278676    3.8735705    2.9781911    2.8847091        2 
     209            0    2347.5325 0.0081269741    25166.156   -15706.309   -2417.2495 -3.7114345e-09 -1.0031077e-08 0.0014391839            0   -6.7010822   -6.7010822    33.272085     3.876791    2.9755702      2.88428        2 
     210            0    2354.5312 0.0081670284     24807.65   -15437.824   -2306.2324 -3.5543092e-09 -9.7439435e-09 0.0013674881            0   -6.7018048   -6.7018048    33.265622    3.8800115    2.9729515    2.8838642        2 
     211            0    2360.9738 0.0082070827     24444.41   -15162.626   -2198.8631 -4.419367e-09 -1.1977897e-08 0.0016720436            0   -6.7025151   -6.7025151    33.259296     3.883232    2.9703359    2.8834614        2 
     212            0    2366.8008 0.0082480907    24076.477   -14880.899   -2095.1757 -4.2250268e-09 -1.1521849e-08 0.0015990435            0   -6.7032129   -6.7032129    33.253113    3.8864525    2.9677243    2.8830713        2 
     213            0     2371.937  0.008286953    23703.826   -14592.793   -1995.2217 -2.8417104e-09 -7.8736232e-09 0.0011989959            0   -6.7038979   -6.7038979    33.247079     3.889673    2.9651177    2.8826935        2 
     214            0    2376.2232 0.0083270073    23326.381   -14298.609   -1899.1019 -2.8394328e-09 -7.6191446e-09 0.0011915456            0   -6.7045699   -6.7045699    33.241201    3.8928935    2.9625168    2.8823277        2 
     215            0    2379.5579 0.0083670616    22944.116   -13998.597   -1806.8459 -4.0766372e-09 -9.2301615e-09 0.0013887468            0   -6.7052286   -6.7052286    33.235486     3.896114    2.9599227    2.8819736        2 
     216            0    2381.8705 0.0084071159    22557.064    -13692.98   -1718.4715 -3.1830449e-09 -8.0980742e-09 0.0012929316            0   -6.7058739   -6.7058739    33.229939    3.8993345    2.9573364    2.8816308        2 
     217            0    2383.0271 0.0084478855     22165.17   -13382.037   -1634.0514 -3.8297576e-09 -9.7712294e-09 0.0015439242            0   -6.7065056   -6.7065056    33.224568     3.902555    2.9547587    2.8812988        2 
     218            0    2382.9227 0.0084879398    21768.442   -13066.083   -1553.5914 -3.5731666e-09 -9.3778315e-09 0.0014890114            0   -6.7071235   -6.7071235    33.219378    3.9057755    2.9521907    2.8809772        2 
     219            0    2381.5161 0.0085279942    21366.945   -12745.327   -1477.0698 -2.2765606e-09 -5.9273334e-09 0.0010278063            0   -6.7077273   -6.7077273    33.214375     3.908996    2.9496332    2.8806656        2 
     220            0    2378.5923 0.0085680485    20960.558   -12420.218   -1404.5631 -2.1846631e-09 -5.6820574e-09 0.0010146529            0    -6.708317    -6.708317    33.209565    3.9122165    2.9470874    2.8803635        2 
     221            0    2374.0954 0.0086081028     20549.33   -12090.999   -1336.0444 -2.1994889e-09 -5.7535332e-09 0.0010200695            0   -6.7088923   -6.7088923    33.204954     3.915437    2.9445542    2.8800704        2 
     222            0       2367.9 0.0086491108    20133.251    -11758.05   -1271.5009 -2.082289e-09 -5.5375209e-09 0.00099186669            0   -6.7094531   -6.7094531    33.200546    3.9186575    2.9420345    2.8797857        2 
     223            0    2359.9139 0.0086889267    19712.357   -11421.705   -1210.9109 -2.6956637e-09 -7.3339351e-09 0.0012159926            0   -6.7099993   -6.7099993    33.196348     3.921878    2.9395293    2.8795089        2 
     224            0    2350.0824 0.0087299347     19286.72   -11082.256   -1154.2163 -1.746275e-09 -5.5011222e-09 0.0009328543            0   -6.7105308   -6.7105308    33.192363    3.9250985    2.9370397    2.8792395        2 
     225            0     2338.248  0.008769989    18856.338   -10740.191   -1101.4025 -2.0396596e-09 -5.6900859e-09 0.0010171208            0   -6.7110474   -6.7110474    33.188596     3.928319    2.9345666    2.8789768        2 
     226            0    2324.3438 0.0088100433    18421.243   -10395.785   -1052.4267 -1.8606888e-09 -5.2050124e-09 0.00096433089            0    -6.711549    -6.711549    33.185052    3.9315395    2.9321111    2.8787201        2 
     227            0    2308.2297 0.0088500977    17981.415   -10049.478   -1007.2479 -1.6664238e-09 -4.9125788e-09 0.0009359827            0   -6.7120356   -6.7120356    33.181736      3.93476    2.9296742    2.8784688        2 
     228            0    2289.8564 0.0088911057    17536.971   -9701.6513    -965.7506 -2.0469726e-09 -5.3536173e-09 0.00099831649            0    -6.712507    -6.712507     33.17865    3.9379805    2.9272568    2.8782222        2 
     229            0    2269.1197 0.0089309216    17087.942   -9352.7222   -927.86061 -1.6142364e-09 -4.3116537e-09 0.00085576335            0   -6.7129634   -6.7129634    33.175798     3.941201    2.9248601    2.8779796        2 
     230            0    2245.9266 0.0089700222    16634.361   -9003.1007   -893.48015 -1.4207422e-09 -4.0066899e-09 0.00082035089            0   -6.7134045   -6.7134045    33.173184    3.9444215    2.9224849    2.8777401        2 
     231            0    2220.1508 0.0090169907     16176.25   -8653.2701   -862.52766 -1.2988897e-09 -3.6497862e-09 0.00076714499            0   -6.7138304   -6.7138304     33.17081     3.947642    2.9201323     2.877503        2 
     232            0    2191.7726 0.0090579987    15713.712   -8303.5372   -834.85736 -1.5839982e-09 -4.4019873e-09 0.00087996804            0   -6.7142411   -6.7142411    33.168678    3.9508625    2.9178034    2.8772674        2 
     233            0    2160.7081  0.009098053    15246.849   -7954.4172   -810.30778 -1.1585586e-09 -3.7806612e-09 0.00087802258            0   -6.7146366   -6.7146366     33.16679     3.954083    2.9154991    2.8770325        2 
     234            0    2126.9388 0.0091381073    14775.757   -7606.2325   -788.70825 -1.2831051e-09 -3.7391145e-09 0.00079260242            0   -6.7150169   -6.7150169    33.165148    3.9573035    2.9132204    2.8767972        2 
     235            0    2090.3803 0.0091791153    14300.539   -7259.5006   -769.89751 -1.1199462e-09 -3.2000198e-09 0.00071536079            0    -6.715382    -6.715382    33.163754     3.960524    2.9109684    2.8765608        2 
     236            0    2050.9394 0.0092189312      13821.2   -6914.6618   -753.72037 -1.0872574e-09 -3.1681991e-09 0.00073180672            0    -6.715732    -6.715732    33.162607    3.9637445    2.9087441     2.876322        2 
     237            0    2008.6122 0.0092589855      13337.9   -6572.1266   -739.93705 -1.0934051e-09 -2.8829067e-09 0.00067379415            0    -6.716067    -6.716067    33.161709     3.966965    2.9065485      2.87608        2 
     238            0    1963.3705 0.0092999935    12850.765   -6232.3256   -728.32848 -8.6390417e-10 -2.735955e-09 0.00065723363            0    -6.716387    -6.716387    33.161059    3.9701855    2.9043827    2.8758336        2 
     239            0    1915.1783 0.0093400478    12359.878   -5895.6959   -718.64756 -9.6855668e-10 -2.5319426e-09 0.00062677431            0   -6.7166922   -6.7166922    33.160655     3.973406    2.9022477    2.8755816        2 
     240            0    1864.0216 0.0093801022    11865.386   -5562.6834   -710.63812 -9.6214944e-10 -2.6301853e-09 0.00066564036            0   -6.7169826   -6.7169826    33.160499    3.9766265    2.9001445    2.8753229        2 
     241            0    1809.8933 0.0094199181    11367.432   -5233.7654   -703.98662 -8.5239199e-10 -2.4675784e-09 0.00064053054            0   -6.7172584   -6.7172584    33.160587     3.979847    2.8980742    2.8750561        2 
     242            0    1752.8601 0.0094599724    10866.207     -4909.25   -698.37711 -7.4979574e-10 -2.0561133e-09 0.00057565272            0   -6.7175196   -6.7175196    33.160917    3.9830675     2.896038      2.87478        2 
     243            0    1692.8667 0.0095009804    10361.807   -4589.6948   -693.51186 -5.1066697e-10 -1.513688e-09 0.00043439206            0   -6.7177666   -6.7177666    33.161489     3.986288    2.8940369    2.8744932        2 
     244            0    1629.8656  0.009540081    9854.2857    -4275.605     -689.084 -6.1692563e-10 -1.9453146e-09 0.00056581012            0   -6.7179994   -6.7179994    33.162298    3.9895085     2.892072    2.8741943        2 
     245            0     1564.026 0.0095829964    9343.9539   -3967.2463   -684.62976 -5.5593635e-10 -1.7889527e-09 0.00054492159            0   -6.7182181   -6.7182181    33.163341     3.992729    2.8901444    2.8738817        2 
     246            0    1495.4056 0.0096230507    8831.0281   -3665.0933     -679.718 -5.173651e-10 -1.5067991e-09 0.00048626251            0    -6.718423    -6.718423    33.164613    3.9959495    2.8882554    2.8735539        2 
     247            0    1423.9521  0.009663105    8315.5547   -3369.7007   -673.99781 -3.5112364e-10 -9.9533914e-10 0.00035017794            0   -6.7186143   -6.7186143    33.166112      3.99917    2.8864062    2.8732092        2 
     248            0     1349.737 0.0097029209    7797.6969   -3081.4656   -667.02023 -3.5470865e-10 -1.1053955e-09 0.00040293526            0   -6.7187922   -6.7187922    33.167833    4.0023905    2.8845981    2.8728459        2 
     249            0    1272.8692 0.0097470284    7277.7044   -2800.8458   -658.25105 -3.7685071e-10 -1.1900857e-09 0.00042065836            0   -6.7189568   -6.7189568    33.169769     4.005611    2.8828323    2.8724621        2 
     250            0    1193.4881 0.0097880363    6755.8372   -2528.2174   -647.15542 -2.5152477e-10 -8.6810397e-10 0.00034845694            0   -6.7191084   -6.7191084    33.171915    4.0088315    2.8811101    2.8720559        2 
     251            0    1111.6149 0.0098290443    6232.2225   -2264.1598   -633.21808 -1.8557224e-10 -7.1941709e-10 0.00031258406            0   -6.7192473   -6.7192473    33.174266     4.012052    2.8794332    2.8716253        2 
     252            0    1027.3386 0.0098690987    5707.0142   -2009.1514   -615.84692 -1.8405006e-10 -7.5454661e-10 0.00030460115            0   -6.7193736   -6.7193736    33.176816    4.0152725     2.877803    2.8711681        2 
     253            0     940.8315 0.0099089146    5180.5162   -1763.6372   -594.38458 -1.9634852e-10 -5.0553044e-10 0.00027450538            0   -6.7194876   -6.7194876    33.179557     4.018493    2.8762211    2.8706821        2 
     254            0    852.15962 0.0099499226    4652.8486   -1528.1732    -568.1965 -7.8482228e-11 -4.4316912e-10 0.0002474211            0   -6.7195895   -6.7195895    33.182483    4.0217135    2.8746893    2.8701649        2 
     255            0    761.44816 0.0099899769    4124.2577   -1303.3476   -536.56567 -1.55526e-10 -3.4363123e-10 0.00021932941            0   -6.7196795   -6.7196795    33.185587     4.024934    2.8732095    2.8696138        2 
     256            0    668.83062  0.010030031    3594.9481   -1089.7079   -498.74837 -7.494994e-11 -2.2660842e-10 0.00019314994            0    -6.719758    -6.719758    33.188862    4.0281545    2.8717838    2.8690261        2 
     257            0    574.45845  0.010070086    3065.1176    -887.8802   -453.86203 -1.2694116e-10 -1.6311437e-10 0.00016709528            0    -6.719825    -6.719825      33.1923     4.031375    2.8704145    2.8683988        2 
     258            0    478.44172  0.010109901     2534.962   -698.64034   -400.99652 -3.0559701e-11 -1.4425853e-10 0.00013896592            0   -6.7198809   -6.7198809    33.195895    4.0345955    2.8691043    2.8677286        2 
     259            0    380.86883  0.010149956    2004.6232   -522.77916   -339.23757 -3.4239747e-11 -1.0497957e-10 0.0001131542            0   -6.7199259   -6.7199259     33.19964     4.037816    2.8678562    2.8670119        2 
     260            0    281.91646   0.01019001    1474.3568   -361.18218   -267.42521 -4.0095155e-11 -2.5530318e-11 9.4752361e-05            0   -6.7199601   -6.7199601    33.203528    4.0410365    2.8666737    2.8662443        2 
     261            0    181.71287  0.010230064    944.32595   -215.03638   -184.15095 -8.8466474e-11 -6.0260985e-12 6.1139324e-05            0   -6.7199837   -6.7199837    33.207553     4.044257    2.8655615    2.8654207        2 
     262            0    80.186964  0.010287046    414.56462   -86.140009   -87.863724 -7.3726769e-11 -1.8159715e-11 2.9925841e-05            0   -6.7199969   -6.7199969    33.211717    4.0474775    2.8645265    2.8645343        2 
     263            0 -0.031341488  0.010349035  -0.15846292  -0.74154572   0.80598417 -3.8575046e-11 -5.3302179e-11 9.679438e-06            0        -6.72        -6.72    33.215063    4.0500009    2.8637857    2.8637787        2 
     264            0 -0.027682515   0.01041007  -0.15884404   0.61456536  -0.53876887 1.1714765e-12 1.6735378e-13 3.1512602e-06            0        -6.72        -6.72    33.215063     4.050001    2.8637795    2.8637848        2 
     265            0 -0.015113473  0.010471106  0.014164679 -0.032031302 -0.027473798 2.0919223e-12 -4.8950982e-11 2.7613374e-11            0        -6.72        -6.72    33.215062    4.0499998    2.8637825    2.8637825        2 
     266            0  0.014100375  0.010538101  0.033701373 0.0025380103 0.0060617406 -5.8573827e-11 3.2048251e-11 2.9245075e-11            0        -6.72        -6.72    33.215061    4.0499998    2.8637825    2.8637825        2 
     267            0 7.8988203e-05   0.01060009 8.1045137e-05 0.0011956268 -0.0010397073 7.865628e-12 -1.9245686e-12 2.0877385e-11            0        -6.72        -6.72    33.215062         4.05    2.8637824    2.8637824        2 
     268            0 -0.00026043338  0.010659933 -0.00031554508 -0.00038076724 -8.4987827e-05 -4.1922124e-11 -5.5477781e-11 3.3638111e-11            0        -6.72        -6.72    33.215062         4.05    2.8637824    2.8637824        2 
     269            0 0.00038447741  0.010720968 0.00028307747 0.00026696956 0.00060338521 -4.2340508e-11 -3.4976942e-11 -2.585616e-11            0        -6.72        -6.72    33.215062         4.05    2.8637824    2.8637824        2 
     270            0 -0.00016678436   0.01078105 -0.00019166048 -0.00024912202 -5.9570578e-05 4.175477e-11 9.8738735e-11 1.9915101e-11            0        -6.72        -6.72    33.215062         4.05    2.8637824    2.8637824        2 
     271            0 1.9697147e-05  0.010842085 3.5439995e-05 0.00019881442 -0.00017516297 6.3259732e-11 9.3718121e-12 -4.1587416e-11            0        -6.72        -6.72    33.215062         4.05    2.8637824    2.8637824        2 
     272            0 5.899175e-06  0.010901928 3.0533721e-05 -8.0780845e-06 -4.758111e-06 -1.3388303e-12 6.4431208e-12 -1.5747991e-10            0        -6.72        -6.72    33.215062         4.05    2.8637824    2.8637824        2 
     273            0 -4.6702864e-10  0.010977983 -4.8725055e-10 -2.3396059e-10 -6.7987476e-10 -8.3676894e-13 2.7613375e-12 2.7613375e-12            0        -6.72        -6.72    33.215062         4.05    2.8637824    2.8637824        2 
Loop time of 0.0109911 on 1 procs for 273 steps with 2 atoms

72.8% CPU use with 1 MPI tasks x no OpenMP threads

Minimization stats:
  Stopping criterion = force tolerance
  Energy initial, next-to-last, final = 
        -6.53368037746     -6.72000004581     -6.72000004581
  Force two-norm initial, final = 0.268964 1.8833e-14
  Force max component initial, final = 0.155286 1.58503e-14
  Final line search alpha, max atom move = 1 1.58503e-14
  Iterations, force evaluations = 273 286

MPI task timing breakdown:
Section |  min time  |  avg time  |  max time  |%varavg| %total
---------------------------------------------------------------
Pair    | 0.0032604  | 0.0032604  | 0.0032604  |   0.0 | 29.66
Neigh   | 1.502e-05  | 1.502e-05  | 1.502e-05  |   0.0 |  0.14
Comm    | 0.00073385 | 0.00073385 | 0.00073385 |   0.0 |  6.68
Output  | 0.0044608  | 0.0044608  | 0.0044608  |   0.0 | 40.59
Modify  | 0          | 0          | 0          |   0.0 |  0.00
Other   |            | 0.002521   |            |       | 22.94

Nlocal:    2 ave 2 max 2 min
Histogram: 1 0 0 0 0 0 0 0 0 0
Nghost:    387 ave 387 max 387 min
Histogram: 1 0 0 0 0 0 0 0 0 0
Neighs:    134 ave 134 max 134 min
Histogram: 1 0 0 0 0 0 0 0 0 0

Total # of neighbors = 134
Ave neighs/atom = 67
Neighbor list builds = 2
Dangerous builds = 0
#minimize ${etol} ${ftol} ${maxiter} ${maxeval}
#minimize ${etol} ${ftol} ${maxiter} ${maxeval}

variable tmp equal pxx
variable pxx0 equal ${tmp}
variable pxx0 equal -4.87250552014702e-10
variable tmp equal pyy
variable pyy0 equal ${tmp}
variable pyy0 equal -2.33960594785009e-10
variable tmp equal pzz
variable pzz0 equal ${tmp}
variable pzz0 equal -6.79874761311944e-10
variable tmp equal pyz
variable pyz0 equal ${tmp}
variable pyz0 equal 2.76133749209774e-12
variable tmp equal pxz
variable pxz0 equal ${tmp}
variable pxz0 equal 2.76133749209774e-12
variable tmp equal pxy
variable pxy0 equal ${tmp}
variable pxy0 equal -8.36768936999316e-13

variable tmp equal lx
variable lx0 equal ${tmp}
variable lx0 equal 4.04999996753359
variable tmp equal ly
variable ly0 equal ${tmp}
variable ly0 equal 2.8637824408483
variable tmp equal lz
variable lz0 equal ${tmp}
variable lz0 equal 2.8637824408483

# These formulas define the derivatives w.r.t. strain components
# Constants uses $, variables use v_
variable d1 equal -(v_pxx1-${pxx0})/(v_delta/v_len0)*${cfac}
variable d1 equal -(v_pxx1--4.87250552014702e-10)/(v_delta/v_len0)*${cfac}
variable d1 equal -(v_pxx1--4.87250552014702e-10)/(v_delta/v_len0)*0.0001
variable d2 equal -(v_pyy1-${pyy0})/(v_delta/v_len0)*${cfac}
variable d2 equal -(v_pyy1--2.33960594785009e-10)/(v_delta/v_len0)*${cfac}
variable d2 equal -(v_pyy1--2.33960594785009e-10)/(v_delta/v_len0)*0.0001
variable d3 equal -(v_pzz1-${pzz0})/(v_delta/v_len0)*${cfac}
variable d3 equal -(v_pzz1--6.79874761311944e-10)/(v_delta/v_len0)*${cfac}
variable d3 equal -(v_pzz1--6.79874761311944e-10)/(v_delta/v_len0)*0.0001
variable d4 equal -(v_pyz1-${pyz0})/(v_delta/v_len0)*${cfac}
variable d4 equal -(v_pyz1-2.76133749209774e-12)/(v_delta/v_len0)*${cfac}
variable d4 equal -(v_pyz1-2.76133749209774e-12)/(v_delta/v_len0)*0.0001
variable d5 equal -(v_pxz1-${pxz0})/(v_delta/v_len0)*${cfac}
variable d5 equal -(v_pxz1-2.76133749209774e-12)/(v_delta/v_len0)*${cfac}
variable d5 equal -(v_pxz1-2.76133749209774e-12)/(v_delta/v_len0)*0.0001
variable d6 equal -(v_pxy1-${pxy0})/(v_delta/v_len0)*${cfac}
variable d6 equal -(v_pxy1--8.36768936999316e-13)/(v_delta/v_len0)*${cfac}
variable d6 equal -(v_pxy1--8.36768936999316e-13)/(v_delta/v_len0)*0.0001

# Write restart
unfix 3
minimize ${etol} ${ftol} ${maxiter} ${maxeval}
minimize 0 ${ftol} ${maxiter} ${maxeval}
minimize 0 1e-10 ${maxiter} ${maxeval}
minimize 0 1e-10 1000 ${maxeval}
minimize 0 1e-10 1000 10000
Memory usage per processor = 3.33399 Mbytes
Step Temp Press CPU Pxx Pyy Pzz Pxy Pxz Pyz KinEng PotEng TotEng Volume Lx Ly Lz Atoms 
     273            0 -6.9063596e-10            0 -6.236282e-10 -6.7661136e-10 -7.7166831e-10 -1.4340128e-11 -1.2352801e-11 4.8699952e-11            0        -6.72        -6.72    33.215062         4.05    2.8637824    2.8637824        2 
     274            0 -6.0093433e-10 4.7922134e-05 -6.0756224e-10 -4.3160542e-10 -7.6363533e-10 -3.6294853e-12 -2.0051076e-11 6.008001e-11            0        -6.72        -6.72    33.215062         4.05    2.8637824    2.8637824        2 
Loop time of 6.10352e-05 on 1 procs for 1 steps with 2 atoms

0.0% CPU use with 1 MPI tasks x no OpenMP threads

Minimization stats:
  Stopping criterion = quadratic factors are zero
  Energy initial, next-to-last, final = 
        -6.72000004581     -6.72000004581     -6.72000004581
  Force two-norm initial, final = 3.22548e-15 3.2383e-15
  Force max component initial, final = 2.1233e-15 2.13718e-15
  Final line search alpha, max atom move = 1 2.13718e-15
  Iterations, force evaluations = 1 2

MPI task timing breakdown:
Section |  min time  |  avg time  |  max time  |%varavg| %total
---------------------------------------------------------------
Pair    | 3.6478e-05 | 3.6478e-05 | 3.6478e-05 |   0.0 | 59.77
Neigh   | 0          | 0          | 0          |   0.0 |  0.00
Comm    | 7.6294e-06 | 7.6294e-06 | 7.6294e-06 |   0.0 | 12.50
Output  | 0          | 0          | 0          |   0.0 |  0.00
Modify  | 0          | 0          | 0          |   0.0 |  0.00
Other   |            | 1.693e-05  |            |       | 27.73

Nlocal:    2 ave 2 max 2 min
Histogram: 1 0 0 0 0 0 0 0 0 0
Nghost:    387 ave 387 max 387 min
Histogram: 1 0 0 0 0 0 0 0 0 0
Neighs:    134 ave 134 max 134 min
Histogram: 1 0 0 0 0 0 0 0 0 0

Total # of neighbors = 134
Ave neighs/atom = 67
Neighbor list builds = 0
Dangerous builds = 0
#fix 1a all qeq/comb 1 0.0001 file fq.out
write_restart restart.equil
write_data data0

# uxx Perturbation

variable dir equal 1
include /users/knc6/displace.mod
# NOTE: This script should not need to be
# modified. See in.elastic for more info.
#
# Find which reference length to use

if "${dir} == 1" then    "variable len0 equal ${lx0}"
variable len0 equal ${lx0}
variable len0 equal 4.04999996753359
if "${dir} == 2" then    "variable len0 equal ${ly0}"
if "${dir} == 3" then    "variable len0 equal ${lz0}"
if "${dir} == 4" then    "variable len0 equal ${lz0}"
if "${dir} == 5" then    "variable len0 equal ${lz0}"
if "${dir} == 6" then    "variable len0 equal ${ly0}"

# Reset box and simulation parameters

clear
box tilt large
read_restart restart.equil
  triclinic box = (-0.41475 0.178359 0.178359) to (3.63525 3.04214 3.04214) with tilt (0 0 0)
  1 by 1 by 1 MPI processor grid
  2 atoms
include potential.mod
pair_style eam/alloy
pair_coeff * * /users/knc6/Software/jarvis/jarvis/lammps/examples/Al03.eam.alloy  Al
neighbor 1.0 nsq
neigh_modify once no every 1 delay 0 check yes
min_style  cg
min_modify           dmax ${dmax} line quadratic
min_modify           dmax 0.01 line quadratic
thermo          1
thermo_style custom step temp press cpu pxx pyy pzz pxy pxz pyz ke pe etotal vol lx ly lz atoms
thermo_modify norm no
# Negative deformation

variable delta equal -${up}*${len0}
variable delta equal -1e-06*${len0}
variable delta equal -1e-06*4.04999996753359
if "${dir} == 1" then    "change_box all x delta 0 ${delta} remap units box"
change_box all x delta 0 ${delta} remap units box
change_box all x delta 0 -4.04999996753359e-06 remap units box
  triclinic box = (-0.41475 0.178359 0.178359) to (3.63525 3.04214 3.04214) with tilt (0 0 0)
if "${dir} == 2" then    "change_box all y delta 0 ${delta} remap units box"
if "${dir} == 3" then    "change_box all z delta 0 ${delta} remap units box"
if "${dir} == 4" then    "change_box all yz delta ${delta} remap units box"
if "${dir} == 5" then    "change_box all xz delta ${delta} remap units box"
if "${dir} == 6" then    "change_box all xy delta ${delta} remap units box"

# Relax atoms positions

minimize ${etol} ${ftol} ${maxiter} ${maxeval}
minimize 0 ${ftol} ${maxiter} ${maxeval}
minimize 0 1e-10 ${maxiter} ${maxeval}
minimize 0 1e-10 1000 ${maxeval}
minimize 0 1e-10 1000 10000
Neighbor list info ...
  1 neighbor list requests
  update every 1 steps, delay 0 steps, check yes
  max neighbors/atom: 2000, page size: 100000
  master list distance cutoff = 7.72488
  ghost atom cutoff = 7.72488
Memory usage per processor = 3.33399 Mbytes
Step Temp Press CPU Pxx Pyy Pzz Pxy Pxz Pyz KinEng PotEng TotEng Volume Lx Ly Lz Atoms 
     274            0   0.79016912            0    1.1681595   0.60117394   0.60117394 3.2006444e-12 -5.6063575e-12 -8.0329898e-12            0        -6.72        -6.72    33.215028    4.0499959    2.8637824    2.8637824        2 
     275            0   0.79016912 5.1021576e-05    1.1681595   0.60117394   0.60117394 3.7027062e-12 6.7778352e-12 -6.6941582e-13            0        -6.72        -6.72    33.215028    4.0499959    2.8637824    2.8637824        2 
Loop time of 6.41346e-05 on 1 procs for 1 steps with 2 atoms

0.0% CPU use with 1 MPI tasks x no OpenMP threads

Minimization stats:
  Stopping criterion = quadratic factors are zero
  Energy initial, next-to-last, final = 
         -6.7200000458      -6.7200000458      -6.7200000458
  Force two-norm initial, final = 6.866e-16 6.03853e-16
  Force max component initial, final = 4.78784e-16 4.3715e-16
  Final line search alpha, max atom move = 1 4.3715e-16
  Iterations, force evaluations = 1 2

MPI task timing breakdown:
Section |  min time  |  avg time  |  max time  |%varavg| %total
---------------------------------------------------------------
Pair    | 3.4332e-05 | 3.4332e-05 | 3.4332e-05 |   0.0 | 53.53
Neigh   | 0          | 0          | 0          |   0.0 |  0.00
Comm    | 7.8678e-06 | 7.8678e-06 | 7.8678e-06 |   0.0 | 12.27
Output  | 0          | 0          | 0          |   0.0 |  0.00
Modify  | 0          | 0          | 0          |   0.0 |  0.00
Other   |            | 2.193e-05  |            |       | 34.20

Nlocal:    2 ave 2 max 2 min
Histogram: 1 0 0 0 0 0 0 0 0 0
Nghost:    387 ave 387 max 387 min
Histogram: 1 0 0 0 0 0 0 0 0 0
Neighs:    134 ave 134 max 134 min
Histogram: 1 0 0 0 0 0 0 0 0 0

Total # of neighbors = 134
Ave neighs/atom = 67
Neighbor list builds = 0
Dangerous builds = 0

# Obtain new stress tensor

variable tmp equal pxx
variable pxx1 equal ${tmp}
variable pxx1 equal 1.16815949883751
variable tmp equal pyy
variable pyy1 equal ${tmp}
variable pyy1 equal 0.601173936268211
variable tmp equal pzz
variable pzz1 equal ${tmp}
variable pzz1 equal 0.601173935939863
variable tmp equal pxy
variable pxy1 equal ${tmp}
variable pxy1 equal 3.70270624892822e-12
variable tmp equal pxz
variable pxz1 equal ${tmp}
variable pxz1 equal 6.77783516752963e-12
variable tmp equal pyz
variable pyz1 equal ${tmp}
variable pyz1 equal -6.69415819015272e-13

# Compute elastic constant from pressure tensor

variable C1neg equal ${d1}
variable C1neg equal 116.815949932476
variable C2neg equal ${d2}
variable C2neg equal 60.1173936502172
variable C3neg equal ${d3}
variable C3neg equal 60.1173936619738
variable C4neg equal ${d4}
variable C4neg equal -3.43075331111301e-10
variable C5neg equal ${d5}
variable C5neg equal 4.01649767543189e-10
variable C6neg equal ${d6}
variable C6neg equal 4.53947518592754e-10

# Reset box and simulation parameters

clear
box tilt large
read_restart restart.equil
  triclinic box = (-0.41475 0.178359 0.178359) to (3.63525 3.04214 3.04214) with tilt (0 0 0)
  1 by 1 by 1 MPI processor grid
  2 atoms
include potential.mod
pair_style eam/alloy
pair_coeff * * /users/knc6/Software/jarvis/jarvis/lammps/examples/Al03.eam.alloy  Al
neighbor 1.0 nsq
neigh_modify once no every 1 delay 0 check yes
min_style  cg
min_modify           dmax ${dmax} line quadratic
min_modify           dmax 0.01 line quadratic
thermo          1
thermo_style custom step temp press cpu pxx pyy pzz pxy pxz pyz ke pe etotal vol lx ly lz atoms
thermo_modify norm no

# Positive deformation

variable delta equal ${up}*${len0}
variable delta equal 1e-06*${len0}
variable delta equal 1e-06*4.04999996753359
if "${dir} == 1" then    "change_box all x delta 0 ${delta} remap units box"
change_box all x delta 0 ${delta} remap units box
change_box all x delta 0 4.04999996753359e-06 remap units box
  triclinic box = (-0.41475 0.178359 0.178359) to (3.63525 3.04214 3.04214) with tilt (0 0 0)
if "${dir} == 2" then    "change_box all y delta 0 ${delta} remap units box"
if "${dir} == 3" then    "change_box all z delta 0 ${delta} remap units box"
if "${dir} == 4" then    "change_box all yz delta ${delta} remap units box"
[...]
Histogram: 1 0 0 0 0 0 0 0 0 0
Nghost:    387 ave 387 max 387 min
Histogram: 1 0 0 0 0 0 0 0 0 0
Neighs:    134 ave 134 max 134 min
Histogram: 1 0 0 0 0 0 0 0 0 0

Total # of neighbors = 134
Ave neighs/atom = 67
Neighbor list builds = 0
Dangerous builds = 0

# Obtain new stress tensor

variable tmp equal pe
variable e1 equal ${tmp}
variable e1 equal -6.72000004580711
variable tmp equal press
variable p1 equal ${tmp}
variable p1 equal 7.04439157675462e-07
variable tmp equal pxx
variable pxx1 equal ${tmp}
variable pxx1 equal 8.47550574007406e-07
variable tmp equal pyy
variable pyy1 equal ${tmp}
variable pyy1 equal 5.99617574903741e-07
variable tmp equal pzz
variable pzz1 equal ${tmp}
variable pzz1 equal 6.66149324115238e-07
variable tmp equal pxy
variable pxy1 equal ${tmp}
variable pxy1 equal 1.37020913433638e-12
variable tmp equal pxz
variable pxz1 equal ${tmp}
variable pxz1 equal -0.316596214546017
variable tmp equal pyz
variable pyz1 equal ${tmp}
variable pyz1 equal -1.92456855509843e-12

# Compute elastic constant from pressure tensor

variable C1pos equal ${d1}
variable C1pos equal -8.48037824559421e-05
variable C2pos equal ${d2}
variable C2pos equal -5.99851535498526e-05
variable C3pos equal ${d3}
variable C3pos equal -6.6682919887655e-05
variable C4pos equal ${d4}
variable C4pos equal 4.68590604719617e-10
variable C5pos equal ${d5}
variable C5pos equal 31.6596214548778
variable C6pos equal ${d6}
variable C6pos equal -2.2069780713357e-10

# Combine positive and negative

variable C1${dir} equal 0.5*(${C1neg}+${C1pos})
variable C15 equal 0.5*(${C1neg}+${C1pos})
variable C15 equal 0.5*(8.47985531730664e-05+${C1pos})
variable C15 equal 0.5*(8.47985531730664e-05+-8.48037824559421e-05)
variable C2${dir} equal 0.5*(${C2neg}+${C2pos})
variable C25 equal 0.5*(${C2neg}+${C2pos})
variable C25 equal 0.5*(5.99811119558869e-05+${C2pos})
variable C25 equal 0.5*(5.99811119558869e-05+-5.99851535498526e-05)
variable C3${dir} equal 0.5*(${C3neg}+${C3pos})
variable C35 equal 0.5*(${C3neg}+${C3pos})
variable C35 equal 0.5*(6.66758324547586e-05+${C3pos})
variable C35 equal 0.5*(6.66758324547586e-05+-6.6682919887655e-05)
variable C4${dir} equal 0.5*(${C4neg}+${C4pos})
variable C45 equal 0.5*(${C4neg}+${C4pos})
variable C45 equal 0.5*(-1.26352109486897e-09+${C4pos})
variable C45 equal 0.5*(-1.26352109486897e-09+4.68590604719617e-10)
variable C5${dir} equal 0.5*(${C5neg}+${C5pos})
variable C55 equal 0.5*(${C5neg}+${C5pos})
variable C55 equal 0.5*(31.6596214375254+${C5pos})
variable C55 equal 0.5*(31.6596214375254+31.6596214548778)
variable C6${dir} equal 0.5*(${C6neg}+${C6pos})
variable C65 equal 0.5*(${C6neg}+${C6pos})
variable C65 equal 0.5*(2.8136355506602e-10+${C6pos})
variable C65 equal 0.5*(2.8136355506602e-10+-2.2069780713357e-10)

# Delete dir to make sure it is not reused

variable dir delete

# uxy Perturbation

variable dir equal 6
include /users/knc6/displace.mod
# NOTE: This script should not need to be
# modified. See in.elastic for more info.
#
# Find which reference length to use

if "${dir} == 1" then    "variable len0 equal ${lx0}"
if "${dir} == 2" then    "variable len0 equal ${ly0}"
if "${dir} == 3" then    "variable len0 equal ${lz0}"
if "${dir} == 4" then    "variable len0 equal ${lz0}"
if "${dir} == 5" then    "variable len0 equal ${lz0}"
if "${dir} == 6" then    "variable len0 equal ${ly0}"
variable len0 equal ${ly0}
variable len0 equal 2.8637824408483

# Reset box and simulation parameters

clear
box tilt large
read_restart restart.equil
  triclinic box = (-0.41475 0.178359 0.178359) to (3.63525 3.04214 3.04214) with tilt (0 0 0)
  1 by 1 by 1 MPI processor grid
  2 atoms
include potential.mod
pair_style eam/alloy
pair_coeff * * /users/knc6/Software/jarvis/jarvis/lammps/examples/Al03.eam.alloy  Al
neighbor 1.0 nsq
neigh_modify once no every 1 delay 0 check yes
min_style  cg
min_modify           dmax ${dmax} line quadratic
min_modify           dmax 0.01 line quadratic
thermo          1
thermo_style custom step temp press cpu pxx pyy pzz pxy pxz pyz ke pe etotal vol lx ly lz atoms
thermo_modify norm no
# Negative deformation

variable delta equal -${up}*${len0}
variable delta equal -1e-06*${len0}
variable delta equal -1e-06*2.8637824408483
if "${dir} == 1" then    "change_box all x delta 0 ${delta} remap units box"
if "${dir} == 2" then    "change_box all y delta 0 ${delta} remap units box"
if "${dir} == 3" then    "change_box all z delta 0 ${delta} remap units box"
if "${dir} == 4" then    "change_box all yz delta ${delta} remap units box"
if "${dir} == 5" then    "change_box all xz delta ${delta} remap units box"
if "${dir} == 6" then    "change_box all xy delta ${delta} remap units box"
change_box all xy delta ${delta} remap units box
change_box all xy delta -2.8637824408483e-06 remap units box
  triclinic box = (-0.41475 0.178359 0.178359) to (3.63525 3.04214 3.04214) with tilt (-2.86378e-06 0 0)

# Relax atoms positions

minimize ${etol} ${ftol} ${maxiter} ${maxeval}
minimize 0 ${ftol} ${maxiter} ${maxeval}
minimize 0 1e-10 ${maxiter} ${maxeval}
minimize 0 1e-10 1000 ${maxeval}
minimize 0 1e-10 1000 10000
Neighbor list info ...
  1 neighbor list requests
  update every 1 steps, delay 0 steps, check yes
  max neighbors/atom: 2000, page size: 100000
  master list distance cutoff = 7.72488
  ghost atom cutoff = 7.72488
Memory usage per processor = 3.33399 Mbytes
Step Temp Press CPU Pxx Pyy Pzz Pxy Pxz Pyz KinEng PotEng TotEng Volume Lx Ly Lz Atoms 
     274            0 7.043003e-07            0 8.4754619e-07 6.6607954e-07 5.9927517e-07   0.31659621 6.5811877e-11 -2.6776606e-11            0        -6.72        -6.72    33.215062         4.05    2.8637824    2.8637824        2 
     275            0 7.0437308e-07 4.8160553e-05 8.4755116e-07 6.6630304e-07 5.9926504e-07   0.31659621 -1.7634905e-11 -4.2256831e-11            0        -6.72        -6.72    33.215062         4.05    2.8637824    2.8637824        2 
Loop time of 6.10352e-05 on 1 procs for 1 steps with 2 atoms

0.0% CPU use with 1 MPI tasks x no OpenMP threads

Minimization stats:
  Stopping criterion = force tolerance
  Energy initial, next-to-last, final = 
        -6.72000004581     -6.72000004581     -6.72000004581
  Force two-norm initial, final = 8.03719e-15 3.00712e-15
  Force max component initial, final = 5.58581e-15 1.88738e-15
  Final line search alpha, max atom move = 1 1.88738e-15
  Iterations, force evaluations = 1 2

MPI task timing breakdown:
Section |  min time  |  avg time  |  max time  |%varavg| %total
---------------------------------------------------------------
Pair    | 3.3855e-05 | 3.3855e-05 | 3.3855e-05 |   0.0 | 55.47
Neigh   | 0          | 0          | 0          |   0.0 |  0.00
Comm    | 7.8678e-06 | 7.8678e-06 | 7.8678e-06 |   0.0 | 12.89
Output  | 0          | 0          | 0          |   0.0 |  0.00
Modify  | 0          | 0          | 0          |   0.0 |  0.00
Other   |            | 1.931e-05  |            |       | 31.64

Nlocal:    2 ave 2 max 2 min
Histogram: 1 0 0 0 0 0 0 0 0 0
Nghost:    387 ave 387 max 387 min
Histogram: 1 0 0 0 0 0 0 0 0 0
Neighs:    134 ave 134 max 134 min
Histogram: 1 0 0 0 0 0 0 0 0 0

Total # of neighbors = 134
Ave neighs/atom = 67
Neighbor list builds = 0
Dangerous builds = 0

# Obtain new stress tensor

variable tmp equal pxx
variable pxx1 equal ${tmp}
variable pxx1 equal 8.47551164975467e-07
variable tmp equal pyy
variable pyy1 equal ${tmp}
variable pyy1 equal 6.66303038568965e-07
variable tmp equal pzz
variable pzz1 equal ${tmp}
variable pzz1 equal 5.99265044150584e-07
variable tmp equal pxy
variable pxy1 equal ${tmp}
variable pxy1 equal 0.316596214457623
variable tmp equal pxz
variable pxz1 equal ${tmp}
variable pxz1 equal -1.76349053472606e-11
variable tmp equal pyz
variable pyz1 equal ${tmp}
variable pyz1 equal -4.22568313184655e-11

# Compute elastic constant from pressure tensor

variable C1neg equal ${d1}
variable C1neg equal 8.48038415527482e-05
variable C2neg equal ${d2}
variable C2neg equal 6.6653699916375e-05
variable C3neg equal ${d3}
variable C3neg equal 5.99944918911896e-05
variable C4neg equal ${d4}
variable C4neg equal -4.50181688105632e-09
variable C5neg equal ${d5}
variable C5neg equal -2.03962428393583e-09
variable C6neg equal ${d6}
variable C6neg equal 31.659621445846

# Reset box and simulation parameters

clear
box tilt large
read_restart restart.equil
  triclinic box = (-0.41475 0.178359 0.178359) to (3.63525 3.04214 3.04214) with tilt (0 0 0)
  1 by 1 by 1 MPI processor grid
  2 atoms
include potential.mod
pair_style eam/alloy
pair_coeff * * /users/knc6/Software/jarvis/jarvis/lammps/examples/Al03.eam.alloy  Al
neighbor 1.0 nsq
neigh_modify once no every 1 delay 0 check yes
min_style  cg
min_modify           dmax ${dmax} line quadratic
min_modify           dmax 0.01 line quadratic
thermo          1
thermo_style custom step temp press cpu pxx pyy pzz pxy pxz pyz ke pe etotal vol lx ly lz atoms
thermo_modify norm no

# Positive deformation

variable delta equal ${up}*${len0}
variable delta equal 1e-06*${len0}
variable delta equal 1e-06*2.8637824408483
if "${dir} == 1" then    "change_box all x delta 0 ${delta} remap units box"
if "${dir} == 2" then    "change_box all y delta 0 ${delta} remap units box"
if "${dir} == 3" then    "change_box all z delta 0 ${delta} remap units box"
if "${dir} == 4" then    "change_box all yz delta ${delta} remap units box"
if "${dir} == 5" then    "change_box all xz delta ${delta} remap units box"
if "${dir} == 6" then    "change_box all xy delta ${delta} remap units box"
change_box all xy delta ${delta} remap units box
change_box all xy delta 2.8637824408483e-06 remap units box
  triclinic box = (-0.41475 0.178359 0.178359) to (3.63525 3.04214 3.04214) with tilt (2.86378e-06 0 0)

# Relax atoms positions

minimize ${etol} ${ftol} ${maxiter} ${maxeval}
minimize 0 ${ftol} ${maxiter} ${maxeval}
minimize 0 1e-10 ${maxiter} ${maxeval}
minimize 0 1e-10 1000 ${maxeval}
minimize 0 1e-10 1000 10000
Neighbor list info ...
  1 neighbor list requests
  update every 1 steps, delay 0 steps, check yes
  max neighbors/atom: 2000, page size: 100000
  master list distance cutoff = 7.72488
  ghost atom cutoff = 7.72488
Memory usage per processor = 3.33399 Mbytes
Step Temp Press CPU Pxx Pyy Pzz Pxy Pxz Pyz KinEng PotEng TotEng Volume Lx Ly Lz Atoms 
     274            0 7.043367e-07            0 8.4761664e-07 6.661474e-07 5.9924605e-07  -0.31659621 4.6754464e-12 -1.3890364e-11            0        -6.72        -6.72    33.215062         4.05    2.8637824    2.8637824        2 
     275            0 7.0430717e-07 4.7922134e-05 8.4743527e-07 6.6623426e-07 5.9925199e-07  -0.31659621 -4.552023e-11 2.9203236e-11            0        -6.72        -6.72    33.215062         4.05    2.8637824    2.8637824        2 
Loop time of 6.19888e-05 on 1 procs for 1 steps with 2 atoms

0.0% CPU use with 1 MPI tasks x no OpenMP threads

Minimization stats:
  Stopping criterion = force tolerance
  Energy initial, next-to-last, final = 
        -6.72000004581     -6.72000004581     -6.72000004581
  Force two-norm initial, final = 1.023e-14 1.88105e-15
  Force max component initial, final = 7.20951e-15 1.0339e-15
  Final line search alpha, max atom move = 1 1.0339e-15
  Iterations, force evaluations = 1 2

MPI task timing breakdown:
Section |  min time  |  avg time  |  max time  |%varavg| %total
---------------------------------------------------------------
Pair    | 3.4094e-05 | 3.4094e-05 | 3.4094e-05 |   0.0 | 55.00
Neigh   | 0          | 0          | 0          |   0.0 |  0.00
Comm    | 7.1526e-06 | 7.1526e-06 | 7.1526e-06 |   0.0 | 11.54
Output  | 0          | 0          | 0          |   0.0 |  0.00
Modify  | 0          | 0          | 0          |   0.0 |  0.00
Other   |            | 2.074e-05  |            |       | 33.46

Nlocal:    2 ave 2 max 2 min
Histogram: 1 0 0 0 0 0 0 0 0 0
Nghost:    387 ave 387 max 387 min
Histogram: 1 0 0 0 0 0 0 0 0 0
Neighs:    134 ave 134 max 134 min
Histogram: 1 0 0 0 0 0 0 0 0 0

Total # of neighbors = 134
Ave neighs/atom = 67
Neighbor list builds = 0
Dangerous builds = 0

# Obtain new stress tensor

variable tmp equal pe
variable e1 equal ${tmp}
variable e1 equal -6.72000004580711
variable tmp equal press
variable p1 equal ${tmp}
variable p1 equal 7.04307171321799e-07
variable tmp equal pxx
variable pxx1 equal ${tmp}
variable pxx1 equal 8.47435267247887e-07
variable tmp equal pyy
variable pyy1 equal ${tmp}
variable pyy1 equal 6.66234256162344e-07
variable tmp equal pzz
variable pzz1 equal ${tmp}
variable pzz1 equal 5.99251990555166e-07
variable tmp equal pxy
variable pxy1 equal ${tmp}
variable pxy1 equal -0.316596214544061
variable tmp equal pxz
variable pxz1 equal ${tmp}
variable pxz1 equal -4.55202301727628e-11
variable tmp equal pyz
variable pyz1 equal ${tmp}
variable pyz1 equal 2.92032359012761e-11

# Compute elastic constant from pressure tensor

variable C1pos equal ${d1}
variable C1pos equal -8.47922517799902e-05
variable C2pos equal ${d2}
variable C2pos equal -6.66468216757129e-05
variable C3pos equal ${d3}
variable C3pos equal -5.99931865316478e-05
variable C4pos equal ${d4}
variable C4pos equal -2.64418984091784e-09
variable C5pos equal ${d5}
variable C5pos equal 4.82815676648606e-09
variable C6pos equal ${d6}
variable C6pos equal 31.6596214543224

# Combine positive and negative

variable C1${dir} equal 0.5*(${C1neg}+${C1pos})
variable C16 equal 0.5*(${C1neg}+${C1pos})
variable C16 equal 0.5*(8.48038415527482e-05+${C1pos})
variable C16 equal 0.5*(8.48038415527482e-05+-8.47922517799902e-05)
variable C2${dir} equal 0.5*(${C2neg}+${C2pos})
variable C26 equal 0.5*(${C2neg}+${C2pos})
variable C26 equal 0.5*(6.6653699916375e-05+${C2pos})
variable C26 equal 0.5*(6.6653699916375e-05+-6.66468216757129e-05)
variable C3${dir} equal 0.5*(${C3neg}+${C3pos})
variable C36 equal 0.5*(${C3neg}+${C3pos})
variable C36 equal 0.5*(5.99944918911896e-05+${C3pos})
variable C36 equal 0.5*(5.99944918911896e-05+-5.99931865316478e-05)
variable C4${dir} equal 0.5*(${C4neg}+${C4pos})
variable C46 equal 0.5*(${C4neg}+${C4pos})
variable C46 equal 0.5*(-4.50181688105632e-09+${C4pos})
variable C46 equal 0.5*(-4.50181688105632e-09+-2.64418984091784e-09)
variable C5${dir} equal 0.5*(${C5neg}+${C5pos})
variable C56 equal 0.5*(${C5neg}+${C5pos})
variable C56 equal 0.5*(-2.03962428393583e-09+${C5pos})
variable C56 equal 0.5*(-2.03962428393583e-09+4.82815676648606e-09)
variable C6${dir} equal 0.5*(${C6neg}+${C6pos})
variable C66 equal 0.5*(${C6neg}+${C6pos})
variable C66 equal 0.5*(31.659621445846+${C6pos})
variable C66 equal 0.5*(31.659621445846+31.6596214543224)

# Delete dir to make sure it is not reused

variable dir delete

# Output final values

variable C11all equal ${C11}
variable C11all equal 116.815477491686
variable C22all equal ${C22}
variable C22all equal 120.125972431318
variable C33all equal ${C33}
variable C33all equal 120.125972433728

variable C12all equal 0.5*(${C12}+${C21})
variable C12all equal 0.5*(60.117224467704+${C21})
variable C12all equal 0.5*(60.117224467704+60.1172244649398)
variable C13all equal 0.5*(${C13}+${C31})
variable C13all equal 0.5*(60.1172244656827+${C31})
variable C13all equal 0.5*(60.1172244656827+60.1172244629231)
variable C23all equal 0.5*(${C23}+${C32})
variable C23all equal 0.5*(56.8067295405043+${C32})
variable C23all equal 0.5*(56.8067295405043+56.8067295393328)

variable C44all equal ${C44}
variable C44all equal 28.3491265136761
variable C55all equal ${C55}
variable C55all equal 31.6596214462016
variable C66all equal ${C66}
variable C66all equal 31.6596214500842

variable C14all equal 0.5*(${C14}+${C41})
variable C14all equal 0.5*(1.20416279840113e-09+${C41})
variable C14all equal 0.5*(1.20416279840113e-09+1.50618191100104e-10)
variable C15all equal 0.5*(${C15}+${C51})
variable C15all equal 0.5*(-2.61464143784811e-09+${C51})
variable C15all equal 0.5*(-2.61464143784811e-09+2.36387666098158e-10)
variable C16all equal 0.5*(${C16}+${C61})
variable C16all equal 0.5*(5.79488637899927e-09+${C61})
variable C16all equal 0.5*(5.79488637899927e-09+1.94025973511368e-10)

variable C24all equal 0.5*(${C24}+${C42})
variable C24all equal 0.5*(-3.12951582434818e-09+${C42})
variable C24all equal 0.5*(-3.12951582434818e-09+-2.81990804592397e-09)
variable C25all equal 0.5*(${C25}+${C52})
variable C25all equal 0.5*(-2.02079698285022e-09+${C52})
variable C25all equal 0.5*(-2.02079698285022e-09+7.48386472659939e-10)
variable C26all equal 0.5*(${C26}+${C62})
variable C26all equal 0.5*(3.43912033104617e-09+${C62})
variable C26all equal 0.5*(3.43912033104617e-09+3.25816787173802e-10)

variable C34all equal 0.5*(${C34}+${C43})
variable C34all equal 0.5*(1.17147651144565e-10+${C43})
variable C34all equal 0.5*(1.17147651144565e-10+4.01649290584619e-10)
variable C35all equal 0.5*(${C35}+${C53})
variable C35all equal 0.5*(-3.54371644820052e-09+${C53})
variable C35all equal 0.5*(-3.54371644820052e-09+4.47148519426049e-10)
variable C36all equal 0.5*(${C36}+${C63})
variable C36all equal 0.5*(6.52679770899746e-10+${C63})
variable C36all equal 0.5*(6.52679770899746e-10+-5.85737785217582e-11)

variable C45all equal 0.5*(${C45}+${C54})
variable C45all equal 0.5*(-3.97465245074677e-10+${C54})
variable C45all equal 0.5*(-3.97465245074677e-10+-3.81775827505935e-11)
variable C46all equal 0.5*(${C46}+${C64})
variable C46all equal 0.5*(-3.57300336098708e-09+${C64})
variable C46all equal 0.5*(-3.57300336098708e-09+6.51110829102594e-10)
variable C56all equal 0.5*(${C56}+${C65})
variable C56all equal 0.5*(1.39426624127512e-09+${C65})
variable C56all equal 0.5*(1.39426624127512e-09+3.0332873966225e-11)

# For Stillinger-Weber silicon, the analytical results
# are known to be (E. R. Cowley, 1988):
#               C11 = 151.4 GPa
#               C12 = 76.4 GPa
#               C44 = 56.4 GPa

print "Elastic Constant C11all = ${C11all} ${cunits}"
Elastic Constant C11all = 116.815477491686 GPa
print "Elastic Constant C22all = ${C22all} ${cunits}"
Elastic Constant C22all = 120.125972431318 GPa
print "Elastic Constant C33all = ${C33all} ${cunits}"
Elastic Constant C33all = 120.125972433728 GPa

print "Elastic Constant C12all = ${C12all} ${cunits}"
Elastic Constant C12all = 60.1172244663219 GPa
print "Elastic Constant C13all = ${C13all} ${cunits}"
Elastic Constant C13all = 60.1172244643029 GPa
print "Elastic Constant C23all = ${C23all} ${cunits}"
Elastic Constant C23all = 56.8067295399185 GPa

print "Elastic Constant C44all = ${C44all} ${cunits}"
Elastic Constant C44all = 28.3491265136761 GPa
print "Elastic Constant C55all = ${C55all} ${cunits}"
Elastic Constant C55all = 31.6596214462016 GPa
print "Elastic Constant C66all = ${C66all} ${cunits}"
Elastic Constant C66all = 31.6596214500842 GPa

print "Elastic Constant C14all = ${C14all} ${cunits}"
Elastic Constant C14all = 6.77390494750617e-10 GPa
print "Elastic Constant C15all = ${C15all} ${cunits}"
Elastic Constant C15all = -1.18912688587498e-09 GPa
print "Elastic Constant C16all = ${C16all} ${cunits}"
Elastic Constant C16all = 2.99445617625532e-09 GPa

print "Elastic Constant C24all = ${C24all} ${cunits}"
Elastic Constant C24all = -2.97471193513607e-09 GPa
print "Elastic Constant C25all = ${C25all} ${cunits}"
Elastic Constant C25all = -6.36205255095141e-10 GPa
print "Elastic Constant C26all = ${C26all} ${cunits}"
Elastic Constant C26all = 1.88246855910999e-09 GPa

print "Elastic Constant C34all = ${C34all} ${cunits}"
Elastic Constant C34all = 2.59398470864592e-10 GPa
print "Elastic Constant C35all = ${C35all} ${cunits}"
Elastic Constant C35all = -1.54828396438724e-09 GPa
print "Elastic Constant C36all = ${C36all} ${cunits}"
Elastic Constant C36all = 2.97052996188994e-10 GPa

print "Elastic Constant C45all = ${C45all} ${cunits}"
Elastic Constant C45all = -2.17821413912635e-10 GPa
print "Elastic Constant C46all = ${C46all} ${cunits}"
Elastic Constant C46all = -1.46094626594224e-09 GPa
print "Elastic Constant C56all = ${C56all} ${cunits}"
Elastic Constant C56all = 7.12299557620672e-10 GPa

Total wall time: 0:00:00
