datafile (written by JARVIS-FF) 

1008 	 atoms 
1  atom types
0.0 29.204965097  xlo xhi
0.0 25.217301550  ylo yhi
0.0 48.708360947  zlo zhi
4.493071553 0E-9 0E-9  xy xz yz


Atoms 

     1   1 0.000000 31.545106531 16.548854143 16.100819313
     2   1 0.000000 16.942623983 16.548854143 16.100819313
     3   1 0.000000 25.928767089 12.345970551 16.100819313
     4   1 0.000000 11.326284541 12.345970551 16.100819313
     5   1 0.000000 28.175302866 17.149266084 13.936003271
     6   1 0.000000 13.572820318 17.149266084 13.936003271
     7   1 0.000000 29.298570755 3.940203367 16.100819313
     8   1 0.000000 14.696088206 3.940203367 16.100819313
     9   1 0.000000 2.340141434 8.743498901 13.936003271
    10   1 0.000000 16.942623983 8.743498901 13.936003271
    11   1 0.000000 2.340141434 12.646176522 15.018411292
    12   1 0.000000 16.942623983 12.646176522 15.018411292
    13   1 0.000000 22.558963424 9.043704872 12.853595250
    14   1 0.000000 7.956480876 9.043704872 12.853595250
    15   1 0.000000 22.558963424 12.946382493 13.936003271
    16   1 0.000000 7.956480876 12.946382493 13.936003271
    17   1 0.000000 22.558963424 16.849060113 15.018411292
    18   1 0.000000 7.956480876 16.849060113 15.018411292
    19   1 0.000000 28.175302866 24.954621326 16.100819313
    20   1 0.000000 13.572820318 24.954621326 16.100819313
    21   1 0.000000 25.928767089 4.540615309 13.936003271
    22   1 0.000000 11.326284541 4.540615309 13.936003271
    23   1 0.000000 25.928767089 8.443292930 15.018411292
    24   1 0.000000 11.326284541 8.443292930 15.018411292
    25   1 0.000000 4.586677211 21.352149676 13.936003271
    26   1 0.000000 19.189159759 21.352149676 13.936003271
    27   1 0.000000 0.093605657 0.037525746 15.018411292
    28   1 0.000000 14.696088206 0.037525746 15.018411292
    29   1 0.000000 24.805499201 21.652355647 12.853595250
    30   1 0.000000 10.203016653 21.652355647 12.853595250
    31   1 0.000000 20.312427648 0.337731717 13.936003271
    32   1 0.000000 5.709945099 0.337731717 13.936003271
    33   1 0.000000 20.312427648 4.240409338 15.018411292
    34   1 0.000000 5.709945099 4.240409338 15.018411292
    35   1 0.000000 28.175302866 21.051943705 15.018411292
    36   1 0.000000 13.572820318 21.051943705 15.018411292
    37   1 0.000000 6.271579043 19.100604895 14.477207282
    38   1 0.000000 20.874061592 19.100604895 14.477207282
    39   1 0.000000 29.860204699 14.897721303 14.477207282
    40   1 0.000000 15.257722150 14.897721303 14.477207282
    41   1 0.000000 29.860204699 18.800398924 15.559615303
    42   1 0.000000 15.257722150 18.800398924 15.559615303
    43   1 0.000000 4.025043267 6.491954119 14.477207282
    44   1 0.000000 18.627525815 6.491954119 14.477207282
    45   1 0.000000 4.025043267 10.394631740 15.559615303
    46   1 0.000000 18.627525815 10.394631740 15.559615303
    47   1 0.000000 6.271579043 15.197927274 13.394799261
    48   1 0.000000 20.874061592 15.197927274 13.394799261
    49   1 0.000000 24.243865257 10.694837711 14.477207282
    50   1 0.000000 9.641382708 10.694837711 14.477207282
    51   1 0.000000 24.243865257 14.597515332 15.559615303
    52   1 0.000000 9.641382708 14.597515332 15.559615303
    53   1 0.000000 26.490401034 19.400810866 13.394799261
    54   1 0.000000 11.887918485 19.400810866 13.394799261
    55   1 0.000000 27.613668922 2.289070528 14.477207282
    56   1 0.000000 13.011186373 2.289070528 14.477207282
    57   1 0.000000 27.613668922 6.191748149 15.559615303
    58   1 0.000000 13.011186373 6.191748149 15.559615303
    59   1 0.000000 29.860204699 10.995043682 13.394799261
    60   1 0.000000 15.257722150 10.995043682 13.394799261
    61   1 0.000000 6.271579043 23.003282516 15.559615303
    62   1 0.000000 20.874061592 23.003282516 15.559615303
    63   1 0.000000 4.025043267 2.589276499 13.394799261
    64   1 0.000000 18.627525815 2.589276499 13.394799261
    65   1 0.000000 26.490401034 23.303488487 14.477207282
    66   1 0.000000 11.887918485 23.303488487 14.477207282
    67   1 0.000000 21.997329480 1.988864557 15.559615303
    68   1 0.000000 7.394846932 1.988864557 15.559615303
    69   1 0.000000 24.243865257 6.792160090 13.394799261
    70   1 0.000000 9.641382708 6.792160090 13.394799261
    71   1 0.000000 32.106740475 23.603694457 13.394799261
    72   1 0.000000 17.504257927 23.603694457 13.394799261
    73   1 0.000000 3.463409322 18.950501909 15.018411292
    74   1 0.000000 18.065891871 18.950501909 15.018411292
    75   1 0.000000 27.052034978 14.747618318 15.018411292
    76   1 0.000000 12.449552429 14.747618318 15.018411292
    77   1 0.000000 27.052034978 18.650295939 16.100819313
    78   1 0.000000 12.449552429 18.650295939 16.100819313
    79   1 0.000000 1.216873546 6.341851134 15.018411292
    80   1 0.000000 15.819356094 6.341851134 15.018411292
    81   1 0.000000 30.421838643 10.244528755 16.100819313
    82   1 0.000000 15.819356094 10.244528755 16.100819313
    83   1 0.000000 3.463409322 15.047824288 13.936003271
    84   1 0.000000 18.065891871 15.047824288 13.936003271
    85   1 0.000000 21.435695536 10.544734726 15.018411292
    86   1 0.000000 6.833212987 10.544734726 15.018411292
    87   1 0.000000 21.435695536 14.447412347 16.100819313
    88   1 0.000000 6.833212987 14.447412347 16.100819313
    89   1 0.000000 23.682231313 19.250707880 13.936003271
    90   1 0.000000 9.079748764 19.250707880 13.936003271
    91   1 0.000000 24.805499201 2.138967542 15.018411292
    92   1 0.000000 10.203016653 2.138967542 15.018411292
    93   1 0.000000 24.805499201 6.041645163 16.100819313
    94   1 0.000000 10.203016653 6.041645163 16.100819313
    95   1 0.000000 27.052034978 10.844940697 13.936003271
    96   1 0.000000 12.449552429 10.844940697 13.936003271
    97   1 0.000000 32.668374420 22.853179530 16.100819313
    98   1 0.000000 18.065891871 22.853179530 16.100819313
    99   1 0.000000 1.216873546 2.439173513 13.936003271
   100   1 0.000000 15.819356094 2.439173513 13.936003271
   101   1 0.000000 23.682231313 23.153385501 15.018411292
   102   1 0.000000 9.079748764 23.153385501 15.018411292
   103   1 0.000000 21.435695536 2.739379484 12.853595250
   104   1 0.000000 6.833212987 2.739379484 12.853595250
   105   1 0.000000 21.435695536 6.642057105 13.936003271
   106   1 0.000000 6.833212987 6.642057105 13.936003271
   107   1 0.000000 29.298570755 23.453591472 13.936003271
   108   1 0.000000 14.696088206 23.453591472 13.936003271
   109   1 0.000000 5.148311155 16.698957128 15.559615303
   110   1 0.000000 19.750793704 16.698957128 15.559615303
   111   1 0.000000 28.736936810 12.496073536 15.559615303
   112   1 0.000000 14.134454262 12.496073536 15.559615303
   113   1 0.000000 30.983472587 17.299369070 13.394799261
   114   1 0.000000 16.380990038 17.299369070 13.394799261
   115   1 0.000000 2.901775378 4.090306353 15.559615303
   116   1 0.000000 17.504257927 4.090306353 15.559615303
   117   1 0.000000 5.148311155 8.893601886 13.394799261
   118   1 0.000000 19.750793704 8.893601886 13.394799261
   119   1 0.000000 5.148311155 12.796279507 14.477207282
   120   1 0.000000 19.750793704 12.796279507 14.477207282
   121   1 0.000000 23.120597369 8.293189944 15.559615303
   122   1 0.000000 8.518114820 8.293189944 15.559615303
   123   1 0.000000 25.367133145 13.096485478 13.394799261
   124   1 0.000000 10.764650597 13.096485478 13.394799261
   125   1 0.000000 25.367133145 16.999163099 14.477207282
   126   1 0.000000 10.764650597 16.999163099 14.477207282
   127   1 0.000000 30.983472587 25.104724312 15.559615303
   128   1 0.000000 16.380990038 25.104724312 15.559615303
   129   1 0.000000 28.736936810 4.690718294 13.394799261
   130   1 0.000000 14.134454262 4.690718294 13.394799261
   131   1 0.000000 28.736936810 8.593395915 14.477207282
   132   1 0.000000 14.134454262 8.593395915 14.477207282
   133   1 0.000000 7.394846932 21.502252661 13.394799261
   134   1 0.000000 21.997329480 21.502252661 13.394799261
   135   1 0.000000 2.901775378 0.187628732 14.477207282
   136   1 0.000000 17.504257927 0.187628732 14.477207282
   137   1 0.000000 25.367133145 20.901840720 15.559615303
   138   1 0.000000 10.764650597 20.901840720 15.559615303
   139   1 0.000000 23.120597369 0.487834703 13.394799261
   140   1 0.000000 8.518114820 0.487834703 13.394799261
   141   1 0.000000 23.120597369 4.390512324 14.477207282
   142   1 0.000000 8.518114820 4.390512324 14.477207282
   143   1 0.000000 30.983472587 21.202046691 14.477207282
   144   1 0.000000 16.380990038 21.202046691 14.477207282
   145   1 0.000000 29.298570755 15.648236230 19.348043377
   146   1 0.000000 14.696088206 15.648236230 19.348043377
   147   1 0.000000 23.682231313 11.445352638 19.348043377
   148   1 0.000000 9.079748764 11.445352638 19.348043377
   149   1 0.000000 25.928767089 16.248648172 17.183227334
   150   1 0.000000 11.326284541 16.248648172 17.183227334
   151   1 0.000000 27.052034978 3.039585455 19.348043377
   152   1 0.000000 12.449552429 3.039585455 19.348043377
   153   1 0.000000 29.298570755 7.842880988 17.183227334
   154   1 0.000000 14.696088206 7.842880988 17.183227334
   155   1 0.000000 29.298570755 11.745558609 18.265635356
   156   1 0.000000 14.696088206 11.745558609 18.265635356
   157   1 0.000000 20.312427648 8.143086959 16.100819313
   158   1 0.000000 5.709945099 8.143086959 16.100819313
   159   1 0.000000 20.312427648 12.045764580 17.183227334
   160   1 0.000000 5.709945099 12.045764580 17.183227334
   161   1 0.000000 20.312427648 15.948442201 18.265635356
   162   1 0.000000 5.709945099 15.948442201 18.265635356
   163   1 0.000000 25.928767089 24.054003414 19.348043377
   164   1 0.000000 11.326284541 24.054003414 19.348043377
   165   1 0.000000 23.682231313 3.639997396 17.183227334
   166   1 0.000000 9.079748764 3.639997396 17.183227334
   167   1 0.000000 23.682231313 7.542675017 18.265635356
   168   1 0.000000 9.079748764 7.542675017 18.265635356
   169   1 0.000000 31.545106531 20.451531764 17.183227334
   170   1 0.000000 16.942623983 20.451531764 17.183227334
   171   1 0.000000 31.545106531 24.354209384 18.265635356
   172   1 0.000000 16.942623983 24.354209384 18.265635356
   173   1 0.000000 22.558963424 20.751737734 16.100819313
   174   1 0.000000 7.956480876 20.751737734 16.100819313
   175   1 0.000000 22.558963424 24.654415355 17.183227334
   176   1 0.000000 7.956480876 24.654415355 17.183227334
   177   1 0.000000 18.065891871 3.339791426 18.265635356
   178   1 0.000000 3.463409322 3.339791426 18.265635356
   179   1 0.000000 25.928767089 20.151325793 18.265635356
   180   1 0.000000 11.326284541 20.151325793 18.265635356
   181   1 0.000000 4.025043267 18.199986982 17.724431345
   182   1 0.000000 18.627525815 18.199986982 17.724431345
   183   1 0.000000 27.613668922 13.997103390 17.724431345
   184   1 0.000000 13.011186373 13.997103390 17.724431345
   185   1 0.000000 27.613668922 17.899781011 18.806839366
   186   1 0.000000 13.011186373 17.899781011 18.806839366
   187   1 0.000000 1.778507490 5.591336207 17.724431345
   188   1 0.000000 16.380990038 5.591336207 17.724431345
   189   1 0.000000 1.778507490 9.494013828 18.806839366
   190   1 0.000000 16.380990038 9.494013828 18.806839366
   191   1 0.000000 4.025043267 14.297309361 16.642023324
   192   1 0.000000 18.627525815 14.297309361 16.642023324
   193   1 0.000000 21.997329480 9.794219799 17.724431345
   194   1 0.000000 7.394846932 9.794219799 17.724431345
   195   1 0.000000 21.997329480 13.696897420 18.806839366
   196   1 0.000000 7.394846932 13.696897420 18.806839366
   197   1 0.000000 24.243865257 18.500192953 16.642023324
   198   1 0.000000 9.641382708 18.500192953 16.642023324
   199   1 0.000000 25.367133145 1.388452615 17.724431345
   200   1 0.000000 10.764650597 1.388452615 17.724431345
   201   1 0.000000 25.367133145 5.291130236 18.806839366
   202   1 0.000000 10.764650597 5.291130236 18.806839366
   203   1 0.000000 27.613668922 10.094425770 16.642023324
   204   1 0.000000 13.011186373 10.094425770 16.642023324
   205   1 0.000000 4.025043267 22.102664603 18.806839366
   206   1 0.000000 18.627525815 22.102664603 18.806839366
   207   1 0.000000 1.778507490 1.688658586 16.642023324
   208   1 0.000000 16.380990038 1.688658586 16.642023324
   209   1 0.000000 24.243865257 22.402870574 17.724431345
   210   1 0.000000 9.641382708 22.402870574 17.724431345
   211   1 0.000000 19.750793704 1.088246644 18.806839366
   212   1 0.000000 5.148311155 1.088246644 18.806839366
   213   1 0.000000 21.997329480 5.891542178 16.642023324
   214   1 0.000000 7.394846932 5.891542178 16.642023324
   215   1 0.000000 29.860204699 22.703076545 16.642023324
   216   1 0.000000 15.257722150 22.703076545 16.642023324
   217   1 0.000000 30.421838643 18.049883997 18.265635356
   218   1 0.000000 15.819356094 18.049883997 18.265635356
   219   1 0.000000 24.805499201 13.847000405 18.265635356
   220   1 0.000000 10.203016653 13.847000405 18.265635356
   221   1 0.000000 24.805499201 17.749678026 19.348043377
   222   1 0.000000 10.203016653 17.749678026 19.348043377
   223   1 0.000000 28.175302866 5.441233221 18.265635356
   224   1 0.000000 13.572820318 5.441233221 18.265635356
   225   1 0.000000 28.175302866 9.343910842 19.348043377
   226   1 0.000000 13.572820318 9.343910842 19.348043377
   227   1 0.000000 30.421838643 14.147206376 17.183227334
   228   1 0.000000 15.819356094 14.147206376 17.183227334
   229   1 0.000000 19.189159759 9.644116813 18.265635356
   230   1 0.000000 4.586677211 9.644116813 18.265635356
   231   1 0.000000 19.189159759 13.546794434 19.348043377
   232   1 0.000000 4.586677211 13.546794434 19.348043377
   233   1 0.000000 21.435695536 18.350089968 17.183227334
   234   1 0.000000 6.833212987 18.350089968 17.183227334
   235   1 0.000000 22.558963424 1.238349630 18.265635356
   236   1 0.000000 7.956480876 1.238349630 18.265635356
   237   1 0.000000 22.558963424 5.141027251 19.348043377
   238   1 0.000000 7.956480876 5.141027251 19.348043377
   239   1 0.000000 24.805499201 9.944322784 17.183227334
   240   1 0.000000 10.203016653 9.944322784 17.183227334
   241   1 0.000000 30.421838643 21.952561618 19.348043377
   242   1 0.000000 15.819356094 21.952561618 19.348043377
   243   1 0.000000 28.175302866 1.538555601 17.183227334
   244   1 0.000000 13.572820318 1.538555601 17.183227334
   245   1 0.000000 21.435695536 22.252767589 18.265635356
   246   1 0.000000 6.833212987 22.252767589 18.265635356
   247   1 0.000000 19.189159759 1.838761571 16.100819313
   248   1 0.000000 4.586677211 1.838761571 16.100819313
   249   1 0.000000 19.189159759 5.741439192 17.183227334
   250   1 0.000000 4.586677211 5.741439192 17.183227334
   251   1 0.000000 27.052034978 22.552973559 17.183227334
   252   1 0.000000 12.449552429 22.552973559 17.183227334
   253   1 0.000000 2.901775378 15.798339216 18.806839366
   254   1 0.000000 17.504257927 15.798339216 18.806839366
   255   1 0.000000 26.490401034 11.595455624 18.806839366
   256   1 0.000000 11.887918485 11.595455624 18.806839366
   257   1 0.000000 28.736936810 16.398751157 16.642023324
   258   1 0.000000 14.134454262 16.398751157 16.642023324
   259   1 0.000000 0.655239602 3.189688440 18.806839366
   260   1 0.000000 15.257722150 3.189688440 18.806839366
   261   1 0.000000 2.901775378 7.992983974 16.642023324
   262   1 0.000000 17.504257927 7.992983974 16.642023324
   263   1 0.000000 2.901775378 11.895661595 17.724431345
   264   1 0.000000 17.504257927 11.895661595 17.724431345
   265   1 0.000000 20.874061592 7.392572032 18.806839366
   266   1 0.000000 6.271579043 7.392572032 18.806839366
   267   1 0.000000 23.120597369 12.195867565 16.642023324
   268   1 0.000000 8.518114820 12.195867565 16.642023324
   269   1 0.000000 23.120597369 16.098545186 17.724431345
   270   1 0.000000 8.518114820 16.098545186 17.724431345
   271   1 0.000000 28.736936810 24.204106399 18.806839366
   272   1 0.000000 14.134454262 24.204106399 18.806839366
   273   1 0.000000 26.490401034 3.790100382 16.642023324
   274   1 0.000000 11.887918485 3.790100382 16.642023324
   275   1 0.000000 26.490401034 7.692778003 17.724431345
   276   1 0.000000 11.887918485 7.692778003 17.724431345
   277   1 0.000000 5.148311155 20.601634749 16.642023324
   278   1 0.000000 19.750793704 20.601634749 16.642023324
   279   1 0.000000 5.148311155 24.504312370 17.724431345
   280   1 0.000000 19.750793704 24.504312370 17.724431345
   281   1 0.000000 23.120597369 20.001222807 18.806839366
   282   1 0.000000 8.518114820 20.001222807 18.806839366
   283   1 0.000000 25.367133145 24.804518341 16.642023324
   284   1 0.000000 10.764650597 24.804518341 16.642023324
   285   1 0.000000 20.874061592 3.489894411 17.724431345
   286   1 0.000000 6.271579043 3.489894411 17.724431345
   287   1 0.000000 28.736936810 20.301428778 17.724431345
   288   1 0.000000 14.134454262 20.301428778 17.724431345
   289   1 0.000000 27.052034978 14.747618318 22.595267440
   290   1 0.000000 12.449552429 14.747618318 22.595267440
   291   1 0.000000 21.435695536 10.544734726 22.595267440
   292   1 0.000000 6.833212987 10.544734726 22.595267440
   293   1 0.000000 23.682231313 15.348030259 20.430451398
   294   1 0.000000 9.079748764 15.348030259 20.430451398
   295   1 0.000000 24.805499201 2.138967542 22.595267440
   296   1 0.000000 10.203016653 2.138967542 22.595267440
   297   1 0.000000 27.052034978 6.942263076 20.430451398
   298   1 0.000000 12.449552429 6.942263076 20.430451398
   299   1 0.000000 27.052034978 10.844940697 21.512859419
   300   1 0.000000 12.449552429 10.844940697 21.512859419
   301   1 0.000000 18.065891871 7.242469047 19.348043377
   302   1 0.000000 3.463409322 7.242469047 19.348043377
   303   1 0.000000 18.065891871 11.145146667 20.430451398
   304   1 0.000000 3.463409322 11.145146667 20.430451398
   305   1 0.000000 18.065891871 15.047824288 21.512859419
   306   1 0.000000 3.463409322 15.047824288 21.512859419
   307   1 0.000000 23.682231313 23.153385501 22.595267440
   308   1 0.000000 9.079748764 23.153385501 22.595267440
   309   1 0.000000 21.435695536 2.739379484 20.430451398
   310   1 0.000000 6.833212987 2.739379484 20.430451398
   311   1 0.000000 21.435695536 6.642057105 21.512859419
   312   1 0.000000 6.833212987 6.642057105 21.512859419
   313   1 0.000000 29.298570755 19.550913851 20.430451398
   314   1 0.000000 14.696088206 19.550913851 20.430451398
   315   1 0.000000 29.298570755 23.453591472 21.512859419
   316   1 0.000000 14.696088206 23.453591472 21.512859419
   317   1 0.000000 20.312427648 19.851119822 19.348043377
   318   1 0.000000 5.709945099 19.851119822 19.348043377
   319   1 0.000000 20.312427648 23.753797443 20.430451398
   320   1 0.000000 5.709945099 23.753797443 20.430451398
   321   1 0.000000 15.819356094 2.439173513 21.512859419
   322   1 0.000000 1.216873546 2.439173513 21.512859419
   323   1 0.000000 23.682231313 19.250707880 21.512859419
   324   1 0.000000 9.079748764 19.250707880 21.512859419
   325   1 0.000000 30.983472587 17.299369070 20.971655408
   326   1 0.000000 16.380990038 17.299369070 20.971655408
   327   1 0.000000 25.367133145 13.096485478 20.971655408
   328   1 0.000000 10.764650597 13.096485478 20.971655408
   329   1 0.000000 25.367133145 16.999163099 22.054063429
   330   1 0.000000 10.764650597 16.999163099 22.054063429
   331   1 0.000000 28.736936810 4.690718294 20.971655408
   332   1 0.000000 14.134454262 4.690718294 20.971655408
   333   1 0.000000 28.736936810 8.593395915 22.054063429
   334   1 0.000000 14.134454262 8.593395915 22.054063429
   335   1 0.000000 30.983472587 13.396691449 19.889247387
   336   1 0.000000 16.380990038 13.396691449 19.889247387
   337   1 0.000000 19.750793704 8.893601886 20.971655408
   338   1 0.000000 5.148311155 8.893601886 20.971655408
   339   1 0.000000 19.750793704 12.796279507 22.054063429
   340   1 0.000000 5.148311155 12.796279507 22.054063429
   341   1 0.000000 21.997329480 17.599575041 19.889247387
   342   1 0.000000 7.394846932 17.599575041 19.889247387
   343   1 0.000000 23.120597369 0.487834703 20.971655408
   344   1 0.000000 8.518114820 0.487834703 20.971655408
   345   1 0.000000 23.120597369 4.390512324 22.054063429
   346   1 0.000000 8.518114820 4.390512324 22.054063429
   347   1 0.000000 25.367133145 9.193807857 19.889247387
   348   1 0.000000 10.764650597 9.193807857 19.889247387
   349   1 0.000000 30.983472587 21.202046691 22.054063429
   350   1 0.000000 16.380990038 21.202046691 22.054063429
   351   1 0.000000 28.736936810 0.788040673 19.889247387
   352   1 0.000000 14.134454262 0.788040673 19.889247387
   353   1 0.000000 21.997329480 21.502252661 20.971655408
   354   1 0.000000 7.394846932 21.502252661 20.971655408
   355   1 0.000000 17.504257927 0.187628732 22.054063429
   356   1 0.000000 2.901775378 0.187628732 22.054063429
   357   1 0.000000 19.750793704 4.990924265 19.889247387
   358   1 0.000000 5.148311155 4.990924265 19.889247387
   359   1 0.000000 27.613668922 21.802458632 19.889247387
   360   1 0.000000 13.011186373 21.802458632 19.889247387
   361   1 0.000000 28.175302866 17.149266084 21.512859419
   362   1 0.000000 13.572820318 17.149266084 21.512859419
   363   1 0.000000 22.558963424 12.946382493 21.512859419
   364   1 0.000000 7.956480876 12.946382493 21.512859419
   365   1 0.000000 22.558963424 16.849060113 22.595267440
   366   1 0.000000 7.956480876 16.849060113 22.595267440
   367   1 0.000000 25.928767089 4.540615309 21.512859419
   368   1 0.000000 11.326284541 4.540615309 21.512859419
   369   1 0.000000 25.928767089 8.443292930 22.595267440
   370   1 0.000000 11.326284541 8.443292930 22.595267440
   371   1 0.000000 28.175302866 13.246588463 20.430451398
   372   1 0.000000 13.572820318 13.246588463 20.430451398
   373   1 0.000000 16.942623983 8.743498901 21.512859419
   374   1 0.000000 2.340141434 8.743498901 21.512859419
   375   1 0.000000 16.942623983 12.646176522 22.595267440
   376   1 0.000000 2.340141434 12.646176522 22.595267440
   377   1 0.000000 19.189159759 17.449472055 20.430451398
   378   1 0.000000 4.586677211 17.449472055 20.430451398
   379   1 0.000000 20.312427648 0.337731717 21.512859419
   380   1 0.000000 5.709945099 0.337731717 21.512859419
   381   1 0.000000 20.312427648 4.240409338 22.595267440
   382   1 0.000000 5.709945099 4.240409338 22.595267440
   383   1 0.000000 22.558963424 9.043704872 20.430451398
   384   1 0.000000 7.956480876 9.043704872 20.430451398
   385   1 0.000000 28.175302866 21.051943705 22.595267440
   386   1 0.000000 13.572820318 21.051943705 22.595267440
   387   1 0.000000 25.928767089 0.637937688 20.430451398
   388   1 0.000000 11.326284541 0.637937688 20.430451398
   389   1 0.000000 19.189159759 21.352149676 21.512859419
   390   1 0.000000 4.586677211 21.352149676 21.512859419
   391   1 0.000000 16.942623983 0.938143659 19.348043377
   392   1 0.000000 2.340141434 0.938143659 19.348043377
   393   1 0.000000 16.942623983 4.840821280 20.430451398
   394   1 0.000000 2.340141434 4.840821280 20.430451398
   395   1 0.000000 24.805499201 21.652355647 20.430451398
   396   1 0.000000 10.203016653 21.652355647 20.430451398
   397   1 0.000000 29.860204699 14.897721303 22.054063429
   398   1 0.000000 15.257722150 14.897721303 22.054063429
   399   1 0.000000 24.243865257 10.694837711 22.054063429
   400   1 0.000000 9.641382708 10.694837711 22.054063429
   401   1 0.000000 26.490401034 15.498133245 19.889247387
   402   1 0.000000 11.887918485 15.498133245 19.889247387
   403   1 0.000000 27.613668922 2.289070528 22.054063429
   404   1 0.000000 13.011186373 2.289070528 22.054063429
   405   1 0.000000 29.860204699 7.092366061 19.889247387
   406   1 0.000000 15.257722150 7.092366061 19.889247387
   407   1 0.000000 29.860204699 10.995043682 20.971655408
   408   1 0.000000 15.257722150 10.995043682 20.971655408
   409   1 0.000000 18.627525815 6.491954119 22.054063429
   410   1 0.000000 4.025043267 6.491954119 22.054063429
   411   1 0.000000 20.874061592 11.295249653 19.889247387
   412   1 0.000000 6.271579043 11.295249653 19.889247387
   413   1 0.000000 20.874061592 15.197927274 20.971655408
   414   1 0.000000 6.271579043 15.197927274 20.971655408
   415   1 0.000000 26.490401034 23.303488487 22.054063429
   416   1 0.000000 11.887918485 23.303488487 22.054063429
   417   1 0.000000 24.243865257 2.889482469 19.889247387
   418   1 0.000000 9.641382708 2.889482469 19.889247387
   419   1 0.000000 24.243865257 6.792160090 20.971655408
   420   1 0.000000 9.641382708 6.792160090 20.971655408
   421   1 0.000000 32.106740475 19.701016836 19.889247387
   422   1 0.000000 17.504257927 19.701016836 19.889247387
   423   1 0.000000 32.106740475 23.603694457 20.971655408
   424   1 0.000000 17.504257927 23.603694457 20.971655408
   425   1 0.000000 20.874061592 19.100604895 22.054063429
   426   1 0.000000 6.271579043 19.100604895 22.054063429
   427   1 0.000000 23.120597369 23.903900428 19.889247387
   428   1 0.000000 8.518114820 23.903900428 19.889247387
   429   1 0.000000 18.627525815 2.589276499 20.971655408
   430   1 0.000000 4.025043267 2.589276499 20.971655408
   431   1 0.000000 26.490401034 19.400810866 20.971655408
   432   1 0.000000 11.887918485 19.400810866 20.971655408
   433   1 0.000000 24.805499201 13.847000405 25.842491503
   434   1 0.000000 10.203016653 13.847000405 25.842491503
   435   1 0.000000 19.189159759 9.644116813 25.842491503
   436   1 0.000000 4.586677211 9.644116813 25.842491503
   437   1 0.000000 21.435695536 14.447412347 23.677675461
   438   1 0.000000 6.833212987 14.447412347 23.677675461
   439   1 0.000000 22.558963424 1.238349630 25.842491503
   440   1 0.000000 7.956480876 1.238349630 25.842491503
   441   1 0.000000 24.805499201 6.041645163 23.677675461
   442   1 0.000000 10.203016653 6.041645163 23.677675461
   443   1 0.000000 24.805499201 9.944322784 24.760083482
   444   1 0.000000 10.203016653 9.944322784 24.760083482
   445   1 0.000000 15.819356094 6.341851134 22.595267440
   446   1 0.000000 1.216873546 6.341851134 22.595267440
   447   1 0.000000 15.819356094 10.244528755 23.677675461
   448   1 0.000000 30.421838643 10.244528755 23.677675461
   449   1 0.000000 15.819356094 14.147206376 24.760083482
   450   1 0.000000 30.421838643 14.147206376 24.760083482
   451   1 0.000000 21.435695536 22.252767589 25.842491503
   452   1 0.000000 6.833212987 22.252767589 25.842491503
   453   1 0.000000 19.189159759 1.838761571 23.677675461
   454   1 0.000000 4.586677211 1.838761571 23.677675461
   455   1 0.000000 19.189159759 5.741439192 24.760083482
   456   1 0.000000 4.586677211 5.741439192 24.760083482
   457   1 0.000000 27.052034978 18.650295939 23.677675461
   458   1 0.000000 12.449552429 18.650295939 23.677675461
   459   1 0.000000 27.052034978 22.552973559 24.760083482
   460   1 0.000000 12.449552429 22.552973559 24.760083482
   461   1 0.000000 18.065891871 18.950501909 22.595267440
   462   1 0.000000 3.463409322 18.950501909 22.595267440
   463   1 0.000000 18.065891871 22.853179530 23.677675461
   464   1 0.000000 32.668374420 22.853179530 23.677675461
   465   1 0.000000 13.572820318 1.538555601 24.760083482
   466   1 0.000000 28.175302866 1.538555601 24.760083482
   467   1 0.000000 21.435695536 18.350089968 24.760083482
   468   1 0.000000 6.833212987 18.350089968 24.760083482
   469   1 0.000000 28.736936810 16.398751157 24.218879471
   470   1 0.000000 14.134454262 16.398751157 24.218879471
   471   1 0.000000 23.120597369 12.195867565 24.218879471
   472   1 0.000000 8.518114820 12.195867565 24.218879471
   473   1 0.000000 23.120597369 16.098545186 25.301287492
   474   1 0.000000 8.518114820 16.098545186 25.301287492
   475   1 0.000000 26.490401034 3.790100382 24.218879471
   476   1 0.000000 11.887918485 3.790100382 24.218879471
   477   1 0.000000 26.490401034 7.692778003 25.301287492
   478   1 0.000000 11.887918485 7.692778003 25.301287492
   479   1 0.000000 28.736936810 12.496073536 23.136471450
   480   1 0.000000 14.134454262 12.496073536 23.136471450
   481   1 0.000000 17.504257927 7.992983974 24.218879471
   482   1 0.000000 2.901775378 7.992983974 24.218879471
   483   1 0.000000 17.504257927 11.895661595 25.301287492
   484   1 0.000000 2.901775378 11.895661595 25.301287492
   485   1 0.000000 19.750793704 16.698957128 23.136471450
   486   1 0.000000 5.148311155 16.698957128 23.136471450
   487   1 0.000000 25.367133145 24.804518341 24.218879471
   488   1 0.000000 10.764650597 24.804518341 24.218879471
   489   1 0.000000 20.874061592 3.489894411 25.301287492
   490   1 0.000000 6.271579043 3.489894411 25.301287492
   491   1 0.000000 23.120597369 8.293189944 23.136471450
   492   1 0.000000 8.518114820 8.293189944 23.136471450
   493   1 0.000000 28.736936810 20.301428778 25.301287492
   494   1 0.000000 14.134454262 20.301428778 25.301287492
   495   1 0.000000 30.983472587 25.104724312 23.136471450
   496   1 0.000000 16.380990038 25.104724312 23.136471450
   497   1 0.000000 19.750793704 20.601634749 24.218879471
   498   1 0.000000 5.148311155 20.601634749 24.218879471
   499   1 0.000000 19.750793704 24.504312370 25.301287492
   500   1 0.000000 5.148311155 24.504312370 25.301287492
   501   1 0.000000 17.504257927 4.090306353 23.136471450
   502   1 0.000000 2.901775378 4.090306353 23.136471450
   503   1 0.000000 25.367133145 20.901840720 23.136471450
   504   1 0.000000 10.764650597 20.901840720 23.136471450
   505   1 0.000000 25.928767089 16.248648172 24.760083482
   506   1 0.000000 11.326284541 16.248648172 24.760083482
   507   1 0.000000 20.312427648 12.045764580 24.760083482
   508   1 0.000000 5.709945099 12.045764580 24.760083482
   509   1 0.000000 20.312427648 15.948442201 25.842491503
   510   1 0.000000 5.709945099 15.948442201 25.842491503
   511   1 0.000000 23.682231313 3.639997396 24.760083482