LAMMPS data file via write_data, version 13 Jan 2016, timestep = 366

1008 atoms
1 atom types

1.8926908341398838e-01 2.9015696013585984e+01 xlo xhi
1.5205581382196259e-01 2.5065245736178010e+01 ylo yhi
-3.5571469132963898e-02 4.8743932416132985e+01 zlo zhi
4.4388867188140608e+00 0.0000000000000000e+00 0.0000000000000000e+00 xy xz yz

Masses

1 26.982

Atoms # charge

1 1 0.0000000000000000e+00 3.1327155428590565e+01 1.6488692805429363e+01 1.6092875071901936e+01 0 0 0
2 1 0.0000000000000000e+00 1.6913941963504566e+01 1.6488692805429363e+01 1.6092875071901936e+01 0 0 0
3 1 0.0000000000000000e+00 2.5798862090704947e+01 1.2359345774734011e+01 1.6109692897654313e+01 0 0 0
4 1 0.0000000000000000e+00 1.1385648625618947e+01 1.2359345774734013e+01 1.6109692897654313e+01 0 0 0
5 1 0.0000000000000000e+00 2.7992017554438053e+01 1.7108395698449662e+01 1.4003512243868299e+01 0 0 0
6 1 0.0000000000000000e+00 1.3578804089352053e+01 1.7108395698449662e+01 1.4003512243868302e+01 0 0 0
7 1 0.0000000000000000e+00 2.9107274402005430e+01 4.0347914307358499e+00 1.6096194518022241e+01 0 0 0
8 1 0.0000000000000000e+00 1.4694060936919426e+01 4.0347914307358463e+00 1.6096194518022244e+01 0 0 0
9 1 0.0000000000000000e+00 2.4687183251686555e+00 8.8096463660973487e+00 1.4008988465769654e+01 0 0 0
10 1 0.0000000000000000e+00 1.6881931790254654e+01 8.8096463660973487e+00 1.4008988465769654e+01 0 0 0
11 1 0.0000000000000000e+00 2.5139544117460453e+00 1.2638269602991915e+01 1.4990041572217322e+01 0 0 0
12 1 0.0000000000000000e+00 1.6927167876832044e+01 1.2638269602991915e+01 1.4990041572217322e+01 0 0 0
13 1 0.0000000000000000e+00 2.2450497743214541e+01 9.1559401352065226e+00 1.3079356556684397e+01 0 0 0
14 1 0.0000000000000000e+00 8.0372842781285545e+00 9.1559401352065226e+00 1.3079356556684401e+01 0 0 0
15 1 0.0000000000000000e+00 2.2416663301499877e+01 1.2892378603831533e+01 1.3972128654268376e+01 0 0 0
16 1 0.0000000000000000e+00 8.0034498364138749e+00 1.2892378603831533e+01 1.3972128654268376e+01 0 0 0
17 1 0.0000000000000000e+00 2.2462717212199109e+01 1.6795765954142503e+01 1.4986928530608388e+01 0 0 0
18 1 0.0000000000000000e+00 8.0495037471131106e+00 1.6795765954142500e+01 1.4986928530608381e+01 0 0 0
19 1 0.0000000000000000e+00 2.8020212967133048e+01 2.4820958231963751e+01 1.6093341026245536e+01 0 0 0
20 1 0.0000000000000000e+00 1.3606999502047044e+01 2.4820958231963754e+01 1.6093341026245540e+01 0 0 0
21 1 0.0000000000000000e+00 2.5753604549082297e+01 4.6438448629000213e+00 1.3994833792638415e+01 0 0 0
22 1 0.0000000000000000e+00 1.1340391083996298e+01 4.6438448629000222e+00 1.3994833792638419e+01 0 0 0
23 1 0.0000000000000000e+00 2.5770873062735266e+01 8.4876163265677089e+00 1.4948313225617941e+01 0 0 0
24 1 0.0000000000000000e+00 1.1357659597649265e+01 8.4876163265677054e+00 1.4948313225617939e+01 0 0 0
25 1 0.0000000000000000e+00 4.6885899363828996e+00 2.1266797294613330e+01 1.4010072515035558e+01 0 0 0
26 1 0.0000000000000000e+00 1.9101803401468903e+01 2.1266797294613333e+01 1.4010072515035564e+01 0 0 0
27 1 0.0000000000000000e+00 3.0383361711976953e-01 1.8153489429613198e-01 1.4988412577019252e+01 0 0 0
28 1 0.0000000000000000e+00 1.4717047082205765e+01 1.8153489429613048e-01 1.4988412577019250e+01 0 0 0
29 1 0.0000000000000000e+00 2.4675611704714235e+01 2.1612646516247636e+01 1.3071583856691880e+01 0 0 0
30 1 0.0000000000000000e+00 1.0262398239628238e+01 2.1612646516247636e+01 1.3071583856691880e+01 0 0 0
31 1 0.0000000000000000e+00 2.0206033447661344e+01 4.5782915301344135e-01 1.3933964890870270e+01 0 0 0
32 1 0.0000000000000000e+00 5.7928199825753515e+00 4.5782915301344007e-01 1.3933964890870268e+01 0 0 0
33 1 0.0000000000000000e+00 2.0224778602841894e+01 4.3679153126810393e+00 1.5056710497820276e+01 0 0 0
34 1 0.0000000000000000e+00 5.8115651377558990e+00 4.3679153126810402e+00 1.5056710497820273e+01 0 0 0
35 1 0.0000000000000000e+00 2.7991361908803643e+01 2.0949116718698765e+01 1.4955247016418555e+01 0 0 0
36 1 0.0000000000000000e+00 1.3578148443717637e+01 2.0949116718698761e+01 1.4955247016418555e+01 0 0 0
37 1 0.0000000000000000e+00 6.3638476095706356e+00 1.8993263782117637e+01 1.4423823582385122e+01 0 0 0
38 1 0.0000000000000000e+00 2.0777061074656640e+01 1.8993263782117641e+01 1.4423823582385122e+01 0 0 0
39 1 0.0000000000000000e+00 2.9628738835272745e+01 1.4810938393733947e+01 1.4438717050248680e+01 0 0 0
40 1 0.0000000000000000e+00 1.5215525370186752e+01 1.4810938393733947e+01 1.4438717050248680e+01 0 0 0
41 1 0.0000000000000000e+00 2.9639374851925567e+01 1.8742027916533772e+01 1.5544163990989269e+01 0 0 0
42 1 0.0000000000000000e+00 1.5226161386839562e+01 1.8742027916533772e+01 1.5544163990989269e+01 0 0 0
43 1 0.0000000000000000e+00 4.1485457738834004e+00 6.5165572650429073e+00 1.4407810007412483e+01 0 0 0
44 1 0.0000000000000000e+00 1.8561759238969405e+01 6.5165572650429056e+00 1.4407810007412483e+01 0 0 0
45 1 0.0000000000000000e+00 4.1328537250704267e+00 1.0428415285729240e+01 1.5544442146582695e+01 0 0 0
46 1 0.0000000000000000e+00 1.8546067190156428e+01 1.0428415285729242e+01 1.5544442146582695e+01 0 0 0
47 1 0.0000000000000000e+00 6.3784813954816055e+00 1.5179195118272766e+01 1.3575543846587117e+01 0 0 0
48 1 0.0000000000000000e+00 2.0791694860567603e+01 1.5179195118272766e+01 1.3575543846587117e+01 0 0 0
49 1 0.0000000000000000e+00 2.4114235377422791e+01 1.0705116398432171e+01 1.4517521801687662e+01 0 0 0
50 1 0.0000000000000000e+00 9.7010219123367847e+00 1.0705116398432171e+01 1.4517521801687664e+01 0 0 0
51 1 0.0000000000000000e+00 2.4077270368008243e+01 1.4588107075170562e+01 1.5520764645008038e+01 0 0 0
52 1 0.0000000000000000e+00 9.6640569029222529e+00 1.4588107075170559e+01 1.5520764645008038e+01 0 0 0
53 1 0.0000000000000000e+00 2.6326135262710395e+01 1.9352892703256856e+01 1.3534223649313212e+01 0 0 0
54 1 0.0000000000000000e+00 1.1912921797624399e+01 1.9352892703256860e+01 1.3534223649313214e+01 0 0 0
55 1 0.0000000000000000e+00 2.7405188727849769e+01 2.3532072382891420e+00 1.4443313346736392e+01 0 0 0
56 1 0.0000000000000000e+00 1.2991975262763763e+01 2.3532072382891402e+00 1.4443313346736396e+01 0 0 0
57 1 0.0000000000000000e+00 2.7420436678786452e+01 6.2843826778843868e+00 1.5543318397733692e+01 0 0 0
58 1 0.0000000000000000e+00 1.3007223213700458e+01 6.2843826778843859e+00 1.5543318397733694e+01 0 0 0
59 1 0.0000000000000000e+00 2.9640889755058964e+01 1.1054616382924269e+01 1.3577128426963956e+01 0 0 0
60 1 0.0000000000000000e+00 1.5227676289972965e+01 1.1054616382924266e+01 1.3577128426963956e+01 0 0 0
61 1 0.0000000000000000e+00 6.3585166045071819e+00 2.2893230319873769e+01 1.5536114603832802e+01 0 0 0
62 1 0.0000000000000000e+00 2.0771730069593175e+01 2.2893230319873762e+01 1.5536114603832798e+01 0 0 0
63 1 0.0000000000000000e+00 4.1461571539123092e+00 2.7766389913150462e+00 1.3529380149971535e+01 0 0 0
64 1 0.0000000000000000e+00 1.8559370618998308e+01 2.7766389913150467e+00 1.3529380149971535e+01 0 0 0
65 1 0.0000000000000000e+00 2.6332031964208973e+01 2.3182922804980148e+01 1.4496312420483063e+01 0 0 0
66 1 0.0000000000000000e+00 1.1918818499122976e+01 2.3182922804980151e+01 1.4496312420483061e+01 0 0 0
67 1 0.0000000000000000e+00 2.1890102753305602e+01 2.1146018552028831e+00 1.5587446339348096e+01 0 0 0
68 1 0.0000000000000000e+00 7.4768892882196072e+00 2.1146018552028836e+00 1.5587446339348102e+01 0 0 0
69 1 0.0000000000000000e+00 2.4086950665468780e+01 6.8797065763282896e+00 1.3528195861554574e+01 0 0 0
70 1 0.0000000000000000e+00 9.6737372003827868e+00 6.8797065763282896e+00 1.3528195861554574e+01 0 0 0
71 1 0.0000000000000000e+00 3.1868291091120625e+01 2.3509575600932614e+01 1.3576496609748753e+01 0 0 0
72 1 0.0000000000000000e+00 1.7455077626034623e+01 2.3509575600932614e+01 1.3576496609748753e+01 0 0 0
73 1 0.0000000000000000e+00 3.6318934353090424e+00 1.8870628083774236e+01 1.4990238256982398e+01 0 0 0
74 1 0.0000000000000000e+00 1.8045106900395037e+01 1.8870628083774239e+01 1.4990238256982396e+01 0 0 0
75 1 0.0000000000000000e+00 2.6895606751126131e+01 1.4718181744388996e+01 1.4970952533353969e+01 0 0 0
76 1 0.0000000000000000e+00 1.2482393286040137e+01 1.4718181744388994e+01 1.4970952533353969e+01 0 0 0
77 1 0.0000000000000000e+00 2.6890351096287265e+01 1.8573677175294044e+01 1.6074661777106506e+01 0 0 0
78 1 0.0000000000000000e+00 1.2477137631201268e+01 1.8573677175294044e+01 1.6074661777106503e+01 0 0 0
79 1 0.0000000000000000e+00 1.4123174552596580e+00 6.4130340712486946e+00 1.4987522633022230e+01 0 0 0
80 1 0.0000000000000000e+00 1.5825530920345658e+01 6.4130340712486955e+00 1.4987522633022230e+01 0 0 0
81 1 0.0000000000000000e+00 3.0212966799021963e+01 1.0264460306680027e+01 1.6097400522362285e+01 0 0 0
82 1 0.0000000000000000e+00 1.5799753333935961e+01 1.0264460306680022e+01 1.6097400522362282e+01 0 0 0
83 1 0.0000000000000000e+00 3.5925201962960176e+00 1.5026799158441742e+01 1.4005624466750955e+01 0 0 0
84 1 0.0000000000000000e+00 1.8005733661382017e+01 1.5026799158441744e+01 1.4005624466750955e+01 0 0 0
85 1 0.0000000000000000e+00 2.1337181739833834e+01 1.0593461997766070e+01 1.5070274347826889e+01 0 0 0
86 1 0.0000000000000000e+00 6.9239682747478453e+00 1.0593461997766070e+01 1.5070274347826885e+01 0 0 0
87 1 0.0000000000000000e+00 2.1345964269810739e+01 1.4401340721196693e+01 1.6083917810568817e+01 0 0 0
88 1 0.0000000000000000e+00 6.9327508047247441e+00 1.4401340721196693e+01 1.6083917810568821e+01 0 0 0
89 1 0.0000000000000000e+00 2.3545741990118451e+01 1.9192407828097103e+01 1.3969194299198850e+01 0 0 0
90 1 0.0000000000000000e+00 9.1325285250324502e+00 1.9192407828097107e+01 1.3969194299198856e+01 0 0 0
91 1 0.0000000000000000e+00 2.4656668073257570e+01 2.2634030293345857e+00 1.4942414800388933e+01 0 0 0
92 1 0.0000000000000000e+00 1.0243454608171573e+01 2.2634030293345844e+00 1.4942414800388933e+01 0 0 0
93 1 0.0000000000000000e+00 2.4690137135149506e+01 6.1352865798016003e+00 1.6093321537303314e+01 0 0 0
94 1 0.0000000000000000e+00 1.0276923670063498e+01 6.1352865798015941e+00 1.6093321537303314e+01 0 0 0
95 1 0.0000000000000000e+00 2.6852700108693107e+01 1.0877651303153186e+01 1.3998039557638828e+01 0 0 0
96 1 0.0000000000000000e+00 1.2439486643607113e+01 1.0877651303153188e+01 1.3998039557638826e+01 0 0 0
97 1 0.0000000000000000e+00 3.2436528574243468e+01 2.2719593675122354e+01 1.6097102845312151e+01 0 0 0
98 1 0.0000000000000000e+00 1.8023315109157473e+01 2.2719593675122347e+01 1.6097102845312151e+01 0 0 0
99 1 0.0000000000000000e+00 1.3596813613083851e+00 2.5752598296716571e+00 1.4008301292205406e+01 0 0 0
100 1 0.0000000000000000e+00 1.5772894826394387e+01 2.5752598296716571e+00 1.4008301292205406e+01 0 0 0
101 1 0.0000000000000000e+00 2.3556627663034874e+01 2.3049570568365738e+01 1.5061848098406337e+01 0 0 0
102 1 0.0000000000000000e+00 9.1434141979488732e+00 2.3049570568365731e+01 1.5061848098406331e+01 0 0 0
103 1 0.0000000000000000e+00 2.1338935945422691e+01 2.9113524208142580e+00 1.3075324426806516e+01 0 0 0
104 1 0.0000000000000000e+00 6.9257224803366828e+00 2.9113524208142576e+00 1.3075324426806516e+01 0 0 0
105 1 0.0000000000000000e+00 2.1315965418381751e+01 6.6951459687645656e+00 1.3934009205152169e+01 0 0 0
106 1 0.0000000000000000e+00 6.9027519532957538e+00 6.6951459687645682e+00 1.3934009205152169e+01 0 0 0
107 1 0.0000000000000000e+00 2.9082103759903031e+01 2.3324121064325784e+01 1.3995379795802322e+01 0 0 0
108 1 0.0000000000000000e+00 1.4668890294817036e+01 2.3324121064325780e+01 1.3995379795802322e+01 0 0 0
109 1 0.0000000000000000e+00 5.2451884226610836e+00 1.6669725311489135e+01 1.5532297451700602e+01 0 0 0
110 1 0.0000000000000000e+00 1.9658401887747079e+01 1.6669725311489138e+01 1.5532297451700602e+01 0 0 0
111 1 0.0000000000000000e+00 2.8522173257142185e+01 1.2514214117600950e+01 1.5542726634458907e+01 0 0 0
112 1 0.0000000000000000e+00 1.4108959792056178e+01 1.2514214117600950e+01 1.5542726634458905e+01 0 0 0
113 1 0.0000000000000000e+00 3.0774715937064485e+01 1.7277472917058915e+01 1.3576028695871013e+01 0 0 0
114 1 0.0000000000000000e+00 1.6361502471978476e+01 1.7277472917058915e+01 1.3576028695871015e+01 0 0 0
115 1 0.0000000000000000e+00 3.0280800539790564e+00 4.2101708723237641e+00 1.5530573818654188e+01 0 0 0
116 1 0.0000000000000000e+00 1.7441293519065049e+01 4.2101708723237623e+00 1.5530573818654187e+01 0 0 0
117 1 0.0000000000000000e+00 5.2584707468155649e+00 9.0183526197289332e+00 1.3534136371801511e+01 0 0 0
118 1 0.0000000000000000e+00 1.9671684211901571e+01 9.0183526197289350e+00 1.3534136371801511e+01 0 0 0
119 1 0.0000000000000000e+00 5.2327002244866927e+00 1.2706503891174490e+01 1.4420455761419152e+01 0 0 0
120 1 0.0000000000000000e+00 1.9645913689572687e+01 1.2706503891174487e+01 1.4420455761419152e+01 0 0 0
121 1 0.0000000000000000e+00 2.2997869395358048e+01 8.3387239860222362e+00 1.5592592266633982e+01 0 0 0
122 1 0.0000000000000000e+00 8.5846559302720511e+00 8.3387239860222362e+00 1.5592592266633982e+01 0 0 0
123 1 0.0000000000000000e+00 2.5187983521295354e+01 1.3100100123227522e+01 1.3564508189253013e+01 0 0 0
124 1 0.0000000000000000e+00 1.0774770056209350e+01 1.3100100123227522e+01 1.3564508189253013e+01 0 0 0
125 1 0.0000000000000000e+00 2.5188723608894048e+01 1.6914407653011981e+01 1.4420900965596687e+01 0 0 0
126 1 0.0000000000000000e+00 1.0775510143808040e+01 1.6914407653011978e+01 1.4420900965596690e+01 0 0 0
127 1 0.0000000000000000e+00 3.0747591502533918e+01 2.4970145875251493e+01 1.5542796404707980e+01 0 0 0
128 1 0.0000000000000000e+00 1.6334378037447930e+01 2.4970145875251497e+01 1.5542796404707980e+01 0 0 0
129 1 0.0000000000000000e+00 2.8541743983193946e+01 4.8222630165288569e+00 1.3576357213003391e+01 0 0 0
130 1 0.0000000000000000e+00 1.4128530518107942e+01 4.8222630165288569e+00 1.3576357213003387e+01 0 0 0
131 1 0.0000000000000000e+00 2.8512797281269687e+01 8.5855362181565216e+00 1.4443971884588725e+01 0 0 0
132 1 0.0000000000000000e+00 1.4099583816183690e+01 8.5855362181565216e+00 1.4443971884588727e+01 0 0 0
133 1 0.0000000000000000e+00 7.4768125482360430e+00 2.1476192615147166e+01 1.3529870093638905e+01 0 0 0
134 1 0.0000000000000000e+00 2.1890026013322043e+01 2.1476192615147170e+01 1.3529870093638905e+01 0 0 0
135 1 0.0000000000000000e+00 3.0388354985775119e+00 2.8126119309914865e-01 1.4407313167614054e+01 0 0 0
136 1 0.0000000000000000e+00 1.7452048963663511e+01 2.8126119309914932e-01 1.4407313167614053e+01 0 0 0
137 1 0.0000000000000000e+00 2.5224813658666271e+01 2.0804137215060976e+01 1.5593716964303487e+01 0 0 0
138 1 0.0000000000000000e+00 1.0811600193580274e+01 2.0804137215060976e+01 1.5593716964303487e+01 0 0 0
139 1 0.0000000000000000e+00 2.2977571120871954e+01 6.4355133843635048e-01 1.3527448982738193e+01 0 0 0
140 1 0.0000000000000000e+00 8.5643576557859511e+00 6.4355133843635226e-01 1.3527448982738187e+01 0 0 0
141 1 0.0000000000000000e+00 2.2999400051735748e+01 4.5011906403767910e+00 1.4490536219665179e+01 0 0 0
142 1 0.0000000000000000e+00 8.5861865866497507e+00 4.5011906403767918e+00 1.4490536219665183e+01 0 0 0
143 1 0.0000000000000000e+00 3.0735114717465912e+01 2.1037442056141956e+01 1.4442380444835484e+01 0 0 0
144 1 0.0000000000000000e+00 1.6321901252379917e+01 2.1037442056141959e+01 1.4442380444835486e+01 0 0 0
145 1 0.0000000000000000e+00 2.9123127396580973e+01 1.5621258283205576e+01 1.9275190627882786e+01 0 0 0
146 1 0.0000000000000000e+00 1.4709913931494979e+01 1.5621258283205576e+01 1.9275190627882793e+01 0 0 0
147 1 0.0000000000000000e+00 2.3576691173425846e+01 1.1470511346580102e+01 1.9280270088749365e+01 0 0 0
148 1 0.0000000000000000e+00 9.1634777083398511e+00 1.1470511346580100e+01 1.9280270088749369e+01 0 0 0
149 1 0.0000000000000000e+00 2.5802329523732197e+01 1.6218898414759011e+01 1.7065878928235598e+01 0 0 0
150 1 0.0000000000000000e+00 1.1389116058646202e+01 1.6218898414759014e+01 1.7065878928235598e+01 0 0 0
151 1 0.0000000000000000e+00 2.6904853980925783e+01 3.1632979085809354e+00 1.9278242960741682e+01 0 0 0
152 1 0.0000000000000000e+00 1.2491640515839780e+01 3.1632979085809363e+00 1.9278242960741682e+01 0 0 0
153 1 0.0000000000000000e+00 2.9133897086303620e+01 7.9110214718716527e+00 1.7083473709508365e+01 0 0 0
154 1 0.0000000000000000e+00 1.4720683621217619e+01 7.9110214718716545e+00 1.7083473709508365e+01 0 0 0
155 1 0.0000000000000000e+00 2.9112762490718115e+01 1.1783268622369949e+01 1.8176965539830320e+01 0 0 0
156 1 0.0000000000000000e+00 1.4699549025632120e+01 1.1783268622369949e+01 1.8176965539830324e+01 0 0 0
157 1 0.0000000000000000e+00 2.0250110144135661e+01 8.1851495610823797e+00 1.6049499788590236e+01 0 0 0
158 1 0.0000000000000000e+00 5.8368966790496648e+00 8.1851495610823779e+00 1.6049499788590239e+01 0 0 0
159 1 0.0000000000000000e+00 2.0242281339845796e+01 1.2079917268011673e+01 1.7111598996923917e+01 0 0 0
160 1 0.0000000000000000e+00 5.8290678747597910e+00 1.2079917268011679e+01 1.7111598996923917e+01 0 0 0
161 1 0.0000000000000000e+00 2.0249571751865940e+01 1.5932297968376195e+01 1.8169713018725691e+01 0 0 0
162 1 0.0000000000000000e+00 5.8363582867799444e+00 1.5932297968376190e+01 1.8169713018725691e+01 0 0 0
163 1 0.0000000000000000e+00 2.5794772355981706e+01 2.3923395271923741e+01 1.9277778062083417e+01 0 0 0
164 1 0.0000000000000000e+00 1.1381558890895706e+01 2.3923395271923741e+01 1.9277778062083414e+01 0 0 0
165 1 0.0000000000000000e+00 2.3590026622508450e+01 3.7607657860487782e+00 1.7081250982828131e+01 0 0 0
166 1 0.0000000000000000e+00 9.1768131574224459e+00 3.7607657860487831e+00 1.7081250982828131e+01 0 0 0
167 1 0.0000000000000000e+00 2.3581255570384918e+01 7.6203375393343409e+00 1.8214985228639446e+01 0 0 0
168 1 0.0000000000000000e+00 9.1680421052989178e+00 7.6203375393343409e+00 1.8214985228639446e+01 0 0 0
169 1 0.0000000000000000e+00 3.1355082665019399e+01 2.0366997337809405e+01 1.7083120552192678e+01 0 0 0
170 1 0.0000000000000000e+00 1.6941869199933397e+01 2.0366997337809408e+01 1.7083120552192675e+01 0 0 0
171 1 0.0000000000000000e+00 3.1336045520842596e+01 2.4236938726769516e+01 1.8178457386941961e+01 0 0 0
172 1 0.0000000000000000e+00 1.6922832055756597e+01 2.4236938726769520e+01 1.8178457386941965e+01 0 0 0
173 1 0.0000000000000000e+00 2.2469914876123532e+01 2.0648533592143014e+01 1.6057045917822084e+01 0 0 0
174 1 0.0000000000000000e+00 8.0567014110375350e+00 2.0648533592143014e+01 1.6057045917822077e+01 0 0 0
175 1 0.0000000000000000e+00 2.2462018006015718e+01 2.4542139222577607e+01 1.7108978351436122e+01 0 0 0
176 1 0.0000000000000000e+00 8.0488045409297140e+00 2.4542139222577607e+01 1.7108978351436122e+01 0 0 0
177 1 0.0000000000000000e+00 1.8028934485963109e+01 3.4722968453283602e+00 1.8172522405220153e+01 0 0 0
178 1 0.0000000000000000e+00 3.6157210208771065e+00 3.4722968453283602e+00 1.8172522405220153e+01 0 0 0
179 1 0.0000000000000000e+00 2.5800474151387572e+01 2.0074804531807661e+01 1.8206114237812482e+01 0 0 0
180 1 0.0000000000000000e+00 1.1387260686301568e+01 2.0074804531807661e+01 1.8206114237812479e+01 0 0 0
181 1 0.0000000000000000e+00 4.1711296561366167e+00 1.8156517084791307e+01 1.7638202454524730e+01 0 0 0
182 1 0.0000000000000000e+00 1.8584343121222616e+01 1.8156517084791304e+01 1.7638202454524734e+01 0 0 0
183 1 0.0000000000000000e+00 2.7457148005352977e+01 1.4017307327292853e+01 1.7639536170169897e+01 0 0 0
184 1 0.0000000000000000e+00 1.3043934540266982e+01 1.4017307327292853e+01 1.7639536170169894e+01 0 0 0
185 1 0.0000000000000000e+00 2.7460871491406397e+01 1.7841323798174091e+01 1.8729848384021988e+01 0 0 0
186 1 0.0000000000000000e+00 1.3047658026320393e+01 1.7841323798174088e+01 1.8729848384021988e+01 0 0 0
187 1 0.0000000000000000e+00 1.9452692076068001e+00 5.6998012283972548e+00 1.7642031619425488e+01 0 0 0
188 1 0.0000000000000000e+00 1.6358482672692798e+01 5.6998012283972557e+00 1.7642031619425484e+01 0 0 0
189 1 0.0000000000000000e+00 1.9557823474682745e+00 9.5418348794454158e+00 1.8739421902559908e+01 0 0 0
190 1 0.0000000000000000e+00 1.6368995812554278e+01 9.5418348794454140e+00 1.8739421902559911e+01 0 0 0
191 1 0.0000000000000000e+00 4.1963522552678727e+00 1.4281457882125348e+01 1.6567035451403928e+01 0 0 0
192 1 0.0000000000000000e+00 1.8609565720353874e+01 1.4281457882125348e+01 1.6567035451403932e+01 0 0 0
193 1 0.0000000000000000e+00 2.1910587393305434e+01 9.8509211573560513e+00 1.7654068181562057e+01 0 0 0
194 1 0.0000000000000000e+00 7.4973739282194378e+00 9.8509211573560496e+00 1.7654068181562060e+01 0 0 0
195 1 0.0000000000000000e+00 2.1915007413999685e+01 1.3698837908416733e+01 1.8744033892777491e+01 0 0 0
196 1 0.0000000000000000e+00 7.5017939489136838e+00 1.3698837908416733e+01 1.8744033892777487e+01 0 0 0
197 1 0.0000000000000000e+00 2.4149116137883812e+01 1.8443006104814842e+01 1.6555483856431326e+01 0 0 0
198 1 0.0000000000000000e+00 9.7359026727978222e+00 1.8443006104814842e+01 1.6555483856431323e+01 0 0 0
199 1 0.0000000000000000e+00 2.5241291768110532e+01 1.5585370831271201e+00 1.7636285334905573e+01 0 0 0
200 1 0.0000000000000000e+00 1.0828078303024533e+01 1.5585370831271133e+00 1.7636285334905576e+01 0 0 0
201 1 0.0000000000000000e+00 2.5244199036319110e+01 5.3864306531635986e+00 1.8739896846207451e+01 0 0 0
202 1 0.0000000000000000e+00 1.0830985571233111e+01 5.3864306531635977e+00 1.8739896846207454e+01 0 0 0
203 1 0.0000000000000000e+00 2.7474393245255857e+01 1.0127798144851187e+01 1.6568531172029946e+01 0 0 0
204 1 0.0000000000000000e+00 1.3061179780169864e+01 1.0127798144851184e+01 1.6568531172029942e+01 0 0 0
205 1 0.0000000000000000e+00 4.1773827871522125e+00 2.1996618624622645e+01 1.8739837877533773e+01 0 0 0
206 1 0.0000000000000000e+00 1.8590596252238210e+01 2.1996618624622641e+01 1.8739837877533773e+01 0 0 0
207 1 0.0000000000000000e+00 1.9769816214593454e+00 1.8255630329272410e+00 1.6572391628650646e+01 0 0 0
208 1 0.0000000000000000e+00 1.6390195086545340e+01 1.8255630329272419e+00 1.6572391628650646e+01 0 0 0
209 1 0.0000000000000000e+00 2.4131260252252716e+01 2.2309593336254711e+01 1.7650560138288267e+01 0 0 0
210 1 0.0000000000000000e+00 9.7180467871667204e+00 2.2309593336254711e+01 1.7650560138288267e+01 0 0 0
211 1 0.0000000000000000e+00 1.9693293020415975e+01 1.2412707899430178e+00 1.8740985596821034e+01 0 0 0
212 1 0.0000000000000000e+00 5.2800795553299720e+00 1.2412707899430167e+00 1.8740985596821034e+01 0 0 0
213 1 0.0000000000000000e+00 2.1925219984578536e+01 5.9924916128486849e+00 1.6564517486608924e+01 0 0 0
214 1 0.0000000000000000e+00 7.5120065194925409e+00 5.9924916128486849e+00 1.6564517486608924e+01 0 0 0
215 1 0.0000000000000000e+00 2.9698028137031166e+01 2.2582829748534209e+01 1.6569678828290879e+01 0 0 0
216 1 0.0000000000000000e+00 1.5284814671945172e+01 2.2582829748534202e+01 1.6569678828290879e+01 0 0 0
217 1 0.0000000000000000e+00 3.0228789843062678e+01 1.8007586348607560e+01 1.8175429776205878e+01 0 0 0
218 1 0.0000000000000000e+00 1.5815576377976683e+01 1.8007586348607560e+01 1.8175429776205878e+01 0 0 0
219 1 0.0000000000000000e+00 2.4682756435962951e+01 1.3865464127715578e+01 1.8175646821810489e+01 0 0 0
220 1 0.0000000000000000e+00 1.0269542970876943e+01 1.3865464127715578e+01 1.8175646821810489e+01 0 0 0
221 1 0.0000000000000000e+00 2.4684408107811247e+01 1.7692805239907159e+01 1.9269400415669818e+01 0 0 0
222 1 0.0000000000000000e+00 1.0271194642725254e+01 1.7692805239907155e+01 1.9269400415669821e+01 0 0 0
223 1 0.0000000000000000e+00 2.8006382412671226e+01 5.5512050151632248e+00 1.8178358077680734e+01 0 0 0
224 1 0.0000000000000000e+00 1.3593168947585227e+01 5.5512050151632248e+00 1.8178358077680734e+01 0 0 0
225 1 0.0000000000000000e+00 2.8012718836676878e+01 9.3943730217117309e+00 1.9278816778393079e+01 0 0 0
226 1 0.0000000000000000e+00 1.3599505371590883e+01 9.3943730217117292e+00 1.9278816778393082e+01 0 0 0
227 1 0.0000000000000000e+00 3.0240847997187451e+01 1.4140029176878446e+01 1.7080220358872303e+01 0 0 0
228 1 0.0000000000000000e+00 1.5827634532101454e+01 1.4140029176878446e+01 1.7080220358872303e+01 0 0 0
229 1 0.0000000000000000e+00 1.9137726967542413e+01 9.6990703280061812e+00 1.8178300610056453e+01 0 0 0
230 1 0.0000000000000000e+00 4.7245135024564151e+00 9.6990703280061812e+00 1.8178300610056453e+01 0 0 0
231 1 0.0000000000000000e+00 1.9136423522461200e+01 1.3550836264940505e+01 1.9284744415084425e+01 0 0 0
232 1 0.0000000000000000e+00 4.7232100573752049e+00 1.3550836264940505e+01 1.9284744415084425e+01 0 0 0
233 1 0.0000000000000000e+00 2.1368254178378891e+01 1.8295544777193196e+01 1.7079016992610306e+01 0 0 0
234 1 0.0000000000000000e+00 6.9550407132928900e+00 1.8295544777193204e+01 1.7079016992610303e+01 0 0 0
235 1 0.0000000000000000e+00 2.2472359357461471e+01 1.3948777665440009e+00 1.8212515417998997e+01 0 0 0
236 1 0.0000000000000000e+00 8.0591458923754793e+00 1.3948777665439989e+00 1.8212515417998990e+01 0 0 0
237 1 0.0000000000000000e+00 2.2464954729645761e+01 5.2369036115834371e+00 1.9277212433984726e+01 0 0 0
238 1 0.0000000000000000e+00 8.0517412645597588e+00 5.2369036115834362e+00 1.9277212433984730e+01 0 0 0
239 1 0.0000000000000000e+00 2.4701160059420538e+01 9.9829521884505343e+00 1.7093557153390645e+01 0 0 0
240 1 0.0000000000000000e+00 1.0287946594334541e+01 9.9829521884505343e+00 1.7093557153390645e+01 0 0 0
241 1 0.0000000000000000e+00 3.0231954382569338e+01 2.1845973362182686e+01 1.9276277325120436e+01 0 0 0
242 1 0.0000000000000000e+00 1.5818740917483337e+01 2.1845973362182683e+01 1.9276277325120432e+01 0 0 0
243 1 0.0000000000000000e+00 2.8025806587185915e+01 1.6820602514160108e+00 1.7082373592462545e+01 0 0 0
244 1 0.0000000000000000e+00 1.3612593122099918e+01 1.6820602514160137e+00 1.7082373592462545e+01 0 0 0
245 1 0.0000000000000000e+00 2.1358829844148993e+01 2.2158411388738397e+01 1.8176040907173185e+01 0 0 0
246 1 0.0000000000000000e+00 6.9456163790629972e+00 2.2158411388738394e+01 1.8176040907173192e+01 0 0 0
247 1 0.0000000000000000e+00 1.9141734221674334e+01 1.9577735888693093e+00 1.6045571534306902e+01 0 0 0
248 1 0.0000000000000000e+00 4.7285207565883374e+00 1.9577735888693104e+00 1.6045571534306902e+01 0 0 0
249 1 0.0000000000000000e+00 1.9131150741748513e+01 5.8560606428071145e+00 1.7108387429877908e+01 0 0 0
250 1 0.0000000000000000e+00 4.7179372766625054e+00 5.8560606428071118e+00 1.7108387429877908e+01 0 0 0
251 1 0.0000000000000000e+00 2.6920943895666589e+01 2.2447569573344666e+01 1.7086407916240084e+01 0 0 0
252 1 0.0000000000000000e+00 1.2507730430580596e+01 2.2447569573344666e+01 1.7086407916240088e+01 0 0 0
253 1 0.0000000000000000e+00 3.0689482420401397e+00 1.5768092924808958e+01 1.8734295433222982e+01 0 0 0
254 1 0.0000000000000000e+00 1.7482161707126142e+01 1.5768092924808958e+01 1.8734295433222979e+01 0 0 0
255 1 0.0000000000000000e+00 2.6351241548472224e+01 1.1620347106161374e+01 1.8742974258972811e+01 0 0 0
256 1 0.0000000000000000e+00 1.1938028083386223e+01 1.1620347106161372e+01 1.8742974258972815e+01 0 0 0
257 1 0.0000000000000000e+00 2.8586765999328325e+01 1.6356548039864819e+01 1.6569532691464040e+01 0 0 0
258 1 0.0000000000000000e+00 1.4173552534242326e+01 1.6356548039864823e+01 1.6569532691464040e+01 0 0 0
259 1 0.0000000000000000e+00 8.4776331738129573e-01 3.3113315826409089e+00 1.8738841750501305e+01 0 0 0
260 1 0.0000000000000000e+00 1.5260976782467294e+01 3.3113315826409102e+00 1.8738841750501301e+01 0 0 0
261 1 0.0000000000000000e+00 3.0829838130409795e+00 8.0513197069965408e+00 1.6575599587331286e+01 0 0 0
262 1 0.0000000000000000e+00 1.7496197278126981e+01 8.0513197069965425e+00 1.6575599587331290e+01 0 0 0
263 1 0.0000000000000000e+00 3.0549473574912676e+00 1.1931145185894966e+01 1.7642731381484854e+01 0 0 0
264 1 0.0000000000000000e+00 1.7468160822577264e+01 1.1931145185894970e+01 1.7642731381484854e+01 0 0 0
265 1 0.0000000000000000e+00 2.0801998265904420e+01 7.4677945781473456e+00 1.8742216614402807e+01 0 0 0
266 1 0.0000000000000000e+00 6.3887848008184225e+00 7.4677945781473429e+00 1.8742216614402803e+01 0 0 0
267 1 0.0000000000000000e+00 2.3040504502556960e+01 1.2214899351141590e+01 1.6582737158589143e+01 0 0 0
268 1 0.0000000000000000e+00 8.6272910374709628e+00 1.2214899351141593e+01 1.6582737158589143e+01 0 0 0
269 1 0.0000000000000000e+00 2.3017394776697863e+01 1.6083999564775517e+01 1.7633410390663077e+01 0 0 0
270 1 0.0000000000000000e+00 8.6041813116118604e+00 1.6083999564775517e+01 1.7633410390663080e+01 0 0 0
271 1 0.0000000000000000e+00 2.8574065927389228e+01 2.4072518971775541e+01 1.8740427665004454e+01 0 0 0
272 1 0.0000000000000000e+00 1.4160852462303231e+01 2.4072518971775544e+01 1.8740427665004450e+01 0 0 0
273 1 0.0000000000000000e+00 2.6367304516017146e+01 3.8978123696814966e+00 1.6567289548560410e+01 0 0 0
274 1 0.0000000000000000e+00 1.1954091050931154e+01 3.8978123696814966e+00 1.6567289548560410e+01 0 0 0
275 1 0.0000000000000000e+00 2.6351532276082171e+01 7.7847285761025233e+00 1.7638969593551806e+01 0 0 0
276 1 0.0000000000000000e+00 1.1938318810996170e+01 7.7847285761025242e+00 1.7638969593551806e+01 0 0 0
277 1 0.0000000000000000e+00 5.3066852566903888e+00 2.0510419891420245e+01 1.6578200238426479e+01 0 0 0
278 1 0.0000000000000000e+00 1.9719898721776396e+01 2.0510419891420248e+01 1.6578200238426472e+01 0 0 0
279 1 0.0000000000000000e+00 5.2758031040068136e+00 2.4385836637167955e+01 1.7642627635263477e+01 0 0 0
280 1 0.0000000000000000e+00 1.9689016569092814e+01 2.4385836637167959e+01 1.7642627635263480e+01 0 0 0
281 1 0.0000000000000000e+00 2.3023059166795605e+01 1.9920034948706338e+01 1.8732142569829371e+01 0 0 0
282 1 0.0000000000000000e+00 8.6098457017096077e+00 1.9920034948706338e+01 1.8732142569829371e+01 0 0 0
283 1 0.0000000000000000e+00 2.5256239071299781e+01 2.4679991802570104e+01 1.6564951979047304e+01 0 0 0
284 1 0.0000000000000000e+00 1.0843025606213791e+01 2.4679991802570104e+01 1.6564951979047308e+01 0 0 0
285 1 0.0000000000000000e+00 2.0800165861501416e+01 3.6245862778469973e+00 1.7648318590844113e+01 0 0 0