LAMMPS (13 Jan 2016)
Reading data file ...
  triclinic box = (0 0 0) to (29.205 25.2173 48.7084) with tilt (4.49307 0 0)
  1 by 1 by 1 MPI processor grid
  reading atoms ...
  1008 atoms
Neighbor list info ...
  1 neighbor list requests
  update every 1 steps, delay 0 steps, check yes
  max neighbors/atom: 2000, page size: 100000
  master list distance cutoff = 7.72488
  ghost atom cutoff = 7.72488
Setting up cg style minimization ...
  Unit style: metal
Memory usage per processor = 3.38866 Mbytes
Step Temp Press CPU Pxx Pyy Pzz Pxy Pxz Pyz KinEng PotEng TotEng Volume Lx Ly Lz Atoms 
       0            0   -11337.824            0   -12173.866   -12049.616   -9789.9918   -173.62551   -115.67109   -360.45324            0   -3304.2291   -3304.2291    35872.267    29.204965    25.217302    48.708361     1008 
       1            0    -10397.66 0.0035450459   -11205.399    -11073.28   -8914.3018   -180.83448   -114.87528   -365.43836            0    -3304.915    -3304.915    35772.133     29.17576    25.192342    48.669191     1008 
       2            0   -9447.8908 0.0070929527   -10225.452   -10086.052   -8032.1681   -188.10201    -114.1761     -370.541            0   -3305.5384   -3305.5384    35672.557    29.146555    25.167422    48.630449     1008 
       3            0   -8488.9913   0.01064992   -9234.2898   -9088.3339   -7144.3503   -195.43337   -113.59648   -375.78189            0    -3306.099    -3306.099    35573.594     29.11735    25.142549    48.592203     1008 
       4            0   -7521.6405  0.014227867   -8232.3306   -8080.7074   -6251.8834   -202.83897    -113.1677   -381.17935            0   -3306.5967   -3306.5967    35475.318    29.088145    25.117731    48.554542     1008 
       5            0    -6547.027  0.017794847   -7220.4187   -7064.2284   -5356.4339    -210.3265   -112.91742   -386.78282            0   -3307.0313   -3307.0313    35377.828     29.05894     25.09298    48.517583     1008 
       6            0   -5566.6985  0.021368027   -6199.6542   -6040.2742   -4460.1671   -217.90771   -112.89475   -392.61737            0   -3307.4031   -3307.4031    35281.258    29.029735    25.068309    48.481488     1008 
       7            0   -4582.7163  0.024955988   -5171.4382    -5010.662   -3566.0487   -225.61428   -113.16174   -398.75883            0   -3307.7121   -3307.7121    35185.807     29.00053    25.043743    48.446493     1008 
       8            0   -3598.4127  0.028539896   -4138.1164   -3978.3359   -2678.7857   -233.50169   -113.82969   -405.29947            0   -3307.9589   -3307.9589    35091.778    28.971325    25.019312    48.412961     1008 
       9            0   -2619.5078  0.032127857   -3103.8423    -2948.376    -1806.305   -241.59693   -115.02907   -412.37102            0   -3308.1445   -3308.1445    34999.673     28.94212    24.995072    48.381491     1008 
      10            0   -1656.4767  0.046936035   -2076.1136   -1930.0575   -963.25899   -250.03871   -117.04636   -420.28229            0   -3308.2707   -3308.2707    34910.435    28.912915    24.971123     48.35321     1008 
      11            0   -732.84205  0.050541878   -1071.9224   -944.17109   -182.43267   -259.11809    -120.4668   -429.65166            0   -3308.3411   -3308.3411    34826.199     28.88371    24.947685    48.330672     1008 
      12            0    73.818967  0.054157972   -147.34924   -59.091313    427.89746   -269.74067   -127.20086   -442.56912            0   -3308.3649   -3308.3649    34754.076    28.854506     24.92548     48.32241     1008 
      13            0   -36.654477  0.057782888   -78.023358   -78.208214    46.268143   -279.86936   -141.34454   -460.95165            0   -3308.3746   -3308.3746    34766.283    28.841823    24.920079    48.371118     1008 
      14            0    372.03949  0.064996004     460.9312    449.14536    206.04191   -286.43727   -150.75303   -479.17434            0   -3308.3821   -3308.3821     34731.53    28.821444    24.902453    48.391161     1008 
      15            0    125.03223  0.068634987    328.99035    307.56616   -261.45982   -288.82738   -160.47589   -495.82321            0   -3308.3995   -3308.3995    34756.268    28.817573    24.898476     48.43987     1008 
      16            0   -319.51394  0.075839043   -294.17125   -279.92595   -384.44463   -278.53652   -147.00785   -470.70875            0   -3308.4099   -3308.4099    34794.104    28.842865    24.918803    48.410557     1008 
      17            0   -55.414645  0.079463959   -153.15106    -114.7493    101.65643   -274.84608   -135.81465   -452.83132            0   -3308.4176   -3308.4176    34768.328    28.846973    24.921873    48.361848     1008 
      18            0    278.31294  0.087487936    325.40873    298.10585    211.42425    -285.1083   -145.81284   -467.66062            0   -3308.4229   -3308.4229    34739.972    28.826897    24.908918    48.381209     1008 
      19            0    13.698485  0.091164827    206.55049    106.59615   -272.05118   -292.57617   -157.32022   -482.63175            0   -3308.4323   -3308.4323    34766.077    28.820676    24.907939    48.429917     1008 
      20            0    -317.2122  0.094810963   -376.11094   -319.98069   -255.54497    -272.6217    -139.2386   -458.66512            0   -3308.4501   -3308.4501    34793.702     28.84988    24.922233    48.391566     1008 
      21            0    186.93386  0.098441839    16.980291      143.445     400.3763   -267.49527   -128.96054   -447.20704            0   -3308.4624   -3308.4624    34746.913     28.84749     24.91586    48.342858     1008 
      22            0    552.15557   0.10206604    376.28257    301.91365    978.27047   -281.61284   -119.13574   -414.61671            0   -3308.5551   -3308.5551     34714.44    28.838234    24.925678    48.294149     1008 
      23            0   -170.47262   0.10569191   -287.00076   -402.82415    178.40705   -281.04855   -124.90181   -417.75712            0   -3308.5978   -3308.5978    34781.173    28.850056    24.938208    48.342858     1008 
      24            0   -12.671453   0.10934496    14.976149   -43.832352   -9.1581548   -281.61078   -137.50107   -445.18212            0    -3308.625    -3308.625     34770.07    28.834583    24.918518    48.391566     1008 
      25            0     335.1575   0.11298704    163.90633    530.22553    311.34065   -248.58872   -126.86119   -458.73718            0   -3308.6502   -3308.6502    34739.645     28.84457    24.893301    48.381444     1008 
      26            0   -623.77491   0.12021184   -843.13242   -436.13954   -592.05278   -238.52697   -125.46847   -454.08833            0   -3308.6764   -3308.6764    34827.388    28.871288    24.912213    48.421969     1008 
      27            0   -1503.0562    0.1238699   -1655.6159   -1415.4084   -1438.1442   -245.14763    -127.2646   -439.35645            0   -3308.7198   -3308.7198    34910.333    28.885663     24.93743    48.464077     1008 
      28            0   -924.16416   0.12753081   -910.68089   -936.40129    -925.4103   -269.03116   -129.88984   -425.20168            0   -3308.8808   -3308.8808    34859.911    28.856458     24.93433    48.449081     1008 
      29            0    18.829602   0.13478899    49.479664    38.277327   -31.268184   -273.81877   -128.59966   -427.93876            0   -3308.9062   -3308.9062    34773.997    28.832964    24.913486    48.409527     1008 
      30            0    20.292597   0.13843489    -150.9697   -68.259215    280.10671   -261.57792   -112.03097    -404.3208            0   -3308.9267   -3308.9267    34771.895    28.849982     24.92236    48.360819     1008 
      31            0   -66.149884   0.14209294   -38.157597   -80.533773   -79.758281   -274.60023   -126.36643   -420.37647            0   -3308.9514   -3308.9514    34782.454    28.834906    24.917865    48.409527     1008 
      32            0    412.71158   0.14935303    427.57961    454.87319    355.68194    -271.9942   -124.68684   -424.44284            0   -3308.9582   -3308.9582     34739.65    28.825091    24.904031    48.393285     1008 
      33            0    1001.8034   0.15301204    901.34216      1215.69    888.37814   -251.46205   -116.54677   -433.07463            0     -3308.99     -3308.99    34688.521     28.82192    24.878813    48.376363     1008 
      34            0    226.78482   0.15667105  -0.67511166    515.38218    165.64739   -228.73151   -109.78395   -431.35006            0   -3309.0815   -3309.0815    34759.778    28.851125    24.887308    48.410139     1008 
      35            0   -179.42215   0.16392303   -304.07337    -38.32231   -195.87077   -246.45772   -114.79511   -419.79576            0   -3309.0866   -3309.0866    34796.219    28.851095    24.907136    48.422362     1008 
      36            0    29.505633   0.17118382    160.05551   -109.35501    37.816398   -290.87202   -125.14836   -399.14982            0   -3309.0912   -3309.0912    34776.782    28.822845    24.926126    48.405839     1008 
      37            0    -31.02419   0.17483401    -110.0764   -315.30983    332.31366   -278.46822   -103.34539   -362.48612            0    -3309.214    -3309.214    34782.511    28.841459    24.939238    48.357131     1008 
      38            0    123.57414   0.17849493    116.18636    108.22199    146.31405   -267.38967    -112.6032   -394.23378            0   -3309.2395   -3309.2395    34771.801    28.832688    24.914048    48.405839     1008 
      39            0   -243.04038   0.18576884    -243.0352   -221.48794   -264.59799   -263.45705   -114.87854   -399.06543            0   -3309.2437   -3309.2437    34805.741    28.840742    24.918045    48.431787     1008 
      40            0   -578.74143   0.18944001   -531.69496   -418.22431   -786.30503   -256.45189   -121.02158   -416.15116            0   -3309.2556   -3309.2556    34838.766    28.844974    24.912973    48.480495     1008 
      41            0    91.734147   0.19311905    203.75637    402.66914   -331.22307   -255.66862   -124.84954   -432.85464            0   -3309.2918   -3309.2918    34780.325     28.82418    24.887756    48.483162     1008 
      42            0    72.766907   0.19678497    93.903215    166.69331   -42.295804   -260.98283   -113.73394   -401.25416            0   -3309.3222   -3309.3222    34779.722    28.831588    24.905951    48.434454     1008 
      43            0   -210.94773   0.20405293   -219.77865   -214.96722   -198.09732   -263.12802   -110.55779   -388.86664            0    -3309.325    -3309.325    34804.516     28.84041    24.919468    48.427874     1008 
      44            0   0.20605019   0.20771503   -48.743221   -198.46394    247.82531   -273.61642   -102.65767   -363.63657            0   -3309.3334   -3309.3334    34783.481    28.838123    24.931458    48.379166     1008 
      45            0    324.10744   0.21138287    361.07261    355.64021    255.60949   -267.46971   -111.24771   -391.21467            0   -3309.3568   -3309.3568    34757.367    28.824009    24.906241    48.415488     1008 
      46            0    -279.0992   0.21505499   -234.12336   -149.70568   -453.46855   -258.07232   -115.15624   -402.80789            0   -3309.3718   -3309.3718    34813.695    28.837696    24.909703    48.464196     1008 
      47            0   -677.22723   0.21873689   -643.00176   -381.99294    -1006.687   -243.01704   -117.06761   -418.21805            0    -3309.406    -3309.406    34853.071    28.848442    24.903559    48.512904     1008 
      48            0    289.08459   0.22241902     322.3245    667.65339   -122.72413   -241.22813   -113.09304   -420.70013            0   -3309.4766   -3309.4766    34767.152    28.826144    24.878342    48.479835     1008 
      49            0    129.64924   0.22609091     107.0434    237.20986    44.694465   -252.38826    -102.2978   -382.02768            0   -3309.5412   -3309.5412    34779.933     28.83345    24.903559    48.436272     1008 
      50            0   -135.05961   0.23338294   -151.76502    -91.42758   -161.98623   -255.81863   -102.21652    -375.3797            0   -3309.5432   -3309.5432    34803.544    28.838847    24.913883    48.440003     1008 
      51            0    20.029405   0.23705292    99.974106   -278.36908    238.48319   -288.85637   -100.48652   -339.56321            0   -3309.5524   -3309.5524    34787.474    28.825373    24.939097    48.391294     1008 
      52            0    231.57484     0.240731    235.80381    189.13364    269.78708   -264.50624   -97.793385   -359.85089            0   -3309.6111   -3309.6111    34771.362    28.827917    24.913879    48.413567     1008 
      53            0   -258.64773   0.24801493   -276.08222   -267.38325   -232.47772   -257.29886   -98.465027   -363.14219            0   -3309.6183   -3309.6183    34816.362     28.84135    24.920515    48.440743     1008 
      54            0   -724.91078   0.25531483   -765.56291   -612.76872   -796.40073   -243.99108   -100.14783   -375.08296            0   -3309.6262   -3309.6262    34860.686    28.854744     24.91946    48.481948     1008 
      55            0   -533.25312   0.25900984   -579.79264   -161.26683   -858.69988   -226.19926   -102.33661   -400.51292            0   -3309.6743   -3309.6743    34846.929    28.851626    24.894243    48.517151     1008 
      56            0    141.77416   0.26631093    126.63508    413.60643   -114.91904   -239.42601   -100.04741   -388.66054            0   -3309.6878   -3309.6878    34784.489    28.832717    24.889698    48.470826     1008 
      57            0     25.82041   0.26999092    26.537129    17.860948    33.063154   -259.25025   -95.644458   -357.03151            0   -3309.6953   -3309.6953    34792.575    28.832897    24.914916     48.43272     1008 
      58            0   -554.12905   0.27729082   -572.98523   -534.97252   -554.42939   -252.02698   -96.184271   -358.94529            0   -3309.7051   -3309.7051     34846.22    28.848218    24.923812    48.464329     1008 
      59            0   -494.12276   0.28097892   -518.20411   -198.06284   -766.10132   -230.96349   -95.778714   -379.35587            0   -3309.8337   -3309.8337    34847.059    28.847951    24.899619    48.513037     1008 
      60            0    149.75672   0.28828096    148.72666    370.37927   -69.835778   -241.56425   -93.435715    -369.8842            0   -3309.8458   -3309.8458      34787.7    28.830612     24.89361    48.471223     1008 
      61            0    76.851831   0.29196692    78.824015     7.943359    143.78812   -261.06863   -87.717234   -336.38628            0   -3309.8531   -3309.8531    34791.732    28.830854    24.918827    48.427377     1008 
      62            0   -219.77205   0.29926896   -225.84108   -261.42838    -172.0467   -256.73549   -88.662933   -339.51691            0   -3309.8558   -3309.8558    34819.082    28.838571    24.922279    48.445768     1008 
      63            0   -216.46659   0.30295587   -216.80446    21.484912   -454.08021   -237.96729   -93.711787   -369.96635            0   -3309.8775   -3309.8775    34822.243    28.839041      24.8991    48.494476     1008 
      64            0      326.499   0.31026292     338.9453    491.83448    148.71723   -246.82014   -90.852651   -360.10888            0   -3309.8862   -3309.8862    34772.372     28.82499    24.894762    48.457073     1008 
      65            0    411.68102   0.31394792    415.15995    313.56161    506.32149   -264.19011   -83.805023   -327.84057            0   -3309.9001   -3309.9001    34762.526    28.822662    24.914767    48.408364     1008 
      66            0   -121.49846   0.32124996   -133.45465   -252.79608    21.755362   -261.93124   -83.839133    -324.3059            0   -3309.9081   -3309.9081     34810.71    28.836254    24.927756    48.427365     1008 
      67            0   -273.85593   0.32493782   -267.00844   -181.70581   -372.85352    -247.4422   -89.647903   -349.85445            0   -3309.9222   -3309.9222    34827.327    28.839036    24.912193    48.476074     1008 
      68            0    210.48675   0.33224487    231.87246     349.9947    49.593079    -248.1019   -89.602564   -354.29898            0   -3309.9291   -3309.9291    34783.901    28.826673    24.899047    48.461969     1008 
      69            0    731.33306   0.33592987    727.49665     749.4065    717.09603   -256.21025   -81.989699   -334.68112            0   -3309.9524   -3309.9524    34736.371    28.816191    24.899094     48.41326     1008 
      70            0    116.69504   0.33961487    62.513341   -29.282423    316.85422   -258.69517   -75.792104   -311.97946            0   -3310.0012   -3310.0012    34791.218    28.834013    24.924312    48.410701     1008 
      71            0   -180.07714   0.34692693   -199.07466   -236.34722   -104.80954    -254.1542   -81.066399   -324.34059            0    -3310.005    -3310.005    34819.456    28.838241    24.922603     48.44621     1008 
      72            0     34.98094   0.35425091    86.452969    144.32868   -125.83883   -250.70526   -88.234848   -345.83687            0   -3310.0096   -3310.0096    34802.133    28.827759    24.904791     48.47436     1008 
      73            0    23.717995   0.35794091   -252.99545    353.34501   -29.195569   -200.93337   -63.031306   -339.62342            0   -3310.1899   -3310.1899    34808.042    28.856964    24.886797    48.468541     1008 
      74            0   -66.269313   0.36163783   -102.40803   -22.770997    -73.62891   -242.86903   -72.815913   -317.16885            0   -3310.2069   -3310.2069    34815.819    28.836846    24.912015    48.464085     1008 
      75            0     180.0655   0.36896205    186.64015    188.66259    164.89378   -250.60054   -73.932861    -314.3214            0   -3310.2085   -3310.2085    34793.462     28.82725    24.910173    48.452666     1008 
      76            0    75.192032   0.37265992    286.44717   -198.26066    137.38959   -288.13157   -81.416091   -290.27348            0   -3310.2244   -3310.2244    34802.723    28.810711    24.935391    48.444343     1008 
      77            0   -337.55447   0.37634683   -341.87896    -384.3112   -286.47326   -249.91978   -72.486642    -305.9253            0   -3310.2397   -3310.2397    34841.145    28.839916    24.924646      48.4696     1008 
      78            0   -54.744926   0.38003993   -229.01503    138.61982   -73.839567   -218.66967   -64.559249   -323.65304            0   -3310.2539   -3310.2539     34816.55    28.849094    24.899429    48.469013     1008 
      79            0    281.39317   0.38737392    321.71947     276.7404    245.71963    -254.3535   -73.258689   -309.62173            0   -3310.2589   -3310.2589    34785.986    28.821755    24.909281    48.453226     1008 
      80            0    31.783246   0.39106894    282.38926   -221.28528    34.245757   -289.51133   -82.936956   -291.15953            0   -3310.2637   -3310.2637    34808.409    28.808264    24.934499    48.458107     1008 
      81            0   -355.07148   0.39476299   -329.96902   -441.96329   -293.28214   -254.68331    -72.03032   -299.53548            0   -3310.2765   -3310.2765    34843.773    28.837469    24.928273    48.470314     1008 
      82            0    44.913437   0.39845991   -121.82456     170.9232    85.641671   -223.93118    -61.64039   -312.84898            0   -3310.2908   -3310.2908    34807.978     28.84571    24.903056    48.455707     1008 
      83            0    147.93876   0.40215993    282.96373    158.50956    2.3430095   -260.54237   -77.801816   -311.13312            0   -3310.3184   -3310.3184    34800.924    28.816505    24.910495    48.480503     1008 
      84            0   -417.45622   0.40949893   -339.41205    -473.2265    -439.7301   -256.33097   -74.100625   -301.21099            0   -3310.3279   -3310.3279    34851.897    28.834255    24.926833    48.489821     1008 
      85            0   -885.40665   0.41682696   -936.66993   -1028.5266   -691.02344   -246.92922    -64.18514   -284.07429            0   -3310.3363   -3310.3363    34893.892    28.856106     24.94318    48.479695     1008 
      86            0   -671.60278   0.42051792   -896.10528   -889.29756   -229.40549   -236.23688   -48.076006   -263.28858            0   -3310.3829   -3310.3829    34873.484    28.865844    24.945245    48.430986     1008 
      87            0    105.02325   0.42783403   -30.648679   -28.737964    374.45639    -243.2105   -52.752558   -274.60292            0    -3310.401    -3310.401    34803.866    28.840146    24.923242    48.420079     1008 
      88            0    16.231176   0.43153191    27.873351    7.2854082    13.534769   -247.93917   -65.616796   -295.69862            0   -3310.4076   -3310.4076    34814.428    28.829907    24.914597    48.468788     1008 
      89            0   -632.48707   0.43886805   -769.90882   -568.46939   -559.08301   -224.83957   -58.505073   -296.58289            0   -3310.4213   -3310.4213    34874.156    28.858338    24.921008     48.49163     1008 
      90            0   -483.86852   0.44256687   -945.36592   -150.00966   -356.22999   -174.51507   -38.035175   -303.94475            0   -3310.5078   -3310.5078    34863.441    28.884211    24.895791    48.482367     1008 
      91            0    116.32864   0.44627905   -178.81278    363.54598    164.25271   -199.63732   -44.667868   -300.11634            0   -3310.5214   -3310.5214    34809.041    28.855006    24.891565    48.463937     1008 
      92            0   -67.695211   0.44998097   -38.367606   -84.821687   -79.896341   -247.61973   -61.415555   -285.30621            0   -3310.5277   -3310.5277    34826.052    28.829894    24.916782    48.480741     1008 
      93            0    189.97527   0.45733094    294.59447    117.95925     157.3721   -259.80732   -64.216661   -281.50471            0   -3310.5295   -3310.5295    34802.777    28.817153    24.916357    48.470588     1008 
      94            0    155.14179   0.46103501    492.85363   -215.20927    187.78101   -301.06232   -72.459576   -255.47558            0   -3310.5555   -3310.5555    34806.313    28.796466    24.941575    48.461289     1008 
      95            0   -288.84961   0.46473384   -162.23198   -481.57106   -222.74579   -266.61092   -62.814986    -266.0396            0   -3310.5739   -3310.5739    34847.127    28.825671    24.935517    48.480733     1008 
      96            0    9.3169047   0.46843886   -58.423826    52.688128    33.686413   -233.67023   -53.047511   -282.18165            0   -3310.5882   -3310.5882    34820.764    28.836611    24.910299      48.4747     1008 
      97            0    151.98644   0.47214293    379.34262    150.34015   -73.723453   -264.96082   -70.143546   -288.25419            0   -3310.6121   -3310.6121    34810.841    28.807406    24.911164    48.508331     1008 
      98            0   -694.36653   0.47585201   -581.88549   -759.03962   -742.17449   -253.18272   -62.700751   -275.04846            0   -3310.6355   -3310.6355    34887.947    28.836611    24.932649     48.52469     1008 
      99            0   -1227.9261   0.47955489    -1309.503   -1346.4644   -1027.8108   -234.55576   -48.115914   -256.46183            0   -3310.6599   -3310.6599    34936.949    28.865816    24.947521    48.514743     1008 
     100            0   -702.02468   0.48325682   -942.00219   -818.02499   -346.04687   -221.46021   -32.630095    -242.8236            0   -3310.7413   -3310.7413    34888.943    28.867181      24.9371    48.466035     1008 
     101            0    70.084468   0.49059987   -79.981736    7.9649137    282.27023   -230.52006   -36.638999   -250.75281            0   -3310.7588   -3310.7588    34819.401    28.841363    24.917751    48.450322     1008 
     102            0   -3.6905118   0.49431396    54.014144    4.7471581   -69.832837   -244.78738   -52.392569   -268.62158            0   -3310.7635   -3310.7635    34828.682    28.825269    24.913263     48.49903     1008 
     103            0    -226.9687   0.49802184   -435.61409     6.193705   -251.48571    -201.9322   -37.429743   -277.67002            0   -3310.8165   -3310.8165    34851.045    28.854474    24.898976     48.50887     1008 
     104            0    489.39811   0.50172997    417.87615    604.77665    445.54152   -226.54348   -40.290833   -266.69857            0   -3310.8323   -3310.8323    34786.355    28.825269    24.895084    48.475463     1008 
     105            0    872.50817   0.50544286    1024.2944    738.78639    854.44367    -266.2878   -47.256726   -244.64152            0   -3310.8446   -3310.8446    34752.204    28.796064    24.908185     48.45149     1008 
     106            0    425.24187   0.50915504    708.80762    88.411854    478.50615   -289.55518   -52.596146   -226.88249            0   -3310.8793   -3310.8793    34792.817    28.794022    24.933402    48.462488     1008 
     107            0    -124.5437   0.51651883    41.553609    -362.7938   -52.390899    -268.8163   -48.711554   -234.38352            0   -3310.8894   -3310.8894    34842.888    28.817203    24.935892     48.48835     1008 
     108            0   -1.2298147   0.52022004   -44.060988    37.298519    3.0730246   -230.92554   -39.738588   -255.62908            0   -3310.8965   -3310.8965    34832.575    28.833653    24.910675    48.495386     1008 
     109            0    306.05286   0.52393603    515.04795    306.36767    96.742946   -258.43192   -53.285693   -259.63864            0   -3310.9213   -3310.9213    34807.508    28.804448    24.907864    48.515096     1008 
     110            0   -573.24032   0.53131199   -392.12975   -635.80401   -691.78719   -254.87849   -52.127554   -251.50882            0   -3310.9433   -3310.9433    34888.214    28.826776    24.929881    48.547007     1008 
     111            0    -1317.048   0.53502488   -1276.2306   -1443.0567   -1231.8567   -240.67475   -41.086959   -234.13062            0   -3310.9702   -3310.9702    34957.641    28.855981    24.949596    48.555986     1008 
     112            0   -866.76617   0.53873587   -1011.9765   -1000.9732   -587.34885   -224.48941   -21.412066    -214.0709            0   -3311.0951   -3311.0951    34917.893     28.86143    24.941541    48.507277     1008 
     113            0    34.339974   0.54610682   -47.549153   -37.657048    188.22612   -231.15481   -23.171665   -221.10268            0   -3311.1187   -3311.1187    34836.209    28.835027    24.919009    48.481915     1008 
     114            0   -6.6992454   0.55348802    56.731782    31.236792   -108.06631   -237.01241   -35.432791    -240.5848            0   -3311.1222   -3311.1222    34842.448    28.823764    24.910639    48.525843     1008 
     115            0   -90.881604   0.55720782   -328.68288    246.09334   -190.05527   -185.91427    -17.42365   -253.73139            0   -3311.2043   -3311.2043    34853.943    28.852969    24.887569    48.537671     1008 
     116            0    253.51537   0.56092501    243.79978     290.5021    226.24423   -229.73989   -24.007762   -227.00274            0   -3311.2246   -3311.2246    34822.043    28.823764    24.905745    48.506954     1008 
     117            0   -121.16552   0.56464982   -3.9538531   -303.03213   -56.510569   -254.42703    -29.01438   -208.18177            0    -3311.234    -3311.234    34855.656    28.820455    24.930963    48.510237     1008 
     118            0   -305.21779   0.56836486   -33.237566   -748.19948   -134.21633   -284.91719   -33.104778   -183.40839            0   -3311.2562   -3311.2562    34872.758    28.810052     24.95618    48.502502     1008 
     119            0    654.08134   0.57208395    906.01686    291.09942    765.12774   -282.05772   -26.315081   -182.81728            0   -3311.3063   -3311.3063    34788.093    28.789969    24.930963    48.467473     1008 
     120            0    801.50257   0.57580805     847.0769    711.01937    846.41142   -243.40073   -12.524982   -196.12953            0    -3311.393    -3311.393    34779.034     28.80521    24.905745     48.47825     1008 
     121            0   -197.74596   0.57953691   -221.86846   -254.84952   -116.51988    -228.9492   -12.164697   -199.28892            0   -3311.4225   -3311.4225    34870.319    28.834415    24.922021    48.524551     1008 
     122            0    -496.2932   0.58326101   -557.52572   -331.60761   -599.74629   -208.28776   -14.337173   -222.16895            0   -3311.4402   -3311.4402    34900.798    28.845429    24.909276    48.573259     1008 
     123            0    221.34009   0.58698583    185.81757    526.98823   -48.785518   -204.37953   -14.755917   -235.49146            0   -3311.4639   -3311.4639    34837.602    28.827004    24.884058    48.565464     1008 
     124            0    491.81538   0.59071994    586.97827    434.86243    453.60545    -241.5548   -10.034855   -190.67224            0   -3311.5433   -3311.5433    34813.861    28.807681    24.908761    48.516756     1008 
     125            0   -372.03117   0.59811902   -321.44467   -514.20639   -280.44243   -238.22861   -7.8059244    -180.2481            0   -3311.5647   -3311.5647    34892.488    28.831057    24.932322    48.540991     1008 
     126            0   -1023.3337   0.60552001   -1073.9483   -1195.7579   -800.29482   -226.52988  -0.80308794   -170.73713            0   -3311.5779   -3311.5779    34953.278    28.854871    24.947436    48.555994     1008 
     127            0   -837.80407   0.60925102   -1271.8009   -905.05253   -336.55877   -180.89057    36.474564   -144.77348            0   -3311.7789   -3311.7789     34943.29    28.884076    24.935026    48.517172     1008 
     128            0   -66.113662   0.61298394   -374.10152   -95.490092    271.25063   -194.28412    30.813543   -151.93921            0   -3311.8051   -3311.8051    34873.629    28.854871    24.917077    48.504374     1008 
     129            0    172.02892   0.61671591    135.78337    164.59775    215.70564   -219.38595    12.815794   -166.13236            0   -3311.8117   -3311.8117    34854.494    28.825666    24.910641    48.539414     1008 
     130            0   -35.091844   0.62412786   -6.8283219    -44.60144   -53.845771   -224.46478    7.5038186   -169.77088            0   -3311.8131   -3311.8131    34874.069    28.824821    24.914714    48.560159     1008 
     131            0    116.79953   0.62787604    293.72765    290.59982   -233.92888   -226.45429   -4.7471733   -196.49264            0   -3311.8276   -3311.8276    34864.543    28.809057    24.896566    48.608867     1008 
     132            0   -570.34922   0.63161492   -550.29224   -456.42289   -704.33253   -211.58618    5.9365713    -181.8374            0   -3311.8562   -3311.8562    34927.182    28.838262    24.914599    48.611673     1008 
     133            0   -383.69848   0.63534999   -531.21685   -355.81982   -264.05877   -201.95059       22.313   -159.72183            0   -3311.9009   -3311.9009    34909.344    28.848166    24.918293    48.562964     1008 
     134            0    31.607637     0.642766   -61.531549     64.62251    91.731951   -208.90066     20.47369   -161.20716            0   -3311.9058   -3311.9058    34871.735    28.833754    24.909961    48.551127     1008 
     135            0   -7.7442514   0.65019393    92.299818    -43.74609   -71.786482   -231.51168    8.6274001   -162.45378            0   -3311.9071   -3311.9071    34876.514    28.817531    24.916344    48.572671     1008 
     136            0    34.524376   0.65394497    109.25972    183.33506   -189.02165   -212.43197    21.221645    -163.0046            0   -3312.1508   -3312.1508    34887.059    28.818709    24.900187    48.616897     1008 
     137            0   -223.48911   0.66137695   -284.96132   -303.21698   -82.289036   -213.84875    34.947787   -129.95719            0   -3312.1592   -3312.1592    34907.447    28.835614    24.924144    48.570058     1008 
     138            0   -42.059037   0.66879988   -162.20301   -238.15634    274.18224   -217.40516     42.98061   -112.56037            0   -3312.1619   -3312.1619    34889.355    28.836026    24.930403    48.532006     1008 
     139            0    381.35327     0.676229     373.5993    313.09269    457.36781   -221.07346    34.775431   -130.12805            0   -3312.1697   -3312.1697    34853.318     28.81696    24.911683    48.550407     1008 
     140            0    153.07902   0.67997599    237.29092    211.63229     10.31386   -219.59151    24.868414   -149.91721            0   -3312.1797   -3312.1797    34876.807    28.814708    24.905435    48.599116     1008 
     141            0   -64.041183   0.68741083    -18.36256   -32.220404   -141.54058   -216.67924    27.087034   -145.82754            0   -3312.1812   -3312.1812    34896.089     28.82295    24.911775    48.599707     1008 
     142            0    12.009612    0.6948359   -44.447475   -15.022502    95.498814   -211.55085    35.932261   -133.54091            0    -3312.183    -3312.183    34887.585    28.829865    24.915281    48.569375     1008 
     143            0    158.50622   0.69859099    385.12079    -122.2291    212.62698   -255.06222    26.075044   -112.56241            0   -3312.2355   -3312.2355    34877.397     28.80066    24.933456    48.568997     1008 
     144            0   -385.82862   0.70234084   -342.39697   -473.93187   -341.15701   -221.67602    32.788392   -127.55089            0   -3312.2523   -3312.2523    34928.572    28.829865    24.927897    48.601825     1008 
     145            0   -411.61723   0.70608997   -604.88084   -190.13494   -439.83592   -177.68408    43.137355   -151.10622            0   -3312.2693   -3312.2693    34933.173    28.852453     24.90268    48.619356     1008 
     146            0    161.65319   0.71353197   -1.8717668    402.02622    84.805108   -182.00905    43.896878   -151.88686            0   -3312.2788   -3312.2788    34881.194     28.83656     24.89035    48.597831     1008 
     147            0     287.9852   0.71728492    396.63192    193.79781    273.52586   -231.14227    33.841889   -124.29443            0   -3312.2882   -3312.2882    34869.149    28.808545    24.915568    48.579074     1008 
     148            0   -94.276653   0.72473383    27.667563   -250.78302   -59.714499   -234.57563    32.582793    -119.2289            0   -3312.2922   -3312.2922     34903.84    28.815893    24.928008    48.590743     1008 
     149            0    -285.9552   0.72847986   -435.68113   -189.09352   -233.09095   -190.54349    45.389036   -135.82125            0   -3312.3026   -3312.3026    34922.256    28.845098    24.910675    48.600953     1008 
     150            0    156.31111   0.73591495   -52.224235    365.48457    155.67301   -179.38327    49.524774    -143.7886            0   -3312.3091   -3312.3091    34882.633    28.840406    24.893059    48.588067     1008 
     151            0    471.50238   0.73966503    508.88892    576.24174     329.3765    -210.9049    38.087346   -140.02301            0   -3312.3308   -3312.3308    34856.477    28.811201    24.895687    48.595719     1008 
     152            0   -241.03703   0.74341893   -104.41262   -278.85696   -339.84149   -226.04478    31.786004   -130.24347            0   -3312.3498   -3312.3498    34922.166    28.818287    24.920904    48.626076     1008 
     153            0   -521.15275   0.74717593   -334.58879   -796.60364   -432.26583   -244.64197    34.722462   -103.19277            0   -3312.3805   -3312.3805     34948.35    28.819279    24.946121    48.611668     1008 
     154            0    341.21604   0.75093198    491.71087    61.057283    470.87997   -245.80899    43.826905    -94.34043            0   -3312.4161   -3312.4161    34870.526    28.802526    24.930028     48.56296     1008 
     155            0    567.26589   0.75468302     427.2002     541.5998    732.99767   -201.37132      63.7045   -104.38349            0   -3312.4747   -3312.4747    34853.566    28.823416    24.904811    48.553273     1008 
     156            0    -309.1582   0.75843883    -509.6638   -270.05234   -147.75846   -186.12664    63.170133   -111.42158            0   -3312.5029   -3312.5029    34935.464    28.849236    24.915994    48.601982     1008 
     157            0    -604.1192   0.76219296    -706.8748   -480.48289   -624.99992   -187.39262     54.90487   -125.23968            0   -3312.5251   -3312.5251    34966.523    28.847749    24.914462     48.65069     1008 
     158            0    97.587562   0.76595092    144.26711    273.96601   -125.47044   -200.99033    48.716324    -133.7143            0   -3312.5567   -3312.5567    34905.354    28.818544     24.89679    48.649306     1008 
     159            0    108.84413   0.76971698     207.8607   -20.795536    139.46722   -226.46723    54.109321   -97.624051            0   -3312.5858   -3312.5858    34903.286    28.812395    24.922007    48.607573     1008 
     160            0   -308.23936   0.77717185   -316.72996   -392.08447   -215.90365   -210.97245    58.897398   -99.276457            0   -3312.5917   -3312.5917    34941.641     28.83155     24.92617    48.620537     1008 
     161            0   -562.98113   0.78462481   -701.77071    -556.8247   -430.34798   -191.07784    65.201346   -103.98911            0   -3312.5951   -3312.5951    34965.598    28.849259     24.92355    48.629118     1008 
     162            0   -298.50363   0.78838086   -667.62831   -48.796398   -179.08619   -153.46064    78.528124    -118.4657            0   -3312.6195   -3312.6195    34943.234    28.864318    24.898333    48.621854     1008 
     163            0     146.7757   0.79584289   -60.518159    314.41243    186.43282   -176.72203    71.758372   -114.46007            0   -3312.6259   -3312.6259    34902.848    28.839346    24.896756    48.610793     1008 
     164            0   -2.6091009     0.803303    18.924425   -11.547087    -15.20464   -209.60383    59.135384   -105.38888            0   -3312.6286   -3312.6286    34916.866    28.822064    24.914122    48.625558     1008 
     165            0   -152.79327   0.80706382   -284.30877   -361.46331    187.39229   -208.10557    75.273094   -74.107874            0   -3312.6469   -3312.6469    34928.717    28.838038    24.933749     48.57685     1008 
     166            0    660.38985   0.81082487    606.56038    569.49662    805.11255   -210.94789    73.213723   -85.767856            0   -3312.6676   -3312.6676    34858.051    28.812928    24.908531    48.569942     1008 
     167            0    1009.2224   0.81458688    1100.0058    1144.4067    783.25465   -209.39293    62.913597   -114.60149            0   -3312.7043   -3312.7043    34833.816    28.793278    24.883314    48.618519     1008 
     168            0    267.35677   0.81835699    369.93983    434.89216   -2.7616687   -204.18591    58.769652   -121.67388            0   -3312.7507   -3312.7507      34903.6    28.809209    24.894436    48.667228     1008 
     169            0   -90.398444   0.82582498   -35.232862    10.833121   -246.79559    -202.4795    61.680227   -113.15477            0   -3312.7547   -3312.7547    34935.281    28.821276    24.906675    48.667079     1008 
     170            0     3.397251   0.83329391   -12.231819   -6.7599697    29.183542   -204.01241    69.769495   -95.864327            0   -3312.7568   -3312.7568     34924.69    28.824857    24.914244    48.631503     1008 
     171            0    115.20189   0.83706188     395.3797   -102.49101    52.716981   -245.92197    55.614245   -84.096567            0   -3312.7729   -3312.7729    34916.635    28.795652    24.929265    48.640271     1008 
     172            0   -394.29283     0.840837   -310.20523   -490.87599   -381.79725   -216.46571    64.935161   -90.549325            0   -3312.7905   -3312.7905     34964.23    28.824857    24.928971    48.657798     1008 
     173            0   -238.96418   0.84459591   -470.62693   -66.468945   -179.79667    -168.7322    83.088304   -104.81541            0   -3312.8172   -3312.8172    34951.599     28.85004    24.903753    48.646973     1008 
     174            0    98.005715   0.85205984   -39.908523    222.77363    111.15204   -182.58152     79.63822   -101.99768            0   -3312.8205   -3312.8205    34920.936    28.833784     24.90137    48.636351     1008 
     175            0    16.614845   0.85953903    57.877903   -9.4897729     1.456405   -209.33404     70.20466   -93.235721            0   -3312.8218   -3312.8218     34928.55    28.819378    24.915358    48.643948     1008 
     176            0   -129.37525   0.86701894   -130.68975   -146.68686   -110.74913   -203.97943    72.244724   -92.895358            0   -3312.8227   -3312.8227    34941.762    28.826494    24.917407    48.646337     1008 
     177            0    16.597997   0.87448287   -292.01287    164.58717     177.2197   -164.37689    91.270805   -96.313351            0   -3312.8294   -3312.8294    34927.909    28.850727    24.901062    48.618098     1008 
     178            0    587.37496   0.87825489    460.55132    743.14657    558.42698   -182.74807    85.240262   -100.19944            0   -3312.8806   -3312.8806    34881.725    28.821522    24.889751    48.625099     1008 
     179            0   -220.29832   0.88202095   -207.60423   -181.46848   -271.82226   -199.17738    75.663557   -95.695877            0   -3312.9214   -3312.9214    34958.535     28.82738    24.914532    48.673807     1008 
     180            0   -125.67239   0.88579893    183.81131   -329.82549     -231.003   -242.77868    65.060573    -77.77066            0   -3312.9777   -3312.9777    34955.094    28.798175    24.932934    48.682417     1008 
     181            0     474.4571   0.88958001    531.50026    439.54772    452.32332   -210.45933    84.376154   -80.600675            0   -3313.0039   -3313.0039    34901.391    28.807076    24.907716    48.641801     1008 
     182            0    563.40759   0.89334893    270.22918    725.27148    694.72211   -164.01749    107.31062   -84.831045            0    -3313.029    -3313.029    34894.722    28.836281    24.889978    48.617875     1008 
     183            0   -286.69807   0.90083194   -653.43211   -128.25004    -78.41207   -152.61343    108.59019   -84.371158            0     -3313.05     -3313.05    34973.655    28.862506    24.906163    48.651939     1008 
     184            0   -638.25215   0.90460587   -698.66295   -618.17367   -597.91983   -188.48536    90.568573   -83.207454            0   -3313.0752   -3313.0752    35010.393    28.843005     24.92423    48.700648     1008 
     185            0   -24.070991   0.90837693    84.902486   -40.041353   -117.07411   -209.73474    84.051495   -83.250785            0   -3313.0975   -3313.0975    34955.873      28.8138    24.915572    48.691006     1008 
     186            0    54.004342   0.91586804     49.90598    61.331416     50.77563   -198.01503    92.008978   -79.946487            0   -3313.0988   -3313.0988    34947.792    28.821985    24.912243    48.672427     1008 
     187            0   -25.923898     0.923352   -57.022729   -20.345316  -0.40364897   -195.20648    93.501627   -78.842517            0   -3313.0991   -3313.0991     34954.89    28.826179    24.913909    48.671976     1008 
     188            0     -5.37368   0.92713284    40.706311   -305.53807    248.71072   -223.22115    97.438542    -45.55879            0   -3313.1244   -3313.1244    34953.166    28.817674    24.939126    48.634713     1008 
     189            0    90.813692   0.93090892    106.53041    70.885624    95.025042   -201.10269    94.258427   -76.134782            0   -3313.1472   -3313.1472    34948.662    28.819256    24.913909    48.674994     1008 
     190            0   -82.989289   0.93840694   -82.461821   -87.509802   -78.996243   -197.69306    93.955944   -78.187118            0   -3313.1481   -3313.1481    34964.809     28.82464    24.915897    48.684504     1008 
     191            0   -215.21248   0.94589591   -239.85145   -176.35278   -229.43322   -191.61902    93.988431   -82.829998            0   -3313.1489   -3313.1489     34977.47    28.830066     24.91477    48.695169     1008 
     192            0   -23.291321   0.94967604     -142.401    275.60295   -203.07591   -165.50023     96.15428   -108.17206            0    -3313.158    -3313.158    34962.965    28.834963    24.889553    48.716016     1008 
     193            0    399.11655   0.95345592    456.59861    365.89923    374.85182   -206.96728    95.384145   -73.984848            0   -3313.1747   -3313.1747    34923.578    28.808478    24.909276    48.667307     1008 
     194            0     30.61352   0.95723701    155.07312   -221.62438    158.39182   -226.21586    94.380209   -53.095249            0   -3313.1861   -3313.1861    34956.739    28.810159    24.934493    48.661413     1008 
     195            0   -230.71882   0.96474004   -271.07434   -218.61165   -202.47046   -191.15325    98.318895   -77.753435            0   -3313.1934   -3313.1934    34982.672    28.831658    24.917401     48.69458     1008 
     196            0   -18.149993     0.972229   -117.99189    140.75567   -77.213756   -176.45726    100.36143   -91.175523            0   -3313.1962   -3313.1962    34964.348    28.832565    24.901189    48.699227     1008 
     197            0    155.76696   0.97973299    168.04913    181.25704     117.9947   -197.07894     96.83361    -79.67786            0   -3313.1977   -3313.1977    34948.001    28.818208    24.909004    48.685429     1008 
     198            0   -4.3476862     0.987252    65.084065   -84.337114    6.2099911   -208.84559    94.414495   -70.789874            0   -3313.1985   -3313.1985    34962.225    28.816457    24.920785    48.685178     1008 
     199            0   -136.35046   0.99475598   -197.22118   -121.27496   -90.555228   -189.43115    100.65976   -76.400983            0   -3313.2005   -3313.2005    34974.364    28.831289    24.915407    48.687536     1008 
     200            0      35.1886     1.002259   -101.44854    139.43324    67.581104   -177.02509    104.99466   -82.322922            0   -3313.2022   -3313.2022    34958.949    28.834338    24.904795    48.681663     1008 
     201            0    233.26709     1.006038     374.6194    249.00822     76.17365    -209.9273    89.064418   -84.262741            0   -3313.2082   -3313.2082    34943.373    28.805133    24.908295    48.702464     1008 
     202            0    -168.5484     1.013556    78.174422   -246.92551   -336.89412   -223.98873    81.759564   -80.526473            0   -3313.2131   -3313.2131    34981.174    28.804716    24.923632    48.725853     1008 
     203            0   -565.17309    1.0173399   -488.86746   -850.96055   -355.69125   -219.64468    99.096156   -48.718713            0   -3313.2454   -3313.2454    35018.003    28.827874    24.948849    48.688706     1008 
     204            0    208.14373    1.0211298    174.67681   -39.310718    489.06511   -210.88336    112.56828   -42.876389            0   -3313.2762   -3313.2762    34948.272     28.81983    24.931061    48.639997     1008 
     205            0     204.0149    1.0249128    56.793907    260.92002    294.33078   -178.39846    114.86657   -72.754379            0   -3313.3096   -3313.3096    34954.092    28.831116    24.905843     48.67829     1008 
     206            0   -70.092955    1.0324259   -171.07124   -40.668069    1.4604399   -183.14234    110.51723   -73.322858            0   -3313.3117   -3313.3117     34979.62    28.833275    24.913231    48.695749     1008 
     207            0   -41.451989    1.0399339  -0.36238045    -54.83609   -69.157495   -199.44179    101.63114   -75.103582            0   -3313.3124   -3313.3124    34978.011    28.819985    24.916174    48.710211     1008 
     208            0     38.01422    1.0474448    72.477609    31.050996    10.514054   -198.79836    102.45783   -75.067237            0   -3313.3126   -3313.3126    34970.684    28.818769    24.914153    48.706013     1008 
     209            0    14.621768     1.054949   -60.798304    36.389283    68.274325   -186.47295    109.51557   -73.162754            0   -3313.3136   -3313.3136    34972.137    28.829047    24.912272    48.694347     1008 
     210            0   -220.92273    1.0624599   -274.46424   -226.52861   -161.77534    -189.1125    107.27213   -72.335418            0   -3313.3151   -3313.3151    34994.165     28.83245    24.918971     48.70617     1008 
     211            0   -150.07941     1.066251    105.96787   -273.19946   -283.00665   -225.97374    89.400381   -73.340174            0   -3313.3309   -3313.3309     34991.68    28.803245    24.927288    48.735828     1008 
     212            0    246.04168    1.0737669    386.70658    204.60942    146.80904   -211.69254    98.400998   -74.856793            0   -3313.3368   -3313.3368    34955.225    28.804621    24.913119    48.710416     1008 
     213            0    224.91284     1.077548    43.642901    327.66954    303.42607   -171.55888    118.13042    -76.24012            0   -3313.3439   -3313.3439    34956.276    28.833826    24.901734     48.68479     1008 
     214            0   -80.334082     1.085063   -254.65384   -3.7756499    17.427247    -172.4066    116.36655   -75.203511            0   -3313.3465   -3313.3465     34984.37    28.840171     24.90961    48.697795     1008 
     215            0   -66.384178    1.0925839   -3.2595846   -103.06683   -92.826114     -202.387    102.38011   -73.368967            0   -3313.3486   -3313.3486    34984.387    28.818552     24.91866     48.71665     1008 
     216            0    40.391961    1.1000938    102.84554    12.168731    6.1616154   -202.29989    102.91097    -73.70662            0   -3313.3489   -3313.3489    34974.626    28.816199    24.915951    48.712332     1008 
     217            0    31.445461    1.1076019   -34.507783    67.623456    61.220709   -185.84912    110.49999   -75.075303            0   -3313.3502   -3313.3502    34974.972    28.827909     24.91083    48.703037     1008 
     218            0    -91.71745    1.1151109   -156.55705   -65.300512   -53.294788   -185.97126    109.89944   -74.686918            0   -3313.3506   -3313.3506    34986.336     28.83061    24.913951    48.708193     1008 
     219            0   -72.501037     1.122638    150.44349   -194.90311    -173.0435   -222.93215    93.362427   -71.184359            0   -3313.3538   -3313.3538    34986.611    28.804385    24.925847    48.729657     1008 
     220            0    346.18325     1.130163    561.89405    257.49243    219.16327    -222.0368    96.092557   -72.274668            0   -3313.3591   -3313.3591    34949.194    28.795648    24.915191    48.713137     1008 
     221            0     302.4723    1.1339478    202.32757    374.66803    330.42131   -180.96656     115.9243   -76.100361            0   -3313.3883   -3313.3883    34954.905    28.824853    24.902893    48.695769     1008 
     222            0   -21.098567     1.141469   -102.03275    18.340668    20.396382   -183.32291    113.26107    -75.04455            0   -3313.3912   -3313.3912    34984.616    28.830485    24.911648    48.710513     1008 
     223            0   -6.9199644     1.148988    11.185977   -16.441016   -15.504855   -195.99444    107.48442    -74.03128            0   -3313.3914   -3313.3914    34983.782    28.821277    24.915407    48.717562     1008 
     224            0    108.17061     1.156512    119.80186    109.26996    95.440017    -195.2565    108.46202    -74.29163            0   -3313.3918   -3313.3918    34973.282    28.819248    24.912372    48.712303     1008 
     225            0    55.351953    1.1602929    -245.0942    194.01419    217.13586   -156.11506    127.75521   -75.807036            0   -3313.4053   -3313.4053    34978.686    28.848453    24.902115    48.690554     1008 
     226            0   -406.91735    1.1640821   -402.21369   -438.26044   -380.27791   -193.60517    108.06466   -73.542266            0   -3313.4235   -3313.4235    35025.187    28.831625    24.924841    48.739263     1008 
     227            0   -106.59448     1.167882    148.82779   -230.33563   -238.27559   -224.59287       94.953   -73.463074            0   -3313.4378   -3313.4378    35000.784     28.80242    24.926773    48.750911     1008 
     228            0     127.6145    1.1754019    227.24177    91.845186    63.756547   -205.35812    105.56309   -74.650219            0   -3313.4414   -3313.4414    34978.475    28.811042    24.915144    48.727991     1008 
     229            0   -1.8563422     1.182924   -9.7385476    2.3318262    1.8376947   -191.93358    111.46546   -74.846063            0   -3313.4428   -3313.4428    34989.799    28.823574    24.914307    48.724208     1008 
     230            0   -264.03002    1.1867189   -96.688553   -502.32463   -193.07686   -223.24621    104.09645   -56.607833            0   -3313.4583   -3313.4583    35016.063    28.813307    24.939524    48.728837     1008 
     231            0    455.66071    1.1942599    646.56185    252.69459    467.72569   -226.70925    107.09622   -57.830899            0   -3313.4737   -3313.4737    34952.913     28.79506    24.923017    48.704017     1008 
     232            0    986.06966    1.1980569    1050.1562     969.8847    938.16807   -204.35331    117.33265   -71.609556            0   -3313.4983   -3313.4983    34911.819     28.79491      24.8978     48.69628     1008 
     233            0    376.28925      1.20186    271.90913    492.69713    364.26148   -175.73012    124.04774   -84.083021            0   -3313.5559   -3313.5559    34973.787    28.824115    24.898269    48.732369     1008 
     234            0   -16.327288     1.209399   -102.02037    52.383915   0.65458816   -178.70833    121.20598   -81.725277            0   -3313.5602   -3313.5602    35009.727    28.831312    24.909525    48.748232     1008 
     235            0  -0.59187394    1.2169549    5.5966241   -2.6916749   -4.6805711   -192.26926     116.5215   -77.692747            0   -3313.5603   -3313.5603    35008.394    28.822598    24.915096    48.750211     1008 
     236            0    106.22139    1.2244899    62.508551    35.235946    220.91968   -193.11301    122.75018   -66.302386            0   -3313.5615   -3313.5615    34997.536    28.824262    24.918931    48.724779     1008 
     237            0   -126.14994     1.232018   -218.79202   -261.39042    101.73261   -191.86133    126.39614   -57.949411            0   -3313.5636   -3313.5636    35018.532    28.833679    24.928735    48.718919     1008 
     238            0   -108.95621     1.235822   -165.36174   -228.41046    66.903583   -194.20635    123.22318   -66.473821            0   -3313.6186   -3313.6186    35028.861    28.830632    24.927132    48.741573     1008 
     239            0    77.040557     1.243377    51.290708    11.469547    168.36142   -194.26186    120.82859   -73.324913            0     -3313.62     -3313.62    35012.589    28.823881     24.91909    48.746067     1008 
     240            0   -1.6083673    1.2509298    2.4413057   -2.9713542   -4.2950533   -192.03375    116.29682   -83.221755            0   -3313.6208   -3313.6208    35021.019    28.823328    24.915133    48.766484     1008 
     241            0    42.016675    1.2584748    3.6935247    91.134062    31.222439   -184.81298    118.29807   -86.989259            0   -3313.6213   -3313.6213     35017.23    28.826255    24.910118    48.766072     1008 
     242            0   -62.174607    1.2660248   -141.75524    21.129403   -65.897983   -178.02234    119.54095   -89.869265            0   -3313.6219   -3313.6219    35027.078    28.832428    24.909217    48.771108     1008 
     243            0    -18.44636     1.269834   -120.75575    127.77227   -62.355591   -172.46964    115.62583   -102.89098            0   -3313.6595   -3313.6595    35034.378    28.834353    24.903036    48.790123     1008 
     244            0    53.258876     1.277405    77.288127    37.846634    44.641867   -195.98405    111.32125   -89.158512            0   -3313.6606   -3313.6606    35027.275    28.820972     24.91517    48.779111     1008 
     245            0    -6.377661    1.2849689    24.678511   -42.087316    -1.724179   -197.72609    110.91476    -87.45925            0   -3313.6606   -3313.6606    35032.671    28.821642     24.91798    48.779988     1008 
     246            0   -31.268933    1.2925248   -49.943744   -24.916621   -18.946435   -190.04196    113.19974   -90.244807            0    -3313.661    -3313.661    35035.011    28.826753    24.914951    48.780528     1008 
     247            0    8.6397988    1.3000839   -16.190088    27.180484       14.929   -188.84096    113.59978   -91.161909            0   -3313.6611   -3313.6611    35031.403    28.826427     24.91319    48.779504     1008 
     248            0    8.6397988     1.435111   -16.190088    27.180484       14.929   -188.84096    113.59978   -91.161909            0   -3313.6611   -3313.6611    35031.403    28.826427     24.91319    48.779504     1008 
Loop time of 1.43513 on 1 procs for 248 steps with 1008 atoms

100.1% CPU use with 1 MPI tasks x no OpenMP threads

Minimization stats:
  Stopping criterion = linesearch alpha is zero
  Energy initial, next-to-last, final = 
        -3304.22905987     -3313.66112748     -3313.66112748
  Force two-norm initial, final = 441.775 0.824715
  Force max component initial, final = 272.569 0.601553
  Final line search alpha, max atom move = 1.7783e-08 1.06974e-08
  Iterations, force evaluations = 248 382

MPI task timing breakdown:
Section |  min time  |  avg time  |  max time  |%varavg| %total
---------------------------------------------------------------
Pair    | 1.3792     | 1.3792     | 1.3792     |   0.0 | 96.10
Neigh   | 0.01112    | 0.01112    | 0.01112    |   0.0 |  0.77
Comm    | 0.0045648  | 0.0045648  | 0.0045648  |   0.0 |  0.32
Output  | 0.0079155  | 0.0079155  | 0.0079155  |   0.0 |  0.55
Modify  | 0          | 0          | 0          |   0.0 |  0.00
Other   |            | 0.03238    |            |       |  2.26

Nlocal:    1008 ave 1008 max 1008 min
Histogram: 1 0 0 0 0 0 0 0 0 0
Nghost:    1518 ave 1518 max 1518 min
Histogram: 1 0 0 0 0 0 0 0 0 0
Neighs:    58484 ave 58484 max 58484 min
Histogram: 1 0 0 0 0 0 0 0 0 0

Total # of neighbors = 58484
Ave neighs/atom = 58.0198
Neighbor list builds = 1
Dangerous builds = 0
Setting up cg style minimization ...
  Unit style: metal
Memory usage per processor = 3.38866 Mbytes
Step Temp Press CPU Pxx Pyy Pzz Pxy Pxz Pyz KinEng PotEng TotEng Volume Lx Ly Lz Atoms 
     248            0    8.6397988            0   -16.190088    27.180484       14.929   -188.84096    113.59978   -91.161909            0   -3313.6611   -3313.6611    35031.403    28.826427     24.91319    48.779504     1008 
     249            0    106.11042 0.0037660599    67.627497    98.629537    152.07424   -190.80282    104.95107   -95.134222            0   -3313.6846   -3313.6846    35031.403    28.826427     24.91319    48.779504     1008 
     250            0    136.13224 0.0075399876    112.63624    115.13794    180.62255   -192.41199    75.348766   -107.39187            0   -3313.6973   -3313.6973    35031.403    28.826427     24.91319    48.779504     1008 
     251            0    146.52596  0.015033007    122.73157    118.69577    198.15055   -193.71566    65.526573   -100.93746            0   -3313.6993   -3313.6993    35031.403    28.826427     24.91319    48.779504     1008 
     252            0    99.147835   0.02252984    106.17371     76.14716    115.12264   -193.39189    30.928075   -106.47011            0    -3313.703    -3313.703    35031.403    28.826427     24.91319    48.779504     1008 
     253            0    73.437853  0.030034065    93.958522    57.537083    68.817954   -192.21467    16.409509    -111.4048            0    -3313.704    -3313.704    35031.403    28.826427     24.91319    48.779504     1008 
     254            0    70.977335  0.037535906    93.161745    57.003156    62.767103   -192.10417    12.407214   -110.08061            0   -3313.7044   -3313.7044    35031.403    28.826427     24.91319    48.779504     1008 
     255            0    76.014224  0.045037031    96.373455    61.666165    70.003053   -192.59813     12.03619   -105.84775            0   -3313.7046   -3313.7046    35031.403    28.826427     24.91319    48.779504     1008 
     256            0    79.756488  0.052546978    97.401131    65.055234    76.813099   -193.43287    12.712577    -100.6226            0   -3313.7048   -3313.7048    35031.403    28.826427     24.91319    48.779504     1008 
     257            0    66.664518   0.06004405    86.336127    55.721382    57.936045   -193.91878    11.529457   -94.161232            0    -3313.705    -3313.705    35031.403    28.826427     24.91319    48.779504     1008 
     258            0     34.83504  0.067548037    61.872153    30.394205    12.238764   -193.82509    9.5039645   -80.417275            0   -3313.7052   -3313.7052    35031.403    28.826427     24.91319    48.779504     1008 
     259            0      19.4029  0.075054884    50.778878    16.321603   -8.8917805   -193.40157    8.9704664   -72.431953            0   -3313.7053   -3313.7053    35031.403    28.826427     24.91319    48.779504     1008 
     260            0      7.23198  0.082556009    42.274817    4.1846932    -24.76357   -193.35411    8.6246575   -63.275932            0   -3313.7055   -3313.7055    35031.403    28.826427     24.91319    48.779504     1008 
     261            0   -1.8445216  0.090065956    35.910114    -5.450828   -35.992851    -192.9482    8.7257194   -48.404003            0   -3313.7056   -3313.7056    35031.403    28.826427     24.91319    48.779504     1008 
     262            0   -4.2862072  0.097578049    34.846963   -8.7316898   -38.973895   -192.15823    8.7496945   -39.616574            0   -3313.7057   -3313.7057    35031.403    28.826427     24.91319    48.779504     1008 
     263            0   -4.7300199   0.10508204    35.243846   -9.7383881   -39.695518   -191.85364    8.4419669   -35.722356            0   -3313.7058   -3313.7058    35031.403    28.826427     24.91319    48.779504     1008 
     264            0   -3.6246541   0.11259294    36.053385   -8.7712097   -38.156137   -192.05383    7.8597779   -30.972087            0   -3313.7058   -3313.7058    35031.403    28.826427     24.91319    48.779504     1008 
     265            0   -1.2822741   0.12009192    36.936732   -6.3251697   -34.458384   -192.47979    7.2870507   -25.708934            0   -3313.7059   -3313.7059    35031.403    28.826427     24.91319    48.779504     1008 
     266            0    1.5292791     0.127599    38.325621   -4.2562815   -29.481503   -192.89391    6.3311874   -20.878937            0   -3313.7059   -3313.7059    35031.403    28.826427     24.91319    48.779504     1008 
     267            0    5.7558451   0.13510489    41.264534   -1.5220575   -22.474941   -192.82921    5.0403589   -16.314933            0   -3313.7059   -3313.7059    35031.403    28.826427     24.91319    48.779504     1008 
     268            0    10.818614   0.14260793    45.300595    1.9208509   -14.765605     -192.229    3.7275015   -11.439165            0   -3313.7059   -3313.7059    35031.403    28.826427     24.91319    48.779504     1008 
     269            0    14.400602   0.15011501     48.09222    4.3340793   -9.2244932   -192.04049    3.0573927   -7.9566665            0    -3313.706    -3313.706    35031.403    28.826427     24.91319    48.779504     1008 
     270            0    17.513195    0.1576159    50.611508    6.3681685   -4.4400899   -192.03693    2.3508352   -4.5267673            0    -3313.706    -3313.706    35031.403    28.826427     24.91319    48.779504     1008 
     271            0    19.821687   0.16512394    52.890253    7.9252339   -1.3504256   -191.95341    1.6443012    -1.852294            0    -3313.706    -3313.706    35031.403    28.826427     24.91319    48.779504     1008 
     272            0    20.725046   0.17263389    53.832463     8.438631  -0.09595663   -191.95513    1.4405606  -0.82747011            0    -3313.706    -3313.706    35031.403    28.826427     24.91319    48.779504     1008 
     273            0    21.124748   0.18014002    54.197106    8.4618042   0.71533284   -191.98027    1.4611731  -0.25205491            0    -3313.706    -3313.706    35031.403    28.826427     24.91319    48.779504     1008 
     274            0    21.240679   0.18764687    54.344425    8.3172481    1.0603623   -191.93913    1.5041068 0.0026706336            0    -3313.706    -3313.706    35031.403    28.826427     24.91319    48.779504     1008 
     275            0    21.319494   0.19515491    54.431137    8.2746715    1.2526735   -191.89321    1.5216682   0.12205531            0    -3313.706    -3313.706    35031.403    28.826427     24.91319    48.779504     1008 
     276            0     21.35823   0.20265698    54.430045    8.3182175    1.3264276   -191.86943    1.5352522   0.23328684            0    -3313.706    -3313.706    35031.403    28.826427     24.91319    48.779504     1008 
     277            0    21.314734   0.21016693    54.365014    8.3334359    1.2457528   -191.86341    1.5487314   0.31354665            0    -3313.706    -3313.706    35031.403    28.826427     24.91319    48.779504     1008 
     278            0    21.237692   0.21767306    54.267097    8.3221373    1.1238429   -191.88906    1.5198206   0.33104617            0    -3313.706    -3313.706    35031.403    28.826427     24.91319    48.779504     1008 
     279            0    21.140527   0.22517395    54.159724    8.2836414   0.97821473    -191.9162     1.463159   0.31682049            0    -3313.706    -3313.706    35031.403    28.826427     24.91319    48.779504     1008 
     280            0    20.980899   0.23268199    54.038092    8.1672308   0.73737293   -191.92709    1.3870853   0.26080918            0    -3313.706    -3313.706    35031.403    28.826427     24.91319    48.779504     1008 
     281            0    20.787521   0.24018192    53.893779    8.0108222   0.45796079   -191.93072    1.2826943   0.18276352            0    -3313.706    -3313.706    35031.403    28.826427     24.91319    48.779504     1008 
     282            0    20.652955   0.24768806    53.796606    7.9021011   0.26015774    -191.9209    1.1856125   0.13371487            0    -3313.706    -3313.706    35031.403    28.826427     24.91319    48.779504     1008 
     283            0    20.538001   0.25519586    53.734154    7.8039421   0.07590824   -191.91661    1.0819031  0.097333601            0    -3313.706    -3313.706    35031.403    28.826427     24.91319    48.779504     1008 
     284            0    20.445102   0.26269603    53.687892    7.7224765 -0.075062821   -191.92399   0.96389373  0.082916848            0    -3313.706    -3313.706    35031.403    28.826427     24.91319    48.779504     1008 
     285            0    20.377832   0.27020288    53.651768    7.6699255  -0.18819684   -191.92758   0.84465672  0.086245221            0    -3313.706    -3313.706    35031.403    28.826427     24.91319    48.779504     1008 
     286            0    20.336896   0.27771187    53.629905    7.6361034  -0.25531931   -191.92981   0.74734744  0.099795811            0    -3313.706    -3313.706    35031.403    28.826427     24.91319    48.779504     1008 
     287            0    20.315973    0.2852149    53.620399    7.6160804  -0.28856202   -191.92961   0.66769717    0.1196757            0    -3313.706    -3313.706    35031.403    28.826427     24.91319    48.779504     1008 
     288            0    20.311268   0.29273891    53.620834    7.6092884   -0.2963191   -191.92732   0.59785128   0.13256075            0    -3313.706    -3313.706    35031.403    28.826427     24.91319    48.779504     1008 
     289            0    20.321668   0.30025005    53.627043    7.6138535  -0.27589317    -191.9279   0.53475734   0.13331532            0    -3313.706    -3313.706    35031.403    28.826427     24.91319    48.779504     1008 
     290            0      20.3452   0.30774784    53.643381       7.6322  -0.23998094   -191.93132   0.45885966   0.12386195            0    -3313.706    -3313.706    35031.403    28.826427     24.91319    48.779504     1008 
     291            0    20.387449   0.31525397    53.677069    7.6674445  -0.18216653   -191.93688   0.37690495   0.10942531            0    -3313.706    -3313.706    35031.403    28.826427     24.91319    48.779504     1008 
     292            0    20.435617   0.32275605    53.718871     7.704623   -0.1166424   -191.94166   0.30089525  0.092388213            0    -3313.706    -3313.706    35031.403    28.826427     24.91319    48.779504     1008 
     293            0    20.488767   0.33026385    53.769264    7.7417191 -0.044681303   -191.93999   0.22084267  0.075299238            0    -3313.706    -3313.706    35031.403    28.826427     24.91319    48.779504     1008 
     294            0     20.53333   0.33777094    53.810234    7.7775977  0.012158906   -191.93802   0.15773159  0.057490326            0    -3313.706    -3313.706    35031.403    28.826427     24.91319    48.779504     1008 
     295            0    20.565002   0.34527206     53.83705    7.8066578  0.051299179   -191.93712   0.11732162  0.041335023            0    -3313.706    -3313.706    35031.403    28.826427     24.91319    48.779504     1008 
     296            0    20.578363   0.35277987    53.849499    7.8188243  0.066765854   -191.93594  0.094839668  0.031373013            0    -3313.706    -3313.706    35031.403    28.826427     24.91319    48.779504     1008 
     297            0     20.58193   0.36028504     53.85264    7.8213751  0.071775533   -191.93665  0.077359616  0.020597227            0    -3313.706    -3313.706    35031.403    28.826427     24.91319    48.779504     1008 
     298            0    20.581215   0.36778307    53.850391    7.8210144  0.072240266   -191.93779  0.064045835  0.013790165            0    -3313.706    -3313.706    35031.403    28.826427     24.91319    48.779504     1008 
     299            0     20.57776   0.37528992    53.846514    7.8196763  0.067090061   -191.93853  0.051672263 0.0094991218            0    -3313.706    -3313.706    35031.403    28.826427     24.91319    48.779504     1008 
     300            0    20.572066   0.38279295     53.84197    7.8163615  0.057868308    -191.9391  0.039438048 0.0060184696            0    -3313.706    -3313.706    35031.403    28.826427     24.91319    48.779504     1008 
     301            0    20.565842   0.39030194    53.837783    7.8120668  0.047676357   -191.93935  0.028798494  0.003781138            0    -3313.706    -3313.706    35031.403    28.826427     24.91319    48.779504     1008 
     302            0    20.558674   0.39780998    53.833747      7.80642  0.035854599   -191.93944  0.019609481 0.0025422474            0    -3313.706    -3313.706    35031.403    28.826427     24.91319    48.779504     1008 
     303            0    20.551305   0.40531206    53.829375    7.7997988  0.024741321      -191.94  0.012245172 0.00082900581            0    -3313.706    -3313.706    35031.403    28.826427     24.91319    48.779504     1008 
     304            0    20.545993   0.41282296    53.826116    7.7946978  0.017165825    -191.9401 0.0072647287 0.00064759609            0    -3313.706    -3313.706    35031.403    28.826427     24.91319    48.779504     1008 
     305            0    20.542313   0.42033005    53.823828    7.7915867  0.011523764   -191.94009 0.0041056684 0.00080258067            0    -3313.706    -3313.706    35031.403    28.826427     24.91319    48.779504     1008 
     306            0    20.539853   0.42782903    53.821959    7.7897216 0.0078786426   -191.94017 0.0021570037 0.00098645919            0    -3313.706    -3313.706    35031.403    28.826427     24.91319    48.779504     1008 
     307            0    20.538165   0.43533397    53.820758    7.7884044 0.0053322822   -191.94016 0.00088522853 0.0010010255            0    -3313.706    -3313.706    35031.403    28.826427     24.91319    48.779504     1008 
     308            0    20.537106   0.44286084     53.82011    7.7875162 0.0036901208   -191.94016 0.00027619855 0.00069155808            0    -3313.706    -3313.706    35031.403    28.826427     24.91319    48.779504     1008 
     309            0    20.536466   0.45036888    53.819715    7.7869212 0.0027610496    -191.9401 7.1299197e-05 0.00044420915            0    -3313.706    -3313.706    35031.403    28.826427     24.91319    48.779504     1008 
     310            0    20.536015   0.45788884    53.819449    7.7864878 0.0021088126   -191.94007 -3.0325654e-05 0.00030198499            0    -3313.706    -3313.706    35031.403    28.826427     24.91319    48.779504     1008 
     311            0     20.53577   0.46539187    53.819305    7.7863054 0.0017008521   -191.94007 -9.1696957e-05 0.00013565178            0    -3313.706    -3313.706    35031.403    28.826427     24.91319    48.779504     1008 
     312            0    20.535576   0.47290087    53.819133    7.7862038 0.0013926023   -191.94007 -8.7681073e-05 1.799381e-05            0    -3313.706    -3313.706    35031.403    28.826427     24.91319    48.779504     1008 
     313            0    20.535368   0.48040795    53.818955    7.7860723 0.0010753289   -191.94006 -8.7843556e-05 -3.7383085e-05            0    -3313.706    -3313.706    35031.403    28.826427     24.91319    48.779504     1008 
     314            0    20.535174   0.48790598    53.818787    7.7859415 0.00079448834   -191.94006 -6.9427893e-05 -9.844216e-05            0    -3313.706    -3313.706    35031.403    28.826427     24.91319    48.779504     1008 
     315            0    20.535024   0.49541306    53.818656    7.7858504 0.00056626408   -191.94007 -6.3782033e-05 -0.00014482553            0    -3313.706    -3313.706    35031.403    28.826427     24.91319    48.779504     1008 
     316            0    20.534925   0.50291491    53.818571    7.7857843 0.00041869381   -191.94008 -5.4565766e-05 -0.00015580695            0    -3313.706    -3313.706    35031.403    28.826427     24.91319    48.779504     1008 
     317            0    20.534835   0.51042104    53.818513    7.7857108 0.00028026262   -191.94009 -5.9380202e-05 -0.00015475543            0    -3313.706    -3313.706    35031.403    28.826427     24.91319    48.779504     1008 
     318            0    20.534781   0.51793504    53.818487    7.7856619    0.0001937   -191.94009 -5.9340062e-05 -0.00013634939            0    -3313.706    -3313.706    35031.403    28.826427     24.91319    48.779504     1008 
     319            0    20.534739   0.52544093    53.818467    7.7856234 0.00012604171   -191.94008 -5.271292e-05 -0.00012247835            0    -3313.706    -3313.706    35031.403    28.826427     24.91319    48.779504     1008 
     320            0    20.534702   0.53295803     53.81844    7.7855873 7.9170425e-05   -191.94008 -4.4488043e-05 -0.00011240864            0    -3313.706    -3313.706    35031.403    28.826427     24.91319    48.779504     1008 
     321            0    20.534674   0.54047108    53.818415    7.7855615 4.4343431e-05   -191.94009 -4.4934147e-05 -0.00010312065            0    -3313.706    -3313.706    35031.403    28.826427     24.91319    48.779504     1008 
     322            0    20.534655   0.54797101    53.818396    7.7855479 2.2151469e-05   -191.94009 -4.5330882e-05 -9.4744785e-05            0    -3313.706    -3313.706    35031.403    28.826427     24.91319    48.779504     1008 
     323            0    20.534643    0.5554719    53.818385    7.7855382 6.1906641e-06   -191.94009 -4.5501681e-05 -8.7593288e-05            0    -3313.706    -3313.706    35031.403    28.826427     24.91319    48.779504     1008 
     324            0    20.534636   0.56298089    53.818379    7.7855314 -2.1195392e-06   -191.94009 -4.6063669e-05 -8.3291756e-05            0    -3313.706    -3313.706    35031.403    28.826427     24.91319    48.779504     1008 
     325            0    20.534633   0.57048798    53.818376    7.7855292 -4.6775434e-06   -191.94009 -4.4922669e-05 -8.0533455e-05            0    -3313.706    -3313.706    35031.403    28.826427     24.91319    48.779504     1008 
     326            0    20.534633   0.57799506    53.818375    7.7855289 -5.9946134e-06   -191.94009 -4.3391284e-05 -7.7368826e-05            0    -3313.706    -3313.706    35031.403    28.826427     24.91319    48.779504     1008 
     327            0    20.534633   0.58549595    53.818375      7.78553 -5.8651256e-06   -191.94009 -4.2547295e-05 -7.4482715e-05            0    -3313.706    -3313.706    35031.403    28.826427     24.91319    48.779504     1008 
     328            0    20.534634   0.59300399    53.818375    7.7855312 -5.3714548e-06   -191.94009 -4.1701447e-05 -7.0579213e-05            0    -3313.706    -3313.706    35031.403    28.826427     24.91319    48.779504     1008 
     329            0    20.534634   0.60050988    53.818375    7.7855313 -5.2202045e-06   -191.94009 -3.9711454e-05 -6.6128699e-05            0    -3313.706    -3313.706    35031.403    28.826427     24.91319    48.779504     1008 
     330            0    20.534634     0.608006    53.818376    7.7855312 -4.3933219e-06   -191.94009 -3.6698981e-05 -6.1267776e-05            0    -3313.706    -3313.706    35031.403    28.826427     24.91319    48.779504     1008 
     331            0    20.534635   0.61551285    53.818377     7.785531 -3.118217e-06   -191.94009 -3.3207077e-05 -5.6188727e-05            0    -3313.706    -3313.706    35031.403    28.826427     24.91319    48.779504     1008 
     332            0    20.534635   0.62301493    53.818378    7.7855299 -1.9437753e-06   -191.94009 -2.9731723e-05 -5.0681951e-05            0    -3313.706    -3313.706    35031.403    28.826427     24.91319    48.779504     1008 
     333            0    20.534636   0.63052106    53.818378    7.7855293 -3.2133083e-07   -191.94009 -2.6269442e-05 -4.4949071e-05            0    -3313.706    -3313.706    35031.403    28.826427     24.91319    48.779504     1008 
     334            0    20.534636   0.63802886    53.818378    7.7855295 8.0850973e-07   -191.94009 -2.3479347e-05 -3.9755153e-05            0    -3313.706    -3313.706    35031.403    28.826427     24.91319    48.779504     1008 
     335            0    20.534637   0.64552903    53.818378    7.7855298 1.5839741e-06   -191.94009 -2.1232926e-05 -3.5373608e-05            0    -3313.706    -3313.706    35031.403    28.826427     24.91319    48.779504     1008 
     336            0    20.534636   0.65303993    53.818378    7.7855297 1.8625501e-06   -191.94009 -1.9243929e-05 -3.1521112e-05            0    -3313.706    -3313.706    35031.403    28.826427     24.91319    48.779504     1008 
     337            0    20.534636   0.66054201    53.818377    7.7855294 2.0169267e-06   -191.94009 -1.7545753e-05 -2.8277933e-05            0    -3313.706    -3313.706    35031.403    28.826427     24.91319    48.779504     1008 
     338            0    20.534636     0.668046    53.818377     7.785529 2.2424423e-06   -191.94009 -1.5852325e-05 -2.5425595e-05            0    -3313.706    -3313.706    35031.403    28.826427     24.91319    48.779504     1008 
     339            0    20.534636   0.67555094    53.818377    7.7855285 2.2755852e-06   -191.94009 -1.4211893e-05 -2.277084e-05            0    -3313.706    -3313.706    35031.403    28.826427     24.91319    48.779504     1008 
     340            0    20.534635   0.68305397    53.818376    7.7855277 2.3213925e-06   -191.94009 -1.2326849e-05 -1.9511118e-05            0    -3313.706    -3313.706    35031.403    28.826427     24.91319    48.779504     1008 
[...]
     427            0    20.531312   0.45780516     53.81517    7.7787651 9.2807139e-08   -191.78339 5.0440694e-09 -2.9886044e-09            0    -3313.706    -3313.706    35031.403    28.826427     24.91319    48.779504     1008 
     428            0    20.531312     0.465307     53.81517    7.7787651 1.0012217e-07   -191.78339 -3.0599241e-10 2.7825188e-10            0    -3313.706    -3313.706    35031.403    28.826427     24.91319    48.779504     1008 
     429            0    20.531312   0.47652316     53.81517    7.7787651 9.4590093e-08   -191.78339 -2.1632338e-09 1.935348e-09            0    -3313.706    -3313.706    35031.403    28.826427     24.91319    48.779504     1008 
Loop time of 0.476541 on 1 procs for 63 steps with 1008 atoms

99.0% CPU use with 1 MPI tasks x no OpenMP threads

Minimization stats:
  Stopping criterion = force tolerance
  Energy initial, next-to-last, final = 
        -3313.70599132     -3313.70599132     -3313.70599132
  Force two-norm initial, final = 1.6274e-05 9.66399e-11
  Force max component initial, final = 1.32438e-06 6.69208e-12
  Final line search alpha, max atom move = 1 6.69208e-12
  Iterations, force evaluations = 63 126

MPI task timing breakdown:
Section |  min time  |  avg time  |  max time  |%varavg| %total
---------------------------------------------------------------
Pair    | 0.46991    | 0.46991    | 0.46991    |   0.0 | 98.61
Neigh   | 0          | 0          | 0          |   0.0 |  0.00
Comm    | 0.0014982  | 0.0014982  | 0.0014982  |   0.0 |  0.31
Output  | 0.0019686  | 0.0019686  | 0.0019686  |   0.0 |  0.41
Modify  | 0          | 0          | 0          |   0.0 |  0.00
Other   |            | 0.003166   |            |       |  0.66

Nlocal:    1008 ave 1008 max 1008 min
Histogram: 1 0 0 0 0 0 0 0 0 0
Nghost:    1518 ave 1518 max 1518 min
Histogram: 1 0 0 0 0 0 0 0 0 0
Neighs:    58484 ave 58484 max 58484 min
Histogram: 1 0 0 0 0 0 0 0 0 0

Total # of neighbors = 58484
Ave neighs/atom = 58.0198
Neighbor list builds = 0
Dangerous builds = 0
Reading restart file ...
  restart file = 13 Jan 2016, LAMMPS = 13 Jan 2016
  triclinic box = (0.189269 0.152056 -0.0355715) to (29.0157 25.0652 48.7439) with tilt (4.43889 0 0)
  1 by 1 by 1 MPI processor grid
  1008 atoms
Changing box ...
  triclinic box = (0.189269 0.152056 -0.0355715) to (29.0157 25.0652 48.7439) with tilt (4.43891 0 0)
Neighbor list info ...
  1 neighbor list requests
  update every 1 steps, delay 0 steps, check yes
  max neighbors/atom: 2000, page size: 100000
  master list distance cutoff = 7.72488
  ghost atom cutoff = 7.72488
Setting up cg style minimization ...
  Unit style: metal
Memory usage per processor = 3.38866 Mbytes
Step Temp Press CPU Pxx Pyy Pzz Pxy Pxz Pyz KinEng PotEng TotEng Volume Lx Ly Lz Atoms 
     366            0    20.536755            0    53.818386    7.7931155 -0.0012351567   -192.10093 -0.0029420239 -0.0032147297            0    -3313.706    -3313.706    35031.403    28.826427     24.91319    48.779504     1008 
     367            0    20.536192 0.0074839592    53.819302    7.7921684 -0.002893472   -192.09828 -0.0026752758 -0.0024967636            0    -3313.706    -3313.706    35031.403    28.826427     24.91319    48.779504     1008 
     368            0    20.536555  0.014980078    53.820025    7.7920936 -0.0024530622   -192.09739 -0.0022582519 -0.0025694473            0    -3313.706    -3313.706    35031.403    28.826427     24.91319    48.779504     1008 
     369            0    20.536921  0.022470951    53.820576    7.7920507 -0.0018646506   -192.09707 -0.0019578256 -0.0024611229            0    -3313.706    -3313.706    35031.403    28.826427     24.91319    48.779504     1008 
     370            0    20.537017   0.02996707     53.82081    7.7919206 -0.0016802512   -192.09696 -0.0018049984 -0.0023279401            0    -3313.706    -3313.706    35031.403    28.826427     24.91319    48.779504     1008 
     371            0    20.537041  0.037461996    53.820947    7.7917643 -0.0015878488    -192.0969 -0.001725939 -0.0021537986            0    -3313.706    -3313.706    35031.403    28.826427     24.91319    48.779504     1008 
     372            0    20.537108  0.044955015    53.821059     7.791776 -0.0015115582   -192.09687 -0.0016907698 -0.0020327436            0    -3313.706    -3313.706    35031.403    28.826427     24.91319    48.779504     1008 
     373            0    20.537242  0.052452087    53.821182    7.7918704 -0.0013273777   -192.09685 -0.0016225612 -0.0019065305            0    -3313.706    -3313.706    35031.403    28.826427     24.91319    48.779504     1008 
     374            0    20.537408  0.059947968    53.821298     7.791971 -0.0010458765   -192.09684 -0.0015309371 -0.0017766113            0    -3313.706    -3313.706    35031.403    28.826427     24.91319    48.779504     1008 
     375            0    20.537555  0.067435026    53.821394    7.7920744 -0.0008016809   -192.09683 -0.0014604556 -0.0016633279            0    -3313.706    -3313.706    35031.403    28.826427     24.91319    48.779504     1008 
     376            0    20.537675   0.07493186    53.821464    7.7921756 -0.00061539818   -192.09682 -0.0013694283 -0.0015452848            0    -3313.706    -3313.706    35031.403    28.826427     24.91319    48.779504     1008 
     377            0      20.5378  0.082422018     53.82153    7.7922852 -0.00041400291   -192.09682 -0.0012656759 -0.0014214822            0    -3313.706    -3313.706    35031.403    28.826427     24.91319    48.779504     1008 
     378            0    20.538023  0.089920044     53.82165     7.792461 -4.2565191e-05   -192.09681 -0.0011105261 -0.0012416997            0    -3313.706    -3313.706    35031.403    28.826427     24.91319    48.779504     1008 
     379            0    20.538233   0.09741497    53.821793    7.7926151 0.00028911339    -192.0968 -0.00094207498 -0.0010385546            0    -3313.706    -3313.706    35031.403    28.826427     24.91319    48.779504     1008 
     380            0    20.538377   0.10490799    53.821905     7.792719 0.00050752564    -192.0968 -0.00078147147 -0.00084781963            0    -3313.706    -3313.706    35031.403    28.826427     24.91319    48.779504     1008 
     381            0    20.538472   0.11240387    53.821978    7.7927757 0.00066367446    -192.0968 -0.00064478563 -0.00068701397            0    -3313.706    -3313.706    35031.403    28.826427     24.91319    48.779504     1008 
     382            0    20.538524   0.11989808    53.822027    7.7927835 0.00076167828   -192.09679 -0.00051894235 -0.00054353778            0    -3313.706    -3313.706    35031.403    28.826427     24.91319    48.779504     1008 
     383            0     20.53855    0.1273849    53.822052    7.7927698 0.00082632947   -192.09679 -0.0004159065 -0.0004163274            0    -3313.706    -3313.706    35031.403    28.826427     24.91319    48.779504     1008 
     384            0    20.538547   0.13490605    53.822053    7.7927491 0.00083921326   -192.09679 -0.00034977326 -0.00031681679            0    -3313.706    -3313.706    35031.403    28.826427     24.91319    48.779504     1008 
     385            0    20.538486   0.14239597    53.822006    7.7927001 0.00075203149   -192.09679 -0.00029160868 -0.00022780079            0    -3313.706    -3313.706    35031.403    28.826427     24.91319    48.779504     1008 
     386            0    20.538394   0.14989305    53.821933     7.792636 0.00061135668   -192.09678 -0.00023335053 -0.00014999779            0    -3313.706    -3313.706    35031.403    28.826427     24.91319    48.779504     1008 
     387            0    20.538307   0.15739202    53.821861    7.7925734 0.00048726045   -192.09678 -0.00017807973 -8.5245891e-05            0    -3313.706    -3313.706    35031.403    28.826427     24.91319    48.779504     1008 
     388            0    20.538217   0.16488409    53.821784     7.792503 0.00036390392   -192.09678 -0.00012667552 -3.5427859e-05            0    -3313.706    -3313.706    35031.403    28.826427     24.91319    48.779504     1008 
     389            0    20.538133   0.17238998    53.821716    7.7924327 0.00025070661   -192.09678 -8.832381e-05 -7.8769442e-06            0    -3313.706    -3313.706    35031.403    28.826427     24.91319    48.779504     1008 
     390            0    20.538072   0.17988706    53.821668    7.7923799 0.00016962038   -192.09678 -6.4311698e-05 1.8954223e-06            0    -3313.706    -3313.706    35031.403    28.826427     24.91319    48.779504     1008 
     391            0    20.538032   0.18737388    53.821635    7.7923441 0.00011595018   -192.09678 -4.7247828e-05 7.9003908e-06            0    -3313.706    -3313.706    35031.403    28.826427     24.91319    48.779504     1008 
     392            0       20.538   0.19486594     53.82161    7.7923165 7.2355961e-05   -192.09678 -3.591207e-05 1.4652256e-05            0    -3313.706    -3313.706    35031.403    28.826427     24.91319    48.779504     1008 
     393            0    20.537977   0.20235586    53.821594     7.792297 3.9745835e-05   -192.09678 -3.0077082e-05 2.0059199e-05            0    -3313.706    -3313.706    35031.403    28.826427     24.91319    48.779504     1008 
     394            0    20.537962   0.20985508    53.821585    7.7922856 1.6935801e-05   -192.09678 -2.8304735e-05 2.3434022e-05            0    -3313.706    -3313.706    35031.403    28.826427     24.91319    48.779504     1008 
     395            0    20.537956   0.21735001    53.821581    7.7922816 6.208641e-06   -192.09678 -2.7303767e-05 2.4555428e-05            0    -3313.706    -3313.706    35031.403    28.826427     24.91319    48.779504     1008 
     396            0    20.537953   0.22484088    53.821579      7.79228 8.819977e-07   -192.09678 -2.6189496e-05 2.3865762e-05            0    -3313.706    -3313.706    35031.403    28.826427     24.91319    48.779504     1008 
     397            0    20.537953     0.232337    53.821579    7.7922796 -2.3940432e-07   -192.09678 -2.5067855e-05 2.3201746e-05            0    -3313.706    -3313.706    35031.403    28.826427     24.91319    48.779504     1008 
     398            0    20.537952   0.23983097    53.821579    7.7922792 -7.7740486e-07   -192.09678 -2.3983931e-05 2.1776294e-05            0    -3313.706    -3313.706    35031.403    28.826427     24.91319    48.779504     1008 
     399            0    20.537951   0.24731708    53.821578    7.7922782 -2.6234056e-06   -192.09678 -2.2934869e-05 1.9933346e-05            0    -3313.706    -3313.706    35031.403    28.826427     24.91319    48.779504     1008 
     400            0     20.53795   0.25480986    53.821577    7.7922776 -3.8880983e-06   -192.09678 -2.152169e-05 1.8625166e-05            0    -3313.706    -3313.706    35031.403    28.826427     24.91319    48.779504     1008 
     401            0     20.53795   0.26230288    53.821576    7.7922775 -4.6876071e-06   -192.09678 -1.9876415e-05 1.7305992e-05            0    -3313.706    -3313.706    35031.403    28.826427     24.91319    48.779504     1008 
     402            0    20.537949   0.26979899    53.821575    7.7922774 -5.3416857e-06   -192.09678 -1.8388926e-05 1.5996865e-05            0    -3313.706    -3313.706    35031.403    28.826427     24.91319    48.779504     1008 
     403            0    20.537949   0.27729392    53.821575    7.7922779 -5.0908819e-06   -192.09678 -1.6738664e-05 1.4708239e-05            0    -3313.706    -3313.706    35031.403    28.826427     24.91319    48.779504     1008 
     404            0     20.53795   0.28478599    53.821576    7.7922786 -4.3020193e-06   -192.09678 -1.4718462e-05 1.3213022e-05            0    -3313.706    -3313.706    35031.403    28.826427     24.91319    48.779504     1008 
     405            0    20.537951   0.29228091    53.821576    7.7922793 -3.428268e-06   -192.09678 -1.2598438e-05 1.1586518e-05            0    -3313.706    -3313.706    35031.403    28.826427     24.91319    48.779504     1008 
     406            0    20.537951   0.29976797    53.821577      7.79228 -2.4663864e-06   -192.09678 -1.0611515e-05 9.9040114e-06            0    -3313.706    -3313.706    35031.403    28.826427     24.91319    48.779504     1008 
     407            0    20.537952   0.30726194    53.821577    7.7922806 -1.7011638e-06   -192.09678 -8.7882149e-06 8.310302e-06            0    -3313.706    -3313.706    35031.403    28.826427     24.91319    48.779504     1008 
     408            0    20.537953   0.31475687    53.821577    7.7922812 -1.1151871e-06   -192.09678 -7.1295348e-06 6.8655156e-06            0    -3313.706    -3313.706    35031.403    28.826427     24.91319    48.779504     1008 
     409            0    20.537953   0.32224703    53.821577    7.7922815 -7.7301211e-07   -192.09678 -5.6514719e-06 5.5397043e-06            0    -3313.706    -3313.706    35031.403    28.826427     24.91319    48.779504     1008 
     410            0    20.537953   0.32974291    53.821577    7.7922819 -4.0825436e-07   -192.09678 -4.2752374e-06 4.4331187e-06            0    -3313.706    -3313.706    35031.403    28.826427     24.91319    48.779504     1008 
     411            0    20.537953   0.33723688    53.821578    7.7922824 3.106319e-07   -192.09678 -3.0934513e-06 3.4582257e-06            0    -3313.706    -3313.706    35031.403    28.826427     24.91319    48.779504     1008 
     412            0    20.537954   0.34472704    53.821578    7.7922828 9.242677e-07   -192.09678 -2.195314e-06 2.5535384e-06            0    -3313.706    -3313.706    35031.403    28.826427     24.91319    48.779504     1008 
     413            0    20.537954   0.35222387    53.821578    7.7922831 1.2107191e-06   -192.09678 -1.4918371e-06 1.7614706e-06            0    -3313.706    -3313.706    35031.403    28.826427     24.91319    48.779504     1008 
     414            0    20.537954   0.35971093    53.821578    7.7922833 1.2642711e-06   -192.09678 -1.0020602e-06 1.225589e-06            0    -3313.706    -3313.706    35031.403    28.826427     24.91319    48.779504     1008 
     415            0    20.537954   0.36720395    53.821578    7.7922833 1.1437071e-06   -192.09678 -7.1560306e-07 8.4282419e-07            0    -3313.706    -3313.706    35031.403    28.826427     24.91319    48.779504     1008 
     416            0    20.537954   0.37470198    53.821578    7.7922833 9.7955576e-07   -192.09678 -5.5367134e-07 5.9659956e-07            0    -3313.706    -3313.706    35031.403    28.826427     24.91319    48.779504     1008 
     417            0    20.537954   0.38219404    53.821578    7.7922833 8.7500744e-07   -192.09678 -4.4640181e-07 4.5383653e-07            0    -3313.706    -3313.706    35031.403    28.826427     24.91319    48.779504     1008 
     418            0    20.537954   0.38969207    53.821578    7.7922832 7.2172307e-07   -192.09678 -3.791942e-07 3.5867524e-07            0    -3313.706    -3313.706    35031.403    28.826427     24.91319    48.779504     1008 
     419            0    20.537954    0.3971889    53.821578    7.7922831 5.8955864e-07   -192.09678 -3.1587009e-07 3.0601102e-07            0    -3313.706    -3313.706    35031.403    28.826427     24.91319    48.779504     1008 
     420            0    20.537954   0.40467787    53.821578     7.792283 4.8079088e-07   -192.09678 -2.4863838e-07 2.6676364e-07            0    -3313.706    -3313.706    35031.403    28.826427     24.91319    48.779504     1008 
     421            0    20.537954   0.41217303    53.821578    7.7922829 3.8812462e-07   -192.09678 -1.8117197e-07 2.2516817e-07            0    -3313.706    -3313.706    35031.403    28.826427     24.91319    48.779504     1008 
     422            0    20.537954   0.41966009    53.821578    7.7922829 2.6784845e-07   -192.09678 -1.3460255e-07 1.8138107e-07            0    -3313.706    -3313.706    35031.403    28.826427     24.91319    48.779504     1008 
     423            0    20.537953   0.42715406    53.821577    7.7922828 9.8579327e-08   -192.09678 -1.0273607e-07 1.1730121e-07            0    -3313.706    -3313.706    35031.403    28.826427     24.91319    48.779504     1008 
     424            0    20.537953   0.43465686    53.821577    7.7922828 1.1033278e-08   -192.09678 -7.0526911e-08 7.0206944e-08            0    -3313.706    -3313.706    35031.403    28.826427     24.91319    48.779504     1008 
     425            0    20.537953   0.44214892    53.821577    7.7922828 -4.6120108e-08   -192.09678 -4.0332543e-08 3.2892288e-08            0    -3313.706    -3313.706    35031.403    28.826427     24.91319    48.779504     1008 
     426            0    20.537953     0.449646    53.821577    7.7922827 -8.3235118e-08   -192.09678 -1.821126e-08 1.0928948e-08            0    -3313.706    -3313.706    35031.403    28.826427     24.91319    48.779504     1008 
     427            0    20.537953   0.45714688    53.821577    7.7922827 -9.2904788e-08   -192.09678 -5.1615326e-09 2.9204292e-09            0    -3313.706    -3313.706    35031.403    28.826427     24.91319    48.779504     1008 
     428            0    20.537953   0.46463895    53.821577    7.7922827 -9.9786017e-08   -192.09678 2.4586585e-10 -8.7509826e-11            0    -3313.706    -3313.706    35031.403    28.826427     24.91319    48.779504     1008 
     429            0    20.537953   0.47583699    53.821577    7.7922827 -9.5212303e-08   -192.09678 2.1022564e-09 -2.0046613e-09            0    -3313.706    -3313.706    35031.403    28.826427     24.91319    48.779504     1008 
Loop time of 0.475855 on 1 procs for 63 steps with 1008 atoms

100.0% CPU use with 1 MPI tasks x no OpenMP threads

Minimization stats:
  Stopping criterion = force tolerance
  Energy initial, next-to-last, final = 
        -3313.70598293     -3313.70598293     -3313.70598293
  Force two-norm initial, final = 1.6274e-05 9.9582e-11
  Force max component initial, final = 1.32438e-06 6.50888e-12
  Final line search alpha, max atom move = 1 6.50888e-12
  Iterations, force evaluations = 63 126

MPI task timing breakdown:
Section |  min time  |  avg time  |  max time  |%varavg| %total
---------------------------------------------------------------
Pair    | 0.46924    | 0.46924    | 0.46924    |   0.0 | 98.61
Neigh   | 0          | 0          | 0          |   0.0 |  0.00
Comm    | 0.0014987  | 0.0014987  | 0.0014987  |   0.0 |  0.31
Output  | 0.0019739  | 0.0019739  | 0.0019739  |   0.0 |  0.41
Modify  | 0          | 0          | 0          |   0.0 |  0.00
Other   |            | 0.003145   |            |       |  0.66

Nlocal:    1008 ave 1008 max 1008 min
Histogram: 1 0 0 0 0 0 0 0 0 0
Nghost:    1518 ave 1518 max 1518 min
Histogram: 1 0 0 0 0 0 0 0 0 0
Neighs:    58484 ave 58484 max 58484 min
Histogram: 1 0 0 0 0 0 0 0 0 0

Total # of neighbors = 58484
Ave neighs/atom = 58.0198
Neighbor list builds = 0
Dangerous builds = 0
Elastic Constant C11all = 46.6211705620653 GPa
Elastic Constant C22all = 42.60861720251 GPa
Elastic Constant C33all = 4.12501321989112e-09 GPa
Elastic Constant C12all = 15.7336332160576 GPa
Elastic Constant C13all = 0.00269090951496765 GPa
Elastic Constant C23all = 0.000389273404948653 GPa
Elastic Constant C44all = -2.459273673594e-09 GPa
Elastic Constant C55all = 2.74940248345956e-09 GPa
Elastic Constant C66all = 15.6695650527 GPa
Elastic Constant C14all = -3.10022414851119e-07 GPa
Elastic Constant C15all = -4.40135409007778e-07 GPa
Elastic Constant C16all = -1.73551387261265 GPa
Elastic Constant C24all = -1.56614987645298e-07 GPa
Elastic Constant C25all = -3.44834859333787e-07 GPa
Elastic Constant C26all = -0.67588195341527 GPa
Elastic Constant C34all = -6.61192473216944e-07 GPa
Elastic Constant C35all = 8.2663763123492e-07 GPa
Elastic Constant C36all = -0.00959225189001243 GPa
Elastic Constant C45all = -6.94712525728391e-07 GPa
Elastic Constant C46all = 1.56649647919949e-07 GPa
Elastic Constant C56all = -2.03575069690487e-07 GPa
Total wall time: 0:00:08
