datafile (written by JARVIS-FF) 

720 	 atoms 
1  atom types
0.0 20.249999838  xlo xhi
0.0 29.204965097  ylo yhi
0.0 47.177251310  zlo zhi
0E-9 0E-9 0E-9  xy xz yz


Atoms 

     1   1 0.000000 0E-9 23.401414341 16.006567409
     2   1 0.000000 0E-9 8.798931792 16.006567409
     3   1 0.000000 4.049999968 23.401414341 16.006567409
     4   1 0.000000 4.049999968 8.798931792 16.006567409
     5   1 0.000000 8.099999935 23.401414341 16.006567409
     6   1 0.000000 8.099999935 8.798931792 16.006567409
     7   1 0.000000 12.149999903 23.401414341 16.006567409
     8   1 0.000000 12.149999903 8.798931792 16.006567409
     9   1 0.000000 16.199999870 23.401414341 16.006567409
    10   1 0.000000 16.199999870 8.798931792 16.006567409
    11   1 0.000000 0E-9 20.031610676 13.760031632
    12   1 0.000000 0E-9 5.429128127 13.760031632
    13   1 0.000000 4.049999968 20.031610676 13.760031632
    14   1 0.000000 4.049999968 5.429128127 13.760031632
    15   1 0.000000 8.099999935 20.031610676 13.760031632
    16   1 0.000000 8.099999935 5.429128127 13.760031632
    17   1 0.000000 12.149999903 20.031610676 13.760031632
    18   1 0.000000 12.149999903 5.429128127 13.760031632
    19   1 0.000000 16.199999870 20.031610676 13.760031632
    20   1 0.000000 16.199999870 5.429128127 13.760031632
    21   1 0.000000 0E-9 29.017753782 14.883299521
    22   1 0.000000 0E-9 14.415271234 14.883299521
    23   1 0.000000 4.049999968 29.017753782 14.883299521
    24   1 0.000000 4.049999968 14.415271234 14.883299521
    25   1 0.000000 8.099999935 29.017753782 14.883299521
    26   1 0.000000 8.099999935 14.415271234 14.883299521
    27   1 0.000000 12.149999903 29.017753782 14.883299521
    28   1 0.000000 12.149999903 14.415271234 14.883299521
    29   1 0.000000 16.199999870 29.017753782 14.883299521
    30   1 0.000000 16.199999870 14.415271234 14.883299521
    31   1 0.000000 2.024999984 21.716512508 14.883299521
    32   1 0.000000 2.024999984 7.114029960 14.883299521
    33   1 0.000000 6.074999951 21.716512508 14.883299521
    34   1 0.000000 6.074999951 7.114029960 14.883299521
    35   1 0.000000 10.124999919 21.716512508 14.883299521
    36   1 0.000000 10.124999919 7.114029960 14.883299521
    37   1 0.000000 14.174999886 21.716512508 14.883299521
    38   1 0.000000 14.174999886 7.114029960 14.883299521
    39   1 0.000000 18.224999854 21.716512508 14.883299521
    40   1 0.000000 18.224999854 7.114029960 14.883299521
    41   1 0.000000 2.024999984 1.497690518 16.006567409
    42   1 0.000000 2.024999984 16.100173066 16.006567409
    43   1 0.000000 6.074999951 1.497690518 16.006567409
    44   1 0.000000 6.074999951 16.100173066 16.006567409
    45   1 0.000000 10.124999919 1.497690518 16.006567409
    46   1 0.000000 10.124999919 16.100173066 16.006567409
    47   1 0.000000 14.174999886 1.497690518 16.006567409
    48   1 0.000000 14.174999886 16.100173066 16.006567409
    49   1 0.000000 18.224999854 1.497690518 16.006567409
    50   1 0.000000 18.224999854 16.100173066 16.006567409
    51   1 0.000000 2.024999984 27.332851950 13.760031632
    52   1 0.000000 2.024999984 12.730369401 13.760031632
    53   1 0.000000 6.074999951 27.332851950 13.760031632
    54   1 0.000000 6.074999951 12.730369401 13.760031632
    55   1 0.000000 10.124999919 27.332851950 13.760031632
    56   1 0.000000 10.124999919 12.730369401 13.760031632
    57   1 0.000000 14.174999886 27.332851950 13.760031632
    58   1 0.000000 14.174999886 12.730369401 13.760031632
    59   1 0.000000 18.224999854 27.332851950 13.760031632
    60   1 0.000000 18.224999854 12.730369401 13.760031632
    61   1 0.000000 2.024999984 24.524682229 14.321665576
    62   1 0.000000 2.024999984 9.922199680 14.321665576
    63   1 0.000000 6.074999951 24.524682229 14.321665576
    64   1 0.000000 6.074999951 9.922199680 14.321665576
    65   1 0.000000 10.124999919 24.524682229 14.321665576
    66   1 0.000000 10.124999919 9.922199680 14.321665576
    67   1 0.000000 14.174999886 24.524682229 14.321665576
    68   1 0.000000 14.174999886 9.922199680 14.321665576
    69   1 0.000000 18.224999854 24.524682229 14.321665576
    70   1 0.000000 18.224999854 9.922199680 14.321665576
    71   1 0.000000 2.024999984 18.908342787 15.444933465
    72   1 0.000000 2.024999984 4.305860239 15.444933465
    73   1 0.000000 6.074999951 18.908342787 15.444933465
    74   1 0.000000 6.074999951 4.305860239 15.444933465
    75   1 0.000000 10.124999919 18.908342787 15.444933465
    76   1 0.000000 10.124999919 4.305860239 15.444933465
    77   1 0.000000 14.174999886 18.908342787 15.444933465
    78   1 0.000000 14.174999886 4.305860239 15.444933465
    79   1 0.000000 18.224999854 18.908342787 15.444933465
    80   1 0.000000 18.224999854 4.305860239 15.444933465
    81   1 0.000000 2.024999984 27.894485894 16.568201353
    82   1 0.000000 2.024999984 13.292003345 16.568201353
    83   1 0.000000 6.074999951 27.894485894 16.568201353
    84   1 0.000000 6.074999951 13.292003345 16.568201353
    85   1 0.000000 10.124999919 27.894485894 16.568201353
    86   1 0.000000 10.124999919 13.292003345 16.568201353
    87   1 0.000000 14.174999886 27.894485894 16.568201353
    88   1 0.000000 14.174999886 13.292003345 16.568201353
    89   1 0.000000 18.224999854 27.894485894 16.568201353
    90   1 0.000000 18.224999854 13.292003345 16.568201353
    91   1 0.000000 0E-9 20.593244620 16.568201353
    92   1 0.000000 0E-9 5.990762071 16.568201353
    93   1 0.000000 4.049999968 20.593244620 16.568201353
    94   1 0.000000 4.049999968 5.990762071 16.568201353
    95   1 0.000000 8.099999935 20.593244620 16.568201353
    96   1 0.000000 8.099999935 5.990762071 16.568201353
    97   1 0.000000 12.149999903 20.593244620 16.568201353
    98   1 0.000000 12.149999903 5.990762071 16.568201353
    99   1 0.000000 16.199999870 20.593244620 16.568201353
   100   1 0.000000 16.199999870 5.990762071 16.568201353
   101   1 0.000000 0E-9 2.620958406 14.321665576
   102   1 0.000000 0E-9 17.223440955 14.321665576
   103   1 0.000000 4.049999968 2.620958406 14.321665576
   104   1 0.000000 4.049999968 17.223440955 14.321665576
   105   1 0.000000 8.099999935 2.620958406 14.321665576
   106   1 0.000000 8.099999935 17.223440955 14.321665576
   107   1 0.000000 12.149999903 2.620958406 14.321665576
   108   1 0.000000 12.149999903 17.223440955 14.321665576
   109   1 0.000000 16.199999870 2.620958406 14.321665576
   110   1 0.000000 16.199999870 17.223440955 14.321665576
   111   1 0.000000 0E-9 26.209584062 15.444933465
   112   1 0.000000 0E-9 11.607101513 15.444933465
   113   1 0.000000 4.049999968 26.209584062 15.444933465
   114   1 0.000000 4.049999968 11.607101513 15.444933465
   115   1 0.000000 8.099999935 26.209584062 15.444933465
   116   1 0.000000 8.099999935 11.607101513 15.444933465
   117   1 0.000000 12.149999903 26.209584062 15.444933465
   118   1 0.000000 12.149999903 11.607101513 15.444933465
   119   1 0.000000 16.199999870 26.209584062 15.444933465
   120   1 0.000000 16.199999870 11.607101513 15.444933465
   121   1 0.000000 0E-9 21.154878564 19.376371074
   122   1 0.000000 0E-9 6.552396015 19.376371074
   123   1 0.000000 4.049999968 21.154878564 19.376371074
   124   1 0.000000 4.049999968 6.552396015 19.376371074
   125   1 0.000000 8.099999935 21.154878564 19.376371074
   126   1 0.000000 8.099999935 6.552396015 19.376371074
   127   1 0.000000 12.149999903 21.154878564 19.376371074
   128   1 0.000000 12.149999903 6.552396015 19.376371074
   129   1 0.000000 16.199999870 21.154878564 19.376371074
   130   1 0.000000 16.199999870 6.552396015 19.376371074
   131   1 0.000000 0E-9 17.785074899 17.129835297
   132   1 0.000000 0E-9 3.182592350 17.129835297
   133   1 0.000000 4.049999968 17.785074899 17.129835297
   134   1 0.000000 4.049999968 3.182592350 17.129835297
   135   1 0.000000 8.099999935 17.785074899 17.129835297
   136   1 0.000000 8.099999935 3.182592350 17.129835297
   137   1 0.000000 12.149999903 17.785074899 17.129835297
   138   1 0.000000 12.149999903 3.182592350 17.129835297
   139   1 0.000000 16.199999870 17.785074899 17.129835297
   140   1 0.000000 16.199999870 3.182592350 17.129835297
   141   1 0.000000 0E-9 26.771218006 18.253103186
   142   1 0.000000 0E-9 12.168735457 18.253103186
   143   1 0.000000 4.049999968 26.771218006 18.253103186
   144   1 0.000000 4.049999968 12.168735457 18.253103186
   145   1 0.000000 8.099999935 26.771218006 18.253103186
   146   1 0.000000 8.099999935 12.168735457 18.253103186
   147   1 0.000000 12.149999903 26.771218006 18.253103186
   148   1 0.000000 12.149999903 12.168735457 18.253103186
   149   1 0.000000 16.199999870 26.771218006 18.253103186
   150   1 0.000000 16.199999870 12.168735457 18.253103186
   151   1 0.000000 2.024999984 19.469976731 18.253103186
   152   1 0.000000 2.024999984 4.867494183 18.253103186
   153   1 0.000000 6.074999951 19.469976731 18.253103186
   154   1 0.000000 6.074999951 4.867494183 18.253103186
   155   1 0.000000 10.124999919 19.469976731 18.253103186
   156   1 0.000000 10.124999919 4.867494183 18.253103186
   157   1 0.000000 14.174999886 19.469976731 18.253103186
   158   1 0.000000 14.174999886 4.867494183 18.253103186
   159   1 0.000000 18.224999854 19.469976731 18.253103186
   160   1 0.000000 18.224999854 4.867494183 18.253103186
   161   1 0.000000 2.024999984 28.456119838 19.376371074
   162   1 0.000000 2.024999984 13.853637290 19.376371074
   163   1 0.000000 6.074999951 28.456119838 19.376371074
   164   1 0.000000 6.074999951 13.853637290 19.376371074
   165   1 0.000000 10.124999919 28.456119838 19.376371074
   166   1 0.000000 10.124999919 13.853637290 19.376371074
   167   1 0.000000 14.174999886 28.456119838 19.376371074
   168   1 0.000000 14.174999886 13.853637290 19.376371074
   169   1 0.000000 18.224999854 28.456119838 19.376371074
   170   1 0.000000 18.224999854 13.853637290 19.376371074
   171   1 0.000000 2.024999984 25.086316173 17.129835297
   172   1 0.000000 2.024999984 10.483833625 17.129835297
   173   1 0.000000 6.074999951 25.086316173 17.129835297
   174   1 0.000000 6.074999951 10.483833625 17.129835297
   175   1 0.000000 10.124999919 25.086316173 17.129835297
   176   1 0.000000 10.124999919 10.483833625 17.129835297
   177   1 0.000000 14.174999886 25.086316173 17.129835297
   178   1 0.000000 14.174999886 10.483833625 17.129835297
   179   1 0.000000 18.224999854 25.086316173 17.129835297
   180   1 0.000000 18.224999854 10.483833625 17.129835297
   181   1 0.000000 2.024999984 22.278146452 17.691469242
   182   1 0.000000 2.024999984 7.675663904 17.691469242
   183   1 0.000000 6.074999951 22.278146452 17.691469242
   184   1 0.000000 6.074999951 7.675663904 17.691469242
   185   1 0.000000 10.124999919 22.278146452 17.691469242
   186   1 0.000000 10.124999919 7.675663904 17.691469242
   187   1 0.000000 14.174999886 22.278146452 17.691469242
   188   1 0.000000 14.174999886 7.675663904 17.691469242
   189   1 0.000000 18.224999854 22.278146452 17.691469242
   190   1 0.000000 18.224999854 7.675663904 17.691469242
   191   1 0.000000 2.024999984 16.661807011 18.814737130
   192   1 0.000000 2.024999984 2.059324462 18.814737130
   193   1 0.000000 6.074999951 16.661807011 18.814737130
   194   1 0.000000 6.074999951 2.059324462 18.814737130
   195   1 0.000000 10.124999919 16.661807011 18.814737130
   196   1 0.000000 10.124999919 2.059324462 18.814737130
   197   1 0.000000 14.174999886 16.661807011 18.814737130
   198   1 0.000000 14.174999886 2.059324462 18.814737130
   199   1 0.000000 18.224999854 16.661807011 18.814737130
   200   1 0.000000 18.224999854 2.059324462 18.814737130
   201   1 0.000000 2.024999984 25.647950117 19.938005018
   202   1 0.000000 2.024999984 11.045467569 19.938005018
   203   1 0.000000 6.074999951 25.647950117 19.938005018
   204   1 0.000000 6.074999951 11.045467569 19.938005018
   205   1 0.000000 10.124999919 25.647950117 19.938005018
   206   1 0.000000 10.124999919 11.045467569 19.938005018
   207   1 0.000000 14.174999886 25.647950117 19.938005018
   208   1 0.000000 14.174999886 11.045467569 19.938005018
   209   1 0.000000 18.224999854 25.647950117 19.938005018
   210   1 0.000000 18.224999854 11.045467569 19.938005018
   211   1 0.000000 0E-9 18.346708843 19.938005018
   212   1 0.000000 0E-9 3.744226295 19.938005018
   213   1 0.000000 4.049999968 18.346708843 19.938005018
   214   1 0.000000 4.049999968 3.744226295 19.938005018
   215   1 0.000000 8.099999935 18.346708843 19.938005018
   216   1 0.000000 8.099999935 3.744226295 19.938005018
   217   1 0.000000 12.149999903 18.346708843 19.938005018
   218   1 0.000000 12.149999903 3.744226295 19.938005018
   219   1 0.000000 16.199999870 18.346708843 19.938005018
   220   1 0.000000 16.199999870 3.744226295 19.938005018
   221   1 0.000000 0E-9 0.374422629 17.691469242
   222   1 0.000000 0E-9 14.976905178 17.691469242
   223   1 0.000000 4.049999968 0.374422629 17.691469242
   224   1 0.000000 4.049999968 14.976905178 17.691469242
   225   1 0.000000 8.099999935 0.374422629 17.691469242
   226   1 0.000000 8.099999935 14.976905178 17.691469242
   227   1 0.000000 12.149999903 0.374422629 17.691469242
   228   1 0.000000 12.149999903 14.976905178 17.691469242
   229   1 0.000000 16.199999870 0.374422629 17.691469242
   230   1 0.000000 16.199999870 14.976905178 17.691469242
   231   1 0.000000 0E-9 23.963048285 18.814737130
   232   1 0.000000 0E-9 9.360565736 18.814737130
   233   1 0.000000 4.049999968 23.963048285 18.814737130
   234   1 0.000000 4.049999968 9.360565736 18.814737130
   235   1 0.000000 8.099999935 23.963048285 18.814737130
   236   1 0.000000 8.099999935 9.360565736 18.814737130
   237   1 0.000000 12.149999903 23.963048285 18.814737130
   238   1 0.000000 12.149999903 9.360565736 18.814737130
   239   1 0.000000 16.199999870 23.963048285 18.814737130
   240   1 0.000000 16.199999870 9.360565736 18.814737130
   241   1 0.000000 0E-9 18.908342787 22.746174739
   242   1 0.000000 0E-9 4.305860239 22.746174739
   243   1 0.000000 4.049999968 18.908342787 22.746174739
   244   1 0.000000 4.049999968 4.305860239 22.746174739
   245   1 0.000000 8.099999935 18.908342787 22.746174739
   246   1 0.000000 8.099999935 4.305860239 22.746174739
   247   1 0.000000 12.149999903 18.908342787 22.746174739
   248   1 0.000000 12.149999903 4.305860239 22.746174739
   249   1 0.000000 16.199999870 18.908342787 22.746174739
   250   1 0.000000 16.199999870 4.305860239 22.746174739
   251   1 0.000000 0E-9 15.538539122 20.499638962
   252   1 0.000000 0E-9 0.936056574 20.499638962
   253   1 0.000000 4.049999968 15.538539122 20.499638962
   254   1 0.000000 4.049999968 0.936056574 20.499638962
   255   1 0.000000 8.099999935 15.538539122 20.499638962
   256   1 0.000000 8.099999935 0.936056574 20.499638962
   257   1 0.000000 12.149999903 15.538539122 20.499638962
   258   1 0.000000 12.149999903 0.936056574 20.499638962
   259   1 0.000000 16.199999870 15.538539122 20.499638962
   260   1 0.000000 16.199999870 0.936056574 20.499638962
   261   1 0.000000 0E-9 24.524682229 21.622906851
   262   1 0.000000 0E-9 9.922199680 21.622906851
   263   1 0.000000 4.049999968 24.524682229 21.622906851
   264   1 0.000000 4.049999968 9.922199680 21.622906851
   265   1 0.000000 8.099999935 24.524682229 21.622906851
   266   1 0.000000 8.099999935 9.922199680 21.622906851
   267   1 0.000000 12.149999903 24.524682229 21.622906851
   268   1 0.000000 12.149999903 9.922199680 21.622906851
   269   1 0.000000 16.199999870 24.524682229 21.622906851
   270   1 0.000000 16.199999870 9.922199680 21.622906851
   271   1 0.000000 2.024999984 17.223440955 21.622906851
   272   1 0.000000 2.024999984 2.620958406 21.622906851
   273   1 0.000000 6.074999951 17.223440955 21.622906851
   274   1 0.000000 6.074999951 2.620958406 21.622906851
   275   1 0.000000 10.124999919 17.223440955 21.622906851
   276   1 0.000000 10.124999919 2.620958406 21.622906851
   277   1 0.000000 14.174999886 17.223440955 21.622906851
   278   1 0.000000 14.174999886 2.620958406 21.622906851
   279   1 0.000000 18.224999854 17.223440955 21.622906851
   280   1 0.000000 18.224999854 2.620958406 21.622906851
   281   1 0.000000 2.024999984 26.209584062 22.746174739
   282   1 0.000000 2.024999984 11.607101513 22.746174739
   283   1 0.000000 6.074999951 26.209584062 22.746174739
   284   1 0.000000 6.074999951 11.607101513 22.746174739
   285   1 0.000000 10.124999919 26.209584062 22.746174739
   286   1 0.000000 10.124999919 11.607101513 22.746174739
   287   1 0.000000 14.174999886 26.209584062 22.746174739
   288   1 0.000000 14.174999886 11.607101513 22.746174739
   289   1 0.000000 18.224999854 26.209584062 22.746174739
   290   1 0.000000 18.224999854 11.607101513 22.746174739
   291   1 0.000000 2.024999984 22.839780396 20.499638962
   292   1 0.000000 2.024999984 8.237297848 20.499638962
   293   1 0.000000 6.074999951 22.839780396 20.499638962
   294   1 0.000000 6.074999951 8.237297848 20.499638962
   295   1 0.000000 10.124999919 22.839780396 20.499638962
   296   1 0.000000 10.124999919 8.237297848 20.499638962
   297   1 0.000000 14.174999886 22.839780396 20.499638962
   298   1 0.000000 14.174999886 8.237297848 20.499638962
   299   1 0.000000 18.224999854 22.839780396 20.499638962
   300   1 0.000000 18.224999854 8.237297848 20.499638962
   301   1 0.000000 2.024999984 20.031610676 21.061272907
   302   1 0.000000 2.024999984 5.429128127 21.061272907
   303   1 0.000000 6.074999951 20.031610676 21.061272907
   304   1 0.000000 6.074999951 5.429128127 21.061272907
   305   1 0.000000 10.124999919 20.031610676 21.061272907
   306   1 0.000000 10.124999919 5.429128127 21.061272907
   307   1 0.000000 14.174999886 20.031610676 21.061272907
   308   1 0.000000 14.174999886 5.429128127 21.061272907
   309   1 0.000000 18.224999854 20.031610676 21.061272907
   310   1 0.000000 18.224999854 5.429128127 21.061272907
   311   1 0.000000 2.024999984 14.415271234 22.184540795
   312   1 0.000000 2.024999984 29.017753782 22.184540795
   313   1 0.000000 6.074999951 14.415271234 22.184540795
   314   1 0.000000 6.074999951 29.017753782 22.184540795
   315   1 0.000000 10.124999919 14.415271234 22.184540795
   316   1 0.000000 10.124999919 29.017753782 22.184540795
   317   1 0.000000 14.174999886 14.415271234 22.184540795
   318   1 0.000000 14.174999886 29.017753782 22.184540795
   319   1 0.000000 18.224999854 14.415271234 22.184540795
   320   1 0.000000 18.224999854 29.017753782 22.184540795
   321   1 0.000000 2.024999984 23.401414341 23.307808683
   322   1 0.000000 2.024999984 8.798931792 23.307808683
   323   1 0.000000 6.074999951 23.401414341 23.307808683
   324   1 0.000000 6.074999951 8.798931792 23.307808683
   325   1 0.000000 10.124999919 23.401414341 23.307808683
   326   1 0.000000 10.124999919 8.798931792 23.307808683
   327   1 0.000000 14.174999886 23.401414341 23.307808683
   328   1 0.000000 14.174999886 8.798931792 23.307808683
   329   1 0.000000 18.224999854 23.401414341 23.307808683
   330   1 0.000000 18.224999854 8.798931792 23.307808683
   331   1 0.000000 0E-9 16.100173066 23.307808683
   332   1 0.000000 0E-9 1.497690518 23.307808683
   333   1 0.000000 4.049999968 16.100173066 23.307808683
   334   1 0.000000 4.049999968 1.497690518 23.307808683
   335   1 0.000000 8.099999935 16.100173066 23.307808683
   336   1 0.000000 8.099999935 1.497690518 23.307808683
   337   1 0.000000 12.149999903 16.100173066 23.307808683
   338   1 0.000000 12.149999903 1.497690518 23.307808683
   339   1 0.000000 16.199999870 16.100173066 23.307808683
   340   1 0.000000 16.199999870 1.497690518 23.307808683
   341   1 0.000000 0E-9 27.332851950 21.061272907
   342   1 0.000000 0E-9 12.730369401 21.061272907
   343   1 0.000000 4.049999968 27.332851950 21.061272907
   344   1 0.000000 4.049999968 12.730369401 21.061272907
   345   1 0.000000 8.099999935 27.332851950 21.061272907
   346   1 0.000000 8.099999935 12.730369401 21.061272907
   347   1 0.000000 12.149999903 27.332851950 21.061272907
   348   1 0.000000 12.149999903 12.730369401 21.061272907
   349   1 0.000000 16.199999870 27.332851950 21.061272907
   350   1 0.000000 16.199999870 12.730369401 21.061272907
   351   1 0.000000 0E-9 21.716512508 22.184540795
   352   1 0.000000 0E-9 7.114029960 22.184540795
   353   1 0.000000 4.049999968 21.716512508 22.184540795
   354   1 0.000000 4.049999968 7.114029960 22.184540795
   355   1 0.000000 8.099999935 21.716512508 22.184540795
   356   1 0.000000 8.099999935 7.114029960 22.184540795
   357   1 0.000000 12.149999903 21.716512508 22.184540795
   358   1 0.000000 12.149999903 7.114029960 22.184540795
   359   1 0.000000 16.199999870 21.716512508 22.184540795
   360   1 0.000000 16.199999870 7.114029960 22.184540795
   361   1 0.000000 0E-9 16.661807011 26.115978404
   362   1 0.000000 0E-9 2.059324462 26.115978404
   363   1 0.000000 4.049999968 16.661807011 26.115978404
   364   1 0.000000 4.049999968 2.059324462 26.115978404
   365   1 0.000000 8.099999935 16.661807011 26.115978404
   366   1 0.000000 8.099999935 2.059324462 26.115978404
   367   1 0.000000 12.149999903 16.661807011 26.115978404
   368   1 0.000000 12.149999903 2.059324462 26.115978404
   369   1 0.000000 16.199999870 16.661807011 26.115978404
   370   1 0.000000 16.199999870 2.059324462 26.115978404
   371   1 0.000000 0E-9 13.292003345 23.869442627
   372   1 0.000000 0E-9 27.894485894 23.869442627
   373   1 0.000000 4.049999968 13.292003345 23.869442627
   374   1 0.000000 4.049999968 27.894485894 23.869442627
   375   1 0.000000 8.099999935 13.292003345 23.869442627
   376   1 0.000000 8.099999935 27.894485894 23.869442627
   377   1 0.000000 12.149999903 13.292003345 23.869442627
   378   1 0.000000 12.149999903 27.894485894 23.869442627
   379   1 0.000000 16.199999870 13.292003345 23.869442627
   380   1 0.000000 16.199999870 27.894485894 23.869442627
   381   1 0.000000 0E-9 22.278146452 24.992710516
   382   1 0.000000 0E-9 7.675663904 24.992710516
   383   1 0.000000 4.049999968 22.278146452 24.992710516
   384   1 0.000000 4.049999968 7.675663904 24.992710516
   385   1 0.000000 8.099999935 22.278146452 24.992710516
   386   1 0.000000 8.099999935 7.675663904 24.992710516
   387   1 0.000000 12.149999903 22.278146452 24.992710516
   388   1 0.000000 12.149999903 7.675663904 24.992710516
   389   1 0.000000 16.199999870 22.278146452 24.992710516
   390   1 0.000000 16.199999870 7.675663904 24.992710516
   391   1 0.000000 2.024999984 14.976905178 24.992710516
   392   1 0.000000 2.024999984 0.374422629 24.992710516
   393   1 0.000000 6.074999951 14.976905178 24.992710516
   394   1 0.000000 6.074999951 0.374422629 24.992710516
   395   1 0.000000 10.124999919 14.976905178 24.992710516
   396   1 0.000000 10.124999919 0.374422629 24.992710516
   397   1 0.000000 14.174999886 14.976905178 24.992710516
   398   1 0.000000 14.174999886 0.374422629 24.992710516
   399   1 0.000000 18.224999854 14.976905178 24.992710516
   400   1 0.000000 18.224999854 0.374422629 24.992710516
   401   1 0.000000 2.024999984 23.963048285 26.115978404
   402   1 0.000000 2.024999984 9.360565736 26.115978404
   403   1 0.000000 6.074999951 23.963048285 26.115978404
   404   1 0.000000 6.074999951 9.360565736 26.115978404
   405   1 0.000000 10.124999919 23.963048285 26.115978404
   406   1 0.000000 10.124999919 9.360565736 26.115978404
   407   1 0.000000 14.174999886 23.963048285 26.115978404
   408   1 0.000000 14.174999886 9.360565736 26.115978404
   409   1 0.000000 18.224999854 23.963048285 26.115978404
   410   1 0.000000 18.224999854 9.360565736 26.115978404
   411   1 0.000000 2.024999984 20.593244620 23.869442627
   412   1 0.000000 2.024999984 5.990762071 23.869442627
   413   1 0.000000 6.074999951 20.593244620 23.869442627
   414   1 0.000000 6.074999951 5.990762071 23.869442627
   415   1 0.000000 10.124999919 20.593244620 23.869442627
   416   1 0.000000 10.124999919 5.990762071 23.869442627
   417   1 0.000000 14.174999886 20.593244620 23.869442627
   418   1 0.000000 14.174999886 5.990762071 23.869442627
   419   1 0.000000 18.224999854 20.593244620 23.869442627
   420   1 0.000000 18.224999854 5.990762071 23.869442627
   421   1 0.000000 2.024999984 17.785074899 24.431076572
   422   1 0.000000 2.024999984 3.182592350 24.431076572
   423   1 0.000000 6.074999951 17.785074899 24.431076572
   424   1 0.000000 6.074999951 3.182592350 24.431076572
   425   1 0.000000 10.124999919 17.785074899 24.431076572
   426   1 0.000000 10.124999919 3.182592350 24.431076572
   427   1 0.000000 14.174999886 17.785074899 24.431076572
   428   1 0.000000 14.174999886 3.182592350 24.431076572
   429   1 0.000000 18.224999854 17.785074899 24.431076572
   430   1 0.000000 18.224999854 3.182592350 24.431076572
   431   1 0.000000 2.024999984 12.168735457 25.554344460
   432   1 0.000000 2.024999984 26.771218006 25.554344460
   433   1 0.000000 6.074999951 12.168735457 25.554344460
   434   1 0.000000 6.074999951 26.771218006 25.554344460
   435   1 0.000000 10.124999919 12.168735457 25.554344460
   436   1 0.000000 10.124999919 26.771218006 25.554344460
   437   1 0.000000 14.174999886 12.168735457 25.554344460
   438   1 0.000000 14.174999886 26.771218006 25.554344460
   439   1 0.000000 18.224999854 12.168735457 25.554344460
   440   1 0.000000 18.224999854 26.771218006 25.554344460
   441   1 0.000000 2.024999984 21.154878564 26.677612348
   442   1 0.000000 2.024999984 6.552396015 26.677612348
   443   1 0.000000 6.074999951 21.154878564 26.677612348
   444   1 0.000000 6.074999951 6.552396015 26.677612348
   445   1 0.000000 10.124999919 21.154878564 26.677612348
   446   1 0.000000 10.124999919 6.552396015 26.677612348
   447   1 0.000000 14.174999886 21.154878564 26.677612348
   448   1 0.000000 14.174999886 6.552396015 26.677612348
   449   1 0.000000 18.224999854 21.154878564 26.677612348
   450   1 0.000000 18.224999854 6.552396015 26.677612348
   451   1 0.000000 0E-9 13.853637290 26.677612348
   452   1 0.000000 0E-9 28.456119838 26.677612348
   453   1 0.000000 4.049999968 13.853637290 26.677612348
   454   1 0.000000 4.049999968 28.456119838 26.677612348
   455   1 0.000000 8.099999935 13.853637290 26.677612348
   456   1 0.000000 8.099999935 28.456119838 26.677612348
   457   1 0.000000 12.149999903 13.853637290 26.677612348
   458   1 0.000000 12.149999903 28.456119838 26.677612348
   459   1 0.000000 16.199999870 13.853637290 26.677612348
   460   1 0.000000 16.199999870 28.456119838 26.677612348
   461   1 0.000000 0E-9 25.086316173 24.431076572
   462   1 0.000000 0E-9 10.483833625 24.431076572
   463   1 0.000000 4.049999968 25.086316173 24.431076572
   464   1 0.000000 4.049999968 10.483833625 24.431076572
   465   1 0.000000 8.099999935 25.086316173 24.431076572
   466   1 0.000000 8.099999935 10.483833625 24.431076572
   467   1 0.000000 12.149999903 25.086316173 24.431076572
   468   1 0.000000 12.149999903 10.483833625 24.431076572
   469   1 0.000000 16.199999870 25.086316173 24.431076572
   470   1 0.000000 16.199999870 10.483833625 24.431076572
   471   1 0.000000 0E-9 19.469976731 25.554344460
   472   1 0.000000 0E-9 4.867494183 25.554344460
   473   1 0.000000 4.049999968 19.469976731 25.554344460
   474   1 0.000000 4.049999968 4.867494183 25.554344460
   475   1 0.000000 8.099999935 19.469976731 25.554344460
   476   1 0.000000 8.099999935 4.867494183 25.554344460
   477   1 0.000000 12.149999903 19.469976731 25.554344460
   478   1 0.000000 12.149999903 4.867494183 25.554344460
   479   1 0.000000 16.199999870 19.469976731 25.554344460
   480   1 0.000000 16.199999870 4.867494183 25.554344460
   481   1 0.000000 0E-9 14.415271234 29.485782069
   482   1 0.000000 0E-9 29.017753782 29.485782069
   483   1 0.000000 4.049999968 14.415271234 29.485782069
   484   1 0.000000 4.049999968 29.017753782 29.485782069
   485   1 0.000000 8.099999935 14.415271234 29.485782069
   486   1 0.000000 8.099999935 29.017753782 29.485782069
   487   1 0.000000 12.149999903 14.415271234 29.485782069
   488   1 0.000000 12.149999903 29.017753782 29.485782069
   489   1 0.000000 16.199999870 14.415271234 29.485782069
   490   1 0.000000 16.199999870 29.017753782 29.485782069
   491   1 0.000000 0E-9 11.045467569 27.239246293
   492   1 0.000000 0E-9 25.647950117 27.239246293
   493   1 0.000000 4.049999968 11.045467569 27.239246293
   494   1 0.000000 4.049999968 25.647950117 27.239246293
   495   1 0.000000 8.099999935 11.045467569 27.239246293
   496   1 0.000000 8.099999935 25.647950117 27.239246293
   497   1 0.000000 12.149999903 11.045467569 27.239246293
   498   1 0.000000 12.149999903 25.647950117 27.239246293
   499   1 0.000000 16.199999870 11.045467569 27.239246293
   500   1 0.000000 16.199999870 25.647950117 27.239246293
   501   1 0.000000 0E-9 20.031610676 28.362514181
   502   1 0.000000 0E-9 5.429128127 28.362514181
   503   1 0.000000 4.049999968 20.031610676 28.362514181
   504   1 0.000000 4.049999968 5.429128127 28.362514181
   505   1 0.000000 8.099999935 20.031610676 28.362514181
   506   1 0.000000 8.099999935 5.429128127 28.362514181
   507   1 0.000000 12.149999903 20.031610676 28.362514181
   508   1 0.000000 12.149999903 5.429128127 28.362514181
   509   1 0.000000 16.199999870 20.031610676 28.362514181
   510   1 0.000000 16.199999870 5.429128127 28.362514181
   511   1 0.000000 2.024999984 12.730369401 28.362514181
   512   1 0.000000 2.024999984 27.332851950 28.362514181
   513   1 0.000000 6.074999951 12.730369401 28.362514181
   514   1 0.000000 6.074999951 27.332851950 28.362514181
   515   1 0.000000 10.124999919 12.730369401 28.362514181
   516   1 0.000000 10.124999919 27.332851950 28.362514181
   517   1 0.000000 14.174999886 12.730369401 28.362514181
   518   1 0.000000 14.174999886 27.332851950 28.362514181
   519   1 0.000000 18.224999854 12.730369401 28.362514181