LAMMPS (13 Jan 2016)
include /users/knc6/inelast.mod
# Compute elastic constant tensor for a crystal
#
# Written by Aidan Thompson (Sandia, athomps@sandia.gov)
#
#  This script uses the following three include files.
#
#   init.mod      (must be modified for different crystal structures)
# 	       	  Define units, deformation parameters and initial
#		  configuration of the atoms and simulation cell.
#
#
#   potential.mod    (must be modified for different pair styles)
# 		     Define pair style and other attributes
#		     not stored in restart file
#
#
#   displace.mod    (displace.mod should not need to be modified)
# 		    Perform positive and negative box displacements
# 		    in direction ${dir} and size ${up}.
# 		    It uses the resultant changes
#		    in stress to compute one
# 		    row of the elastic stiffness tensor
#
#		    Inputs variables:
#		    	   dir = the Voigt deformation component
#		    		    (1,2,3,4,5,6)
#		    Global constants:
#       	    	   up = the deformation magnitude (strain units)
#       		   cfac = conversion from LAMMPS pressure units to
#               	   output units for elastic constants
#
#
#  To run this on a different system, it should only be necessary to
#  modify the files init.mod and potential.mod. In order to calculate
#  the elastic constants correctly, care must be taken to specify
#  the correct units in init.mod (units, cfac and cunits). It is also
#  important to verify that the minimization of energy w.r.t atom
#  positions in the deformed cell is fully converged.
#  One indication of this is that the elastic constants are insensitive
#  to the choice of the variable ${up} in init.mod. Another is to check
#  the final max and two-norm forces reported in the log file. If you know
#  that minimization is not required, you can set maxiter = 0.0 in
#  init.mod.
#
#  There are two alternate versions of displace.mod provided.
#  They are displace_restart.mod and displace_reverse.mod.
#  The former resets the box using a restart file while
#  the latter reverses the deformation. Copy whichever
#  one you like best to displace.mod.
#

include init.mod
variable dump_file string "None"
variable up  equal 1.0e-6
variable cfac  equal 1.0e-4
variable cunits  string GPa
variable etol  equal 0
variable ftol  equal 1.0e-10
variable maxiter equal 1000
variable maxeval equal 10000
variable dmax equal 1.0e-2
variable data_file string "data"
units metal
atom_style charge
boundary p p p
atom_modify sort 0 0.0

read_data data
  triclinic box = (0 0 0) to (20.25 29.205 47.1773) with tilt (0 0 0)
  1 by 1 by 1 MPI processor grid
  reading atoms ...
  720 atoms

### interactions
mass 1 26.98154
include potential.mod
pair_style eam/alloy
pair_coeff * * /users/knc6/Software/jarvis/jarvis/lammps/examples/Al03.eam.alloy  Al
neighbor 1.0 nsq
neigh_modify once no every 1 delay 0 check yes
min_style  cg
min_modify           dmax ${dmax} line quadratic
min_modify           dmax 0.01 line quadratic
thermo          1
thermo_style custom step temp press cpu pxx pyy pzz pxy pxz pyz ke pe etotal vol lx ly lz atoms
thermo_modify norm no
#fix 3 all nph aniso 0.0 0.0 1.0
#fix langevin all langevin 0.0 0.0 1.0 12233

#fix 3 all box/relax tri 0.0 vmax 0.001
fix            3 all box/relax aniso 0.0 vmax 0.001
#fix 3 all box/relax  aniso 0.0
#dump            2a all cfg 100 *.cfg mass type xs ys zs  vx vy vz fx fy fz
#dump_modify     2a element  Mo S

#fix 1a all qeq/comb 1 0.0001 file fq.out
#fix             2 all qeq/reax 1 0.0 10.0 1e-6 /scratch/lfs/kamal/JARVIS/All2/ReaxFF/param.qeq
minimize ${etol} ${ftol} ${maxiter} ${maxeval}
minimize 0 ${ftol} ${maxiter} ${maxeval}
minimize 0 1e-10 ${maxiter} ${maxeval}
minimize 0 1e-10 1000 ${maxeval}
minimize 0 1e-10 1000 10000
Neighbor list info ...
  1 neighbor list requests
  update every 1 steps, delay 0 steps, check yes
  max neighbors/atom: 2000, page size: 100000
  master list distance cutoff = 7.72488
  ghost atom cutoff = 7.72488
Memory usage per processor = 3.35216 Mbytes
Step Temp Press CPU Pxx Pyy Pzz Pxy Pxz Pyz KinEng PotEng TotEng Volume Lx Ly Lz Atoms 
       0            0   -12192.448            0   -14083.901   -12683.203   -9810.2413 -8.6386431e-13 -1.0575166e-11   -27.055791            0   -2352.0769   -2352.0769    27900.652        20.25    29.204965    47.177251      720 
       1            0   -11402.136 0.0024540424   -13248.506   -11876.315   -9081.5868 1.852073e-12 -4.1427948e-13   -23.242204            0   -2352.6218   -2352.6218    27828.253     20.22975    29.178665     47.14439      720 
       2            0   -10606.001 0.0049228668   -12405.148   -11062.791   -8350.0628 -1.1278984e-12 8.5669811e-12   -19.474664            0    -2353.127    -2353.127    27756.409      20.2095    29.152487     47.11206      720 
       3            0   -9804.6632 0.0073928833   -11554.309   -10243.222   -7616.4589 -2.4350767e-12 1.1432894e-11   -15.763757            0   -2353.5928   -2353.5928    27685.167     20.18925    29.126448    47.080324      720 
       4            0   -8998.8144 0.0098688602   -10696.496    -9418.249    -6881.698 -1.5459424e-13 -2.9462481e-12   -12.124248            0    -2354.019    -2354.019    27614.586       20.169    29.100565    47.049255      720 
       5            0   -8189.4766  0.012337923     -9832.54   -8588.8717    -6147.018 -1.8533775e-12 -7.1893044e-13   -8.5617738            0   -2354.4059   -2354.4059    27544.736     20.14875    29.074861    47.018942      720 
       6            0   -7377.9008  0.014814854    -8963.425   -7756.2711   -5414.0065 -4.2113279e-12 4.0411834e-12   -5.0971229            0   -2354.7536   -2354.7536    27475.704      20.1285    29.049364    46.989497      720 
       7            0   -6565.6955  0.017297983   -8090.4538   -6922.0141   -4684.6188 4.2509973e-13 -1.586417e-12   -1.7452713            0   -2355.0625   -2355.0625    27407.603     20.10825    29.024109     46.96106      720 
       8            0   -5754.7217   0.01977706   -7215.0986   -6087.8927   -3961.1739 7.1077866e-13 6.2991133e-12    1.4551264            0   -2355.3329   -2355.3329    27340.575       20.088    28.999142    46.933809      720 
       9            0   -4947.5909  0.022258997   -6339.4183   -5256.4339   -3246.9206 3.4385508e-12 6.660256e-13     4.490008            0   -2355.5656   -2355.5656     27274.81     20.06775    28.974524    46.907982      720 
      10            0   -4147.9476  0.024744034   -5466.3754   -4431.2012   -2546.2662 1.9284353e-13 1.5909591e-12    7.3318538            0   -2355.7612   -2355.7612    27210.563      20.0475    28.950335    46.883899      720 
      11            0    -3360.786  0.027225018   -4599.9557    -3617.044   -1865.3583 3.6577023e-12 -6.1551735e-12    9.9264526            0    -2355.921    -2355.921    27148.195     20.02725    28.926691    46.862007      720 
      12            0   -2593.3125   0.02971983   -3745.9515   -2821.0305   -1212.9555 -3.8742885e-13 -1.0131018e-12    12.234806            0   -2356.0465   -2356.0465    27088.231       20.007    28.903761    46.842959      720 
      13            0    -1856.568  0.032207966    -2913.219   -2053.9811   -602.50397 -5.8894367e-13 -5.1206637e-12    14.183167            0     -2356.14     -2356.14    27031.483     19.98675    28.881804    46.827758      720 
      14            0    -1168.683  0.040580988   -2116.3373   -1333.7177   -55.993956 4.2896398e-12 7.0834686e-13    15.631835            0   -2356.2048   -2356.2048    26979.289      19.9665    28.861254    46.818056      720 
      15            0   -562.04172  0.043092012    -1381.295   -692.20144    387.37132 -2.5450846e-12 8.121899e-12     16.46951            0   -2356.2459   -2356.2459    26934.065     19.94625     28.84289    46.816816      720 
      16            0    -100.8777  0.045603991   -759.78804   -193.02136    650.17629 1.2088259e-13 8.4991823e-12    16.382304            0   -2356.2711   -2356.2711    26900.647       19.926    28.828293    46.829948      720 
      17            0    79.577133  0.048111916   -360.82812    28.812792    570.74673 3.8917772e-12 -6.8700431e-12    15.088507            0    -2356.291    -2356.291    26889.374     19.90575    28.820897    46.869968      720 
      18            0   -36.746467  0.050634861   -291.14989   -62.435883    243.34637 5.7921007e-13 -1.1051072e-12    13.858777            0   -2356.3031   -2356.3031     26900.33    19.892811    28.822381    46.917145      720 
      19            0    141.23418  0.053153038    106.68567    144.85929    172.15757 -2.7973761e-12 -1.2273973e-11    14.227987            0   -2356.3106   -2356.3106    26889.439    19.872561    28.816147    46.956096      720 
      20            0   -178.71807  0.058123827   -162.37335   -179.77302   -194.00782 -2.1871647e-13 -1.7063602e-12    13.748123            0   -2356.3133   -2356.3133    26914.423    19.873527    28.824881    46.983203      720 
      21            0   -217.02743  0.060633898    13.911898   -210.76378    -454.2304 -1.9077196e-12 1.3880369e-11    15.372511            0   -2356.3255   -2356.3255    26920.371    19.857191    28.826024     47.03038      720 
      22            0    372.29546  0.065619946    556.14107    390.24411    170.50119 -7.2721902e-13 -7.0059982e-12    16.341896            0    -2356.334    -2356.334    26875.357    19.851968    28.809846    46.990464      720 
      23            0    479.81766  0.068135977     461.7113    486.93436    490.80731 2.9049816e-13 8.8465381e-12    16.036051            0   -2356.3494   -2356.3494    26865.463     19.86647    28.807138    46.943287      720 
      24            0   -120.81152  0.073122025   -193.09256   -131.41095   -37.931047 9.4832312e-13 -4.1473386e-12    14.508167            0   -2356.3579   -2356.3579    26910.487    19.880155    28.823653     46.96267      720 
      25            0   -417.22749  0.075634956   -357.51009    -410.5352   -483.63719 -1.1952838e-12 3.0940762e-12    14.003041            0   -2356.3815   -2356.3815    26935.692    19.874452    28.829967    47.009847      720 
      26            0      393.877  0.080625057    531.33912    425.87495    224.41693 -1.6159654e-12 -1.7342724e-12    16.308102            0   -2356.3973   -2356.3973    26875.488    19.855871    28.807419    46.985414      720 
      27            0    1368.0833  0.085633039    1552.0588    1405.1443    1147.0467 1.5080306e-12 -5.9475134e-13     20.64948            0   -2356.4198   -2356.4198    26804.908    19.838057    28.782568      46.9446      720 
      28            0    1260.6973  0.088161945    1285.5745    1143.9202    1352.5973 1.7407189e-13 4.0821931e-12     35.57232            0   -2356.7983   -2356.7983    26823.858    19.856914    28.796321    46.910762      720 
      29            0    238.71433  0.090692043    214.15141    127.36142    374.63016 -6.9451111e-13 -6.4167371e-12    31.048629            0   -2356.8349   -2356.8349    26900.474     19.87643     28.82123    46.957939      720 
      30            0   -94.414262   0.09569788   -128.83551   -168.86077    14.453495 2.4106195e-12 -1.2822299e-11    27.788254            0   -2356.8376   -2356.8376    26926.085    19.882182    28.826136    46.981053      720 
      31            0   -5.0952574  0.098229885    13.752614    149.07353   -178.11192 2.3405727e-12 3.9698476e-12    16.809831            0   -2356.8435   -2356.8435    26922.061    19.875481    28.802621    47.028231      720 
      32            0    326.98779    0.1008749    546.04024    87.690105    347.23302 -9.4588536e-13 2.2261475e-12    40.388359            0   -2356.8864   -2356.8864    26897.568    19.857077    28.831826    46.981357      720 
      33            0   -428.39455   0.10346985   -315.28385   -674.90511    -294.9947 -1.3455906e-12 6.6273175e-12    37.829766            0   -2356.9073   -2356.9073    26954.927    19.877327    28.851113    47.002138      720 
      34            0   -729.53275   0.10601091   -816.05408   -824.24285   -548.30132 -2.5796114e-13 -2.0348436e-12    28.753521            0   -2356.9379   -2356.9379    26978.677    19.897577    28.843233    47.008515      720 
      35            0   -58.432677   0.10853887   -194.00727   -27.864522    46.573768 8.3911035e-13 6.5207028e-12    25.104253            0   -2356.9702   -2356.9702    26928.495    19.890642    28.814028    46.985009      720 
      36            0    213.77643   0.11356401    225.34445    212.90716    203.07769 -3.6604405e-12 4.0760616e-12    28.579233            0    -2356.973    -2356.973    26909.212    19.874972    28.810796    46.993653      720 
      37            0   -59.329483   0.11609387    176.26565   -134.14709   -220.10701 -2.2459842e-12 2.3737424e-12    32.923476            0   -2356.9783   -2356.9783    26932.249     19.86183    28.825602     47.04083      720 
      38            0    -172.2306   0.11862683   -174.21548   -29.401137   -313.07519 -5.8324851e-13 1.5281647e-12     21.45187            0   -2357.0442   -2357.0442    26942.803     19.88208    28.806459    47.042573      720 
      39            0    277.52972   0.12364483    293.29148    335.27757    204.02011 1.2931859e-12 1.4962532e-12    27.734025            0   -2357.0496   -2357.0496     26908.16    19.874271    28.803227    47.005822      720 
      40            0    461.01089   0.12618184    476.43083     308.6616    597.94024 -1.0512561e-12 2.8377094e-11    39.846366            0   -2357.0561   -2357.0561    26892.949    19.872665    28.818194    46.958645      720 
      41            0   -207.43282   0.13118887   -241.18869   -483.34053    102.23077 -7.9492605e-13 3.4970144e-12    43.769167            0   -2357.0676   -2357.0676     26942.81     19.88758    28.846493    46.964308      720 
      42            0   -517.61813   0.13372397   -615.42809    -567.2291    -370.1972 -2.142528e-12 1.1074366e-12    31.219025            0   -2357.1007   -2357.1007    26969.233    19.896785    28.832461    47.011485      720 
      43            0    236.89976   0.13625503    188.97494    297.20648    224.51785 -1.8495517e-12 9.4456223e-12    28.931645            0   -2357.1176   -2357.1176    26913.472    19.880731    28.803256    46.999776      720 
      44            0    643.90127   0.13879704    768.81449    862.03546    300.85385 4.6019657e-13 -3.9040216e-12     24.25652            0   -2357.1439   -2357.1439    26887.622    19.860481    28.778968    47.042176      720 
      45            0    96.661697   0.14133596    280.18438    328.87721    -319.0765 2.215924e-12 -5.1433133e-12    23.045797            0   -2357.1782   -2357.1782    26931.357    19.864385    28.791241    47.089353      720 
      46            0   -267.53132   0.14635396   -213.24681    -250.1907   -339.15646 2.1157511e-13 2.0910055e-12    31.758333            0   -2357.1864   -2357.1864    26955.872    19.881425    28.819943    47.044924      720 
      47            0     36.77984   0.15137386    34.074436   -36.444932    112.71002 2.388073e-13 -1.586407e-12    37.428355            0     -2357.19     -2357.19    26931.241    19.881764    28.820522     47.00019      720 
      48            0    44.200734   0.15390682   -229.24103    246.68286    115.16037 8.9682352e-13 -2.367449e-12    22.258153            0   -2357.2095   -2357.2095    26931.057    19.902014      28.7931    46.996763      720 
      49            0   -215.82728   0.15643787   -202.12626   -242.36296   -202.99262 -1.395392e-12 2.6556996e-12    35.193271            0   -2357.2293   -2357.2293    26952.953    19.884603    28.822305    47.028456      720 
      50            0    314.00007   0.16146183     484.0448    213.03115    244.92427 3.1971435e-13 -5.1344307e-13    42.174308            0   -2357.2369   -2357.2369    26914.074    19.864587    28.816612    47.017223      720 
      51            0     714.0279   0.16399288     1073.131    513.51696     555.4357 5.5677835e-13 1.5451271e-11    50.329733            0   -2357.2425   -2357.2425    26885.903    19.844337     28.81665    47.015876      720 
      52            0    364.54033   0.16653085     1024.347   -41.547197    110.82114 -1.7708454e-12 2.2613128e-13    62.785275            0   -2357.2933   -2357.2933    26916.841    19.827495    28.845855    47.062266      720 
      53            0   -34.804123   0.16906691    438.21324   -330.60668   -212.01893 -1.7759362e-12 -3.0474974e-12    54.747555            0   -2357.3064   -2357.3064    26946.103    19.847745    28.844681    47.067276      720 
      54            0    22.157723   0.17160892    216.99219   -71.249877   -79.269142 -9.8420702e-13 -1.6052272e-11    43.166352            0    -2357.317    -2357.317    26940.306    19.867995    28.822815    47.044851      720 
      55            0   -112.59436   0.17414999   -154.13488   -80.378615   -103.26959 -3.032098e-12 8.6940768e-13    34.996564            0   -2357.3212   -2357.3212    26949.128    19.888245    28.813282    47.027894      720 
      56            0    153.86092   0.17916703    66.259477    214.92147    180.40181 -2.4095676e-12 9.8143488e-12    34.413483            0    -2357.323    -2357.323    26928.612    19.887681    28.803664    47.009116      720 
      57            0    306.06716   0.18170094    50.664947    327.58854      539.948 -1.3840872e-12 -1.1988401e-12     37.59765            0    -2357.343    -2357.343    26916.066    19.899138    28.802574    46.961939      720 
      58            0   -396.93993   0.18672299   -597.98303   -424.48565   -168.35109 5.7852679e-13 -1.0395964e-11    37.698082            0    -2357.355    -2357.355    26970.534    19.906161    28.825068    47.003662      720 
      59            0   -631.15079   0.18925786   -632.37873   -698.68558   -562.38806 3.3300918e-13 1.6876996e-12    40.143809            0   -2357.3698   -2357.3698    26991.339    19.894284    28.835583     47.05084      720 
      60            0    48.855905   0.19179106    170.54503     3.801189   -27.778507 -5.1705402e-13 -2.3314886e-14    42.540259            0   -2357.3874   -2357.3874    26941.127    19.874034    28.816769    47.041857      720 
      61            0    93.723787   0.19432592   -56.667291     219.9786    117.86005 2.0926876e-12 2.2358389e-11    32.962304            0   -2357.4026   -2357.4026    26936.861    19.894284    28.798215    47.016805      720 
      62            0   -489.87994   0.19934487    -588.9151   -505.90587   -374.81884 4.1821406e-14 1.7827662e-11    38.830046            0   -2357.4114   -2357.4114     26981.62    19.900138    28.826402    47.035038      720 
      63            0    -831.8099   0.20188093   -795.18304   -1058.6819   -641.56475 1.5402735e-12 -5.4148311e-12    49.751908            0   -2357.4218   -2357.4218    27008.878    19.895957    28.855607    47.044786      720 
      64            0   -294.30816   0.20441198   -95.646792   -651.30541   -135.97228 2.6322388e-12 2.8597849e-12    60.165986            0   -2357.4563   -2357.4563    26969.334    19.875707    28.854797    47.025089      720 
      65            0    156.85521   0.20943785    293.63002   -41.657704    218.59333 -1.9910573e-12 1.3882507e-12    53.607569            0   -2357.4621   -2357.4621    26935.444    19.872961    28.828009    47.016134      720 
      66            0    -12.22263   0.21445489   -57.148874    68.296159   -47.815173 2.1309506e-12 2.8112211e-12    37.498334            0   -2357.4662   -2357.4662     26948.81    19.888588    28.805178    47.039758      720 
      67            0   -222.18473   0.21698999   -455.21194   -267.88981     56.54755 -2.6479308e-12 6.4852249e-12    46.624578            0   -2357.5652   -2357.5652    26966.954    19.908838    28.820681    46.998258      720 
      68            0    366.12653   0.21952105     273.5881    353.17137    471.62012 -1.5653351e-12 -5.0614292e-12    48.119399            0   -2357.5787   -2357.5787    26924.463    19.888588    28.803383     47.00019      720 
      69            0    528.36829   0.22206187    660.99008    555.06436    369.05044 -2.1141326e-12 6.0187828e-12    48.066084            0   -2357.5945   -2357.5945    26916.036    19.868338    28.796544    47.044536      720 
      70            0    -165.3084   0.22459793    10.093331   -147.43637   -358.58215 3.0008914e-13 6.6386479e-13    46.460097            0   -2357.6098   -2357.6098    26970.047    19.875653    28.814813    47.091713      720 
      71            0   -422.18678   0.22713399   -443.53371   -433.95724   -389.06939 -7.7297243e-13 3.3777639e-12     47.23487            0   -2357.6404   -2357.6404    26988.899    19.895903    28.822947    47.063383      720 
      72            0    351.35627   0.22967291    293.64076    354.19255     406.2355 -1.7681154e-12 9.5890229e-12    50.194507            0   -2357.6555   -2357.6555    26930.106     19.88703    28.801862    47.016206      720 
      73            0    944.32928   0.23220897     800.9063     949.4596    1082.6219 1.7925226e-13 -1.1765937e-11    53.909067            0   -2357.6673   -2357.6673     26885.93    19.885153    28.786214    46.969029      720 
      74            0    708.42364   0.23474693    368.66873     679.2994    1077.3028 3.0358194e-12 1.3103773e-11    57.882097            0   -2357.7369   -2357.7369    26905.106    19.905403    28.793752    46.942421      720 
      75            0    6.4093115   0.23728085    -283.4674   -30.575285    333.27062 -1.7375583e-12 -2.6833492e-12     54.84901            0   -2357.7529   -2357.7529    26959.027    19.912418    28.812337    46.989598      720 
      76            0    30.524071     0.239815   -46.388195    26.548352    111.41206 -3.3024269e-12 1.8207986e-12    53.352768            0   -2357.7604   -2357.7604    26959.919    19.894971    28.809632    47.036775      720 
      77            0   -187.15468   0.24484301   -131.88399   -189.39356    -240.1865 -1.6046531e-12 -4.0044213e-12    52.846823            0    -2357.763    -2357.763     26978.35     19.88781     28.81552    47.076263      720 
      78            0    82.012499   0.24986887    280.34928    96.043967   -130.35575 -1.2554503e-12 -1.7731767e-14    53.912159            0    -2357.766    -2357.766    26959.824    19.872277    28.807853    47.093235      720 
      79            0    56.591712   0.25240588    236.82055    40.318787    -107.3642 -4.6069145e-12 1.1376649e-12    66.158738            0   -2358.0104   -2358.0104    26975.778    19.877924    28.809267    47.105407      720 
      80            0   -165.91252   0.25743699   -138.71238   -170.87277   -188.15239 -4.3804202e-12 -3.5292553e-12    64.152903            0   -2358.0129   -2358.0129    26991.209    19.893496    28.813072    47.089237      720 
      81            0     33.08931   0.26245904   -49.029925    48.107924    100.18993 -1.5687962e-12 -5.1391315e-12    63.817555            0   -2358.0147   -2358.0147    26974.904    19.899095    28.805688    47.059612      720 
      82            0    89.937361   0.26500106    190.77282   -218.09407    297.13333 -2.8606274e-12 -1.3229526e-13    85.985293            0   -2358.0915   -2358.0915    26974.994    19.886593    28.834893    47.041657      720 
      83            0   -221.52175   0.26753592   -231.37007   -249.46649    -183.7287 -2.9091549e-12 -5.1269969e-12    69.511847            0   -2358.1052   -2358.1052    27000.802    19.898915    28.815711    47.088834      720 
      84            0     121.5708    0.2700789    66.109127    310.49188   -11.888605 -5.1003143e-12 9.6558149e-13    59.425765            0    -2358.112    -2358.112    26976.398    19.896273    28.786506    47.100257      720 
      85            0     316.4438   0.27261901    208.79905    762.90497   -22.372626 -4.7935044e-12 -1.1112899e-11    46.983133            0   -2358.1241   -2358.1241    26964.754    19.896389    28.757301    47.127466      720 
      86            0   -417.62732   0.27516294   -545.61727    55.570711    -762.8354 -6.0831853e-12 -2.9150911e-12    44.509376            0   -2358.1597   -2358.1597        27024    19.909753    28.772337    47.174643      720 
      87            0   -98.045021     0.277704   -38.463278   -17.255796   -238.41599 -7.8031355e-12 -9.205456e-12    71.251585            0   -2358.2359   -2358.2359    27002.126    19.893078    28.801542    47.128132      720 
      88            0     111.4555   0.28273487     155.1135    147.21684    32.036172 -5.4022331e-12 -8.4510569e-12    74.663923            0   -2358.2372   -2358.2372     26985.43    19.891425    28.800476     47.10465      720 
      89            0   -13.978853   0.28776097   -40.895895    -83.12376    82.083096 -3.9441227e-12 -1.0930407e-11    79.904872            0    -2358.239    -2358.239    26993.363    19.899561    28.813139    47.078534      720 
      90            0    2.3576195     0.290308   -292.01335    184.27709    114.80912 -4.2884718e-12 -4.0983993e-12     67.11517            0   -2358.2614   -2358.2614    26993.118    19.919811     28.78771    47.071791      720 
      91            0    29.820485   0.29285192   -3.1626963    48.752087    43.872064 -6.2159032e-12 -6.6847987e-12    77.183512            0   -2358.2768   -2358.2768    26993.397    19.899561    28.803418    47.094482      720 
      92            0   -167.27773   0.29788089   -154.35521   -190.44658    -157.0314 -4.8904347e-12 -1.0928461e-11    78.706437            0   -2358.2779   -2358.2779    27008.853     19.89915    28.812513    47.107545      720 
      93            0   -34.696871   0.30042005    216.60165   -187.22826   -133.46401 -5.2358591e-12 -1.2524435e-11    87.261547            0   -2358.2847   -2358.2847    27001.025      19.8789    28.822413    47.125671      720 
      94            0    305.96503   0.30295897    329.15339    361.26795    227.47375 -3.7595233e-12 -7.3962295e-12    77.680977            0   -2358.2959   -2358.2959    26974.779    19.891053    28.793208    47.098823      720 
      95            0   -45.886168   0.30550504   -213.84236    108.56687   -32.383013 -6.3695894e-12 -1.5659843e-11    70.661508            0   -2358.3043   -2358.3043    27000.977    19.911303    28.791723    47.099049      720 
      96            0   -168.85264   0.30804086   -206.71429    -287.1456   -12.698036 -1.4103141e-12 -1.1092769e-11    86.372912            0   -2358.3206   -2358.3206    27010.679    19.904516    28.820928    47.084278      720 
      97            0    332.96343   0.31307387    394.89305    210.48239    393.51487 -4.0374393e-12 3.9055507e-12    89.553888            0   -2358.3269   -2358.3269    26973.877    19.889064    28.809113    47.075955      720 
      98            0    722.83605   0.31811285    918.99335    636.27173    613.24306 -1.8239275e-12 -1.3344251e-11    90.340161            0   -2358.3318   -2358.3318    26947.194    19.872592    28.796527     47.08894      720 
      99            0    547.74054   0.32065201    861.28724    521.19319     260.7412 -3.1845906e-12 -1.1125865e-12    87.751407            0   -2358.3561   -2358.3561    26964.307    19.865945    28.795606    47.136117      720 
     100            0   -79.444295   0.32568884    124.68317   -113.20549   -249.81057 -5.4275698e-12 -7.0518896e-12    85.019213            0   -2358.3658   -2358.3658    27011.033    19.884141    28.811407    47.148718      720 
     101            0    5.0455987   0.33071804   -35.913709    22.699611    28.350894 -3.4913987e-12 -2.6078442e-12    82.312877            0   -2358.3696   -2358.3696    27002.067    19.902245    28.803327    47.103404      720 
     102            0   -51.441993   0.33326101    3.3208269   -325.55215    167.90534 -1.8370005e-12 1.3545435e-12    99.662585            0   -2358.3881   -2358.3881    27006.578    19.897381    28.832532    47.075056      720 
     103            0    208.15956   0.33579803    225.19729    171.66564    227.61574 -2.8321401e-12 -4.1375073e-12    88.288658            0   -2358.4019   -2358.4019    26989.209    19.895415    28.803327    47.097135      720 
     104            0   -250.31749   0.34083796    -300.0702   -122.81402   -328.06826 -6.18869e-12 1.2452453e-11      77.2456            0   -2358.4083   -2358.4083    27025.867    19.907005    28.798968    47.140782      720 
     105            0   -472.43898   0.34587598   -570.71239   -174.98606   -671.61848 -5.313882e-12 -1.0008078e-11    67.282629            0    -2358.411    -2358.411    27044.967    19.913542    28.788174    47.176292      720 
     106            0   -114.82789   0.34842086   -221.23306    398.03136   -521.28197 -2.7533089e-12 4.9818352e-12    58.181836            0   -2358.4277   -2358.4277    27021.011    19.907853    28.758969    47.195855      720 
     107            0     142.1388   0.35096693    130.38721    374.14407   -78.114879 -3.8114278e-12 2.4674533e-12    75.328578            0   -2358.4405   -2358.4405    26999.748    19.898019    28.779309    47.148678      720 
     108            0   -137.37199     0.356004   -143.82538   -35.132188    -233.1584 -3.3450617e-12 -5.0595601e-12     81.24868            0   -2358.4432   -2358.4432    27020.104    19.902574    28.798429    47.142106      720 
     109            0    9.8787817   0.36104083    33.343964    -41.26056    37.552941 -2.8728043e-12 -2.4364706e-12    90.620085            0   -2358.4449   -2358.4449     27007.71    19.898784    28.809324    47.111634      720 
     110            0    103.79502   0.36357999   -151.63679    220.52387    242.49798 -3.8336506e-12 -3.1299602e-12    82.559006            0   -2358.4555   -2358.4555    26999.833    19.919034    28.789803    47.081914      720 
     111            0   -519.76263   0.36612701   -650.77589   -488.73305   -419.77894 -3.7638589e-12 2.9585214e-12    85.116243            0   -2358.4689   -2358.4689     27050.04    19.919442    28.813875    47.129091      720 
     112            0   -568.62787   0.36866593   -425.08318   -657.29167   -623.50876 -1.596015e-12 -7.0788372e-12    93.227474            0   -2358.4918   -2358.4918     27058.19    19.899192    28.827468    47.169015      720 
     113            0    97.376046   0.37370396    262.55048    41.948879   -12.371217 4.3016233e-14 1.6516999e-12     94.91463            0   -2358.5025   -2358.5025    27007.508    19.887261    28.807672    47.141281      720 
     114            0     170.6249   0.37624383    61.517194      243.797    206.56051 -3.9223427e-12 -4.8605181e-12    88.339064            0   -2358.5076   -2358.5076    27000.117    19.907511     28.79246    47.105313      720 
     115            0   -88.808632   0.38128805   -230.34385   -27.078521   -9.0035283 -3.190199e-12 -6.3400757e-12    87.754392            0   -2358.5092   -2358.5092    27019.706    19.914168    28.799832    47.111668      720 
     116            0   -224.69265   0.38383198    -70.17803   -397.82761    -206.0723 -2.2002399e-12 -7.1045131e-13     100.7299            0   -2358.5165   -2358.5165    27032.384    19.893918    28.826699    47.137777      720 
     117            0    175.40713   0.38887691    405.62684     5.367913    115.22663 -5.5148436e-12 -1.8769819e-12    102.89235            0   -2358.5206   -2358.5206    27002.882    19.881888    28.816649    47.131258      720 
     118            0    343.80106   0.39141703    426.77114    431.28603    173.34601 -7.7152982e-12 5.5568517e-12     90.24516            0   -2358.5344   -2358.5344    26991.812     19.89002    28.787444     47.14045      720 
     119            0   -187.33393   0.39645386   -203.41496   -76.575235   -282.01158 -5.4547983e-12 -2.2434444e-13    86.522864            0   -2358.5414   -2358.5414    27032.117    19.905976    28.797945    47.155796      720 
     120            0   -487.30105   0.39899802   -687.09929   -480.42794   -294.37592 -7.2820837e-12 -3.313008e-12    91.862544            0   -2358.5499   -2358.5499    27053.341    19.926226     28.81429    47.118119      720 
     121            0   -53.907676   0.40154505   -309.52795   -115.41684    263.22176 -7.0568676e-12 -6.7100109e-12    99.243488            0   -2358.5635   -2358.5635    27019.548    19.924608    28.809479    47.070941      720 
     122            0    180.59149   0.40408587    129.11241    182.41953    230.24252 -5.9992518e-12 -1.8958418e-11    96.367928            0   -2358.5689   -2358.5689    27004.589    19.904358    28.798617    47.110505      720 
     123            0   -29.466015   0.40912485   -26.633673    -20.75735   -41.007022 -3.4502091e-12 -1.0495243e-11    94.845198            0   -2358.5703   -2358.5703    27021.537    19.903171    28.803456    47.134964      720 
     124            0    115.69418   0.41416597    329.76885     97.63588    -80.32218 -6.1586458e-12 -3.7426393e-12    97.564178            0   -2358.5734   -2358.5734    27013.296    19.884293    28.803261    47.165645      720 
     125            0   -387.21584   0.41920996   -57.879502   -451.49081    -652.2772 -6.797271e-12 -4.2522238e-12    98.826332            0   -2358.5806   -2358.5806    27054.587    19.883098    28.820577    47.212194      720 
     126            0   -169.39521   0.42175984    400.39844   -269.77598    -638.8081 -4.2904595e-12 -2.9755186e-13    109.73276            0   -2358.6768   -2358.6768    27050.575    19.862848    28.818565    47.256615      720 
     127            0    89.898491   0.42430091    452.00397    48.422488   -230.73098 -5.3849571e-12 -4.568288e-12    107.45572            0   -2358.6933   -2358.6933     27028.65    19.875539     28.80558    47.209438      720 
     128            0   -160.54312   0.42684984   -4.7760388   -178.62457   -298.22875 -3.3258803e-12 8.2495478e-12    104.67082            0   -2358.6996   -2358.6996    27045.573    19.895789    28.808693    47.185817      720 
     129            0    92.562389   0.43189001    152.84819    98.000193    26.838785 -6.1351938e-12 -9.605729e-12    104.71862            0   -2358.7018   -2358.7018    27025.047    19.899534    28.799732      47.1558      720 
     130            0    3.4189181   0.43693399   -41.058744    12.931672    38.383827 -3.3129045e-12 -4.5009026e-12    104.16089            0   -2358.7027   -2358.7027    27030.696     19.90929    28.801085    47.140328      720 
     131            0   -352.88923   0.44197083   -252.63907   -464.69551   -341.33312 -2.9790342e-12 -9.0431005e-12     109.4686            0    -2358.707    -2358.707    27059.703    19.903889    28.822065     47.16936      720 
     132            0   -144.69208   0.44451284    179.31731   -368.95864   -244.43492 -1.9701253e-12 -3.336224e-12    117.67043            0   -2358.7184   -2358.7184    27046.694    19.883639    28.828392    47.184341      720 
     133            0    213.57453   0.44956183    366.39265    150.99391    123.33704 -1.6388891e-12 -3.2769552e-12    110.72083            0   -2358.7234   -2358.7234    27018.507    19.891172    28.803332     47.15831      720 
     134            0    11.803477   0.45460296   -36.536193    76.119422   -4.1727966 -2.816258e-12 3.7436327e-12    102.65702            0   -2358.7262   -2358.7262    27032.855    19.909696    28.795487    47.152299      720 
     135            0   -118.75652   0.45964098    -117.0395   -166.01939   -73.210667 -2.3398014e-12 1.7907713e-12    108.35673            0   -2358.7271   -2358.7271    27042.594    19.908295    28.809476    47.149701      720 
     136            0    52.102177   0.46468687    135.92058   -105.19563    125.58158 -1.9857698e-12 -4.4871076e-12    115.60532            0   -2358.7284   -2358.7284     27029.56    19.899752    28.815946    47.136619      720 
     137            0    276.03115   0.46722984    403.52548    369.00449    55.563478 -1.916854e-12 -3.4329318e-12    104.56157            0   -2358.7548   -2358.7548    27018.278    19.892143    28.786741    47.182787      720 
     138            0   -352.05383   0.47227001   -306.83978   -256.54866   -492.77305 -3.5456769e-12 -7.9863472e-12    101.80913            0   -2358.7644   -2358.7644     27066.87    19.908453    28.801613    47.204533      720 
     139            0   -816.23943    0.4748199   -924.78143   -756.51822   -767.41864 -3.460759e-12 -6.9608961e-13    102.91541            0   -2358.7741   -2358.7741    27102.996    19.928703    28.815721    47.196388      720 
     140            0   -487.83494   0.47736788   -717.12591   -465.75189   -280.62702 -4.5305523e-12 -4.5818725e-12     109.3064            0   -2358.8084   -2358.8084    27078.325    19.934276    28.810241    47.149211      720 
     141            0    45.945859   0.48240805   -103.71041    75.623614    165.92438 1.3293251e-12 -5.0101537e-13    111.77941            0   -2358.8155   -2358.8155    27038.033    19.919632    28.796553     47.13606      720 
     142            0   -2.2244129   0.48745584     26.43822   -17.530525   -15.580934 -3.5168652e-13 -5.0089123e-12    113.69445            0   -2358.8174   -2358.8174    27043.624    19.906282    28.802802    47.167191      720 
     143            0    1.0322454   0.49000502    -71.07097    289.42509   -215.25738 -1.5911498e-12 -7.1439379e-13    97.236007            0   -2358.8265   -2358.8265    27046.602    19.912931    28.773597    47.204496      720 
     144            0   -83.103211   0.49254894   -82.908358   -81.821226   -84.580049 -5.5499508e-12 -1.2161771e-12    114.77196            0    -2358.851    -2358.851    27053.418    19.910528    28.802802    47.174209      720 
     145            0    104.70012   0.49760199    116.25622    100.22506    97.619102 -3.2820672e-12 -9.845585e-12    116.23729            0   -2358.8519   -2358.8519    27039.089    19.906828     28.79871    47.164687      720 
     146            0    272.17579   0.50264382    291.09938      251.565    273.86298 -4.63552e-12 -4.3687585e-12    118.29728            0   -2358.8526   -2358.8526    27026.358    19.903853    28.796076    47.153838      720 
     147            0    192.67419   0.50518894    157.20892   -77.158323    497.97198 -4.9131831e-12 -1.22772e-11    135.36191            0   -2358.8803   -2358.8803    27033.142    19.911583    28.820958    47.106661      720 
     148            0   -262.62063   0.50773096   -324.16942   -393.38673   -70.305755 -4.7120527e-12 -5.2219244e-12    124.70192            0    -2358.888    -2358.888    27069.884    19.919981    28.819101    47.153838      720 
     149            0    -118.9198   0.51028299    -155.9763    17.800868   -218.58396 -3.5984373e-12 -6.401969e-12    110.27049            0   -2358.8952   -2358.8952    27062.379    19.914457    28.790298    47.201015      720 
     150            0    78.003826   0.51532483    71.249028    165.13844   -2.3759866 -2.1314312e-12 -1.0273864e-11    114.24902            0   -2358.8963   -2358.8963    27047.051    19.909328    28.790221     47.18656      720 
     151            0    12.042923     0.520365    37.874313   -41.734171    39.988626 -5.3420379e-12 -1.6293452e-11    122.03838            0   -2358.8973   -2358.8973    27051.222    19.908508    28.805277    47.171112      720 
     152            0   -160.16053   0.52541304   -195.42268   -163.17202   -121.88688 -5.2734972e-12 -8.7687604e-12    118.33107            0   -2358.8982   -2358.8982    27064.453    19.915795    28.804489    47.178208      720 
     153            0    14.636061   0.52795506   -202.30808    266.63466   -20.418393 -6.5766239e-12 3.2907777e-12    105.29296            0   -2358.9023   -2358.9023    27051.977    19.926524    28.775284    47.178905      720 
     154            0    408.84973   0.53050184    389.75244    483.89033    352.90644 -2.5167495e-12 -7.8340924e-12    119.43936            0   -2358.9258   -2358.9258    27025.273    19.906274    28.782794    47.167968      720 
     155            0    -183.0994   0.53305197   -127.14251   -259.67867   -162.47701 -4.0400538e-12 -1.5275247e-11    125.52645            0    -2358.941    -2358.941    27071.996    19.910331    28.811999    47.192001      720 
     156            0   -384.53775   0.53559303    -138.2455   -710.19037   -305.17737 -4.4704592e-12 -1.2960823e-11    141.37067            0   -2358.9731   -2358.9731    27092.918    19.900468    28.841204    47.204031      720 
     157            0     562.3606   0.53814006    859.02654    291.18211    536.87314 -2.8716878e-12 1.9305015e-12     147.3579            0   -2359.0059   -2359.0059    27025.953    19.883092    28.811999     47.17628      720 
     158            0    996.90316    0.5406909    1194.2604      910.276    886.17308 1.4266872e-12 -1.3805309e-11    144.95495            0   -2359.0418   -2359.0418    27000.703    19.885192    28.782794    47.175045      720 
     159            0    397.40239   0.54323697    457.64542    412.44718    322.11457 -5.3555716e-12 -1.8455782e-11     138.8346            0    -2359.088    -2359.088    27050.327    19.905442    28.787048    47.206691      720 
     160            0   -6.5315382   0.54828405    21.313114   -7.4448214   -33.462907 -4.9203035e-12 -6.9269318e-12    137.33058            0   -2359.0919   -2359.0919    27081.011    19.914206    28.798407    47.220808      720 
     161            0    2.6782381   0.55333495   -45.856925    5.4730431    48.418596 -5.6911912e-12 -3.047071e-12    137.54965            0   -2359.0923   -2359.0923    27079.397    19.920246    28.797479    47.205198      720 
     162            0    499.08679   0.55587792    648.98925    257.22006    591.05105 -2.4416855e-12 -8.8736629e-12    157.95709            0   -2359.1367   -2359.1367    27050.197    19.899996    28.808607    47.184048      720 
     163            0    -362.3869     0.558429   -255.00251   -611.10921   -221.04898 -7.2123952e-13 -8.8963122e-12    154.60625            0   -2359.1645   -2359.1645    27121.291    19.917302    28.830398    47.231225      720 
     164            0   -570.98146   0.56098104   -580.82367   -566.55916   -565.56155 5.6043162e-13 2.0621508e-12       142.17            0    -2359.199    -2359.199    27147.058    19.930115    28.810459    47.278402      720 
     165            0    202.69924   0.56352782    199.51707    311.60305    96.977614 6.8061043e-13 -4.1848205e-12     142.3734            0   -2359.2157   -2359.2157    27090.529    19.917839    28.781254    47.256935      720 
     166            0     883.8551     0.568578    839.06731    985.71453    826.78345 2.6901732e-12 5.5729126e-12    153.04545            0   -2359.2324   -2359.2324     27047.68     19.91311    28.764347    47.221134      720 
     167            0    665.66242    0.5711329    521.72848    679.16275    796.09602 1.8892691e-12 1.3612263e-11    166.33765            0   -2359.2701   -2359.2701    27077.353    19.927787    28.776432    47.218282      720 
     168            0   -19.315383   0.57618189   -161.84808   -31.608129    135.51006 5.6139249e-13 4.8794022e-12    162.47983            0   -2359.2813   -2359.2813    27130.299    19.938107    28.795781     47.25435      720 
     169            0 -0.086895426   0.58124089    1.0816313  -0.31291493   -1.0294027 2.6315157e-12 7.7886226e-12    160.55965            0    -2359.283    -2359.283    27130.947    19.926015    28.794803    47.285761      720 
     170            0    222.24948   0.58378792    90.160542    470.72713    105.86079 4.9518919e-12 -1.6142384e-11    136.94848            0   -2359.2899   -2359.2899    27117.051    19.932167    28.765598    47.294924      720 
     171            0   -215.37538   0.58884001   -389.20129    32.751499   -289.67636  1.38348e-12 -2.6141179e-11    124.73081            0   -2359.2959   -2359.2959    27152.882    19.942264     28.77639    47.315688      720 
     172            0   -96.780643   0.59389901   -103.59905   -116.29532   -70.447557 5.5914151e-12 -5.0955448e-11    124.50183            0    -2359.304    -2359.304    27147.064    19.928701    28.799904    47.299096      720 
     173            0    1.8925092   0.59895086   0.85631013   -9.1153322     13.93655 4.7446122e-12 -6.0155701e-11    124.69579            0   -2359.3042   -2359.3042    27139.522    19.926704    28.796678    47.295991      720 
     174            0  -0.66473953   0.60400391   -2.4038004    4.1236959   -3.7141141 2.7781152e-12 -6.7197453e-11    123.67519            0   -2359.3042   -2359.3042    27139.894    19.926702    28.795242    47.299003      720 
     175            0     21.97129   0.60906386    51.651012    12.019686    2.2431728 1.7080451e-12 -5.4538644e-11    124.30724            0   -2359.3043   -2359.3043    27138.463    19.923905    28.796212    47.301555      720 
     176            0   -32.246333   0.61411691    12.849839   -55.508856   -54.079983 -1.8785659e-12 -5.0927507e-11    124.30917            0   -2359.3044   -2359.3044    27142.857    19.923561    28.798879    47.305649      720 
     177            0   -5.2534268   0.61917686    6.7092392   -19.242022   -3.2274975 -1.7736978e-11 7.8218739e-11    115.25032            0   -2359.3075   -2359.3075    27143.387    19.926895    28.797063     47.30164      720 
     178            0    8.1750412   0.62422895    12.895442    4.6358603    6.9938214 -1.6745415e-11 7.0077572e-11    114.76752            0   -2359.3075   -2359.3075    27142.351    19.927223     28.79571    47.301279      720 
     179            0  -0.82346547   0.62928891   -1.6029839   0.94896662   -1.8163792 -1.7075116e-11 8.2979723e-11    114.41052            0   -2359.3075   -2359.3075    27143.036    19.927774    28.795405    47.301665      720 
     180            0    5.8742332   0.63433886    -8.846342    3.2181642    23.250877 -1.3883219e-11 6.2574222e-11      114.697            0   -2359.3076   -2359.3076    27142.264     19.92885    28.795598    47.297449      720 
     181            0   -47.911866   0.63938689   -65.784684   -58.320403   -19.630513 -8.658761e-12 5.6476065e-11    114.06833            0   -2359.3076   -2359.3076    27146.351     19.92998    28.797647    47.298526      720 
     182            0  -0.92995687   0.64444494    14.474232   -31.008846    13.744743 2.1579926e-11 -4.9530103e-11      109.617            0   -2359.3083   -2359.3083    27143.025    19.926849    28.798468    47.298812      720 
     183            0    6.1920514   0.64949989    7.1322185    6.1283514    5.3155844 2.0490752e-11 -5.0375242e-11     107.7072            0   -2359.3083   -2359.3083    27142.603    19.927745    28.795384    47.301015      720 
     184            0    -1.127287   0.65455294   -1.2771931  -0.44672241   -1.6579455 1.702322e-11 -5.3819385e-11    107.60314            0   -2359.3083   -2359.3083    27143.169    19.927939     28.79549    47.301367      720 
     185            0   -4.7591367   0.65960097   -26.012923   -18.838913    30.574426 1.8056139e-11 -5.2738555e-11    107.37093            0   -2359.3084   -2359.3084    27142.929    19.929841     28.79693    47.294071      720 
     186            0    81.328935   0.66465592    61.225156    79.703692    103.05796 1.3368074e-12 -4.0213814e-11    102.84002            0   -2359.3086   -2359.3086    27136.188    19.928471    28.793765    47.290773      720 
     187            0   -1.1138368   0.66971684   -16.076411    23.753762   -11.018862 -4.0197455e-11 1.5789115e-11     87.76324            0   -2359.3093   -2359.3093    27142.529    19.929353    28.793708    47.299823      720 
     188            0    -2.541624   0.67476988   -1.1171824   -3.1301402   -3.3775495 -4.0573819e-11 2.6985453e-11    88.508752            0   -2359.3093   -2359.3093    27142.563    19.928206    28.796246    47.298436      720 
     189            0    3.2805405   0.67982602    4.6541311    2.5840011    2.6034894 -4.1038782e-11 2.944042e-11     88.54065            0   -2359.3093   -2359.3093    27142.105    19.928124    28.796112    47.298051      720 
     190            0  -0.17992668   0.68487883   -11.772831  -0.05620613    11.289257 -3.6219126e-11 2.1172418e-11    88.259227            0   -2359.3093   -2359.3093    27142.202    19.929236     28.79607     47.29565      720 
     191            0    29.476636   0.68994093    10.488506    62.062938    15.878463 6.9017211e-12 3.4513521e-11    61.813079            0   -2359.3101   -2359.3101    27140.468    19.929396    28.792642    47.297882      720 
     192            0    -11.72191   0.69499183   -25.745528    8.3980976   -17.818299 9.9555181e-12 3.8642499e-11    60.695834            0   -2359.3102   -2359.3102    27143.641    19.929694    28.794885    47.299018      720 
     193            0  -0.08674365   0.70004892  0.030404831  -0.24190447 -0.048731307 1.3247103e-11 5.3750453e-11    61.190238            0   -2359.3102   -2359.3102    27142.713    19.928497    28.796591    47.297442      720 
     194            0    21.649654   0.70511198    18.170288    28.127186    18.651487 1.2145843e-11 4.8015647e-11    60.883562            0   -2359.3102   -2359.3102    27141.069     19.92842    28.795408    47.296699      720 
     195            0   -4.5811777   0.71016598   -28.145244    21.150625    -6.748914 8.7240627e-14  1.35737e-11    59.141246            0   -2359.3103   -2359.3103    27143.224    19.930303    28.794135    47.298079      720 
     196            0    1.7150426    0.7152319   -0.7951277   0.90538468    5.0348707 -5.1333372e-12 -2.1107997e-12    60.207267            0   -2359.3104   -2359.3104    27142.875    19.928627    28.796573    47.297444      720 
     197            0   -2.2090279   0.72028995   -3.4293897   -2.7683068  -0.42938731 -3.1603246e-12 -1.1280672e-11    60.139971            0   -2359.3104   -2359.3104    27143.205    19.928578    28.796652    47.298005      720 
     198            0   0.06672987   0.72535586    0.3961664   0.11730935  -0.31328614 -2.1417091e-12 -8.5088806e-12    60.096829            0   -2359.3104   -2359.3104    27143.057    19.928413    28.796544    47.298315      720 
     199            0    11.074952   0.73040986   -2.7179904    24.288983    11.653864 -6.7439908e-13 2.1262105e-12    58.624808            0   -2359.3104   -2359.3104     27142.22    19.929278    28.794997    47.297346      720 
     200            0   -12.518113   0.73546505   -29.861996 -0.069448961   -7.6228955 -2.4735832e-12 1.6751313e-13    57.743102            0   -2359.3104   -2359.3104    27144.076    19.929885    28.795665    47.298041      720 
     201            0   -0.0475941   0.74052501    -1.903117   -3.5281195    5.2884542 8.1711118e-14 -8.7052036e-12    57.116182            0   -2359.3104   -2359.3104    27143.281    19.928453    28.796988    47.297884      720 
     202            0    1.5735212   0.74558783    1.4567326    1.8144082    1.4494227 9.4428758e-13 4.7413025e-12    56.827979            0   -2359.3104   -2359.3104    27143.225    19.928261    28.796604    47.298873      720 
     203            0    -0.378692   0.75065088  -0.44484098 -0.058268824   -0.6329662 3.889558e-12 -2.4226542e-12     56.80348            0   -2359.3104   -2359.3104     27143.38    19.928285    28.796645    47.299017      720 
     204            0  -0.48316591   0.75570798    4.0701399   -5.5495967  0.029958988 3.1474012e-12 -4.9325464e-12    57.005784            0   -2359.3104   -2359.3104    27143.391    19.927941     28.79718    47.298975      720 
     205            0    21.217832   0.76077986    26.695862    19.939378    17.018257 2.6159299e-12 1.3197411e-12    55.834398            0   -2359.3105   -2359.3105    27141.723    19.927502    28.796318    47.298523      720 
     206            0  -0.83168539   0.76583886   0.15155242    2.7235693   -5.3701779 -2.0738971e-12 -3.9053242e-13    53.784467            0   -2359.3105   -2359.3105    27143.398    19.928144     28.79643    47.299736      720 
     207            0  0.054797992     0.770895   0.35322273  -0.16635936  -0.02246939 6.8010706e-13 5.353616e-12    53.908246            0   -2359.3105   -2359.3105    27143.272    19.928209    28.796766     47.29881      720 
     208            0   -1.2272816   0.77595401   -2.6661233  -0.36470082  -0.65102081 -1.7663067e-12 -1.1726024e-11    53.830039            0   -2359.3105   -2359.3105    27143.359    19.928363    28.796688    47.298723      720 
     209            0    1.6173782   0.78101301  -0.70992496    3.2167544    2.3453053 3.9749914e-13 -7.220108e-12    53.788239            0   -2359.3105   -2359.3105    27143.132    19.928389    28.796545    47.298501      720 
     210            0  -0.59154188   0.78607202   -2.2624293   -11.136931    11.624735 2.6350442e-12 -6.1412688e-12    52.708215            0   -2359.3105   -2359.3105    27143.135    19.928442    28.797772    47.296365      720 
     211            0    6.0579827   0.79113197    5.7493248     5.572581    6.8520423 -1.5089229e-12 6.0674348e-12     50.20611            0   -2359.3105   -2359.3105    27142.707    19.928164    28.796681    47.298072      720 
     212            0 -0.084828619   0.79619002   -0.5808057 -0.045886711   0.37220656 4.6794622e-13 1.3095531e-11    50.014229            0   -2359.3105   -2359.3105    27143.189    19.928267    28.796784    47.298498      720 
     213            0   0.13651903    0.8012569   0.64455612   0.15189759  -0.38689662 -4.7841107e-12 -2.2387697e-12    49.989984            0   -2359.3105   -2359.3105    27143.185    19.928182    28.796785    47.298693      720 
     214            0   -2.5478348   0.80631304    -1.924705   -2.7225026   -2.9962967 -2.7642408e-12 9.9930849e-12    49.936924            0   -2359.3105   -2359.3105    27143.394    19.928213     28.79687    47.298841      720 
     215            0   0.67753495   0.81137395    11.698231   -4.6198511   -5.0457749 1.8642109e-12 -1.0765854e-12    45.513846            0   -2359.3105   -2359.3105    27143.141    19.927347    28.797386     47.29961      720 
     216            0   -3.7013532   0.81642699   -3.2819096   -2.7744129   -5.0477373 1.7689688e-12 -1.5361235e-12    43.239947            0   -2359.3106   -2359.3106    27143.362    19.928242    28.796887    47.298691      720 
     217            0   0.22605718   0.82149291   0.26165702    1.3015725  -0.88505796 9.0354019e-13 2.2486109e-13    43.169901            0   -2359.3106   -2359.3106    27143.049    19.928214    28.796775    47.298395      720 
     218            0 -0.044676976   0.82654786 -0.041936522  -0.20628062   0.11418621 1.1050548e-12 -2.6598317e-12    43.225165            0   -2359.3106   -2359.3106    27143.056    19.928228    28.796899    47.298168      720 
     219            0     3.031513   0.83160591    2.7033209    2.9806845    3.4105337 2.2029616e-12 5.029314e-12    43.171078            0   -2359.3106   -2359.3106    27142.813    19.928209    28.796813    47.297935      720 
     220            0  -0.66501732   0.83666396   -7.7933661  -0.42765211    6.2259663 1.2705273e-12 1.5531397e-12    41.973322            0   -2359.3106   -2359.3106    27143.035    19.928808    28.796867    47.296809      720 
     221            0    5.9029871   0.84172487    4.8493735    5.8434216    7.0161661 -2.9981828e-12 -4.6879373e-12    36.230511            0   -2359.3106   -2359.3106    27142.734    19.928164    28.796847    47.297845      720 
     222            0  -0.14190063   0.84678602  -0.95776944  -0.40990612   0.94197367 1.9973196e-12 -9.2270308e-12    35.908031            0   -2359.3106   -2359.3106    27143.214    19.928233    28.797021    47.298232      720 
     223            0   0.14831853   0.85184503   0.24271388   0.22613119 -0.023889476 2.1451786e-12 -7.0832875e-12    35.845015            0   -2359.3106   -2359.3106    27143.209    19.928152    28.796986    47.298475      720 
     224            0  -0.88695189   0.85690784  -0.71231216  -0.89299577   -1.0555477 8.5602096e-14 -6.9378656e-12    35.831279            0   -2359.3106   -2359.3106     27143.29    19.928161     28.79702    47.298538      720 
     225            0   0.56929907   0.86196494    6.1900293   -2.3750537   -2.1070783 1.2303795e-12 -4.1568315e-12    35.326711            0   -2359.3106   -2359.3106    27143.224    19.927712    28.797296    47.299036      720 
     226            0   -11.466059   0.86702085    -9.142488   -10.261716   -14.993974 8.9617122e-12 2.4805156e-11    30.456224            0   -2359.3106   -2359.3106    27144.183    19.928135    28.797261    47.299761      720 
     227            0   0.47275728     0.872087    1.5707265    3.4478107   -3.6002654 9.8219304e-12 2.5532596e-11    28.582139            0   -2359.3106   -2359.3106    27143.259    19.928047    28.796824    47.299077      720 
     228            0  -0.28016872   0.87714601  -0.11703714  -0.41691211  -0.30655693 8.7207714e-12 3.658919e-11    28.480477            0   -2359.3106   -2359.3106     27143.27    19.928154    28.797138    47.298324      720 
     229            0   0.61425404   0.88220882   0.66626327   0.55549221   0.62100664 9.8883041e-12 2.8100928e-11    28.475797            0   -2359.3106   -2359.3106    27143.199     19.92815    28.797108    47.298261      720 
     230            0  -0.19999606   0.88726187   -2.2410446   0.58700943     1.054047 1.1694537e-11 2.1672524e-11     28.34582            0   -2359.3106   -2359.3106    27143.241    19.928329     28.79704    47.298023      720 
     231            0    13.054358   0.89232087    10.505535    10.507044    18.150497 3.0666522e-12 2.5237315e-12     24.93839            0   -2359.3106   -2359.3106    27142.129    19.928211    28.797055    47.296339      720 
     232            0   -1.7732339   0.89738894   -5.1954093   -7.1832045     7.058912 -6.1758606e-12 -3.8901757e-11    21.120475            0   -2359.3106   -2359.3106    27143.214    19.928538    28.797719    47.296361      720 
     233            0   0.83488959   0.90244889    0.1496816    1.0638395    1.2911477 -1.4781006e-11 -5.2388854e-11    18.775746            0   -2359.3106   -2359.3106    27143.098    19.928248    28.797148    47.297788      720 
     234            0  -0.34002476   0.90750885  -0.83328615  -0.21359296  0.026804825 -1.4088969e-11 -5.4719394e-11    18.759049            0   -2359.3106   -2359.3106    27143.191     19.92825    28.797187     47.29788      720 
     235            0  0.052476105   0.91256905   0.37376098 -0.052931338  -0.16340133 -1.6516363e-11 -5.0642875e-11    18.755026            0   -2359.3106   -2359.3106     27143.17    19.928179    28.797203    47.297985      720 
     236            0   -4.5702211   0.91763496   -3.9994292   -3.6084521    -6.102782 -1.1936464e-11 -4.3089393e-11    18.475992            0   -2359.3106   -2359.3106    27143.548    19.928221    28.797216    47.298522      720 
     237            0    1.1622541   0.92269301    3.7710434    6.6297124   -6.9139936 -5.754204e-12 -1.49579e-11    17.363086            0   -2359.3106   -2359.3106    27143.182    19.927946     28.79665    47.299469      720 
     238            0   -1.2091178   0.92775297    1.8917085   -3.5516441   -1.9674178 2.2846745e-11 1.1002141e-10    14.031088            0   -2359.3106   -2359.3106    27143.295    19.928015    28.797423     47.29823      720 
     239            0    1.8011964   0.93281698    3.0280957    1.0779791    1.2975143 2.5661195e-11 1.182759e-10    13.847123            0   -2359.3106   -2359.3106    27143.051    19.928114    28.797186    47.297959      720 
     240            0  -0.10245412   0.93787193  -0.22310012  0.029253865  -0.11351612 2.1864453e-11 1.0987479e-10    13.746898            0   -2359.3106   -2359.3106     27143.19    19.928248    28.797146     47.29795      720 
     241            0    3.1450336   0.94292998   0.54910153    3.4284241    5.4575752 2.2939842e-11 1.1280078e-10    13.574374            0   -2359.3106   -2359.3106    27142.907    19.928403    28.797039    47.297265      720 
     242            0   -2.7292796   0.94798398    -7.680676   -2.8997898    2.3926268 2.0014064e-11 1.2186687e-10    13.240837            0   -2359.3106   -2359.3106    27143.336    19.928689    28.797213    47.297048      720 
     243            0    2.7525549   0.95304704     1.833655   -2.6946275    9.1186372 1.8086124e-11 9.4203898e-11    5.1586985            0   -2359.3107   -2359.3107    27143.108    19.928363    28.797501     47.29695      720 
     244            0   -3.6694051   0.95810795    -4.615142    -5.522917  -0.87015625 1.5728453e-11 8.4584565e-11    4.3939667            0   -2359.3107   -2359.3107    27143.663    19.928441    28.797314     47.29804      720 
     245            0  0.050114517   0.96318388   -0.3868026   0.33519474    0.2019514 1.7071401e-11 8.448911e-11    4.1194108            0   -2359.3107   -2359.3107    27143.407    19.928331     28.79702    47.298338      720 
     246            0  -0.18197517   0.96824694   0.99412095  -0.92528781  -0.61475865 1.3396451e-11 8.3667608e-11    4.1481118            0   -2359.3107   -2359.3107    27143.438    19.928209     28.79713    47.298501      720 
     247            0    6.6190336   0.97330999    8.6332932    7.7794222    3.4443853 1.1671113e-11 7.0194811e-11    3.8887346            0   -2359.3107   -2359.3107    27142.947    19.928024    28.796787    47.298649      720 
     248            0   -2.5415023   0.97836804   -1.0377542    5.5287998   -12.115552 3.3853176e-12 1.7229262e-11    2.3942317            0   -2359.3107   -2359.3107     27143.78     19.92814    28.796367    47.300513      720 
     249            0    1.4812906   0.98342395    2.4950764    1.6684225   0.28037287 -9.4294925e-12 -5.4328581e-11    1.4678435            0   -2359.3107   -2359.3107    27143.432    19.928146    28.797028    47.298808      720 
     250            0  -0.40336725   0.98847795   0.24366755  -0.37356757   -1.0802017 -1.5083628e-11 -5.103081e-11    1.4608863            0   -2359.3107   -2359.3107    27143.573    19.928205    28.797088    47.298815      720 
     251            0  0.042623779    0.9935379 -0.086792774 0.0077463281   0.20691778 -1.0791504e-11 -4.6290058e-11    1.4729099            0   -2359.3107   -2359.3107    27143.526    19.928262     28.79708     47.29861      720 
     252            0   -4.4424483    0.9985919    -6.388781   -2.9708065   -3.9677574 -1.2447473e-11 -3.811487e-11    1.2937273            0   -2359.3107   -2359.3107    27143.856    19.928462    28.797047    47.298765      720 
     253            0    1.3350749    1.0036509   -4.2479875    7.4832648    0.7699473 -1.2057989e-12 2.1205924e-12   0.79163116            0   -2359.3107   -2359.3107    27143.354    19.928619    28.796471    47.298466      720 
     254            0    0.2867865    1.0087059 -0.092693932  -0.34092027    1.2939737 1.3987313e-11 7.1808135e-11    0.6512854            0   -2359.3107   -2359.3107    27143.345    19.928206    28.797205    47.298225      720 
     255            0  -0.57988818     1.013767  -0.68632314  -0.73881478  -0.31452663 1.6982924e-11 6.8787916e-11   0.60290164            0   -2359.3107   -2359.3107    27143.421    19.928192    28.797184    47.298423      720 
     256            0  0.018262227     1.018826  0.047255416  0.064527895 -0.056996632 1.1965209e-11 6.509875e-11   0.59040573            0   -2359.3107   -2359.3107    27143.378    19.928171     28.79715    47.298455      720 
     257            0    1.6357273    1.0238829    1.6535453   0.16876647    3.0848701 1.4396342e-11 6.1805479e-11   0.67087485            0   -2359.3107   -2359.3107    27143.224    19.928153    28.797255    47.298057      720 
     258            0   -1.4627525    1.0289419   -1.8886872   -3.7260924    1.2265221 1.0459168e-11 4.5347566e-11   0.66657714            0   -2359.3107   -2359.3107    27143.438    19.928234    28.797407    47.297988      720 
     259            0  -0.18012943     1.033998   -1.8545798    0.8697612   0.44443026 -4.4375886e-12 -9.4821739e-12   0.27657798            0   -2359.3107   -2359.3107    27143.287    19.928262    28.797066    47.298218      720 
     260            0   0.75955028     1.039057   0.61346201   0.89562108   0.76956774 -7.9384884e-12 -1.2362981e-11   0.31095068            0   -2359.3107   -2359.3107    27143.221    19.928126    28.797137    47.298309      720 
     261            0 -0.011919381    1.0441129  0.026944189 -0.060598564 -0.0021037675 -5.929483e-12 -1.5504429e-11   0.31335824            0   -2359.3107   -2359.3107    27143.281    19.928123    28.797174    47.298359      720 
     262            0  -0.22916734    1.0491788  -0.48894561   0.25424053  -0.45279695 -7.3163144e-12 -2.1862727e-11   0.28336315            0   -2359.3107   -2359.3107      27143.3    19.928148    28.797127     47.29841      720 
     263            0   0.81621776     1.054235    0.5048102    1.5415442   0.40229883 -7.1058118e-12 -1.5068056e-11   0.28135147            0   -2359.3107   -2359.3107    27143.219    19.928134    28.797078    47.298382      720 
     264            0   0.24405463    1.0592899   0.34130072  -0.55651114   0.94737431 6.513148e-12 -7.6255685e-12     0.527532            0   -2359.3107   -2359.3107    27143.222    19.928108     28.79722    47.298216      720 
     265            0  -0.46350357    1.0643508  -0.53214808  -0.64979286  -0.20856978 5.5901465e-12 -9.673245e-12   0.49242095            0   -2359.3107   -2359.3107    27143.281    19.928128    28.797178    47.298341      720 
     266            0 0.0022524903    1.0694098 -0.062793577  0.055191905  0.014359142 4.6245685e-12 -8.2890813e-12   0.48238522            0   -2359.3107   -2359.3107    27143.247    19.928119    28.797144     47.29836      720 
     267            0   0.05157776      1.07447   0.16484532 -0.029090782  0.018978739 3.8342841e-12 -2.2250439e-12   0.48982882            0   -2359.3107   -2359.3107    27143.244    19.928104    28.797156    47.298369      720 
     268            0  -0.24009331    1.0795319  -0.10167884  -0.34991465  -0.26868644 9.3158917e-13  4.49309e-13   0.49024954            0   -2359.3107   -2359.3107    27143.267    19.928107    28.797166    47.298386      720 
     269            0  -0.21712213      1.08459  -0.22320974   0.83571707   -1.2638737 2.141897e-12 -1.4626091e-12   0.48441167            0   -2359.3107   -2359.3107    27143.271    19.928113    28.797052    47.298565      720 
     270            0   0.92967909    1.0896549    1.0855052    1.1269217   0.57661041 4.7062931e-12 1.1474418e-12    0.6061676            0   -2359.3107   -2359.3107    27143.169    19.928091    28.797103    47.298358      720 
     271            0 -0.0058305973     1.094707  0.092012107  -0.11231591 0.0028120082 2.4865614e-12 4.2084366e-13   0.63328896            0   -2359.3107   -2359.3107    27143.237    19.928112    28.797154    47.298342      720 
     272            0  -0.03646862    1.0997648 -0.055138967 -0.023984777 -0.030282117 3.7085437e-12 -4.9063609e-12   0.62765962            0   -2359.3107   -2359.3107    27143.239    19.928121    28.797143    47.298341      720 
     273            0  0.031208302    1.1048229  0.010303623  0.054014132  0.029307152 2.3098278e-12 1.0767455e-11    0.6276379            0   -2359.3107   -2359.3107    27143.234    19.928121     28.79714    47.298339      720 
     274            0  0.088768393     1.109884   0.37064404  -0.17104897  0.066710107 1.1918787e-13 7.5020776e-12   0.64851621            0   -2359.3107   -2359.3107    27143.231    19.928097    28.797167    47.298345      720 
     275            0  -0.54081847    1.1149368   -0.2706879  -0.78998768  -0.56177984 -1.9246143e-12 2.0153362e-12   0.65503294            0   -2359.3107   -2359.3107     27143.28    19.928108    28.797181    47.298382      720 
     276            0 -0.054796826    1.1199949 -0.055237285   0.21663251  -0.32578571 -7.244038e-12 -8.288672e-12   0.67426427            0   -2359.3107   -2359.3107    27143.246    19.928124    28.797117     47.29839      720 
     277            0   0.15503587     1.125062    0.1719485   0.18947715   0.10368197 -7.4942967e-12 -1.1395754e-11   0.69511921            0   -2359.3107   -2359.3107    27143.227    19.928121    28.797134    47.298335      720 
     278            0 -0.0022187412    1.1301129 0.0047697426 -0.022065814  0.010639848 -8.0306387e-12 -1.3596833e-11   0.69822181            0   -2359.3107   -2359.3107    27143.239    19.928125    28.797143    47.298332      720 
     279            0 -0.049481369     1.135175 -0.095132314  0.017419939 -0.070731731 -9.1453098e-12 -2.0438253e-11   0.69343394            0   -2359.3107   -2359.3107    27143.243    19.928129    28.797136     47.29834      720 
     280            0  0.085141581     1.140234  0.030879378   0.19440677  0.030138594 -7.5313621e-12 -6.2817327e-12   0.69247053            0   -2359.3107   -2359.3107    27143.233    19.928128    28.797128    47.298338      720 
     281            0   0.12561949     1.145298   0.42073489  -0.11793258  0.074056163 -8.4250655e-12 -1.4572455e-11   0.73803995            0   -2359.3107   -2359.3107    27143.235    19.928103    28.797161    47.298348      720 
     282            0   -0.2198297    1.1503499 -0.066147701   -0.3636345  -0.22970691 -2.6737371e-12 -8.3838943e-12   0.73656459            0   -2359.3107   -2359.3107    27143.262     19.92812    28.797159    47.298359      720 
     283            0 -0.011513942     1.155405 -0.024312014  0.022149716 -0.032379526 -8.6585227e-13 -7.5815319e-12   0.73310223            0   -2359.3107   -2359.3107    27143.246     19.92813    28.797136    47.298345      720 
     284            0  0.034352238     1.160464  0.037177348  0.034057291  0.031822073 -4.7523582e-12 -5.552473e-12   0.73551725            0   -2359.3107   -2359.3107    27143.243    19.928128    28.797138     47.29834      720 
     285            0 -0.011184475      1.16552 -0.00031017211 -0.044413133  0.011169881 -3.9729267e-13 -1.5326486e-12    0.7372804            0   -2359.3107   -2359.3107    27143.246    19.928128    28.797143    47.298338      720 
     286            0  -0.38093826    1.1705799  -0.79729569  -0.12650491  -0.21901418 -3.8480005e-13 -7.2413677e-12   0.73972587            0   -2359.3107   -2359.3107    27143.276    19.928167    28.797122    47.298333      720 
     287            0   0.26232657    1.1756361  -0.19716275   0.59501804   0.38912442 6.3167526e-12 -7.5954624e-12   0.75419527            0   -2359.3107   -2359.3107    27143.229     19.92816    28.797097    47.298307      720 
     288            0  0.021399251    1.1806989  0.031663179 -0.067708094   0.10024267 6.5946465e-12 -3.5451191e-12   0.79909213            0   -2359.3107   -2359.3107    27143.256    19.928128    28.797144    47.298354      720 
     289            0 -0.050660736    1.1857529 -0.048175968 -0.065125987 -0.038680253 1.0814546e-11 -4.3335594e-12   0.79459542            0   -2359.3107   -2359.3107    27143.262    19.928129    28.797139    47.298371      720 
     290            0 0.0036332305     1.190809 0.0065827621  0.012060197 -0.0077432673 1.298573e-11 -4.1930741e-12   0.79366801            0   -2359.3107   -2359.3107    27143.258    19.928128    28.797135    47.298372      720 
     291            0  0.090210166    1.1958718  0.015897081  0.041481488   0.21325193 7.5819405e-12 -1.4028116e-11    0.8000022            0   -2359.3107   -2359.3107     27143.25    19.928133    28.797138     47.29834      720 
     292            0  -0.13643616    1.2009289  -0.25720705  -0.21017995  0.058078509 9.6658776e-12 4.0331319e-12    0.8017001            0   -2359.3107   -2359.3107    27143.267     19.92814    28.797146     47.29834      720 
     293            0 -0.066325338    1.2059898  -0.13002873  0.080647594  -0.14959487 2.2733723e-12 -2.7321016e-12   0.80709813            0   -2359.3107   -2359.3107    27143.268    19.928131    28.797122    47.298403      720 
     294            0  0.076390481    1.2110469  0.063446625   0.14261764  0.023107182 9.2769849e-14 -8.1768533e-12   0.81327973            0   -2359.3107   -2359.3107    27143.257    19.928125    28.797127     47.29839      720 
     295            0 -0.0018055412    1.2161009 0.0095522515 -0.0085305561 -0.006438319 -5.4310284e-13 -2.3075727e-12   0.81732091            0   -2359.3107   -2359.3107    27143.263    19.928125    28.797135    47.298386      720 
     296            0 -0.0046303638    1.2211649 -0.033407677 -0.0032359689  0.022752555 -1.6473301e-12 2.0360213e-12   0.81724488            0   -2359.3107   -2359.3107    27143.263    19.928128    28.797135    47.298379      720 
     297            0   0.11036494    1.2262208  0.079537581   0.13306024     0.118497 7.071398e-13 -6.1867053e-12   0.81658922            0   -2359.3107   -2359.3107    27143.254    19.928127     28.79713    47.298376      720 
     298            0 -0.015066718     1.231282  -0.04092723   0.17557675  -0.17984967 -4.0355896e-12 2.1763022e-12   0.80193531            0   -2359.3107   -2359.3107    27143.265    19.928127    28.797117    47.298417      720 
     299            0 -0.036763265     1.236335  0.010250691 -0.058842273 -0.061698213 -2.1074928e-12 -8.7170865e-12   0.81304688            0   -2359.3107   -2359.3107    27143.265    19.928122    28.797138    47.298394      720 
     300            0  0.023101371    1.2413979    0.0565181  0.006623049 0.0061629648 -6.5688417e-12 -5.1805708e-12   0.81324277            0   -2359.3107   -2359.3107    27143.261    19.928122    28.797136    47.298388      720 
     301            0 -0.00043865965    1.2464509 -0.0049216092 -0.00072336987 0.0043290001 -5.650973e-12 -7.6511561e-12   0.81243797            0   -2359.3107   -2359.3107    27143.262    19.928126    28.797135    47.298384      720 
     302            0 -0.00043866617     1.251508 -0.015613344  0.070650752 -0.056353406 -5.9683972e-12 -1.9240012e-11   0.80774007            0   -2359.3107   -2359.3107    27143.263    19.928126    28.797128    47.298396      720 
     303            0  -0.10359844    1.2566109  0.031377788  -0.14813677  -0.19403635 -3.1918546e-12 -7.6544303e-12   0.80955266            0   -2359.3107   -2359.3107    27143.271    19.928116    28.797142    47.298409      720 
     304            0  0.082071477    1.2616699   0.20423284  0.038304598 0.0036769973 -2.6411762e-12 -4.2788815e-12   0.81011925            0   -2359.3107   -2359.3107    27143.256    19.928115    28.797137    47.298395      720 
     305            0 -0.0011156819    1.2667279 -0.0010457025 -0.011162819 0.0088614758 -4.4230529e-12 -6.3157214e-12   0.80779979            0   -2359.3107   -2359.3107    27143.261    19.928126    28.797136    47.298379      720 
     306            0 0.0073905075     1.271785 -0.00012347618  0.020977028 0.0013179707 -3.9882839e-12 -8.706644e-12   0.80639934            0   -2359.3107   -2359.3107     27143.26    19.928126    28.797133    47.298382      720 
     307            0 -0.026266813     1.276849 -0.032557316 -0.0088474802 -0.037395642 -2.2272951e-12 9.4756292e-13   0.80585306            0   -2359.3107   -2359.3107    27143.263    19.928127    28.797134    47.298385      720 
     308            0 0.0032768991    1.2819049  0.071974676 -0.0022201643 -0.059923814 1.7142965e-12 -5.2714975e-12    0.8062098            0   -2359.3107   -2359.3107    27143.261     19.92812    28.797135    47.298394      720 
     309            0 -0.024180959    1.2869608 -0.0011696223 -0.077211941 0.0058386852 3.1979995e-12 -1.4652719e-12   0.80809324            0   -2359.3107   -2359.3107    27143.261    19.928125     28.79714    47.298374      720 
     310            0  0.028585927    1.2920229  0.036073786 0.0055699007  0.044114093 4.4842856e-12 -1.4456123e-12   0.80662681            0   -2359.3107   -2359.3107    27143.257    19.928126    28.797136    47.298374      720 
     311            0 -0.001951259     1.297081 -0.010835259 0.0028141321 0.0021673503 1.087025e-12 -1.8975836e-12    0.8047479            0   -2359.3107   -2359.3107    27143.259    19.928127    28.797134    47.298377      720 
     312            0 0.0072107158     1.302141  0.023680207  0.017390587 -0.019438646 6.8764366e-12 -8.2386992e-13   0.80409113            0   -2359.3107   -2359.3107    27143.259    19.928125    28.797133    47.298383      720 
     313            0 -0.053175515    1.3071959 -0.025265513  -0.06024456 -0.074016473 9.6988499e-13 -2.2637476e-12   0.80448123            0   -2359.3107   -2359.3107    27143.264    19.928125    28.797136    47.298385      720 
     314            0  0.015426937     1.312252  0.086400726 -0.074955338  0.034835421 2.759135e-12 1.4120677e-11   0.80892138            0   -2359.3107   -2359.3107    27143.257    19.928122    28.797143    47.298373      720 
     315            0  -0.01329216    1.3173139 -0.028553205 -0.023654136  0.012330862 1.7116343e-12 -3.358555e-14   0.80360564            0   -2359.3107   -2359.3107    27143.259    19.928129    28.797135    47.298371      720 
     316            0  0.016432507    1.3223701 0.0058158995  0.016023219  0.027458402 1.3628772e-12 -5.9004082e-12   0.80308675            0   -2359.3107   -2359.3107    27143.257    19.928128    28.797133    47.298372      720 
     317            0 -0.0030375773      1.32743 -0.003404297 0.0060430415 -0.011751477 -5.7976033e-13 -4.0261703e-12   0.80214909            0   -2359.3107   -2359.3107    27143.258    19.928128    28.797133    47.298377      720 
     318            0  0.010839004    1.3324869  0.042886618 -0.010743577 0.00037397207 2.6936022e-12 -1.9404258e-11   0.80363803            0   -2359.3107   -2359.3107    27143.257    19.928125    28.797136    47.298377      720 
     319            0 -0.061897113    1.3375509 -0.030596883  -0.10236618 -0.052728282 1.3536613e-12 -6.8172514e-12   0.80383514            0   -2359.3107   -2359.3107    27143.263    19.928126    28.797139    47.298377      720 
     320            0  0.010876335     1.342608 -0.0014360478 -0.031942771  0.066007825 3.4144631e-12 -1.3779702e-11   0.80234252            0   -2359.3107   -2359.3107    27143.256    19.928129    28.797137    47.298362      720 
     321            0 -0.011543547    1.3476639 -0.029399009 -0.00068820582 -0.0045434255 -1.087025e-12 -5.2590059e-12   0.79814919            0   -2359.3107   -2359.3107    27143.258     19.92813    28.797132    47.298372      720 
     322            0   0.01227856    1.3527288 0.0044945323  0.022330791  0.010010358 -9.3384223e-14 -3.1885797e-12   0.79818256            0   -2359.3107   -2359.3107    27143.256    19.928128    28.797132    47.298372      720 
     323            0 -0.003064963    1.3577828 0.0074237478 -0.0060290344 -0.010589602 4.6528277e-13 -5.8580166e-12   0.79856537            0   -2359.3107   -2359.3107    27143.257    19.928127    28.797134    47.298374      720 
     324            0  0.035497797    1.3628449  0.055485964 -0.017624269  0.068631694 -4.4732275e-12 -1.1287409e-11   0.80050307            0   -2359.3107   -2359.3107    27143.254    19.928126    28.797137    47.298364      720 
     325            0 -0.051799478     1.367902  -0.05107175   -0.1135842 0.0092575123 3.905344e-13 -1.2207528e-11   0.79878052            0   -2359.3107   -2359.3107     27143.26    19.928129     28.79714    47.298363      720 
     326            0 0.0079246882    1.3729649 -0.035456466  0.018896562  0.040333969 3.4814295e-13 -1.0835847e-11   0.79051463            0   -2359.3107   -2359.3107    27143.255    19.928132    28.797131    47.298364      720 
     327            0  -0.01138535     1.378021 -0.013876637 -0.0031770185 -0.017102393 1.7542308e-12 -1.6688948e-11   0.78905429            0   -2359.3107   -2359.3107    27143.257    19.928129    28.797132    47.298373      720 
     328            0  0.008177301    1.3830769  0.011446955  0.012542421 0.00054252685 2.0808709e-12 -2.0140274e-11   0.78928186            0   -2359.3107   -2359.3107    27143.255    19.928128    28.797132    47.298372      720 
[...]
    1033            0 4.8812661e-07  0.059501886 1.1989117e-06 3.8835804e-07 -1.228899e-07   0.14457843 -3.9308147e-05 -3.6397728e-11            0   -2359.3107   -2359.3107    27143.257    19.928124    28.797139    47.298373      720 
    1034            0 5.0084165e-07   0.06447196 1.2087898e-06 3.9742675e-07 -1.0369158e-07   0.14457771 1.5775387e-06 -2.1875921e-09            0   -2359.3107   -2359.3107    27143.257    19.928124    28.797139    47.298373      720 
    1035            0 4.9597935e-07  0.069432974 1.2061273e-06 3.9546557e-07 -1.1365485e-07   0.14457768 -9.6267804e-07 1.3663401e-09            0   -2359.3107   -2359.3107    27143.257    19.928124    28.797139    47.298373      720 
    1036            0 5.0879032e-07  0.074390888 1.2148153e-06 4.0376005e-07 -9.2204425e-08   0.14457768 -4.9193194e-07 -2.5057411e-09            0   -2359.3107   -2359.3107    27143.257    19.928124    28.797139    47.298373      720 
    1037            0 5.095384e-07  0.079345942 1.2160904e-06 4.0502306e-07 -9.2498209e-08   0.14457768 4.7570494e-09 -1.0603758e-09            0   -2359.3107   -2359.3107    27143.257    19.928124    28.797139    47.298373      720 
    1038            0 5.1212875e-07  0.084308863 1.2182615e-06 4.0733677e-07 -8.9211982e-08   0.14457768 3.1274825e-10 -6.3476837e-10            0   -2359.3107   -2359.3107    27143.257    19.928124    28.797139    47.298373      720 
    1039            0 5.1468168e-07  0.091685057 1.2202176e-06 4.0914509e-07 -8.5317657e-08   0.14457768 6.2463598e-11 -9.6697003e-10            0   -2359.3107   -2359.3107    27143.257    19.928124    28.797139    47.298373      720 
Loop time of 0.091702 on 1 procs for 18 steps with 720 atoms

96.0% CPU use with 1 MPI tasks x no OpenMP threads

Minimization stats:
  Stopping criterion = force tolerance
  Energy initial, next-to-last, final = 
        -2359.31070705     -2359.31070705     -2359.31070705
  Force two-norm initial, final = 1.76853e-05 2.56187e-11
  Force max component initial, final = 2.26793e-06 2.27097e-12
  Final line search alpha, max atom move = 1 2.27097e-12
  Iterations, force evaluations = 18 36

MPI task timing breakdown:
Section |  min time  |  avg time  |  max time  |%varavg| %total
---------------------------------------------------------------
Pair    | 0.090228   | 0.090228   | 0.090228   |   0.0 | 98.39
Neigh   | 0          | 0          | 0          |   0.0 |  0.00
Comm    | 0.00031805 | 0.00031805 | 0.00031805 |   0.0 |  0.35
Output  | 0.00047874 | 0.00047874 | 0.00047874 |   0.0 |  0.52
Modify  | 0          | 0          | 0          |   0.0 |  0.00
Other   |            | 0.0006776  |            |       |  0.74

Nlocal:    720 ave 720 max 720 min
Histogram: 1 0 0 0 0 0 0 0 0 0
Nghost:    1168 ave 1168 max 1168 min
Histogram: 1 0 0 0 0 0 0 0 0 0
Neighs:    40960 ave 40960 max 40960 min
Histogram: 1 0 0 0 0 0 0 0 0 0

Total # of neighbors = 40960
Ave neighs/atom = 56.8889
Neighbor list builds = 0
Dangerous builds = 0

# Obtain new stress tensor

variable tmp equal pxx
variable pxx1 equal ${tmp}
variable pxx1 equal 1.22021761866638e-06
variable tmp equal pyy
variable pyy1 equal ${tmp}
variable pyy1 equal 4.09145089510231e-07
variable tmp equal pzz
variable pzz1 equal ${tmp}
variable pzz1 equal -8.53176569354213e-08
variable tmp equal pxy
variable pxy1 equal ${tmp}
variable pxy1 equal 0.144577681252622
variable tmp equal pxz
variable pxz1 equal ${tmp}
variable pxz1 equal 6.24635978858617e-11
variable tmp equal pyz
variable pyz1 equal ${tmp}
variable pyz1 equal -9.66970031675816e-10

# Compute elastic constant from pressure tensor

variable C1neg equal ${d1}
variable C1neg equal 3.76791344714866e-05
variable C2neg equal ${d2}
variable C2neg equal 7.61034940622713e-05
variable C3neg equal ${d3}
variable C3neg equal 0.000105780253950744
variable C4neg equal ${d4}
variable C4neg equal -0.00611637689256315
variable C5neg equal ${d5}
variable C5neg equal 4.85778151334844e-09
variable C6neg equal ${d6}
variable C6neg equal 14.4577681246865

# Reset box and simulation parameters

clear
box tilt large
read_restart restart.equil
  triclinic box = (0.160938 0.203913 -0.0605607) to (20.0891 29.0011 47.2378) with tilt (0 0 0)
  1 by 1 by 1 MPI processor grid
  720 atoms
include potential.mod
pair_style eam/alloy
pair_coeff * * /users/knc6/Software/jarvis/jarvis/lammps/examples/Al03.eam.alloy  Al
neighbor 1.0 nsq
neigh_modify once no every 1 delay 0 check yes
min_style  cg
min_modify           dmax ${dmax} line quadratic
min_modify           dmax 0.01 line quadratic
thermo          1
thermo_style custom step temp press cpu pxx pyy pzz pxy pxz pyz ke pe etotal vol lx ly lz atoms
thermo_modify norm no

# Positive deformation

variable delta equal ${up}*${len0}
variable delta equal 1e-06*${len0}
variable delta equal 1e-06*28.797138632992
if "${dir} == 1" then    "change_box all x delta 0 ${delta} remap units box"
if "${dir} == 2" then    "change_box all y delta 0 ${delta} remap units box"
if "${dir} == 3" then    "change_box all z delta 0 ${delta} remap units box"
if "${dir} == 4" then    "change_box all yz delta ${delta} remap units box"
if "${dir} == 5" then    "change_box all xz delta ${delta} remap units box"
if "${dir} == 6" then    "change_box all xy delta ${delta} remap units box"
change_box all xy delta ${delta} remap units box
change_box all xy delta 2.8797138632992e-05 remap units box
  triclinic box = (0.160938 0.203913 -0.0605607) to (20.0891 29.0011 47.2378) with tilt (2.87971e-05 0 0)

# Relax atoms positions

minimize ${etol} ${ftol} ${maxiter} ${maxeval}
minimize 0 ${ftol} ${maxiter} ${maxeval}
minimize 0 1e-10 ${maxiter} ${maxeval}
minimize 0 1e-10 1000 ${maxeval}
minimize 0 1e-10 1000 10000
Neighbor list info ...
  1 neighbor list requests
  update every 1 steps, delay 0 steps, check yes
  max neighbors/atom: 2000, page size: 100000
  master list distance cutoff = 7.72488
  ghost atom cutoff = 7.72488
Memory usage per processor = 3.35569 Mbytes
Step Temp Press CPU Pxx Pyy Pzz Pxy Pxz Pyz KinEng PotEng TotEng Volume Lx Ly Lz Atoms 
    1021            0 6.8910928e-07            0 1.3677863e-06 5.3031979e-07 1.6922178e-07  -0.14866417 -0.0063913713 6.0347163e-08            0   -2359.3107   -2359.3107    27143.257    19.928124    28.797139    47.298373      720 
    1022            0 6.792272e-07 0.0049540997 1.3605612e-06 5.2631796e-07 1.5080246e-07  -0.14549602 -0.0047868176 5.4830711e-08            0   -2359.3107   -2359.3107    27143.257    19.928124    28.797139    47.298373      720 
    1023            0 6.7587977e-07  0.009912014 1.3599695e-06 5.2350044e-07 1.4416933e-07  -0.14483978 -0.0043784984 5.4781463e-08            0   -2359.3107   -2359.3107    27143.257    19.928124    28.797139    47.298373      720 
    1024            0 6.6804329e-07  0.014869213 1.3513474e-06 5.1874832e-07 1.3403416e-07  -0.14472557 -0.0039978971 5.1264868e-08            0   -2359.3107   -2359.3107    27143.257    19.928124    28.797139    47.298373      720 
    1025            0 6.580195e-07  0.019834042 1.341138e-06 5.1511679e-07 1.1780375e-07  -0.14468509 -0.0036838834 4.7444589e-08            0   -2359.3107   -2359.3107    27143.257    19.928124    28.797139    47.298373      720 
    1026            0 6.5208399e-07  0.024793148 1.3352879e-06 5.123358e-07 1.086283e-07  -0.14467149 -0.003458632 4.5424028e-08            0   -2359.3107   -2359.3107    27143.257    19.928124    28.797139    47.298373      720 
    1027            0 6.3796853e-07  0.029753208 1.3219324e-06 5.0405086e-07 8.7922343e-08   -0.1446612 -0.0032131974 4.1462482e-08            0   -2359.3107   -2359.3107    27143.257    19.928124    28.797139    47.298373      720 
    1028            0 6.1917907e-07  0.034708977 1.3054608e-06 4.9160757e-07 6.046887e-08  -0.14465097 -0.0028044393 3.5598174e-08            0   -2359.3107   -2359.3107    27143.257    19.928124    28.797139    47.298373      720 
    1029            0 5.6124827e-07   0.03967309 1.2562889e-06 4.4953877e-07 -2.2082845e-08  -0.14462427 -0.0017129823 2.1339878e-08            0   -2359.3107   -2359.3107    27143.257    19.928124    28.797139    47.298373      720 
    1030            0 5.2387713e-07  0.044631004 1.2245197e-06 4.2090031e-07 -7.3788638e-08  -0.14460695 -0.00091728829 1.1079443e-08            0   -2359.3107   -2359.3107    27143.257    19.928124    28.797139    47.298373      720 
    1031            0 4.9437105e-07  0.049589157 1.2021149e-06 3.9732504e-07 -1.163268e-07  -0.14459198 -0.00024521336 4.5082657e-09            0   -2359.3107   -2359.3107    27143.257    19.928124    28.797139    47.298373      720 
    1032            0 4.9153678e-07  0.054553032 1.2006188e-06 3.9266378e-07 -1.1867228e-07  -0.14458541 4.6907702e-05 6.0189999e-10            0   -2359.3107   -2359.3107    27143.257    19.928124    28.797139    47.298373      720 
    1033            0 4.881848e-07  0.059513092 1.1989589e-06 3.8838869e-07 -1.2279314e-07  -0.14457843 3.9308148e-05 -5.9065313e-11            0   -2359.3107   -2359.3107    27143.257    19.928124    28.797139    47.298373      720 
    1034            0 5.0073198e-07  0.064474106 1.2087203e-06 3.9736302e-07 -1.0388737e-07  -0.14457771 -1.57758e-06 -2.1433826e-09            0   -2359.3107   -2359.3107    27143.257    19.928124    28.797139    47.298373      720 
    1035            0 4.9611609e-07  0.069431067 1.2062124e-06 3.9554181e-07 -1.1340591e-07  -0.14457768 9.6286095e-07 1.3171072e-09            0   -2359.3107   -2359.3107    27143.257    19.928124    28.797139    47.298373      720 
    1036            0 5.0872333e-07  0.074390173 1.2147746e-06 4.037135e-07 -9.2318079e-08  -0.14457768 4.9106232e-07 -2.472707e-09            0   -2359.3107   -2359.3107    27143.257    19.928124    28.797139    47.298373      720 
    1037            0 5.0952566e-07   0.07935214 1.2160807e-06 4.0502338e-07 -9.2527109e-08  -0.14457768 -4.775913e-09 -1.0620792e-09            0   -2359.3107   -2359.3107    27143.257    19.928124    28.797139    47.298373      720 
    1038            0 5.121369e-07  0.084311008 1.2182604e-06 4.0733893e-07 -8.9188639e-08  -0.14457768 -3.2637887e-10 -6.3849084e-10            0   -2359.3107   -2359.3107    27143.257    19.928124    28.797139    47.298373      720 
    1039            0 5.1465952e-07   0.09169817 1.2201975e-06 4.0913072e-07 -8.5349702e-08  -0.14457768 -8.5524994e-11 -9.6251032e-10            0   -2359.3107   -2359.3107    27143.257    19.928124    28.797139    47.298373      720 
Loop time of 0.0917151 on 1 procs for 18 steps with 720 atoms

95.9% CPU use with 1 MPI tasks x no OpenMP threads

Minimization stats:
  Stopping criterion = force tolerance
  Energy initial, next-to-last, final = 
        -2359.31070705     -2359.31070705     -2359.31070705
  Force two-norm initial, final = 1.76853e-05 2.56328e-11
  Force max component initial, final = 2.26793e-06 2.19127e-12
  Final line search alpha, max atom move = 1 2.19127e-12
  Iterations, force evaluations = 18 36

MPI task timing breakdown:
Section |  min time  |  avg time  |  max time  |%varavg| %total
---------------------------------------------------------------
Pair    | 0.090249   | 0.090249   | 0.090249   |   0.0 | 98.40
Neigh   | 0          | 0          | 0          |   0.0 |  0.00
Comm    | 0.00032306 | 0.00032306 | 0.00032306 |   0.0 |  0.35
Output  | 0.00046802 | 0.00046802 | 0.00046802 |   0.0 |  0.51
Modify  | 0          | 0          | 0          |   0.0 |  0.00
Other   |            | 0.0006754  |            |       |  0.74

Nlocal:    720 ave 720 max 720 min
Histogram: 1 0 0 0 0 0 0 0 0 0
Nghost:    1168 ave 1168 max 1168 min
Histogram: 1 0 0 0 0 0 0 0 0 0
Neighs:    40960 ave 40960 max 40960 min
Histogram: 1 0 0 0 0 0 0 0 0 0

Total # of neighbors = 40960
Ave neighs/atom = 56.8889
Neighbor list builds = 0
Dangerous builds = 0

# Obtain new stress tensor

variable tmp equal pe
variable e1 equal ${tmp}
variable e1 equal -2359.31070705021
variable tmp equal press
variable p1 equal ${tmp}
variable p1 equal 5.1465951714604e-07
variable tmp equal pxx
variable pxx1 equal ${tmp}
variable pxx1 equal 1.22019753778276e-06
variable tmp equal pyy
variable pyy1 equal ${tmp}
variable pyy1 equal 4.09130716122601e-07
variable tmp equal pzz
variable pzz1 equal ${tmp}
variable pzz1 equal -8.53497024672418e-08
variable tmp equal pxy
variable pxy1 equal ${tmp}
variable pxy1 equal -0.144577681254764
variable tmp equal pxz
variable pxz1 equal ${tmp}
variable pxz1 equal -8.55249944752755e-11
variable tmp equal pyz
variable pyz1 equal ${tmp}
variable pyz1 equal -9.625103208728e-10

# Compute elastic constant from pressure tensor

variable C1pos equal ${d1}
variable C1pos equal -3.76771263831246e-05
variable C2pos equal ${d2}
variable C2pos equal -7.61020567235083e-05
variable C3pos equal ${d3}
variable C3pos equal -0.000105777049397562
variable C4pos equal ${d4}
variable C4pos equal 0.00611637644659207
variable C5pos equal ${d5}
variable C5pos equal 9.94107772276528e-09
variable C6pos equal ${d6}
variable C6pos equal 14.4577681260521

# Combine positive and negative

variable C1${dir} equal 0.5*(${C1neg}+${C1pos})
variable C16 equal 0.5*(${C1neg}+${C1pos})
variable C16 equal 0.5*(3.76791344714866e-05+${C1pos})
variable C16 equal 0.5*(3.76791344714866e-05+-3.76771263831246e-05)
variable C2${dir} equal 0.5*(${C2neg}+${C2pos})
variable C26 equal 0.5*(${C2neg}+${C2pos})
variable C26 equal 0.5*(7.61034940622713e-05+${C2pos})
variable C26 equal 0.5*(7.61034940622713e-05+-7.61020567235083e-05)
variable C3${dir} equal 0.5*(${C3neg}+${C3pos})
variable C36 equal 0.5*(${C3neg}+${C3pos})
variable C36 equal 0.5*(0.000105780253950744+${C3pos})
variable C36 equal 0.5*(0.000105780253950744+-0.000105777049397562)
variable C4${dir} equal 0.5*(${C4neg}+${C4pos})
variable C46 equal 0.5*(${C4neg}+${C4pos})
variable C46 equal 0.5*(-0.00611637689256315+${C4pos})
variable C46 equal 0.5*(-0.00611637689256315+0.00611637644659207)
variable C5${dir} equal 0.5*(${C5neg}+${C5pos})
variable C56 equal 0.5*(${C5neg}+${C5pos})
variable C56 equal 0.5*(4.85778151334844e-09+${C5pos})
variable C56 equal 0.5*(4.85778151334844e-09+9.94107772276528e-09)
variable C6${dir} equal 0.5*(${C6neg}+${C6pos})
variable C66 equal 0.5*(${C6neg}+${C6pos})
variable C66 equal 0.5*(14.4577681246865+${C6pos})
variable C66 equal 0.5*(14.4577681246865+14.4577681260521)

# Delete dir to make sure it is not reused

variable dir delete

# Output final values

variable C11all equal ${C11}
variable C11all equal 37.3457664204212
variable C22all equal ${C22}
variable C22all equal 42.9663647037476
variable C33all equal ${C33}
variable C33all equal -1.12767262922099e-06

variable C12all equal 0.5*(${C12}+${C21})
variable C12all equal 0.5*(14.0133315890059+${C21})
variable C12all equal 0.5*(14.0133315890059+14.0133326341921)
variable C13all equal 0.5*(${C13}+${C31})
variable C13all equal 0.5*(-3.22821175272002e-07+${C31})
variable C13all equal 0.5*(-3.22821175272002e-07+-3.60208097850004e-07)
variable C23all equal 0.5*(${C23}+${C32})
variable C23all equal 0.5*(-1.39957193009295e-06+${C32})
variable C23all equal 0.5*(-1.39957193009295e-06+5.19273690949989e-08)

variable C44all equal ${C44}
variable C44all equal 1.02363848345204e-07
variable C55all equal ${C55}
variable C55all equal -1.15156144907304e-07
variable C66all equal ${C66}
variable C66all equal 14.4577681253693

variable C14all equal 0.5*(${C14}+${C41})
variable C14all equal 0.5*(-7.541147337275e-07+${C41})
variable C14all equal 0.5*(-7.541147337275e-07+-3.58527121149897e-07)
variable C15all equal 0.5*(${C15}+${C51})
variable C15all equal 0.5*(-3.27377218594975e-10+${C51})
variable C15all equal 0.5*(-3.27377218594975e-10+-4.38380174054351e-10)
variable C16all equal 0.5*(${C16}+${C61})
variable C16all equal 0.5*(1.00404418100112e-09+${C61})
variable C16all equal 0.5*(1.00404418100112e-09+-2.8040543104302e-10)

variable C24all equal 0.5*(${C24}+${C42})
variable C24all equal 0.5*(-7.28123612072493e-08+${C42})
variable C24all equal 0.5*(-7.28123612072493e-08+-1.51021809969946e-07)
variable C25all equal 0.5*(${C25}+${C52})
variable C25all equal 0.5*(2.64383829024916e-11+${C52})
variable C25all equal 0.5*(2.64383829024916e-11+-3.21084384641175e-10)
variable C26all equal 0.5*(${C26}+${C62})
variable C26all equal 0.5*(7.18669381505875e-10+${C62})
variable C26all equal 0.5*(7.18669381505875e-10+-1.2780342744885e-11)

variable C34all equal 0.5*(${C34}+${C43})
variable C34all equal 0.5*(-1.211737891329e-06+${C43})
variable C34all equal 0.5*(-1.211737891329e-06+-3.91391333700447e-08)
variable C35all equal 0.5*(${C35}+${C53})
variable C35all equal 0.5*(-1.13797680995195e-09+${C53})
variable C35all equal 0.5*(-1.13797680995195e-09+5.6905753325585e-10)
variable C36all equal 0.5*(${C36}+${C63})
variable C36all equal 0.5*(1.60227659100147e-09+${C63})
variable C36all equal 0.5*(1.60227659100147e-09+1.7146649469905e-10)

variable C45all equal 0.5*(${C45}+${C54})
variable C45all equal 0.5*(-8.6636389902417e-11+${C54})
variable C45all equal 0.5*(-8.6636389902417e-11+-5.25357905520401e-10)
variable C46all equal 0.5*(${C46}+${C64})
variable C46all equal 0.5*(-2.22985539755083e-10+${C64})
variable C46all equal 0.5*(-2.22985539755083e-10+6.99357688951496e-11)
variable C56all equal 0.5*(${C56}+${C65})
variable C56all equal 0.5*(7.39942961805686e-09+${C65})
variable C56all equal 0.5*(7.39942961805686e-09+-1.34085607252721e-07)

# For Stillinger-Weber silicon, the analytical results
# are known to be (E. R. Cowley, 1988):
#               C11 = 151.4 GPa
#               C12 = 76.4 GPa
#               C44 = 56.4 GPa

print "Elastic Constant C11all = ${C11all} ${cunits}"
Elastic Constant C11all = 37.3457664204212 GPa
print "Elastic Constant C22all = ${C22all} ${cunits}"
Elastic Constant C22all = 42.9663647037476 GPa
print "Elastic Constant C33all = ${C33all} ${cunits}"
Elastic Constant C33all = -1.12767262922099e-06 GPa

print "Elastic Constant C12all = ${C12all} ${cunits}"
Elastic Constant C12all = 14.013332111599 GPa
print "Elastic Constant C13all = ${C13all} ${cunits}"
Elastic Constant C13all = -3.41514636561003e-07 GPa
print "Elastic Constant C23all = ${C23all} ${cunits}"
Elastic Constant C23all = -6.73822280498976e-07 GPa

print "Elastic Constant C44all = ${C44all} ${cunits}"
Elastic Constant C44all = 1.02363848345204e-07 GPa
print "Elastic Constant C55all = ${C55all} ${cunits}"
Elastic Constant C55all = -1.15156144907304e-07 GPa
print "Elastic Constant C66all = ${C66all} ${cunits}"
Elastic Constant C66all = 14.4577681253693 GPa

print "Elastic Constant C14all = ${C14all} ${cunits}"
Elastic Constant C14all = -5.56320927438698e-07 GPa
print "Elastic Constant C15all = ${C15all} ${cunits}"
Elastic Constant C15all = -3.82878696324663e-10 GPa
print "Elastic Constant C16all = ${C16all} ${cunits}"
Elastic Constant C16all = 3.6181937497905e-10 GPa

print "Elastic Constant C24all = ${C24all} ${cunits}"
Elastic Constant C24all = -1.11917085588598e-07 GPa
print "Elastic Constant C25all = ${C25all} ${cunits}"
Elastic Constant C25all = -1.47323000869342e-10 GPa
print "Elastic Constant C26all = ${C26all} ${cunits}"
Elastic Constant C26all = 3.52944519380495e-10 GPa

print "Elastic Constant C34all = ${C34all} ${cunits}"
Elastic Constant C34all = -6.25438512349522e-07 GPa
print "Elastic Constant C35all = ${C35all} ${cunits}"
Elastic Constant C35all = -2.8445963834805e-10 GPa
print "Elastic Constant C36all = ${C36all} ${cunits}"
Elastic Constant C36all = 8.8687154285026e-10 GPa

print "Elastic Constant C45all = ${C45all} ${cunits}"
Elastic Constant C45all = -3.05997147711409e-10 GPa
print "Elastic Constant C46all = ${C46all} ${cunits}"
Elastic Constant C46all = -7.65248854299667e-11 GPa
print "Elastic Constant C56all = ${C56all} ${cunits}"
Elastic Constant C56all = -6.33430888173321e-08 GPa

Total wall time: 0:00:06
