   2   2   0   0
  0.2072484E+02  0.3884592E-09  0.3884592E-09  0.3884592E-09  0.5000000E-15
   1.0000000000000000E-004
  CAR 
 unknown system                          
     30.16620405     -8.19187362  301      5.81114208      1.00000000
     -8.192  0.0000E+00  0.0000E+00
     -8.064  0.0000E+00  0.0000E+00
     -7.936  0.0000E+00  0.0000E+00
     -7.808  0.0000E+00  0.0000E+00
     -7.680  0.0000E+00  0.0000E+00
     -7.553  0.0000E+00  0.0000E+00
     -7.425  0.0000E+00  0.0000E+00
     -7.297  0.1696E-16  0.2168E-17
     -7.169  0.1715E-13  0.2195E-14
     -7.041  0.7998E-11  0.1025E-11
     -6.913  0.1736E-08  0.2230E-09
     -6.785  0.1769E-06  0.2284E-07
     -6.658  0.8563E-05  0.1118E-05
     -6.530  0.2008E-03  0.2679E-04
     -6.402  0.2352E-02  0.3275E-03
     -6.274  0.1443E-01  0.2173E-02
     -6.146  0.4981E-01  0.8541E-02
     -6.018  0.1076E+00  0.2230E-01
     -5.890  0.1677E+00  0.4375E-01
     -5.763  0.2168E+00  0.7147E-01
     -5.635  0.2581E+00  0.1045E+00
     -5.507  0.2927E+00  0.1419E+00
     -5.379  0.3253E+00  0.1835E+00
     -5.251  0.3602E+00  0.2295E+00
     -5.123  0.3836E+00  0.2786E+00
     -4.995  0.4178E+00  0.3320E+00
     -4.868  0.4545E+00  0.3901E+00
     -4.740  0.4709E+00  0.4503E+00
     -4.612  0.5084E+00  0.5153E+00
     -4.484  0.5610E+00  0.5871E+00
     -4.356  0.5795E+00  0.6612E+00
     -4.228  0.6214E+00  0.7406E+00
     -4.100  0.7203E+00  0.8327E+00
     -3.972  0.7847E+00  0.9330E+00
     -3.845  0.8212E+00  0.1038E+01
     -3.717  0.8692E+00  0.1149E+01
     -3.589  0.8410E+00  0.1257E+01
     -3.461  0.7678E+00  0.1355E+01
     -3.333  0.7396E+00  0.1449E+01
     -3.205  0.7002E+00  0.1539E+01
     -3.077  0.6340E+00  0.1620E+01
     -2.950  0.5957E+00  0.1696E+01
     -2.822  0.5489E+00  0.1766E+01
     -2.694  0.4750E+00  0.1827E+01
     -2.566  0.4317E+00  0.1882E+01
     -2.438  0.3734E+00  0.1930E+01
     -2.310  0.2639E+00  0.1964E+01
     -2.182  0.1873E+00  0.1988E+01
     -2.055  0.1683E+00  0.2009E+01
     -1.927  0.1583E+00  0.2029E+01
     -1.799  0.2046E+00  0.2056E+01
     -1.671  0.3353E+00  0.2099E+01
     -1.543  0.4202E+00  0.2152E+01
     -1.415  0.5028E+00  0.2217E+01
     -1.287  0.7767E+00  0.2316E+01
     -1.160  0.1096E+01  0.2456E+01
     -1.032  0.1187E+01  0.2608E+01
     -0.904  0.1062E+01  0.2743E+01
     -0.776  0.8830E+00  0.2856E+01
     -0.648  0.7395E+00  0.2951E+01
     -0.520  0.6498E+00  0.3034E+01
     -0.392  0.5788E+00  0.3108E+01
     -0.265  0.5240E+00  0.3175E+01
     -0.137  0.4918E+00  0.3238E+01
     -0.009  0.4516E+00  0.3296E+01
      0.119  0.4173E+00  0.3349E+01
      0.247  0.3792E+00  0.3397E+01
      0.375  0.3466E+00  0.3442E+01
      0.503  0.3333E+00  0.3484E+01
      0.630  0.3316E+00  0.3527E+01
      0.758  0.2882E+00  0.3564E+01
      0.886  0.2491E+00  0.3595E+01
      1.014  0.2529E+00  0.3628E+01
      1.142  0.2756E+00  0.3663E+01
      1.270  0.4022E+00  0.3714E+01
      1.398  0.6404E+00  0.3796E+01
      1.526  0.8901E+00  0.3910E+01
      1.653  0.1080E+01  0.4048E+01
      1.781  0.1161E+01  0.4197E+01
      1.909  0.1129E+01  0.4341E+01
      2.037  0.1069E+01  0.4478E+01
      2.165  0.1089E+01  0.4617E+01
      2.293  0.1132E+01  0.4762E+01
      2.421  0.1116E+01  0.4904E+01
      2.548  0.1184E+01  0.5056E+01
      2.676  0.1401E+01  0.5235E+01
      2.804  0.1520E+01  0.5429E+01
      2.932  0.1503E+01  0.5621E+01
      3.060  0.1496E+01  0.5813E+01
      3.188  0.1455E+01  0.5999E+01
      3.316  0.1414E+01  0.6179E+01
      3.443  0.1480E+01  0.6369E+01
      3.571  0.1463E+01  0.6556E+01
      3.699  0.1308E+01  0.6723E+01
      3.827  0.1239E+01  0.6881E+01
      3.955  0.1274E+01  0.7044E+01
      4.083  0.1266E+01  0.7206E+01
      4.211  0.1188E+01  0.7358E+01
      4.338  0.1074E+01  0.7495E+01
      4.466  0.9153E+00  0.7612E+01
      4.594  0.7342E+00  0.7706E+01
      4.722  0.5730E+00  0.7780E+01
      4.850  0.4674E+00  0.7839E+01
      4.978  0.4078E+00  0.7892E+01
      5.106  0.3387E+00  0.7935E+01
      5.233  0.2405E+00  0.7966E+01
      5.361  0.1503E+00  0.7985E+01
      5.489  0.8011E-01  0.7995E+01
      5.617  0.3075E-01  0.7999E+01
      5.745  0.7093E-02  0.8000E+01
      5.873  0.1608E-02  0.8000E+01
      6.001  0.6336E-02  0.8001E+01
      6.128  0.3007E-01  0.8005E+01
      6.256  0.8869E-01  0.8016E+01
      6.384  0.1763E+00  0.8039E+01
      6.512  0.2760E+00  0.8074E+01
      6.640  0.3896E+00  0.8124E+01
      6.768  0.4954E+00  0.8187E+01
      6.896  0.5753E+00  0.8261E+01
      7.023  0.6534E+00  0.8344E+01
      7.151  0.7158E+00  0.8436E+01
      7.279  0.8159E+00  0.8540E+01
      7.407  0.1032E+01  0.8672E+01
      7.535  0.1255E+01  0.8832E+01
      7.663  0.1439E+01  0.9016E+01
      7.791  0.1597E+01  0.9221E+01
      7.919  0.1609E+01  0.9426E+01
      8.046  0.1446E+01  0.9611E+01
      8.174  0.1243E+01  0.9770E+01
      8.302  0.1143E+01  0.9916E+01
      8.430  0.1150E+01  0.1006E+02
      8.558  0.1213E+01  0.1022E+02
      8.686  0.1444E+01  0.1040E+02
      8.814  0.1835E+01  0.1064E+02
      8.941  0.2017E+01  0.1090E+02
      9.069  0.1910E+01  0.1114E+02
      9.197  0.1733E+01  0.1136E+02
      9.325  0.1566E+01  0.1156E+02
      9.453  0.1384E+01  0.1174E+02
      9.581  0.1289E+01  0.1190E+02
      9.709  0.1357E+01  0.1208E+02
      9.836  0.1394E+01  0.1225E+02
      9.964  0.1325E+01  0.1242E+02
     10.092  0.1292E+01  0.1259E+02
     10.220  0.1338E+01  0.1276E+02
     10.348  0.1388E+01  0.1294E+02
     10.476  0.1378E+01  0.1311E+02
     10.604  0.1258E+01  0.1328E+02
     10.731  0.1059E+01  0.1341E+02
     10.859  0.9244E+00  0.1353E+02
     10.987  0.9535E+00  0.1365E+02
     11.115  0.1178E+01  0.1380E+02
     11.243  0.1415E+01  0.1398E+02
     11.371  0.1441E+01  0.1417E+02
     11.499  0.1283E+01  0.1433E+02
     11.626  0.1034E+01  0.1446E+02
     11.754  0.8368E+00  0.1457E+02
     11.882  0.8088E+00  0.1467E+02
     12.010  0.8908E+00  0.1479E+02
     12.138  0.1020E+01  0.1492E+02
     12.266  0.1210E+01  0.1507E+02
     12.394  0.1485E+01  0.1526E+02
     12.521  0.1669E+01  0.1548E+02
     12.649  0.1471E+01  0.1566E+02
     12.777  0.1099E+01  0.1580E+02
     12.905  0.9416E+00  0.1592E+02
     13.033  0.1036E+01  0.1606E+02
     13.161  0.1131E+01  0.1620E+02
     13.289  0.1131E+01  0.1635E+02
     13.417  0.1154E+01  0.1649E+02
     13.544  0.1333E+01  0.1666E+02
     13.672  0.1574E+01  0.1687E+02
     13.800  0.1535E+01  0.1706E+02
     13.928  0.1270E+01  0.1722E+02
     14.056  0.1098E+01  0.1736E+02
     14.184  0.1089E+01  0.1750E+02
     14.312  0.1143E+01  0.1765E+02
     14.439  0.1211E+01  0.1780E+02
     14.567  0.1305E+01  0.1797E+02
     14.695  0.1417E+01  0.1815E+02
     14.823  0.1528E+01  0.1835E+02
     14.951  0.1541E+01  0.1855E+02
     15.079  0.1415E+01  0.1873E+02
     15.207  0.1350E+01  0.1890E+02
     15.334  0.1434E+01  0.1908E+02
     15.462  0.1439E+01  0.1927E+02
     15.590  0.1214E+01  0.1942E+02
     15.718  0.1028E+01  0.1955E+02
     15.846  0.1144E+01  0.1970E+02
     15.974  0.1283E+01  0.1986E+02
     16.102  0.1270E+01  0.2003E+02
     16.229  0.1287E+01  0.2019E+02
     16.357  0.1294E+01  0.2036E+02
     16.485  0.1292E+01  0.2052E+02
     16.613  0.1389E+01  0.2070E+02
     16.741  0.1439E+01  0.2088E+02
     16.869  0.1286E+01  0.2105E+02
     16.997  0.1073E+01  0.2118E+02
     17.124  0.1018E+01  0.2131E+02
     17.252  0.1187E+01  0.2147E+02
     17.380  0.1501E+01  0.2166E+02
     17.508  0.1724E+01  0.2188E+02
     17.636  0.1772E+01  0.2210E+02
     17.764  0.1710E+01  0.2232E+02
     17.892  0.1633E+01  0.2253E+02
     18.019  0.1676E+01  0.2275E+02
     18.147  0.1726E+01  0.2297E+02
     18.275  0.1590E+01  0.2317E+02
     18.403  0.1414E+01  0.2335E+02
     18.531  0.1387E+01  0.2353E+02
     18.659  0.1436E+01  0.2371E+02
     18.787  0.1469E+01  0.2390E+02
     18.915  0.1490E+01  0.2409E+02
     19.042  0.1621E+01  0.2430E+02
     19.170  0.1920E+01  0.2454E+02
     19.298  0.2068E+01  0.2481E+02
     19.426  0.1938E+01  0.2506E+02
     19.554  0.1723E+01  0.2528E+02
     19.682  0.1502E+01  0.2547E+02
     19.810  0.1353E+01  0.2564E+02
     19.937  0.1311E+01  0.2581E+02
     20.065  0.1292E+01  0.2597E+02
     20.193  0.1320E+01  0.2614E+02
     20.321  0.1388E+01  0.2632E+02
     20.449  0.1514E+01  0.2651E+02
     20.577  0.1665E+01  0.2673E+02
     20.705  0.1736E+01  0.2695E+02
     20.832  0.1668E+01  0.2716E+02
     20.960  0.1472E+01  0.2735E+02
     21.088  0.1297E+01  0.2752E+02
     21.216  0.1293E+01  0.2768E+02
     21.344  0.1400E+01  0.2786E+02
     21.472  0.1440E+01  0.2804E+02
     21.600  0.1352E+01  0.2822E+02
     21.727  0.1305E+01  0.2838E+02
     21.855  0.1463E+01  0.2857E+02
     21.983  0.1695E+01  0.2879E+02
     22.111  0.1672E+01  0.2900E+02
     22.239  0.1424E+01  0.2918E+02
     22.367  0.1318E+01  0.2935E+02
     22.495  0.1413E+01  0.2953E+02
     22.622  0.1547E+01  0.2973E+02
     22.750  0.1717E+01  0.2995E+02
     22.878  0.1901E+01  0.3019E+02
     23.006  0.1868E+01  0.3043E+02
     23.134  0.1591E+01  0.3064E+02
     23.262  0.1384E+01  0.3081E+02
     23.390  0.1409E+01  0.3099E+02
     23.517  0.1483E+01  0.3118E+02
     23.645  0.1357E+01  0.3136E+02
     23.773  0.1029E+01  0.3149E+02
     23.901  0.7379E+00  0.3158E+02
     24.029  0.5816E+00  0.3166E+02
     24.157  0.4428E+00  0.3171E+02
     24.285  0.3481E+00  0.3176E+02
     24.412  0.3662E+00  0.3180E+02
     24.540  0.3579E+00  0.3185E+02
     24.668  0.2492E+00  0.3188E+02
     24.796  0.1602E+00  0.3190E+02
     24.924  0.1254E+00  0.3192E+02
     25.052  0.9386E-01  0.3193E+02
     25.180  0.8617E-01  0.3194E+02
     25.308  0.9754E-01  0.3195E+02
     25.435  0.7790E-01  0.3196E+02
     25.563  0.3697E-01  0.3197E+02
     25.691  0.1513E-01  0.3197E+02
     25.819  0.1173E-01  0.3197E+02
     25.947  0.2249E-01  0.3197E+02
     26.075  0.4542E-01  0.3198E+02
     26.203  0.5301E-01  0.3199E+02
     26.330  0.3294E-01  0.3199E+02
     26.458  0.1066E-01  0.3199E+02
     26.586  0.1738E-02  0.3199E+02
     26.714  0.1388E-03  0.3199E+02
     26.842  0.4049E-04  0.3199E+02
     26.970  0.4339E-03  0.3199E+02
     27.098  0.2468E-02  0.3199E+02
     27.225  0.6726E-02  0.3199E+02
     27.353  0.1002E-01  0.3200E+02
     27.481  0.1154E-01  0.3200E+02
     27.609  0.1183E-01  0.3200E+02
     27.737  0.7593E-02  0.3200E+02
     27.865  0.2488E-02  0.3200E+02
     27.993  0.7212E-03  0.3200E+02
     28.120  0.1031E-02  0.3200E+02
     28.248  0.1322E-02  0.3200E+02
     28.376  0.8095E-03  0.3200E+02
     28.504  0.2305E-03  0.3200E+02
     28.632  0.3039E-04  0.3200E+02
     28.760  0.1842E-05  0.3200E+02
     28.888  0.5101E-07  0.3200E+02
     29.015  0.6413E-09  0.3200E+02
     29.143  0.3640E-11  0.3200E+02
     29.271  0.9292E-14  0.3200E+02
     29.399  0.1060E-16  0.3200E+02
     29.527  0.0000E+00  0.3200E+02
     29.655  0.0000E+00  0.3200E+02
     29.783  0.0000E+00  0.3200E+02
     29.910  0.0000E+00  0.3200E+02
     30.038  0.0000E+00  0.3200E+02
     30.166  0.0000E+00  0.3200E+02
