    2    2    1    1
  0.2072484E+02  0.3884592E-09  0.3884592E-09  0.3884592E-09  0.5000000E-15
   1.0000000000000000E-004
  CAR 
 unknown system                          
      8    145     16

  0.3742002E-15  0.3742002E-15  0.3742002E-15  0.2441406E-03
    1       -6.191874   1.000000
    2        5.458887   0.993628
    3        5.458887   0.993628
    4        5.458887   0.993628
    5        8.074148   0.000000
    6        8.074148   0.000000
    7        8.074148   0.000000
    8        8.529727   0.000000
    9       13.214014   0.000000
   10       13.214014   0.000000
   11       13.348499   0.000000
   12       16.655514   0.000000
   13       16.655514   0.000000
   14       16.655514   0.000000
   15       20.750607   0.000000
   16       28.166204   0.000000

  0.6250000E-01  0.3747003E-15  0.3747003E-15  0.1953125E-02
    1       -6.142246   1.000000
    2        4.940611   1.000000
    3        5.380133   0.998847
    4        5.380134   0.998847
    5        8.095638   0.000000
    6        8.191249   0.000000
    7        8.191249   0.000000
    8        8.942316   0.000000
    9       13.054356   0.000000
   10       13.054356   0.000000
   11       13.564681   0.000000
   12       16.465918   0.000000
   13       16.977349   0.000000
   14       16.977349   0.000000
   15       21.092140   0.000000
   16       27.549020   0.000000

  0.1250000E+00  0.3816392E-15  0.3816392E-15  0.1953125E-02
    1       -5.994192   1.000000
    2        3.901297   1.000000
    3        5.187652   0.999995
    4        5.187652   0.999995
    5        7.929115   0.000000
    6        8.477750   0.000000
    7        8.477750   0.000000
    8        9.932435   0.000000
    9       12.747437   0.000000
   10       12.747437   0.000000
   11       14.114775   0.000000
   12       16.113116   0.000000
   13       17.785867   0.000000
   14       17.785867   0.000000
   15       21.943600   0.000000
   16       26.171381   0.000000

  0.1875000E+00  0.3747003E-15  0.3747003E-15  0.1953125E-02
    1       -5.750721   1.000000
    2        2.760787   1.000000
    3        4.956535   1.000000
    4        4.956535   1.000000
    5        7.686027   0.000000
    6        8.792292   0.000000
    7        8.792292   0.000000
    8       11.044596   0.000000
    9       12.562370   0.000000
   10       12.562370   0.000000
   11       14.543348   0.000000
   12       16.185735   0.000000
   13       18.850480   0.000000
   14       18.850480   0.000000
   15       22.960568   0.000000
   16       24.532830   0.000000

  0.2500000E+00  0.3885781E-15  0.3885781E-15  0.1953125E-02
    1       -5.418265   1.000000
    2        1.643267   1.000000
    3        4.737134   1.000000
    4        4.737134   1.000000
    5        7.442692   0.000000
    6        8.993759   0.000000
    7        8.993759   0.000000
    8       12.137961   0.000000
    9       12.689348   0.000000
   10       12.689348   0.000000
   11       14.415411   0.000000
   12       17.145581   0.000000
   13       19.938854   0.000000
   14       19.938854   0.000000
   15       23.051637   0.000000
   16       23.071606   0.000000

  0.3125000E+00  0.3885781E-15  0.3885781E-15  0.1953125E-02
    1       -5.010305   1.000000
    2        0.603289   1.000000
    3        4.554566   1.000000
    4        4.554566   1.000000
    5        7.234553   0.000000
    6        9.031580   0.000000
    7        9.031580   0.000000
    8       13.054146   0.000000
    9       13.193287   0.000000
   10       13.193287   0.000000
   11       14.306220   0.000000
   12       18.433490   0.000000
   13       20.164940   0.000000
   14       20.164940   0.000000
   15       22.148426   0.000000
   16       22.630980   0.000000

  0.3750000E+00  0.3608225E-15  0.3608225E-15  0.1953125E-02
    1       -4.558140   1.000000
    2       -0.309350   1.000000
    3        4.420120   1.000000
    4        4.420120   1.000000
    5        7.078666   0.000000
    6        8.972366   0.000000
    7        8.972366   0.000000
    8       13.327369   0.000000
    9       14.008616   0.000000
   10       14.008616   0.000000
   11       14.894593   0.000000
   12       19.024513   0.000000
   13       19.024513   0.000000
   14       19.217078   0.000000
   15       21.781141   0.000000
   16       23.771139   0.000000

  0.4375000E+00  0.3885781E-15  0.3885781E-15  0.1953125E-02
    1       -4.142723   1.000000
    2       -1.004158   1.000000
    3        4.338408   1.000000
    4        4.338408   1.000000
    5        6.982943   0.000000
    6        8.903278   0.000000
    7        8.903279   0.000000
    8       13.255547   0.000000
    9       15.032552   0.000000
   10       15.032552   0.000000
   11       15.889578   0.000000
   12       17.670829   0.000000
   13       17.670829   0.000000
   14       18.660928   0.000000
   15       22.947939   0.000000
   16       25.303514   0.000000

  0.5000000E+00  0.3885781E-15  0.3885781E-15  0.9765625E-03
    1       -3.952240   1.000000
    2       -1.288226   1.000000
    3        4.311049   1.000000
    4        4.311050   1.000000
    5        6.950713   0.000000
    6        8.875147   0.000000
    7        8.875147   0.000000
    8       13.213859   0.000000
    9       15.931001   0.000000
   10       15.931001   0.000000
   11       16.542441   0.000000
   12       16.656147   0.000000
   13       16.656147   0.000000
   14       18.054210   0.000000
   15       24.500326   0.000000
   16       25.018110   0.000000

  0.6250000E-01  0.6250000E-01  0.3742002E-15  0.1464844E-02
    1       -6.125651   1.000000
    2        5.030506   1.000000
    3        5.215461   0.999987
    4        5.215461   0.999987
    5        7.918509   0.000000
    6        8.399040   0.000000
    7        8.399040   0.000000
    8        8.940718   0.000000
    9       12.743853   0.000000
   10       13.287899   0.000000
   11       13.636121   0.000000
   12       16.771770   0.000000
   13       16.771770   0.000000
   14       16.982768   0.000000
   15       21.223027   0.000000
   16       27.258676   0.000000

  0.1250000E+00  0.6250000E-01  0.3712308E-15  0.5859375E-02
    1       -6.010245   1.000000
    2        4.201983   1.000000
    3        4.973883   1.000000
    4        5.122475   0.999999
    5        7.908320   0.000000
    6        8.447241   0.000000
    7        8.748245   0.000000
    8        9.682052   0.000000
    9       12.353306   0.000000
   10       13.226669   0.000000
   11       14.086572   0.000000
   12       16.487390   0.000000
   13       17.194300   0.000000
   14       17.751917   0.000000
   15       21.931898   0.000000
   16       26.054282   0.000000

  0.1875000E+00  0.6250000E-01  0.3885781E-15  0.5859375E-02
    1       -5.798232   1.000000
    2        3.114900   1.000000
    3        4.724383   1.000000
    4        4.937065   1.000000
    5        7.956096   0.000000
    6        8.454096   0.000000
    7        9.110823   0.000000
    8       10.589889   0.000000
    9       12.197374   0.000000
   10       13.093529   0.000000
   11       14.663271   0.000000
   12       16.268968   0.000000
   13       18.063375   0.000000
   14       18.840646   0.000000
   15       22.919705   0.000000
   16       24.430165   0.000000

  0.2500000E+00  0.6250000E-01  0.3747003E-15  0.5859375E-02
    1       -5.494609   1.000000
    2        2.004512   1.000000
    3        4.507117   1.000000
    4        4.694868   1.000000
    5        7.808658   0.000000
    6        8.656336   0.000000
    7        9.352606   0.000000
    8       11.187129   0.000000
    9       12.650287   0.000000
   10       13.171278   0.000000
   11       14.748340   0.000000
   12       16.859252   0.000000
   13       19.111902   0.000000
   14       20.015762   0.000000
   15       22.855620   0.000000
   16       23.144343   0.000000

  0.3125000E+00  0.6250000E-01  0.3747003E-15  0.5859375E-02
    1       -5.109776   1.000000
    2        0.946519   1.000000
    3        4.341729   1.000000
    4        4.453916   1.000000
    5        7.615756   0.000000
    6        8.791911   0.000000
    7        9.402802   0.000000
    8       11.683952   0.000000
    9       13.533536   0.000000
   10       13.600593   0.000000
   11       14.533887   0.000000
   12       18.039395   0.000000
   13       19.721845   0.000000
   14       20.697459   0.000000
   15       21.951088   0.000000
   16       22.372022   0.000000

  0.3750000E+00  0.6250000E-01  0.3885781E-15  0.5859375E-02
    1       -4.666960   1.000000
    2       -0.007963   1.000000
    3        4.236727   1.000000
    4        4.243441   1.000000
    5        7.452395   0.000000
    6        8.807416   0.000000
    7        9.313164   0.000000
    8       12.374406   0.000000
    9       14.000026   0.000000
   10       14.353796   0.000000
   11       14.916707   0.000000
   12       18.832228   0.000000
   13       18.879177   0.000000
   14       20.186187   0.000000
   15       21.941114   0.000000
   16       22.767036   0.000000

  0.4375000E+00  0.6250000E-01  0.3885781E-15  0.5859375E-02
    1       -4.224385   1.000000
    2       -0.786801   1.000000
    3        4.077809   1.000000
    4        4.194601   1.000000
    5        7.340057   0.000000
    6        8.789166   0.000000
    7        9.179897   0.000000
    8       13.085859   0.000000
    9       14.108025   0.000000
   10       15.325971   0.000000
   11       15.956515   0.000000
   12       17.496633   0.000000
   13       18.105662   0.000000
   14       19.670701   0.000000
   15       22.444645   0.000000
   16       24.247340   0.000000

  0.5000000E+00  0.6250000E-01  0.3885781E-15  0.5859375E-02
    1       -3.931256   1.000000
    2       -1.233905   1.000000
    3        3.965076   1.000000
    4        4.214343   1.000000
    5        7.286866   0.000000
    6        8.804351   0.000000
    7        9.068476   0.000000
    8       13.357101   0.000000
    9       14.777014   0.000000
   10       15.899990   0.000000
   11       16.638511   0.000000
   12       16.748647   0.000000
   13       17.363518   0.000000
   14       18.653600   0.000000
   15       24.048522   0.000000
   16       25.327462   0.000000

 -0.4375000E+00  0.6250000E-01  0.3608225E-15  0.5859375E-02
    1       -3.998052   1.000000
    2       -1.135998   1.000000
    3        3.910696   1.000000
    4        4.292780   1.000000
    5        7.295784   0.000000
    6        8.877872   0.000000
    7        9.007064   0.000000
    8       13.389174   0.000000
    9       14.803072   0.000000
   10       15.131254   0.000000
   11       16.518059   0.000000
   12       17.074163   0.000000
   13       17.901788   0.000000
   14       18.701016   0.000000
   15       23.423890   0.000000
   16       25.282359   0.000000

 -0.3750000E+00  0.6250000E-01  0.3885781E-15  0.5859375E-02
    1       -4.365920   1.000000
    2       -0.552491   1.000000
    3        3.918801   1.000000
    4        4.425008   1.000000
    5        7.366776   0.000000
    6        8.993042   0.000000
    7        9.002483   0.000000
    8       13.260792   0.000000
    9       13.728568   0.000000
   10       14.535873   0.000000
   11       15.968261   0.000000
   12       17.600464   0.000000
   13       19.257487   0.000000
   14       19.512826   0.000000
   15       21.996528   0.000000
   16       23.667338   0.000000

 -0.3125000E+00  0.6250000E-01  0.3885781E-15  0.5859375E-02
    1       -4.819117   1.000000
    2        0.296582   1.000000
    3        3.992299   1.000000
    4        4.604126   1.000000
    5        7.497177   0.000000
    6        8.989730   0.000000
    7        9.136911   0.000000
    8       12.708600   0.000000
    9       12.854445   0.000000
   10       14.374905   0.000000
   11       14.884768   0.000000
   12       18.507074   0.000000
   13       19.433678   0.000000
   14       20.534292   0.000000
   15       21.807400   0.000000
   16       22.443818   0.000000

 -0.2500000E+00  0.6250000E-01  0.3885781E-15  0.5859375E-02
    1       -5.246511   1.000000
    2        1.290740   1.000000
    3        4.132428   1.000000
    4        4.819413   1.000000
    5        7.680296   0.000000
    6        8.921579   0.000000
    7        9.191874   0.000000
    8       11.979591   0.000000
    9       12.279530   0.000000
   10       13.882520   0.000000
   11       14.621608   0.000000
   12       17.587981   0.000000
   13       19.570380   0.000000
   14       20.829104   0.000000
   15       21.693670   0.000000
   16       23.102143   0.000000

 -0.1875000E+00  0.6250000E-01  0.3885781E-15  0.5859375E-02
    1       -5.605855   1.000000
    2        2.368249   1.000000
    3        4.338320   1.000000
    4        5.051855   1.000000
    5        7.901530   0.000000
    6        8.720396   0.000000
    7        9.050242   0.000000
    8       11.252518   0.000000
    9       12.087647   0.000000
   10       13.220190   0.000000
   11       14.812184   0.000000
   12       16.545699   0.000000
   13       18.627634   0.000000
   14       19.842718   0.000000
   15       22.908890   0.000000
   16       23.457862   0.000000

 -0.1250000E+00  0.6250000E-01  0.3747003E-15  0.5859375E-02
    1       -5.879652   1.000000
    2        3.465635   1.000000
    3        4.609009   1.000000
    4        5.265194   0.999943
    5        8.129284   0.000000
    6        8.432962   0.000000
    7        8.698933   0.000000
    8       10.413844   0.000000
    9       12.250090   0.000000
   10       13.013423   0.000000
   11       14.491310   0.000000
   12       16.290568   0.000000
   13       17.580075   0.000000
   14       18.698112   0.000000
   15       22.532313   0.000000
   16       24.549070   0.000000

 -0.6250000E-01  0.6250000E-01  0.3885781E-15  0.2929688E-02
    1       -6.059725   1.000000
    2        4.429025   1.000000
    3        4.969935   1.000000
    4        5.396856   0.998302
    5        8.210931   0.000000
    6        8.287064   0.000000
    7        8.292259   0.000000
    8        9.518811   0.000000
    9       12.631944   0.000000
   10       13.086139   0.000000
   11       13.898629   0.000000
   12       16.520006   0.000000
   13       16.897390   0.000000
   14       17.691404   0.000000
   15       21.609902   0.000000
   16       26.174989   0.000000

  0.1250000E+00  0.1250000E+00  0.3742002E-15  0.1464844E-02
    1       -5.927529   1.000000
    2        4.119854   1.000000
    3        4.702241   1.000000
    4        4.702241   1.000000
    5        7.541527   0.000000
    6        9.154483   0.000000
    7        9.154483   0.000000
    8        9.626812   0.000000
    9       11.985117   0.000000
   10       13.509454   0.000000
   11       14.404838   0.000000
   12       17.117250   0.000000
   13       17.117250   0.000000
   14       17.598496   0.000000
   15       22.509033   0.000000
   16       25.666157   0.000000

  0.1875000E+00  0.1250000E+00  0.3747003E-15  0.5859375E-02
    1       -5.747492   1.000000
    2        3.317678   1.000000
    3        4.436110   1.000000
    4        4.513090   1.000000
    5        7.497705   0.000000
    6        9.180368   0.000000
    7        9.582151   0.000000
    8       10.084238   0.000000
    9       12.029988   0.000000
   10       13.570535   0.000000
   11       14.978351   0.000000
   12       16.895067   0.000000
   13       17.619771   0.000000
   14       18.515638   0.000000
   15       23.415390   0.000000
   16       24.359226   0.000000

  0.2500000E+00  0.1250000E+00  0.3747003E-15  0.5859375E-02
    1       -5.473999   1.000000
    2        2.304836   1.000000
    3        4.211525   1.000000
    4        4.269837   1.000000
    5        7.659109   0.000000
    6        9.089152   0.000000
    7        9.900903   0.000000
    8       10.238669   0.000000
    9       12.767961   0.000000
   10       13.664820   0.000000
   11       15.394345   0.000000
   12       16.959516   0.000000
   13       18.488923   0.000000
   14       19.728336   0.000000
   15       22.777420   0.000000
   16       23.196620   0.000000

  0.3125000E+00  0.1250000E+00  0.3747003E-15  0.5859375E-02
    1       -5.115020   1.000000
    2        1.279881   1.000000
    3        3.979356   1.000000
    4        4.046751   1.000000
    5        7.758009   0.000000
    6        9.097416   0.000000
    7       10.010840   0.000000
    8       10.394923   0.000000
    9       13.822770   0.000000
   10       14.037642   0.000000
   11       15.254988   0.000000
   12       17.835334   0.000000
   13       19.242013   0.000000
   14       20.651958   0.000000
   15       21.582838   0.000000
   16       22.322914   0.000000

  0.3750000E+00  0.1250000E+00  0.3747003E-15  0.5859375E-02
    1       -4.687850   1.000000
    2        0.318250   1.000000
    3        3.698367   1.000000
    4        3.950223   1.000000
    5        7.731633   0.000000
    6        9.077743   0.000000
    7        9.933798   0.000000
    8       10.927815   0.000000
    9       14.733925   0.000000
   10       14.735095   0.000000
   11       15.192958   0.000000
   12       18.676406   0.000000
   13       18.680777   0.000000
   14       20.414679   0.000000
   15       21.958800   0.000000
   16       22.787485   0.000000

  0.4375000E+00  0.1250000E+00  0.3885781E-15  0.5859375E-02
    1       -4.234224   1.000000
    2       -0.511651   1.000000
    3        3.456782   1.000000
    4        3.924727   1.000000
    5        7.678569   0.000000
    6        9.017373   0.000000
    7        9.770597   0.000000
    8       11.776407   0.000000
    9       14.615681   0.000000
   10       15.662051   0.000000
   11       16.209022   0.000000
   12       17.382405   0.000000
   13       18.118535   0.000000
   14       20.899274   0.000000
   15       22.346439   0.000000
   16       23.307513   0.000000

  0.5000000E+00  0.1250000E+00  0.3885781E-15  0.5859375E-02
    1       -3.865355   1.000000
    2       -1.085468   1.000000
    3        3.270351   1.000000
    4        3.969334   1.000000
    5        7.662313   0.000000
    6        8.985313   0.000000
    7        9.602428   0.000000
    8       12.766972   0.000000
    9       14.417695   0.000000
   10       15.852928   0.000000
   11       16.807606   0.000000
   12       16.970668   0.000000
   13       17.674056   0.000000
   14       20.177686   0.000000
   15       23.444182   0.000000
   16       24.853865   0.000000

 -0.4375000E+00  0.1250000E+00  0.3885781E-15  0.5859375E-02
    1       -3.800441   1.000000
    2       -1.178168   1.000000
    3        3.149100   1.000000
    4        4.080135   1.000000
    5        7.703378   0.000000
    6        9.013721   0.000000
    7        9.469491   0.000000
    8       13.607582   0.000000
    9       14.236208   0.000000
   10       14.649419   0.000000
   11       16.266041   0.000000
   12       18.176078   0.000000
   13       18.581479   0.000000
   14       19.113848   0.000000
   15       23.595102   0.000000
   16       25.145876   0.000000

 -0.3750000E+00  0.1250000E+00  0.3885781E-15  0.5859375E-02
    1       -4.097386   1.000000
    2       -0.731571   1.000000
    3        3.100838   1.000000
    4        4.250200   1.000000
    5        7.802356   0.000000
    6        9.106760   0.000000
    7        9.378688   0.000000
    8       13.274502   0.000000
    9       13.529826   0.000000
   10       14.586542   0.000000
   11       16.518506   0.000000
   12       17.653455   0.000000
   13       19.526029   0.000000
   14       19.822878   0.000000
   15       22.050519   0.000000
   16       23.843682   0.000000

 -0.3125000E+00  0.1250000E+00  0.3885781E-15  0.5859375E-02
    1       -4.541025   1.000000
    2        0.033539   1.000000
    3        3.133188   1.000000
    4        4.468702   1.000000
    5        7.951118   0.000000
    6        9.238567   0.000000
    7        9.302289   0.000000
    8       12.440066   0.000000
    9       12.607117   0.000000
   10       14.940627   0.000000
   11       16.463442   0.000000
   12       17.445862   0.000000
   13       19.708265   0.000000
   14       20.862103   0.000000
   15       21.510741   0.000000
   16       22.574063   0.000000

 -0.2500000E+00  0.1250000E+00  0.3608225E-15  0.5859375E-02
    1       -4.983070   1.000000
    2        0.953221   1.000000
    3        3.256738   1.000000
    4        4.718451   1.000000
    5        8.136384   0.000000
    6        9.170975   0.000000
    7        9.321642   0.000000
    8       11.662059   0.000000
    9       11.981561   0.000000
   10       15.186927   0.000000
   11       15.387593   0.000000
   12       17.737230   0.000000
   13       19.253999   0.000000
   14       20.713962   0.000000
   15       21.618035   0.000000
   16       23.106764   0.000000

 -0.1875000E+00  0.1250000E+00  0.3608225E-15  0.5859375E-02
    1       -5.366537   1.000000
    2        1.929686   1.000000
    3        3.496084   1.000000
    4        4.970666   1.000000
    5        8.333838   0.000000
    6        8.921751   0.000000
    7        9.178851   0.000000
    8       11.156784   0.000000
    9       11.746206   0.000000
   10       14.247493   0.000000
   11       15.465971   0.000000
   12       16.937164   0.000000
   13       18.629273   0.000000
   14       20.927848   0.000000
   15       21.334261   0.000000
   16       23.774529   0.000000

 -0.1250000E+00  0.1250000E+00  0.3885781E-15  0.2929688E-02
    1       -5.668781   1.000000
    2        2.826735   1.000000
    3        3.925290   1.000000
    4        5.176310   0.999996
    5        8.447018   0.000000
    6        8.620311   0.000000
    7        8.806036   0.000000
    8       10.861441   0.000000
    9       11.875625   0.000000
   10       13.431423   0.000000
   11       15.104651   0.000000
   12       16.597022   0.000000
   13       17.736680   0.000000
   14       19.791399   0.000000
   15       22.867118   0.000000
   16       23.382611   0.000000

  0.1875000E+00  0.1875000E+00  0.3742002E-15  0.1464844E-02
    1       -5.599321   1.000000
    2        3.069234   1.000000
    3        4.154978   1.000000
    4        4.154978   1.000000
    5        7.097320   0.000000
    6        9.495121   0.000000
    7       10.099034   0.000000
    8       10.099034   0.000000
    9       12.169146   0.000000
   10       13.878354   0.000000
   11       15.484581   0.000000
   12       17.674180   0.000000
   13       17.674180   0.000000
   14       18.286958   0.000000
   15       24.031024   0.000000
   16       24.031024   0.000000

  0.2500000E+00  0.1875000E+00  0.3712308E-15  0.5859375E-02
    1       -5.356558   1.000000
    2        2.354773   1.000000
    3        3.885983   1.000000
    4        3.917466   1.000000
    5        7.069109   0.000000
    6        9.185271   0.000000
    7       10.376071   0.000000
    8       10.534847   0.000000
    9       12.883784   0.000000
   10       14.083213   0.000000
   11       16.071087   0.000000
   12       17.587791   0.000000
   13       18.211570   0.000000
   14       19.271387   0.000000
   15       22.764825   0.000000
   16       23.035470   0.000000

  0.3125000E+00  0.1875000E+00  0.3747003E-15  0.5859375E-02
    1       -5.025281   1.000000
    2        1.476743   1.000000
    3        3.542289   1.000000
    4        3.742632   1.000000
    5        7.258520   0.000000
    6        9.142924   0.000000
    7       10.310818   0.000000
    8       10.758272   0.000000
    9       13.985682   0.000000
   10       14.442278   0.000000
   11       16.223603   0.000000
   12       17.968698   0.000000
   13       18.871124   0.000000
   14       20.326081   0.000000
   15       21.464157   0.000000
   16       22.138956   0.000000

  0.3750000E+00  0.1875000E+00  0.3747003E-15  0.5859375E-02
    1       -4.618390   1.000000
    2        0.581127   1.000000
    3        3.176904   1.000000
    4        3.639846   1.000000
    5        7.383955   0.000000
    6        9.543231   0.000000
    7       10.153325   0.000000
    8       10.742472   0.000000
    9       15.102738   0.000000
   10       15.178346   0.000000
   11       15.959017   0.000000
   12       18.555569   0.000000
   13       18.701316   0.000000
   14       20.283472   0.000000
   15       21.419184   0.000000
   16       22.744072   0.000000

  0.4375000E+00  0.1875000E+00  0.3747003E-15  0.5859375E-02
    1       -4.165780   1.000000
    2       -0.245384   1.000000
    3        2.846575   1.000000
    4        3.612825   1.000000
    5        7.414389   0.000000
    6        9.991015   0.000000
    7       10.339190   0.000000
    8       10.585342   0.000000
    9       15.508392   0.000000
   10       16.004735   0.000000
   11       16.466324   0.000000
   12       17.323352   0.000000
   13       18.273829   0.000000
   14       21.009499   0.000000
   15       22.553990   0.000000
   16       23.407562   0.000000

  0.5000000E+00  0.1875000E+00  0.3885781E-15  0.5859375E-02
    1       -3.747346   1.000000
    2       -0.894159   1.000000
    3        2.578845   1.000000
    4        3.661520   1.000000
    5        7.452824   0.000000
    6        9.878760   0.000000
    7       10.388515   0.000000
    8       11.354084   0.000000
    9       15.012881   0.000000
   10       15.843974   0.000000
   11       17.237747   0.000000
   12       17.244466   0.000000
   13       17.878434   0.000000
   14       21.752740   0.000000
   15       22.992528   0.000000
   16       23.922853   0.000000

 -0.4375000E+00  0.1875000E+00  0.3885781E-15  0.5859375E-02
    1       -3.558899   1.000000
    2       -1.155998   1.000000
    3        2.388758   1.000000
    4        3.782635   1.000000
    5        7.551786   0.000000
    6        9.816074   0.000000
    7       10.206764   0.000000
    8       12.503287   0.000000
    9       14.246417   0.000000
   10       14.577503   0.000000
   11       16.858648   0.000000
   12       18.466962   0.000000
   13       19.000813   0.000000
   14       20.688748   0.000000
   15       23.463061   0.000000
   16       24.456872   0.000000

 -0.3750000E+00  0.1875000E+00  0.3885781E-15  0.5859375E-02
    1       -3.762781   1.000000
    2       -0.866342   1.000000
    3        2.288681   1.000000
    4        3.969307   1.000000
    5        7.721587   0.000000
    6        9.809137   0.000000
    7       10.053877   0.000000
    8       13.264124   0.000000
    9       13.422325   0.000000
   10       13.715451   0.000000
   11       16.807310   0.000000
   12       19.414778   0.000000
   13       19.811197   0.000000
   14       20.087076   0.000000
   15       21.857519   0.000000
   16       24.342975   0.000000

 -0.3125000E+00  0.1875000E+00  0.3608225E-15  0.5859375E-02
    1       -4.184623   1.000000
    2       -0.210712   1.000000
    3        2.295338   1.000000
    4        4.209610   1.000000
    5        7.949938   0.000000
    6        9.842156   0.000000
    7        9.901064   0.000000
    8       12.270903   0.000000
    9       12.470925   0.000000
   10       14.848122   0.000000
   11       17.083854   0.000000
   12       18.133792   0.000000
   13       19.872691   0.000000
   14       21.164101   0.000000
   15       21.527857   0.000000
   16       22.857218   0.000000

 -0.2500000E+00  0.1875000E+00  0.3885781E-15  0.5859375E-02
    1       -4.635263   1.000000
    2        0.584326   1.000000
    3        2.443687   1.000000
    4        4.483409   1.000000
    5        8.203726   0.000000
    6        9.666899   0.000000
    7        9.829244   0.000000
    8       11.442523   0.000000
    9       11.840547   0.000000
   10       15.705002   0.000000
   11       16.781090   0.000000
   12       17.520466   0.000000
   13       18.973060   0.000000
   14       20.876777   0.000000
   15       22.160339   0.000000
   16       22.945041   0.000000

 -0.1875000E+00  0.1875000E+00  0.3608225E-15  0.2929688E-02
    1       -5.038809   1.000000
    2        1.346934   1.000000
    3        2.816192   1.000000
    4        4.756154   1.000000
    5        8.406977   0.000000
    6        9.299158   0.000000
    7        9.547750   0.000000
    8       11.080346   0.000000
    9       11.622429   0.000000
   10       15.483897   0.000000
   11       16.015443   0.000000
   12       17.144640   0.000000
   13       19.112745   0.000000
   14       20.181611   0.000000
   15       21.914015   0.000000
   16       23.591473   0.000000

  0.2500000E+00  0.2500000E+00  0.3742002E-15  0.1464844E-02
    1       -5.144216   1.000000
    2        1.981356   1.000000
    3        3.664609   1.000000
    4        3.664609   1.000000
    5        6.691339   0.000000
    6        8.662071   0.000000
    7       11.135625   0.000000
    8       11.135625   0.000000
    9       13.241198   0.000000
   10       14.394065   0.000000
   11       16.728001   0.000000
   12       18.364569   0.000000
   13       18.364569   0.000000
   14       19.098223   0.000000
   15       22.558738   0.000000
   16       22.558738   0.000000

  0.3125000E+00  0.2500000E+00  0.3712308E-15  0.5859375E-02
    1       -4.841538   1.000000
    2        1.341560   1.000000
    3        3.357385   1.000000
    4        3.474144   1.000000
    5        6.705342   0.000000
    6        8.351268   0.000000
    7       11.398760   0.000000
    8       11.546089   0.000000
    9       14.125099   0.000000
   10       14.758231   0.000000
   11       17.183301   0.000000
   12       18.488840   0.000000
   13       18.751250   0.000000
   14       19.944773   0.000000
   15       21.523110   0.000000
   16       21.917571   0.000000

  0.3750000E+00  0.2500000E+00  0.3816392E-15  0.5859375E-02
    1       -4.458070   1.000000
    2        0.608533   1.000000
    3        2.917814   1.000000
    4        3.356871   1.000000
    5        6.906478   0.000000
    6        8.429502   0.000000
    7       11.344719   0.000000