Automatically generated mesh
     145
Reciprocal lattice
    0.00000000000000    0.00000000000000    0.00000000000000             1
    0.06250000000000    0.00000000000000    0.00000000000000             8
    0.12500000000000    0.00000000000000    0.00000000000000             8
    0.18750000000000    0.00000000000000    0.00000000000000             8
    0.25000000000000    0.00000000000000    0.00000000000000             8
    0.31250000000000    0.00000000000000    0.00000000000000             8
    0.37500000000000    0.00000000000000    0.00000000000000             8
    0.43750000000000    0.00000000000000    0.00000000000000             8
    0.50000000000000    0.00000000000000    0.00000000000000             4
    0.06250000000000    0.06250000000000    0.00000000000000             6
    0.12500000000000    0.06250000000000    0.00000000000000            24
    0.18750000000000    0.06250000000000    0.00000000000000            24
    0.25000000000000    0.06250000000000    0.00000000000000            24
    0.31250000000000    0.06250000000000    0.00000000000000            24
    0.37500000000000    0.06250000000000    0.00000000000000            24
    0.43750000000000    0.06250000000000    0.00000000000000            24
    0.50000000000000    0.06250000000000    0.00000000000000            24
   -0.43750000000000    0.06250000000000    0.00000000000000            24
   -0.37500000000000    0.06250000000000    0.00000000000000            24
   -0.31250000000000    0.06250000000000    0.00000000000000            24
   -0.25000000000000    0.06250000000000    0.00000000000000            24
   -0.18750000000000    0.06250000000000    0.00000000000000            24
   -0.12500000000000    0.06250000000000    0.00000000000000            24
   -0.06250000000000    0.06250000000000    0.00000000000000            12
    0.12500000000000    0.12500000000000    0.00000000000000             6
    0.18750000000000    0.12500000000000    0.00000000000000            24
    0.25000000000000    0.12500000000000    0.00000000000000            24
    0.31250000000000    0.12500000000000    0.00000000000000            24
    0.37500000000000    0.12500000000000    0.00000000000000            24
    0.43750000000000    0.12500000000000    0.00000000000000            24
    0.50000000000000    0.12500000000000    0.00000000000000            24
   -0.43750000000000    0.12500000000000    0.00000000000000            24
   -0.37500000000000    0.12500000000000    0.00000000000000            24
   -0.31250000000000    0.12500000000000    0.00000000000000            24
   -0.25000000000000    0.12500000000000    0.00000000000000            24
   -0.18750000000000    0.12500000000000    0.00000000000000            24
   -0.12500000000000    0.12500000000000    0.00000000000000            12
    0.18750000000000    0.18750000000000    0.00000000000000             6
    0.25000000000000    0.18750000000000    0.00000000000000            24
    0.31250000000000    0.18750000000000    0.00000000000000            24
    0.37500000000000    0.18750000000000    0.00000000000000            24
    0.43750000000000    0.18750000000000    0.00000000000000            24
    0.50000000000000    0.18750000000000    0.00000000000000            24
   -0.43750000000000    0.18750000000000    0.00000000000000            24
   -0.37500000000000    0.18750000000000    0.00000000000000            24
   -0.31250000000000    0.18750000000000    0.00000000000000            24
   -0.25000000000000    0.18750000000000    0.00000000000000            24
   -0.18750000000000    0.18750000000000    0.00000000000000            12
    0.25000000000000    0.25000000000000    0.00000000000000             6
    0.31250000000000    0.25000000000000    0.00000000000000            24
    0.37500000000000    0.25000000000000    0.00000000000000            24
    0.43750000000000    0.25000000000000    0.00000000000000            24
    0.50000000000000    0.25000000000000    0.00000000000000            24
   -0.43750000000000    0.25000000000000    0.00000000000000            24
   -0.37500000000000    0.25000000000000    0.00000000000000            24
   -0.31250000000000    0.25000000000000    0.00000000000000            24
   -0.25000000000000    0.25000000000000    0.00000000000000            12
    0.31250000000000    0.31250000000000    0.00000000000000             6
    0.37500000000000    0.31250000000000    0.00000000000000            24
    0.43750000000000    0.31250000000000    0.00000000000000            24
    0.50000000000000    0.31250000000000    0.00000000000000            24
   -0.43750000000000    0.31250000000000    0.00000000000000            24
   -0.37500000000000    0.31250000000000    0.00000000000000            24
   -0.31250000000000    0.31250000000000    0.00000000000000            12
    0.37500000000000    0.37500000000000    0.00000000000000             6
    0.43750000000000    0.37500000000000    0.00000000000000            24
    0.50000000000000    0.37500000000000    0.00000000000000            24
   -0.43750000000000    0.37500000000000    0.00000000000000            24
   -0.37500000000000    0.37500000000000    0.00000000000000            12
    0.43750000000000    0.43750000000000    0.00000000000000             6
    0.50000000000000    0.43750000000000    0.00000000000000            24
   -0.43750000000000    0.43750000000000    0.00000000000000            12
    0.50000000000000    0.50000000000000    0.00000000000000             3
    0.18750000000000    0.12500000000000    0.06250000000000            24
    0.25000000000000    0.12500000000000    0.06250000000000            48
    0.31250000000000    0.12500000000000    0.06250000000000            48
    0.37500000000000    0.12500000000000    0.06250000000000            48
    0.43750000000000    0.12500000000000    0.06250000000000            48
    0.50000000000000    0.12500000000000    0.06250000000000            48
   -0.43750000000000    0.12500000000000    0.06250000000000            24
    0.25000000000000    0.18750000000000    0.06250000000000            24
    0.31250000000000    0.18750000000000    0.06250000000000            48
    0.37500000000000    0.18750000000000    0.06250000000000            48
    0.43750000000000    0.18750000000000    0.06250000000000            48
    0.50000000000000    0.18750000000000    0.06250000000000            48
   -0.43750000000000    0.18750000000000    0.06250000000000            48
   -0.37500000000000    0.18750000000000    0.06250000000000            48
   -0.31250000000000    0.18750000000000    0.06250000000000            48
   -0.25000000000000    0.18750000000000    0.06250000000000            48
   -0.18750000000000    0.18750000000000    0.06250000000000            48
   -0.12500000000000    0.18750000000000    0.06250000000000            24
    0.31250000000000    0.25000000000000    0.06250000000000            24
    0.37500000000000    0.25000000000000    0.06250000000000            48
    0.43750000000000    0.25000000000000    0.06250000000000            48
    0.50000000000000    0.25000000000000    0.06250000000000            48
   -0.43750000000000    0.25000000000000    0.06250000000000            48
   -0.37500000000000    0.25000000000000    0.06250000000000            48
   -0.31250000000000    0.25000000000000    0.06250000000000            48
   -0.25000000000000    0.25000000000000    0.06250000000000            48
   -0.18750000000000    0.25000000000000    0.06250000000000            24
    0.37500000000000    0.31250000000000    0.06250000000000            24
    0.43750000000000    0.31250000000000    0.06250000000000            48
    0.50000000000000    0.31250000000000    0.06250000000000            48
   -0.43750000000000    0.31250000000000    0.06250000000000            48
   -0.37500000000000    0.31250000000000    0.06250000000000            48
   -0.31250000000000    0.31250000000000    0.06250000000000            48
   -0.25000000000000    0.31250000000000    0.06250000000000            24
    0.43750000000000    0.37500000000000    0.06250000000000            24
    0.50000000000000    0.37500000000000    0.06250000000000            48
   -0.43750000000000    0.37500000000000    0.06250000000000            48
   -0.37500000000000    0.37500000000000    0.06250000000000            48
   -0.31250000000000    0.37500000000000    0.06250000000000            24
    0.50000000000000    0.43750000000000    0.06250000000000            24
   -0.43750000000000    0.43750000000000    0.06250000000000            48
   -0.37500000000000    0.43750000000000    0.06250000000000            24
   -0.43750000000000    0.50000000000000    0.06250000000000            12
    0.37500000000000    0.25000000000000    0.12500000000000            24
    0.43750000000000    0.25000000000000    0.12500000000000            48
    0.50000000000000    0.25000000000000    0.12500000000000            48
   -0.43750000000000    0.25000000000000    0.12500000000000            48
   -0.37500000000000    0.25000000000000    0.12500000000000            24
    0.43750000000000    0.31250000000000    0.12500000000000            24
    0.50000000000000    0.31250000000000    0.12500000000000            48
   -0.43750000000000    0.31250000000000    0.12500000000000            48
   -0.37500000000000    0.31250000000000    0.12500000000000            48
   -0.31250000000000    0.31250000000000    0.12500000000000            48
   -0.25000000000000    0.31250000000000    0.12500000000000            48
   -0.18750000000000    0.31250000000000    0.12500000000000            24
    0.50000000000000    0.37500000000000    0.12500000000000            24
   -0.43750000000000    0.37500000000000    0.12500000000000            48
   -0.37500000000000    0.37500000000000    0.12500000000000            48
   -0.31250000000000    0.37500000000000    0.12500000000000            48
   -0.25000000000000    0.37500000000000    0.12500000000000            24
   -0.43750000000000    0.43750000000000    0.12500000000000            24
   -0.37500000000000    0.43750000000000    0.12500000000000            48
   -0.31250000000000    0.43750000000000    0.12500000000000            24
   -0.37500000000000    0.50000000000000    0.12500000000000            12
   -0.43750000000000    0.37500000000000    0.18750000000000            24
   -0.37500000000000    0.37500000000000    0.18750000000000            48
   -0.31250000000000    0.37500000000000    0.18750000000000            24
   -0.37500000000000    0.43750000000000    0.18750000000000            24
   -0.31250000000000    0.43750000000000    0.18750000000000            48
   -0.25000000000000    0.43750000000000    0.18750000000000            24
   -0.31250000000000    0.50000000000000    0.18750000000000            12
   -0.25000000000000    0.50000000000000    0.25000000000000             6
