 vasp.5.4.1 24Jun15 (build Feb  9 2019 14:16:27) complex                         
 executed on           IFC91_ompi date 2020.09.26  22:32:43
 running on   16 total cores
 distrk:  each k-point on   16 cores,    1 groups
 distr:  one band on NCORES_PER_BAND=   1 cores,   16 groups


--------------------------------------------------------------------------------------------------------


 INCAR:
 POTCAR:    PAW_PBE Si 05Jan2001                  

 ----------------------------------------------------------------------------- 
|                                                                             |
|           W    W    AA    RRRRR   N    N  II  N    N   GGGG   !!!           |
|           W    W   A  A   R    R  NN   N  II  NN   N  G    G  !!!           |
|           W    W  A    A  R    R  N N  N  II  N N  N  G       !!!           |
|           W WW W  AAAAAA  RRRRR   N  N N  II  N  N N  G  GGG   !            |
|           WW  WW  A    A  R   R   N   NN  II  N   NN  G    G                |
|           W    W  A    A  R    R  N    N  II  N    N   GGGG   !!!           |
|                                                                             |
|      For optimal performance we recommend to set                            |
|        NCORE= 4 - approx SQRT( number of cores)                             |
|      NCORE specifies how many cores store one orbital (NPAR=cpu/NCORE).     |
|      This setting can  greatly improve the performance of VASP for DFT.     |
|      The default, NPAR=number of cores might be grossly inefficient         |
|      on modern multi-core architectures or massively parallel machines.     |
|      Do your own testing !!!!                                               |
|      Unfortunately you need to use the default for GW and RPA calculations. |
|      (for HF NCORE is supported but not extensively tested yet)             |
|                                                                             |
 ----------------------------------------------------------------------------- 


 ----------------------------------------------------------------------------- 
|                                                                             |
|  ADVICE TO THIS USER RUNNING 'VASP/VAMP'   (HEAR YOUR MASTER'S VOICE ...):  |
|                                                                             |
|      You have switched on vdW-DFT.                                          |
|      This routine was written and supplied by Jiri Klimes.                  |
|      We recommed that you carefully read and cite the following             |
|      publication                                                            |
|      J. Klimes, D.R. Bowler, A. Michelides                                  |
|        J. Phys.: Cond Matt. 22 022201 (2010)                                |
|      J. Klimes, D.R. Bowler, A. Michelides                                  |
|        Phys. Rev. B. 83, 195131 (2011)                                      |
|      and references therein.                                                |
|                                                                             |
 ----------------------------------------------------------------------------- 

 POTCAR:    PAW_PBE Si 05Jan2001                  
   VRHFIN =Si: s2p2                                                             
   LEXCH  = PE                                                                  
   EATOM  =   103.0669 eV,    7.5752 Ry                                         
                                                                                
   TITEL  = PAW_PBE Si 05Jan2001                                                
   LULTRA =        F    use ultrasoft PP ?                                      
   IUNSCR =        1    unscreen: 0-lin 1-nonlin 2-no                           
   RPACOR =    1.500    partial core radius                                     
   POMASS =   28.085; ZVAL   =    4.000    mass and valenz                      
   RCORE  =    1.900    outmost cutoff radius                                   
   RWIGS  =    2.480; RWIGS  =    1.312    wigner-seitz radius (au A)           
   ENMAX  =  245.345; ENMIN  =  184.009 eV                                      
   ICORE  =        2    local potential                                         
   LCOR   =        T    correct aug charges                                     
   LPAW   =        T    paw PP                                                  
   EAUG   =  322.069                                                            
   DEXC   =    0.000                                                            
   RMAX   =    1.950    core radius for proj-oper                               
   RAUG   =    1.300    factor for augmentation sphere                          
   RDEP   =    1.993    radius for radial grids                                 
   RDEPT  =    1.837    core radius for aug-charge                              
                                                                                
   Atomic configuration                                                         
    6 entries                                                                   
     n  l   j            E        occ.                                          
     1  0  0.50     -1785.8828   2.0000                                         
     2  0  0.50      -139.4969   2.0000                                         
     2  1  1.50       -95.5546   6.0000                                         
     3  0  0.50       -10.8127   2.0000                                         
     3  1  0.50        -4.0811   2.0000                                         
     3  2  1.50        -4.0817   0.0000                                         
   Description                                                                  
     l       E           TYP  RCUT    TYP  RCUT                                 
     0    -10.8127223     23  1.900                                             
     0     -7.6451159     23  1.900                                             
     1     -4.0811372     23  1.900                                             
     1      2.4879257     23  1.900                                             
     2     -4.0817478      7  1.900                                             
  local pseudopotential read in
  partial core-charges read in
  partial kinetic energy density read in
  atomic valenz-charges read in
  non local Contribution for L=           0  read in
    real space projection operators read in
  non local Contribution for L=           0  read in
    real space projection operators read in
  non local Contribution for L=           1  read in
    real space projection operators read in
  non local Contribution for L=           1  read in
    real space projection operators read in
    PAW grid and wavefunctions read in

   number of l-projection  operators is LMAX  =           4
   number of lm-projection operators is LMMAX =           8


 ----------------------------------------------------------------------------- 
|                                                                             |
|  ADVICE TO THIS USER RUNNING 'VASP/VAMP'   (HEAR YOUR MASTER'S VOICE ...):  |
|                                                                             |
|      You enforced a specific xc-type in the INCAR file,                     |
|      a different type was found on the POTCAR file                          |
|          I HOPE YOU KNOW, WHAT YOU ARE  DOING                               |
|                                                                             |
 ----------------------------------------------------------------------------- 

  PAW_PBE Si 05Jan2001                  :
 energy of atom  1       EATOM= -103.0669
 kinetic energy error for atom=    0.0006 (will be added to EATOM!!)


 POSCAR: bulk@JVASP-1002                         
  positions in direct lattice
  No initial velocities read in
 exchange correlation table for  LEXCH =       42
   RHO(1)=    0.500       N(1)  =     2000
   RHO(2)=  100.500       N(2)  =     4000



--------------------------------------------------------------------------------------------------------


 ion  position               nearest neighbor table
   1  0.750  0.750  0.750-   2 2.38   2 2.38   2 2.38   2 2.38
   2  0.500  0.500  0.500-   1 2.38   1 2.38   1 2.38   1 2.38

  LATTYP: Found a face centered cubic cell.
 ALAT       =     5.4936422752
  
  Lattice vectors:
  
 A1 = (   0.0000000000,   2.7468211376,   2.7468211376)
 A2 = (   2.7468211376,   0.0000000000,   2.7468211376)
 A3 = (   2.7468211376,   2.7468211376,   0.0000000000)


Analysis of symmetry for initial positions (statically):
=====================================================================
 Subroutine PRICEL returns:
 Original cell was already a primitive cell.
 

 Routine SETGRP: Setting up the symmetry group for a 
 face centered cubic supercell.


 Subroutine GETGRP returns: Found 48 space group operations
 (whereof 24 operations were pure point group operations)
 out of a pool of 48 trial point group operations.


The static configuration has the point symmetry T_d .
 The point group associated with its full space group is O_h .


Analysis of symmetry for dynamics (positions and initial velocities):
=====================================================================
 Subroutine PRICEL returns:
 Original cell was already a primitive cell.
 

 Routine SETGRP: Setting up the symmetry group for a 
 face centered cubic supercell.


 Subroutine GETGRP returns: Found 48 space group operations
 (whereof 24 operations were pure point group operations)
 out of a pool of 48 trial point group operations.


The dynamic configuration has the point symmetry T_d .
 The point group associated with its full space group is O_h .


 KPOINTS: Automatic kpoint scheme                 

Automatic generation of k-mesh.
Space group operators:
 irot       det(A)        alpha          n_x          n_y          n_z        tau_x        tau_y        tau_z
    1     1.000000     0.000000     1.000000     0.000000     0.000000     0.000000     0.000000     0.000000
    2     1.000000   120.000000    -0.577350    -0.577350    -0.577350     0.000000     0.000000     0.000000
    3     1.000000   120.000000     0.577350     0.577350     0.577350     0.000000     0.000000     0.000000
    4    -1.000000    90.000000     0.000000     0.000000    -1.000000     0.000000     0.000000     0.000000
    5    -1.000000   180.000000     0.000000     0.707107     0.707107     0.000000     0.000000     0.000000
    6    -1.000000    90.000000     0.000000     1.000000     0.000000     0.000000     0.000000     0.000000
    7     1.000000   180.000000     0.000000     0.000000     1.000000     0.000000     0.000000     0.000000
    8     1.000000   120.000000    -0.577350     0.577350     0.577350     0.000000     0.000000     0.000000
    9     1.000000   120.000000    -0.577350     0.577350    -0.577350     0.000000     0.000000     0.000000
   10    -1.000000    90.000000     0.000000     0.000000     1.000000     0.000000     0.000000     0.000000
   11    -1.000000    90.000000    -1.000000     0.000000     0.000000     0.000000     0.000000     0.000000
   12    -1.000000   180.000000     0.707107     0.000000     0.707107     0.000000     0.000000     0.000000
   13     1.000000   120.000000     0.577350    -0.577350     0.577350     0.000000     0.000000     0.000000
   14     1.000000   120.000000    -0.577350    -0.577350     0.577350     0.000000     0.000000     0.000000
   15     1.000000   180.000000     1.000000     0.000000     0.000000     0.000000     0.000000     0.000000
   16    -1.000000    90.000000     0.000000    -1.000000     0.000000     0.000000     0.000000     0.000000
   17    -1.000000   180.000000     0.707107     0.707107     0.000000     0.000000     0.000000     0.000000
   18    -1.000000    90.000000     1.000000     0.000000     0.000000     0.000000     0.000000     0.000000
   19     1.000000   120.000000     0.577350    -0.577350    -0.577350     0.000000     0.000000     0.000000
   20     1.000000   180.000000     0.000000     1.000000     0.000000     0.000000     0.000000     0.000000
   21     1.000000   120.000000     0.577350     0.577350    -0.577350     0.000000     0.000000     0.000000
   22    -1.000000   180.000000     0.000000    -0.707107     0.707107     0.000000     0.000000     0.000000
   23    -1.000000   180.000000     0.707107    -0.707107     0.000000     0.000000     0.000000     0.000000
   24    -1.000000   180.000000     0.707107     0.000000    -0.707107     0.000000     0.000000     0.000000
   25    -1.000000     0.000000     1.000000     0.000000     0.000000     0.250000     0.250000     0.250000
   26    -1.000000   120.000000    -0.577350    -0.577350    -0.577350     0.250000     0.250000     0.250000
   27    -1.000000   120.000000     0.577350     0.577350     0.577350     0.250000     0.250000     0.250000
   28     1.000000    90.000000     0.000000     0.000000    -1.000000     0.250000     0.250000     0.250000
   29     1.000000   180.000000     0.000000     0.707107     0.707107     0.250000     0.250000     0.250000
   30     1.000000    90.000000     0.000000     1.000000     0.000000     0.250000     0.250000     0.250000
   31    -1.000000   180.000000     0.000000     0.000000     1.000000     0.250000     0.250000     0.250000
   32    -1.000000   120.000000    -0.577350     0.577350     0.577350     0.250000     0.250000     0.250000
   33    -1.000000   120.000000    -0.577350     0.577350    -0.577350     0.250000     0.250000     0.250000
   34     1.000000    90.000000     0.000000     0.000000     1.000000     0.250000     0.250000     0.250000
   35     1.000000    90.000000    -1.000000     0.000000     0.000000     0.250000     0.250000     0.250000
   36     1.000000   180.000000     0.707107     0.000000     0.707107     0.250000     0.250000     0.250000
   37    -1.000000   120.000000     0.577350    -0.577350     0.577350     0.250000     0.250000     0.250000
   38    -1.000000   120.000000    -0.577350    -0.577350     0.577350     0.250000     0.250000     0.250000
   39    -1.000000   180.000000     1.000000     0.000000     0.000000     0.250000     0.250000     0.250000
   40     1.000000    90.000000     0.000000    -1.000000     0.000000     0.250000     0.250000     0.250000
   41     1.000000   180.000000     0.707107     0.707107     0.000000     0.250000     0.250000     0.250000
   42     1.000000    90.000000     1.000000     0.000000     0.000000     0.250000     0.250000     0.250000
   43    -1.000000   120.000000     0.577350    -0.577350    -0.577350     0.250000     0.250000     0.250000
   44    -1.000000   180.000000     0.000000     1.000000     0.000000     0.250000     0.250000     0.250000
   45    -1.000000   120.000000     0.577350     0.577350    -0.577350     0.250000     0.250000     0.250000
   46     1.000000   180.000000     0.000000    -0.707107     0.707107     0.250000     0.250000     0.250000
   47     1.000000   180.000000     0.707107    -0.707107     0.000000     0.250000     0.250000     0.250000
   48     1.000000   180.000000     0.707107     0.000000    -0.707107     0.250000     0.250000     0.250000
 
 Subroutine IBZKPT returns following result:
 ===========================================
 
 Found    145 irreducible k-points:
 
 Following reciprocal coordinates:
            Coordinates               Weight
  0.000000  0.000000  0.000000      1.000000
  0.062500  0.000000  0.000000      8.000000
  0.125000  0.000000  0.000000      8.000000
  0.187500  0.000000  0.000000      8.000000
  0.250000  0.000000  0.000000      8.000000
  0.312500  0.000000  0.000000      8.000000
  0.375000  0.000000  0.000000      8.000000
  0.437500  0.000000  0.000000      8.000000
  0.500000  0.000000  0.000000      4.000000
  0.062500  0.062500  0.000000      6.000000
  0.125000  0.062500  0.000000     24.000000
  0.187500  0.062500  0.000000     24.000000
  0.250000  0.062500  0.000000     24.000000
  0.312500  0.062500  0.000000     24.000000
  0.375000  0.062500  0.000000     24.000000
  0.437500  0.062500  0.000000     24.000000
  0.500000  0.062500  0.000000     24.000000
 -0.437500  0.062500  0.000000     24.000000
 -0.375000  0.062500  0.000000     24.000000
 -0.312500  0.062500  0.000000     24.000000
 -0.250000  0.062500  0.000000     24.000000
 -0.187500  0.062500  0.000000     24.000000
 -0.125000  0.062500  0.000000     24.000000
 -0.062500  0.062500  0.000000     12.000000
  0.125000  0.125000  0.000000      6.000000
  0.187500  0.125000  0.000000     24.000000
  0.250000  0.125000  0.000000     24.000000
  0.312500  0.125000  0.000000     24.000000
  0.375000  0.125000  0.000000     24.000000
  0.437500  0.125000  0.000000     24.000000
  0.500000  0.125000  0.000000     24.000000
 -0.437500  0.125000  0.000000     24.000000
 -0.375000  0.125000  0.000000     24.000000
 -0.312500  0.125000  0.000000     24.000000
 -0.250000  0.125000  0.000000     24.000000
 -0.187500  0.125000  0.000000     24.000000
 -0.125000  0.125000  0.000000     12.000000
  0.187500  0.187500  0.000000      6.000000
  0.250000  0.187500  0.000000     24.000000
  0.312500  0.187500  0.000000     24.000000
  0.375000  0.187500  0.000000     24.000000
  0.437500  0.187500  0.000000     24.000000
  0.500000  0.187500  0.000000     24.000000
 -0.437500  0.187500  0.000000     24.000000
 -0.375000  0.187500  0.000000     24.000000
 -0.312500  0.187500  0.000000     24.000000
 -0.250000  0.187500  0.000000     24.000000
 -0.187500  0.187500  0.000000     12.000000
  0.250000  0.250000  0.000000      6.000000
  0.312500  0.250000  0.000000     24.000000
  0.375000  0.250000  0.000000     24.000000
  0.437500  0.250000  0.000000     24.000000
  0.500000  0.250000  0.000000     24.000000
 -0.437500  0.250000  0.000000     24.000000
 -0.375000  0.250000  0.000000     24.000000
 -0.312500  0.250000  0.000000     24.000000
 -0.250000  0.250000  0.000000     12.000000
  0.312500  0.312500  0.000000      6.000000
  0.375000  0.312500  0.000000     24.000000
  0.437500  0.312500  0.000000     24.000000
  0.500000  0.312500  0.000000     24.000000
 -0.437500  0.312500  0.000000     24.000000
 -0.375000  0.312500  0.000000     24.000000
 -0.312500  0.312500  0.000000     12.000000
  0.375000  0.375000  0.000000      6.000000
  0.437500  0.375000  0.000000     24.000000
  0.500000  0.375000  0.000000     24.000000
 -0.437500  0.375000  0.000000     24.000000
 -0.375000  0.375000  0.000000     12.000000
  0.437500  0.437500  0.000000      6.000000
  0.500000  0.437500  0.000000     24.000000
 -0.437500  0.437500  0.000000     12.000000
  0.500000  0.500000  0.000000      3.000000
  0.187500  0.125000  0.062500     24.000000
  0.250000  0.125000  0.062500     48.000000
  0.312500  0.125000  0.062500     48.000000
  0.375000  0.125000  0.062500     48.000000
  0.437500  0.125000  0.062500     48.000000
  0.500000  0.125000  0.062500     48.000000
 -0.437500  0.125000  0.062500     24.000000
  0.250000  0.187500  0.062500     24.000000
  0.312500  0.187500  0.062500     48.000000
  0.375000  0.187500  0.062500     48.000000
  0.437500  0.187500  0.062500     48.000000
  0.500000  0.187500  0.062500     48.000000
 -0.437500  0.187500  0.062500     48.000000
 -0.375000  0.187500  0.062500     48.000000
 -0.312500  0.187500  0.062500     48.000000
 -0.250000  0.187500  0.062500     48.000000
 -0.187500  0.187500  0.062500     48.000000
 -0.125000  0.187500  0.062500     24.000000
  0.312500  0.250000  0.062500     24.000000
  0.375000  0.250000  0.062500     48.000000
  0.437500  0.250000  0.062500     48.000000
  0.500000  0.250000  0.062500     48.000000
 -0.437500  0.250000  0.062500     48.000000
 -0.375000  0.250000  0.062500     48.000000
 -0.312500  0.250000  0.062500     48.000000
 -0.250000  0.250000  0.062500     48.000000
 -0.187500  0.250000  0.062500     24.000000
  0.375000  0.312500  0.062500     24.000000
  0.437500  0.312500  0.062500     48.000000
  0.500000  0.312500  0.062500     48.000000
 -0.437500  0.312500  0.062500     48.000000
 -0.375000  0.312500  0.062500     48.000000
 -0.312500  0.312500  0.062500     48.000000
 -0.250000  0.312500  0.062500     24.000000
  0.437500  0.375000  0.062500     24.000000
  0.500000  0.375000  0.062500     48.000000
 -0.437500  0.375000  0.062500     48.000000
 -0.375000  0.375000  0.062500     48.000000
 -0.312500  0.375000  0.062500     24.000000
  0.500000  0.437500  0.062500     24.000000
 -0.437500  0.437500  0.062500     48.000000
 -0.375000  0.437500  0.062500     24.000000
 -0.437500  0.500000  0.062500     12.000000
  0.375000  0.250000  0.125000     24.000000
  0.437500  0.250000  0.125000     48.000000
  0.500000  0.250000  0.125000     48.000000
 -0.437500  0.250000  0.125000     48.000000
 -0.375000  0.250000  0.125000     24.000000
  0.437500  0.312500  0.125000     24.000000
  0.500000  0.312500  0.125000     48.000000
 -0.437500  0.312500  0.125000     48.000000
 -0.375000  0.312500  0.125000     48.000000
 -0.312500  0.312500  0.125000     48.000000
 -0.250000  0.312500  0.125000     48.000000
 -0.187500  0.312500  0.125000     24.000000
  0.500000  0.375000  0.125000     24.000000
 -0.437500  0.375000  0.125000     48.000000
 -0.375000  0.375000  0.125000     48.000000
 -0.312500  0.375000  0.125000     48.000000
 -0.250000  0.375000  0.125000     24.000000
 -0.437500  0.437500  0.125000     24.000000
 -0.375000  0.437500  0.125000     48.000000
 -0.312500  0.437500  0.125000     24.000000
 -0.375000  0.500000  0.125000     12.000000
 -0.437500  0.375000  0.187500     24.000000
 -0.375000  0.375000  0.187500     48.000000
 -0.312500  0.375000  0.187500     24.000000
 -0.375000  0.437500  0.187500     24.000000
 -0.312500  0.437500  0.187500     48.000000
 -0.250000  0.437500  0.187500     24.000000
 -0.312500  0.500000  0.187500     12.000000
 -0.250000  0.500000  0.250000      6.000000
 
 Following cartesian coordinates:
            Coordinates               Weight
  0.000000  0.000000  0.000000      1.000000
 -0.011377  0.011377  0.011377      8.000000
 -0.022754  0.022754  0.022754      8.000000
 -0.034130  0.034130  0.034130      8.000000
 -0.045507  0.045507  0.045507      8.000000
 -0.056884  0.056884  0.056884      8.000000
 -0.068261  0.068261  0.068261      8.000000
 -0.079638  0.079638  0.079638      8.000000
 -0.091014  0.091014  0.091014      4.000000
  0.000000  0.000000  0.022754      6.000000
 -0.011377  0.011377  0.034130     24.000000
 -0.022754  0.022754  0.045507     24.000000
 -0.034130  0.034130  0.056884     24.000000
 -0.045507  0.045507  0.068261     24.000000
 -0.056884  0.056884  0.079638     24.000000
 -0.068261  0.068261  0.091014     24.000000
 -0.079638  0.079638  0.102391     24.000000
  0.091014 -0.091014 -0.068261     24.000000
  0.079638 -0.079638 -0.056884     24.000000
  0.068261 -0.068261 -0.045507     24.000000
  0.056884 -0.056884 -0.034130     24.000000
  0.045507 -0.045507 -0.022754     24.000000
  0.034130 -0.034130 -0.011377     24.000000
  0.022754 -0.022754  0.000000     12.000000
  0.000000  0.000000  0.045507      6.000000
 -0.011377  0.011377  0.056884     24.000000
 -0.022754  0.022754  0.068261     24.000000
 -0.034130  0.034130  0.079638     24.000000
 -0.045507  0.045507  0.091014     24.000000
 -0.056884  0.056884  0.102391     24.000000
 -0.068261  0.068261  0.113768     24.000000
  0.102391 -0.102391 -0.056884     24.000000
  0.091014 -0.091014 -0.045507     24.000000
  0.079638 -0.079638 -0.034130     24.000000
  0.068261 -0.068261 -0.022754     24.000000
  0.056884 -0.056884 -0.011377     24.000000
  0.045507 -0.045507  0.000000     12.000000
  0.000000  0.000000  0.068261      6.000000
 -0.011377  0.011377  0.079638     24.000000
 -0.022754  0.022754  0.091014     24.000000
 -0.034130  0.034130  0.102391     24.000000
 -0.045507  0.045507  0.113768     24.000000
 -0.056884  0.056884  0.125145     24.000000
  0.113768 -0.113768 -0.045507     24.000000
  0.102391 -0.102391 -0.034130     24.000000
  0.091014 -0.091014 -0.022754     24.000000
  0.079638 -0.079638 -0.011377     24.000000
  0.068261 -0.068261  0.000000     12.000000
  0.000000  0.000000  0.091014      6.000000
 -0.011377  0.011377  0.102391     24.000000
 -0.022754  0.022754  0.113768     24.000000
 -0.034130  0.034130  0.125145     24.000000
 -0.045507  0.045507  0.136521     24.000000
  0.125145 -0.125145 -0.034130     24.000000
  0.113768 -0.113768 -0.022754     24.000000
  0.102391 -0.102391 -0.011377     24.000000
  0.091014 -0.091014  0.000000     12.000000
  0.000000  0.000000  0.113768      6.000000
 -0.011377  0.011377  0.125145     24.000000
 -0.022754  0.022754  0.136521     24.000000
 -0.034130  0.034130  0.147898     24.000000
  0.136521 -0.136521 -0.022754     24.000000
  0.125145 -0.125145 -0.011377     24.000000
  0.113768 -0.113768  0.000000     12.000000
  0.000000  0.000000  0.136521      6.000000
 -0.011377  0.011377  0.147898     24.000000
 -0.022754  0.022754  0.159275     24.000000
  0.147898 -0.147898 -0.011377     24.000000
  0.136521 -0.136521  0.000000     12.000000
  0.000000  0.000000  0.159275      6.000000
 -0.011377  0.011377  0.170652     24.000000
  0.159275 -0.159275  0.000000     12.000000
  0.000000  0.000000  0.182029      3.000000
  0.000000  0.022754  0.045507     24.000000
 -0.011377  0.034130  0.056884     48.000000
 -0.022754  0.045507  0.068261     48.000000
 -0.034130  0.056884  0.079638     48.000000
 -0.045507  0.068261  0.091014     48.000000
 -0.056884  0.079638  0.102391     48.000000
  0.113768 -0.091014 -0.068261     24.000000
  0.000000  0.022754  0.068261     24.000000
 -0.011377  0.034130  0.079638     48.000000
 -0.022754  0.045507  0.091014     48.000000
 -0.034130  0.056884  0.102391     48.000000
 -0.045507  0.068261  0.113768     48.000000
  0.125145 -0.102391 -0.056884     48.000000
  0.113768 -0.091014 -0.045507     48.000000
  0.102391 -0.079638 -0.034130     48.000000
  0.091014 -0.068261 -0.022754     48.000000
  0.079638 -0.056884 -0.011377     48.000000
  0.068261 -0.045507  0.000000     24.000000
  0.000000  0.022754  0.091014     24.000000
 -0.011377  0.034130  0.102391     48.000000
 -0.022754  0.045507  0.113768     48.000000
 -0.034130  0.056884  0.125145     48.000000
  0.136521 -0.113768 -0.045507     48.000000
  0.125145 -0.102391 -0.034130     48.000000
  0.113768 -0.091014 -0.022754     48.000000
  0.102391 -0.079638 -0.011377     48.000000
  0.091014 -0.068261  0.000000     24.000000
  0.000000  0.022754  0.113768     24.000000
 -0.011377  0.034130  0.125145     48.000000
 -0.022754  0.045507  0.136521     48.000000
  0.147898 -0.125145 -0.034130     48.000000
  0.136521 -0.113768 -0.022754     48.000000
  0.125145 -0.102391 -0.011377     48.000000
  0.113768 -0.091014  0.000000     24.000000
  0.000000  0.022754  0.136521     24.000000
 -0.011377  0.034130  0.147898     48.000000
  0.159275 -0.136521 -0.022754     48.000000
  0.147898 -0.125145 -0.011377     48.000000
  0.136521 -0.113768  0.000000     24.000000
  0.000000  0.022754  0.159275     24.000000
  0.170652 -0.147898 -0.011377     48.000000
  0.159275 -0.136521  0.000000     24.000000
  0.182029 -0.159275  0.000000     12.000000
  0.000000  0.045507  0.091014     24.000000
 -0.011377  0.056884  0.102391     48.000000
 -0.022754  0.068261  0.113768     48.000000
  0.147898 -0.102391 -0.056884     48.000000
  0.136521 -0.091014 -0.045507     24.000000
  0.000000  0.045507  0.113768     24.000000
 -0.011377  0.056884  0.125145     48.000000
  0.159275 -0.113768 -0.045507     48.000000
  0.147898 -0.102391 -0.034130     48.000000
  0.136521 -0.091014 -0.022754     48.000000
  0.125145 -0.079638 -0.011377     48.000000
  0.113768 -0.068261  0.000000     24.000000
  0.000000  0.045507  0.136521     24.000000
  0.170652 -0.125145 -0.034130     48.000000
  0.159275 -0.113768 -0.022754     48.000000
  0.147898 -0.102391 -0.011377     48.000000
  0.136521 -0.091014  0.000000     24.000000
  0.182029 -0.136521 -0.022754     24.000000
  0.170652 -0.125145 -0.011377     48.000000
  0.159275 -0.113768  0.000000     24.000000
  0.182029 -0.136521  0.000000     12.000000
  0.182029 -0.113768 -0.045507     24.000000
  0.170652 -0.102391 -0.034130     48.000000
  0.159275 -0.091014 -0.022754     24.000000
  0.182029 -0.113768 -0.022754     24.000000
  0.170652 -0.102391 -0.011377     48.000000
  0.159275 -0.091014  0.000000     24.000000
  0.182029 -0.113768  0.000000     12.000000
  0.182029 -0.091014  0.000000      6.000000
 


--------------------------------------------------------------------------------------------------------




 Dimension of arrays:
   k-points           NKPTS =      145   k-points in BZ     NKDIM =      145   number of bands    NBANDS=     16
   number of dos      NEDOS =    301   number of ions     NIONS =      2
   non local maximal  LDIM  =      4   non local SUM 2l+1 LMDIM =      8
   total plane-waves  NPLWV =  21952
   max r-space proj   IRMAX =      1   max aug-charges    IRDMAX=  17905
   dimension x,y,z NGX =    28 NGY =   28 NGZ =   28
   dimension x,y,z NGXF=    56 NGYF=   56 NGZF=   56
   support grid    NGXF=    56 NGYF=   56 NGZF=   56
   ions per type =               2
 NGX,Y,Z   is equivalent  to a cutoff of  11.98, 11.98, 11.98 a.u.
 NGXF,Y,Z  is equivalent  to a cutoff of  23.97, 23.97, 23.97 a.u.


 I would recommend the setting:
   dimension x,y,z NGX =    28 NGY =   28 NGZ =   28
 SYSTEM =  unknown system                          
 POSCAR =  bulk@JVASP-1002                         

 Startparameter for this run:
   NWRITE =      2    write-flag & timer
   PREC   = accura    normal or accurate (medium, high low for compatibility)
   ISTART =      0    job   : 0-new  1-cont  2-samecut
   ICHARG =      2    charge: 1-file 2-atom 10-const
   ISPIN  =      1    spin polarized calculation?
   LNONCOLLINEAR =      F non collinear calculations
   LSORBIT =      F    spin-orbit coupling
   INIWAV =      1    electr: 0-lowe 1-rand  2-diag
   LASPH  =      F    aspherical Exc in radial PAW
   METAGGA=      F    non-selfconsistent MetaGGA calc.

 Electronic Relaxation 1
   ENCUT  =  500.0 eV  36.75 Ry    6.06 a.u.   7.08  7.08  7.08*2*pi/ulx,y,z
   ENINI  =  500.0     initial cutoff
   ENAUG  =  322.1 eV  augmentation charge cutoff
   NELM   =    400;   NELMIN=  2; NELMDL= -5     # of ELM steps 
   EDIFF  = 0.1E-06   stopping-criterion for ELM
   LREAL  =      F    real-space projection
   NLSPLINE    = F    spline interpolate recip. space projectors
   LCOMPAT=      F    compatible to vasp.4.4
   GGA_COMPAT  = T    GGA compatible to vasp.4.4-vasp.4.6
   LMAXPAW     = -100 max onsite density
   LMAXMIX     =    2 max onsite mixed and CHGCAR
   VOSKOWN=      0    Vosko Wilk Nusair interpolation
   ROPT   =    0.00000
 Ionic relaxation
   EDIFFG = 0.1E-05   stopping-criterion for IOM
   NSW    =      1    number of steps for IOM
   NBLOCK =      1;   KBLOCK =      1    inner block; outer block 
   IBRION =      2    ionic relax: 0-MD 1-quasi-New 2-CG
   NFREE  =      1    steps in history (QN), initial steepest desc. (CG)
   ISIF   =      2    stress and relaxation
   IWAVPR =     11    prediction:  0-non 1-charg 2-wave 3-comb
   ISYM   =      2    0-nonsym 1-usesym 2-fastsym
   LCORR  =      T    Harris-Foulkes like correction to forces

   POTIM  = 0.5000    time-step for ionic-motion
   TEIN   =    0.0    initial temperature
   TEBEG  =    0.0;   TEEND  =   0.0 temperature during run
   SMASS  =  -3.00    Nose mass-parameter (am)
   estimated Nose-frequenzy (Omega)   =  0.10E-29 period in steps =****** mass=  -0.345E-27a.u.
   SCALEE = 1.0000    scale energy and forces
   NPACO  =    256;   APACO  = 16.0  distance and # of slots for P.C.
   PSTRESS=    0.0 pullay stress

  Mass of Ions in am
   POMASS =  28.09
  Ionic Valenz
   ZVAL   =   4.00
  Atomic Wigner-Seitz radii
   RWIGS  =  -1.00
  virtual crystal weights 
   VCA    =   1.00
   NELECT =       8.0000    total number of electrons
   NUPDOWN=      -1.0000    fix difference up-down

 DOS related values:
   EMIN   =  10.00;   EMAX   =-10.00  energy-range for DOS
   EFERMI =   0.00
   ISMEAR =     0;   SIGMA  =   0.20  broadening in eV -4-tet -1-fermi 0-gaus

 Electronic relaxation 2 (details)
   IALGO  =     38    algorithm
   LDIAG  =      T    sub-space diagonalisation (order eigenvalues)
   LSUBROT=      F    optimize rotation matrix (better conditioning)
   TURBO    =      0    0=normal 1=particle mesh
   IRESTART =      0    0=no restart 2=restart with 2 vectors
   NREBOOT  =      0    no. of reboots
   NMIN     =      0    reboot dimension
   EREF     =   0.00    reference energy to select bands
   IMIX   =      4    mixing-type and parameters
     AMIX     =   0.40;   BMIX     =  1.00
     AMIX_MAG =   1.60;   BMIX_MAG =  1.00
     AMIN     =   0.10
     WC   =   100.;   INIMIX=   1;  MIXPRE=   1;  MAXMIX= -45

 Intra band minimization:
   WEIMIN = 0.0010     energy-eigenvalue tresh-hold
   EBREAK =  0.16E-08  absolut break condition
   DEPER  =   0.30     relativ break condition  

   TIME   =   0.40     timestep for ELM

  volume/ion in A,a.u.               =      20.72       139.86
  Fermi-wavevector in a.u.,A,eV,Ry     =   0.946087  1.787845 12.178313  0.895081
  Thomas-Fermi vector in A             =   2.074051

 Write flags
   LWAVE  =      F    write WAVECAR
   LCHARG =      F    write CHGCAR
   LVTOT  =      F    write LOCPOT, total local potential
   LVHAR  =      F    write LOCPOT, Hartree potential only
   LELF   =      F    write electronic localiz. function (ELF)
   LORBIT =      0    0 simple, 1 ext, 2 COOP (PROOUT)


 Dipole corrections
   LMONO  =      F    monopole corrections only (constant potential shift)
   LDIPOL =      F    correct potential (dipole corrections)
   IDIPOL =      0    1-x, 2-y, 3-z, 4-all directions 
   EPSILON=  1.0000000 bulk dielectric constant

 Exchange correlation treatment:
   GGA     =    BO    GGA type
   LEXCH   =    42    internal setting for exchange type
   VOSKOWN=      0    Vosko Wilk Nusair interpolation
   LHFCALC =     F    Hartree Fock is set to
   LHFONE  =     F    Hartree Fock one center treatment
   AEXX    =    0.0000 exact exchange contribution

 vdW DFT:
   LUSE_VDW   =     T    switch on vdW DFT
   Zab_VDW    =-.8491    correlation parameter
   PARAM1     =0.1833
   PARAM2     =0.2200
   PARAM3     =0.0000

 Linear response parameters
   LEPSILON=     F    determine dielectric tensor
   LRPA    =     F    only Hartree local field effects (RPA)
   LNABLA  =     F    use nabla operator in PAW spheres
   LVEL    =     F    velocity operator in full k-point grid
   LINTERFAST=   F  fast interpolation
   KINTER  =     0    interpolate to denser k-point grid
   CSHIFT  =0.1000    complex shift for real part using Kramers Kronig
   OMEGAMAX=  -1.0    maximum frequency
   DEG_THRESHOLD= 0.2000000E-02 threshold for treating states as degnerate
   RTIME   =    0.100 relaxation time in fs

 Orbital magnetization related:
   ORBITALMAG=     F  switch on orbital magnetization
   LCHIMAG   =     F  perturbation theory with respect to B field
   DQ        =  0.001000  dq finite difference perturbation B field



--------------------------------------------------------------------------------------------------------


 conjugate gradient relaxation of ions
 charge density and potential will be updated during run
 non-spin polarized calculation
 Variant of blocked Davidson
 Davidson routine will perform the subspace rotation
 perform sub-space diagonalisation
    after iterative eigenvector-optimisation
 modified Broyden-mixing scheme, WC =      100.0
 initial mixing is a Kerker type mixing with AMIX =  0.4000 and BMIX =      1.0000
 Hartree-type preconditioning will be used
 using additional bands           12
 reciprocal scheme for non local part
 use partial core corrections
 calculate Harris-corrections to forces   (improved forces if not selfconsistent)
 use gradient corrections 
 use of overlap-Matrix (Vanderbilt PP)
 Gauss-broadening in eV      SIGMA  =   0.20


--------------------------------------------------------------------------------------------------------


  energy-cutoff  :      500.00
  volume of cell :       41.45
      direct lattice vectors                 reciprocal lattice vectors
     0.000000000  2.746821138  2.746821138    -0.182028598  0.182028598  0.182028598
     2.746821138  0.000000000  2.746821138     0.182028598 -0.182028598  0.182028598
     2.746821138  2.746821138  0.000000000     0.182028598  0.182028598 -0.182028598

  length of vectors
     3.884591706  3.884591706  3.884591706     0.315282780  0.315282780  0.315282780



 k-points in units of 2pi/SCALE and weight: Automatic kpoint scheme                 
   0.00000000  0.00000000  0.00000000       0.000
  -0.01137679  0.01137679  0.01137679       0.002
  -0.02275357  0.02275357  0.02275357       0.002
  -0.03413036  0.03413036  0.03413036       0.002
  -0.04550715  0.04550715  0.04550715       0.002
  -0.05688394  0.05688394  0.05688394       0.002
  -0.06826072  0.06826072  0.06826072       0.002
  -0.07963751  0.07963751  0.07963751       0.002
  -0.09101430  0.09101430  0.09101430       0.001
   0.00000000  0.00000000  0.02275357       0.001
  -0.01137679  0.01137679  0.03413036       0.006
  -0.02275357  0.02275357  0.04550715       0.006
  -0.03413036  0.03413036  0.05688394       0.006
  -0.04550715  0.04550715  0.06826072       0.006
  -0.05688394  0.05688394  0.07963751       0.006
  -0.06826072  0.06826072  0.09101430       0.006
  -0.07963751  0.07963751  0.10239109       0.006
   0.09101430 -0.09101430 -0.06826072       0.006
   0.07963751 -0.07963751 -0.05688394       0.006
   0.06826072 -0.06826072 -0.04550715       0.006
   0.05688394 -0.05688394 -0.03413036       0.006
   0.04550715 -0.04550715 -0.02275357       0.006
   0.03413036 -0.03413036 -0.01137679       0.006
   0.02275357 -0.02275357  0.00000000       0.003
   0.00000000  0.00000000  0.04550715       0.001
  -0.01137679  0.01137679  0.05688394       0.006
  -0.02275357  0.02275357  0.06826072       0.006
  -0.03413036  0.03413036  0.07963751       0.006
  -0.04550715  0.04550715  0.09101430       0.006
  -0.05688394  0.05688394  0.10239109       0.006
  -0.06826072  0.06826072  0.11376787       0.006
   0.10239109 -0.10239109 -0.05688394       0.006
   0.09101430 -0.09101430 -0.04550715       0.006
   0.07963751 -0.07963751 -0.03413036       0.006
   0.06826072 -0.06826072 -0.02275357       0.006
   0.05688394 -0.05688394 -0.01137679       0.006
   0.04550715 -0.04550715  0.00000000       0.003
   0.00000000  0.00000000  0.06826072       0.001
  -0.01137679  0.01137679  0.07963751       0.006
  -0.02275357  0.02275357  0.09101430       0.006
  -0.03413036  0.03413036  0.10239109       0.006
  -0.04550715  0.04550715  0.11376787       0.006
  -0.05688394  0.05688394  0.12514466       0.006
   0.11376787 -0.11376787 -0.04550715       0.006
   0.10239109 -0.10239109 -0.03413036       0.006
   0.09101430 -0.09101430 -0.02275357       0.006
   0.07963751 -0.07963751 -0.01137679       0.006
   0.06826072 -0.06826072  0.00000000       0.003
   0.00000000  0.00000000  0.09101430       0.001
  -0.01137679  0.01137679  0.10239109       0.006
  -0.02275357  0.02275357  0.11376787       0.006
  -0.03413036  0.03413036  0.12514466       0.006
  -0.04550715  0.04550715  0.13652145       0.006
   0.12514466 -0.12514466 -0.03413036       0.006
   0.11376787 -0.11376787 -0.02275357       0.006
   0.10239109 -0.10239109 -0.01137679       0.006
   0.09101430 -0.09101430  0.00000000       0.003
   0.00000000  0.00000000  0.11376787       0.001
  -0.01137679  0.01137679  0.12514466       0.006
  -0.02275357  0.02275357  0.13652145       0.006
  -0.03413036  0.03413036  0.14789824       0.006
   0.13652145 -0.13652145 -0.02275357       0.006
   0.12514466 -0.12514466 -0.01137679       0.006
   0.11376787 -0.11376787  0.00000000       0.003
   0.00000000  0.00000000  0.13652145       0.001
  -0.01137679  0.01137679  0.14789824       0.006
  -0.02275357  0.02275357  0.15927502       0.006
   0.14789824 -0.14789824 -0.01137679       0.006
   0.13652145 -0.13652145  0.00000000       0.003
   0.00000000  0.00000000  0.15927502       0.001
  -0.01137679  0.01137679  0.17065181       0.006
   0.15927502 -0.15927502  0.00000000       0.003
   0.00000000  0.00000000  0.18202860       0.001
   0.00000000  0.02275357  0.04550715       0.006
  -0.01137679  0.03413036  0.05688394       0.012
  -0.02275357  0.04550715  0.06826072       0.012
  -0.03413036  0.05688394  0.07963751       0.012
  -0.04550715  0.06826072  0.09101430       0.012
  -0.05688394  0.07963751  0.10239109       0.012
   0.11376787 -0.09101430 -0.06826072       0.006
   0.00000000  0.02275357  0.06826072       0.006
  -0.01137679  0.03413036  0.07963751       0.012
  -0.02275357  0.04550715  0.09101430       0.012
  -0.03413036  0.05688394  0.10239109       0.012
  -0.04550715  0.06826072  0.11376787       0.012
   0.12514466 -0.10239109 -0.05688394       0.012
   0.11376787 -0.09101430 -0.04550715       0.012
   0.10239109 -0.07963751 -0.03413036       0.012
   0.09101430 -0.06826072 -0.02275357       0.012
   0.07963751 -0.05688394 -0.01137679       0.012
   0.06826072 -0.04550715  0.00000000       0.006
   0.00000000  0.02275357  0.09101430       0.006
  -0.01137679  0.03413036  0.10239109       0.012
  -0.02275357  0.04550715  0.11376787       0.012
  -0.03413036  0.05688394  0.12514466       0.012
   0.13652145 -0.11376787 -0.04550715       0.012
   0.12514466 -0.10239109 -0.03413036       0.012
   0.11376787 -0.09101430 -0.02275357       0.012
   0.10239109 -0.07963751 -0.01137679       0.012
   0.09101430 -0.06826072  0.00000000       0.006
   0.00000000  0.02275357  0.11376787       0.006
  -0.01137679  0.03413036  0.12514466       0.012
  -0.02275357  0.04550715  0.13652145       0.012
   0.14789824 -0.12514466 -0.03413036       0.012
   0.13652145 -0.11376787 -0.02275357       0.012
   0.12514466 -0.10239109 -0.01137679       0.012
   0.11376787 -0.09101430  0.00000000       0.006
   0.00000000  0.02275357  0.13652145       0.006
  -0.01137679  0.03413036  0.14789824       0.012
   0.15927502 -0.13652145 -0.02275357       0.012
   0.14789824 -0.12514466 -0.01137679       0.012
   0.13652145 -0.11376787  0.00000000       0.006
   0.00000000  0.02275357  0.15927502       0.006
   0.17065181 -0.14789824 -0.01137679       0.012
   0.15927502 -0.13652145  0.00000000       0.006
   0.18202860 -0.15927502  0.00000000       0.003
   0.00000000  0.04550715  0.09101430       0.006
  -0.01137679  0.05688394  0.10239109       0.012
  -0.02275357  0.06826072  0.11376787       0.012
   0.14789824 -0.10239109 -0.05688394       0.012
   0.13652145 -0.09101430 -0.04550715       0.006
   0.00000000  0.04550715  0.11376787       0.006
  -0.01137679  0.05688394  0.12514466       0.012
   0.15927502 -0.11376787 -0.04550715       0.012
   0.14789824 -0.10239109 -0.03413036       0.012
   0.13652145 -0.09101430 -0.02275357       0.012
   0.12514466 -0.07963751 -0.01137679       0.012
   0.11376787 -0.06826072  0.00000000       0.006
   0.00000000  0.04550715  0.13652145       0.006
   0.17065181 -0.12514466 -0.03413036       0.012
   0.15927502 -0.11376787 -0.02275357       0.012
   0.14789824 -0.10239109 -0.01137679       0.012
   0.13652145 -0.09101430  0.00000000       0.006
   0.18202860 -0.13652145 -0.02275357       0.006
   0.17065181 -0.12514466 -0.01137679       0.012
   0.15927502 -0.11376787  0.00000000       0.006
   0.18202860 -0.13652145  0.00000000       0.003
   0.18202860 -0.11376787 -0.04550715       0.006
   0.17065181 -0.10239109 -0.03413036       0.012
   0.15927502 -0.09101430 -0.02275357       0.006
   0.18202860 -0.11376787 -0.02275357       0.006
   0.17065181 -0.10239109 -0.01137679       0.012
   0.15927502 -0.09101430  0.00000000       0.006
   0.18202860 -0.11376787  0.00000000       0.003
   0.18202860 -0.09101430  0.00000000       0.001

 k-points in reciprocal lattice and weights: Automatic kpoint scheme                 
   0.00000000  0.00000000  0.00000000       0.000
   0.06250000  0.00000000  0.00000000       0.002
   0.12500000  0.00000000  0.00000000       0.002
   0.18750000  0.00000000  0.00000000       0.002
   0.25000000  0.00000000  0.00000000       0.002
   0.31250000  0.00000000  0.00000000       0.002
   0.37500000  0.00000000  0.00000000       0.002
   0.43750000  0.00000000  0.00000000       0.002
   0.50000000  0.00000000  0.00000000       0.001
   0.06250000  0.06250000  0.00000000       0.001
   0.12500000  0.06250000  0.00000000       0.006
   0.18750000  0.06250000  0.00000000       0.006
   0.25000000  0.06250000  0.00000000       0.006
   0.31250000  0.06250000  0.00000000       0.006
   0.37500000  0.06250000  0.00000000       0.006
   0.43750000  0.06250000  0.00000000       0.006
   0.50000000  0.06250000  0.00000000       0.006
  -0.43750000  0.06250000  0.00000000       0.006
  -0.37500000  0.06250000  0.00000000       0.006
  -0.31250000  0.06250000  0.00000000       0.006
  -0.25000000  0.06250000  0.00000000       0.006
  -0.18750000  0.06250000  0.00000000       0.006
  -0.12500000  0.06250000  0.00000000       0.006
  -0.06250000  0.06250000  0.00000000       0.003
   0.12500000  0.12500000  0.00000000       0.001
   0.18750000  0.12500000  0.00000000       0.006
   0.25000000  0.12500000  0.00000000       0.006
   0.31250000  0.12500000  0.00000000       0.006
   0.37500000  0.12500000  0.00000000       0.006
   0.43750000  0.12500000  0.00000000       0.006
   0.50000000  0.12500000  0.00000000       0.006
  -0.43750000  0.12500000  0.00000000       0.006
  -0.37500000  0.12500000  0.00000000       0.006
  -0.31250000  0.12500000  0.00000000       0.006
  -0.25000000  0.12500000  0.00000000       0.006
  -0.18750000  0.12500000  0.00000000       0.006
  -0.12500000  0.12500000  0.00000000       0.003
   0.18750000  0.18750000  0.00000000       0.001
   0.25000000  0.18750000  0.00000000       0.006
   0.31250000  0.18750000  0.00000000       0.006
   0.37500000  0.18750000  0.00000000       0.006
   0.43750000  0.18750000  0.00000000       0.006
   0.50000000  0.18750000  0.00000000       0.006
  -0.43750000  0.18750000  0.00000000       0.006
  -0.37500000  0.18750000  0.00000000       0.006
  -0.31250000  0.18750000  0.00000000       0.006
  -0.25000000  0.18750000  0.00000000       0.006
  -0.18750000  0.18750000  0.00000000       0.003
   0.25000000  0.25000000  0.00000000       0.001
   0.31250000  0.25000000  0.00000000       0.006
   0.37500000  0.25000000  0.00000000       0.006
   0.43750000  0.25000000  0.00000000       0.006
   0.50000000  0.25000000  0.00000000       0.006
  -0.43750000  0.25000000  0.00000000       0.006
  -0.37500000  0.25000000  0.00000000       0.006
  -0.31250000  0.25000000  0.00000000       0.006
  -0.25000000  0.25000000  0.00000000       0.003
   0.31250000  0.31250000  0.00000000       0.001
   0.37500000  0.31250000  0.00000000       0.006
   0.43750000  0.31250000  0.00000000       0.006
   0.50000000  0.31250000  0.00000000       0.006
  -0.43750000  0.31250000  0.00000000       0.006
  -0.37500000  0.31250000  0.00000000       0.006
  -0.31250000  0.31250000  0.00000000       0.003
   0.37500000  0.37500000  0.00000000       0.001
   0.43750000  0.37500000  0.00000000       0.006
   0.50000000  0.37500000  0.00000000       0.006
  -0.43750000  0.37500000  0.00000000       0.006
  -0.37500000  0.37500000  0.00000000       0.003
   0.43750000  0.43750000  0.00000000       0.001
   0.50000000  0.43750000  0.00000000       0.006
  -0.43750000  0.43750000  0.00000000       0.003
   0.50000000  0.50000000  0.00000000       0.001
   0.18750000  0.12500000  0.06250000       0.006
   0.25000000  0.12500000  0.06250000       0.012
   0.31250000  0.12500000  0.06250000       0.012
   0.37500000  0.12500000  0.06250000       0.012
   0.43750000  0.12500000  0.06250000       0.012
   0.50000000  0.12500000  0.06250000       0.012
  -0.43750000  0.12500000  0.06250000       0.006
   0.25000000  0.18750000  0.06250000       0.006
   0.31250000  0.18750000  0.06250000       0.012
   0.37500000  0.18750000  0.06250000       0.012
   0.43750000  0.18750000  0.06250000       0.012
   0.50000000  0.18750000  0.06250000       0.012
  -0.43750000  0.18750000  0.06250000       0.012
  -0.37500000  0.18750000  0.06250000       0.012
  -0.31250000  0.18750000  0.06250000       0.012
  -0.25000000  0.18750000  0.06250000       0.012
  -0.18750000  0.18750000  0.06250000       0.012
  -0.12500000  0.18750000  0.06250000       0.006
   0.31250000  0.25000000  0.06250000       0.006
   0.37500000  0.25000000  0.06250000       0.012
   0.43750000  0.25000000  0.06250000       0.012
   0.50000000  0.25000000  0.06250000       0.012
  -0.43750000  0.25000000  0.06250000       0.012
  -0.37500000  0.25000000  0.06250000       0.012
  -0.31250000  0.25000000  0.06250000       0.012
  -0.25000000  0.25000000  0.06250000       0.012
  -0.18750000  0.25000000  0.06250000       0.006
   0.37500000  0.31250000  0.06250000       0.006
   0.43750000  0.31250000  0.06250000       0.012
   0.50000000  0.31250000  0.06250000       0.012
  -0.43750000  0.31250000  0.06250000       0.012
  -0.37500000  0.31250000  0.06250000       0.012
  -0.31250000  0.31250000  0.06250000       0.012
  -0.25000000  0.31250000  0.06250000       0.006
   0.43750000  0.37500000  0.06250000       0.006
   0.50000000  0.37500000  0.06250000       0.012
  -0.43750000  0.37500000  0.06250000       0.012
  -0.37500000  0.37500000  0.06250000       0.012
  -0.31250000  0.37500000  0.06250000       0.006
   0.50000000  0.43750000  0.06250000       0.006
  -0.43750000  0.43750000  0.06250000       0.012
  -0.37500000  0.43750000  0.06250000       0.006
  -0.43750000  0.50000000  0.06250000       0.003
   0.37500000  0.25000000  0.12500000       0.006
   0.43750000  0.25000000  0.12500000       0.012
   0.50000000  0.25000000  0.12500000       0.012
  -0.43750000  0.25000000  0.12500000       0.012
  -0.37500000  0.25000000  0.12500000       0.006
   0.43750000  0.31250000  0.12500000       0.006
   0.50000000  0.31250000  0.12500000       0.012
  -0.43750000  0.31250000  0.12500000       0.012
  -0.37500000  0.31250000  0.12500000       0.012
  -0.31250000  0.31250000  0.12500000       0.012
  -0.25000000  0.31250000  0.12500000       0.012
  -0.18750000  0.31250000  0.12500000       0.006
   0.50000000  0.37500000  0.12500000       0.006
  -0.43750000  0.37500000  0.12500000       0.012
  -0.37500000  0.37500000  0.12500000       0.012
  -0.31250000  0.37500000  0.12500000       0.012
  -0.25000000  0.37500000  0.12500000       0.006
  -0.43750000  0.43750000  0.12500000       0.006
  -0.37500000  0.43750000  0.12500000       0.012
  -0.31250000  0.43750000  0.12500000       0.006
  -0.37500000  0.50000000  0.12500000       0.003
  -0.43750000  0.37500000  0.18750000       0.006
  -0.37500000  0.37500000  0.18750000       0.012
  -0.31250000  0.37500000  0.18750000       0.006
  -0.37500000  0.43750000  0.18750000       0.006
  -0.31250000  0.43750000  0.18750000       0.012
  -0.25000000  0.43750000  0.18750000       0.006
  -0.31250000  0.50000000  0.18750000       0.003
  -0.25000000  0.50000000  0.25000000       0.001

 position of ions in fractional coordinates (direct lattice) 
   0.75000000  0.75000000  0.75000000
   0.50000000  0.50000000  0.50000000

 position of ions in cartesian coordinates  (Angst):
   4.12023171  4.12023171  4.12023171
   2.74682114  2.74682114  2.74682114



--------------------------------------------------------------------------------------------------------


 k-point  1 :   0.0000 0.0000 0.0000  plane waves:    1067
 k-point  2 :   0.0625 0.0000 0.0000  plane waves:    1046
 k-point  3 :   0.1250 0.0000 0.0000  plane waves:    1034
 k-point  4 :   0.1875 0.0000 0.0000  plane waves:    1043
 k-point  5 :   0.2500 0.0000 0.0000  plane waves:    1053
 k-point  6 :   0.3125 0.0000 0.0000  plane waves:    1056
 k-point  7 :   0.3750 0.0000 0.0000  plane waves:    1050
 k-point  8 :   0.4375 0.0000 0.0000  plane waves:    1044
 k-point  9 :   0.5000 0.0000 0.0000  plane waves:    1056
 k-point 10 :   0.0625 0.0625 0.0000  plane waves:    1042
 k-point 11 :   0.1250 0.0625 0.0000  plane waves:    1030
 k-point 12 :   0.1875 0.0625 0.0000  plane waves:    1034
 k-point 13 :   0.2500 0.0625 0.0000  plane waves:    1046
 k-point 14 :   0.3125 0.0625 0.0000  plane waves:    1055
 k-point 15 :   0.3750 0.0625 0.0000  plane waves:    1055
 k-point 16 :   0.4375 0.0625 0.0000  plane waves:    1043
 k-point 17 :   0.5000 0.0625 0.0000  plane waves:    1054
 k-point 18 :  -0.4375 0.0625 0.0000  plane waves:    1050
 k-point 19 :  -0.3750 0.0625 0.0000  plane waves:    1049
 k-point 20 :  -0.3125 0.0625 0.0000  plane waves:    1049
 k-point 21 :  -0.2500 0.0625 0.0000  plane waves:    1055
 k-point 22 :  -0.1875 0.0625 0.0000  plane waves:    1039
 k-point 23 :  -0.1250 0.0625 0.0000  plane waves:    1035
 k-point 24 :  -0.0625 0.0625 0.0000  plane waves:    1027
 k-point 25 :   0.1250 0.1250 0.0000  plane waves:    1038
 k-point 26 :   0.1875 0.1250 0.0000  plane waves:    1036
 k-point 27 :   0.2500 0.1250 0.0000  plane waves:    1046
 k-point 28 :   0.3125 0.1250 0.0000  plane waves:    1052
 k-point 29 :   0.3750 0.1250 0.0000  plane waves:    1047
 k-point 30 :   0.4375 0.1250 0.0000  plane waves:    1049
 k-point 31 :   0.5000 0.1250 0.0000  plane waves:    1051
 k-point 32 :  -0.4375 0.1250 0.0000  plane waves:    1052
 k-point 33 :  -0.3750 0.1250 0.0000  plane waves:    1054
 k-point 34 :  -0.3125 0.1250 0.0000  plane waves:    1049
 k-point 35 :  -0.2500 0.1250 0.0000  plane waves:    1056
 k-point 36 :  -0.1875 0.1250 0.0000  plane waves:    1048
 k-point 37 :  -0.1250 0.1250 0.0000  plane waves:    1049
 k-point 38 :   0.1875 0.1875 0.0000  plane waves:    1042
 k-point 39 :   0.2500 0.1875 0.0000  plane waves:    1047
 k-point 40 :   0.3125 0.1875 0.0000  plane waves:    1051
 k-point 41 :   0.3750 0.1875 0.0000  plane waves:    1048
 k-point 42 :   0.4375 0.1875 0.0000  plane waves:    1056
 k-point 43 :   0.5000 0.1875 0.0000  plane waves:    1055
 k-point 44 :  -0.4375 0.1875 0.0000  plane waves:    1057
 k-point 45 :  -0.3750 0.1875 0.0000  plane waves:    1060
 k-point 46 :  -0.3125 0.1875 0.0000  plane waves:    1057
 k-point 47 :  -0.2500 0.1875 0.0000  plane waves:    1054
 k-point 48 :  -0.1875 0.1875 0.0000  plane waves:    1061
 k-point 49 :   0.2500 0.2500 0.0000  plane waves:    1062
 k-point 50 :   0.3125 0.2500 0.0000  plane waves:    1038
 k-point 51 :   0.3750 0.2500 0.0000  plane waves:    1048
 k-point 52 :   0.4375 0.2500 0.0000  plane waves:    1052
 k-point 53 :   0.5000 0.2500 0.0000  plane waves:    1053
 k-point 54 :  -0.4375 0.2500 0.0000  plane waves:    1057
 k-point 55 :  -0.3750 0.2500 0.0000  plane waves:    1064
 k-point 56 :  -0.3125 0.2500 0.0000  plane waves:    1054
 k-point 57 :  -0.2500 0.2500 0.0000  plane waves:    1049
 k-point 58 :   0.3125 0.3125 0.0000  plane waves:    1030
 k-point 59 :   0.3750 0.3125 0.0000  plane waves:    1046
 k-point 60 :   0.4375 0.3125 0.0000  plane waves:    1052
 k-point 61 :   0.5000 0.3125 0.0000  plane waves:    1056
 k-point 62 :  -0.4375 0.3125 0.0000  plane waves:    1050
 k-point 63 :  -0.3750 0.3125 0.0000  plane waves:    1054
 k-point 64 :  -0.3125 0.3125 0.0000  plane waves:    1063
 k-point 65 :   0.3750 0.3750 0.0000  plane waves:    1042
 k-point 66 :   0.4375 0.3750 0.0000  plane waves:    1050
 k-point 67 :   0.5000 0.3750 0.0000  plane waves:    1056
 k-point 68 :  -0.4375 0.3750 0.0000  plane waves:    1048
 k-point 69 :  -0.3750 0.3750 0.0000  plane waves:    1063
 k-point 70 :   0.4375 0.4375 0.0000  plane waves:    1054
 k-point 71 :   0.5000 0.4375 0.0000  plane waves:    1053
 k-point 72 :  -0.4375 0.4375 0.0000  plane waves:    1047
 k-point 73 :   0.5000 0.5000 0.0000  plane waves:    1034
 k-point 74 :   0.1875 0.1250 0.0625  plane waves:    1031
 k-point 75 :   0.2500 0.1250 0.0625  plane waves:    1037
 k-point 76 :   0.3125 0.1250 0.0625  plane waves:    1047
 k-point 77 :   0.3750 0.1250 0.0625  plane waves:    1050
 k-point 78 :   0.4375 0.1250 0.0625  plane waves:    1051
 k-point 79 :   0.5000 0.1250 0.0625  plane waves:    1050
 k-point 80 :  -0.4375 0.1250 0.0625  plane waves:    1062
 k-point 81 :   0.2500 0.1875 0.0625  plane waves:    1042
 k-point 82 :   0.3125 0.1875 0.0625  plane waves:    1047
 k-point 83 :   0.3750 0.1875 0.0625  plane waves:    1051
 k-point 84 :   0.4375 0.1875 0.0625  plane waves:    1055
 k-point 85 :   0.5000 0.1875 0.0625  plane waves:    1054
 k-point 86 :  -0.4375 0.1875 0.0625  plane waves:    1055
 k-point 87 :  -0.3750 0.1875 0.0625  plane waves:    1055
 k-point 88 :  -0.3125 0.1875 0.0625  plane waves:    1051
 k-point 89 :  -0.2500 0.1875 0.0625  plane waves:    1048
 k-point 90 :  -0.1875 0.1875 0.0625  plane waves:    1053
 k-point 91 :  -0.1250 0.1875 0.0625  plane waves:    1046
 k-point 92 :   0.3125 0.2500 0.0625  plane waves:    1050
 k-point 93 :   0.3750 0.2500 0.0625  plane waves:    1047
 k-point 94 :   0.4375 0.2500 0.0625  plane waves:    1051
 k-point 95 :   0.5000 0.2500 0.0625  plane waves:    1053
 k-point 96 :  -0.4375 0.2500 0.0625  plane waves:    1061
 k-point 97 :  -0.3750 0.2500 0.0625  plane waves:    1059
 k-point 98 :  -0.3125 0.2500 0.0625  plane waves:    1059
 k-point 99 :  -0.2500 0.2500 0.0625  plane waves:    1051
 k-point ** :  -0.1875 0.2500 0.0625  plane waves:    1052
 k-point ** :   0.3750 0.3125 0.0625  plane waves:    1044
 k-point ** :   0.4375 0.3125 0.0625  plane waves:    1051
 k-point ** :   0.5000 0.3125 0.0625  plane waves:    1052
 k-point ** :  -0.4375 0.3125 0.0625  plane waves:    1056
 k-point ** :  -0.3750 0.3125 0.0625  plane waves:    1057
 k-point ** :  -0.3125 0.3125 0.0625  plane waves:    1059
 k-point ** :  -0.2500 0.3125 0.0625  plane waves:    1050
 k-point ** :   0.4375 0.3750 0.0625  plane waves:    1048
 k-point ** :   0.5000 0.3750 0.0625  plane waves:    1054
 k-point ** :  -0.4375 0.3750 0.0625  plane waves:    1053
 k-point ** :  -0.3750 0.3750 0.0625  plane waves:    1057
 k-point ** :  -0.3125 0.3750 0.0625  plane waves:    1053
 k-point ** :   0.5000 0.4375 0.0625  plane waves:    1058
 k-point ** :  -0.4375 0.4375 0.0625  plane waves:    1053
 k-point ** :  -0.3750 0.4375 0.0625  plane waves:    1051
 k-point ** :  -0.4375 0.5000 0.0625  plane waves:    1060
 k-point ** :   0.3750 0.2500 0.1250  plane waves:    1048
 k-point ** :   0.4375 0.2500 0.1250  plane waves:    1052
 k-point ** :   0.5000 0.2500 0.1250  plane waves:    1056
 k-point ** :  -0.4375 0.2500 0.1250  plane waves:    1060
 k-point ** :  -0.3750 0.2500 0.1250  plane waves:    1058
 k-point ** :   0.4375 0.3125 0.1250  plane waves:    1050
 k-point ** :   0.5000 0.3125 0.1250  plane waves:    1050
 k-point ** :  -0.4375 0.3125 0.1250  plane waves:    1056
 k-point ** :  -0.3750 0.3125 0.1250  plane waves:    1060
 k-point ** :  -0.3125 0.3125 0.1250  plane waves:    1058
 k-point ** :  -0.2500 0.3125 0.1250  plane waves:    1055
 k-point ** :  -0.1875 0.3125 0.1250  plane waves:    1047
 k-point ** :   0.5000 0.3750 0.1250  plane waves:    1051
 k-point ** :  -0.4375 0.3750 0.1250  plane waves:    1059
 k-point ** :  -0.3750 0.3750 0.1250  plane waves:    1056
 k-point ** :  -0.3125 0.3750 0.1250  plane waves:    1059
 k-point ** :  -0.2500 0.3750 0.1250  plane waves:    1060
 k-point ** :  -0.4375 0.4375 0.1250  plane waves:    1055
 k-point ** :  -0.3750 0.4375 0.1250  plane waves:    1057
 k-point ** :  -0.3125 0.4375 0.1250  plane waves:    1062
 k-point ** :  -0.3750 0.5000 0.1250  plane waves:    1058
 k-point ** :  -0.4375 0.3750 0.1875  plane waves:    1056
 k-point ** :  -0.3750 0.3750 0.1875  plane waves:    1057
 k-point ** :  -0.3125 0.3750 0.1875  plane waves:    1054
 k-point ** :  -0.3750 0.4375 0.1875  plane waves:    1049
 k-point ** :  -0.3125 0.4375 0.1875  plane waves:    1056
 k-point ** :  -0.2500 0.4375 0.1875  plane waves:    1057
 k-point ** :  -0.3125 0.5000 0.1875  plane waves:    1056
 k-point ** :  -0.2500 0.5000 0.2500  plane waves:    1048

 maximum and minimum number of plane-waves per node :      1067     1027

 maximum number of plane-waves:      1067
 maximum index in each direction: 
   IXMAX=    7   IYMAX=    7   IZMAX=    7
   IXMIN=   -7   IYMIN=   -7   IZMIN=   -7

 WARNING: aliasing errors must be expected set NGX to  30 to avoid them
 WARNING: aliasing errors must be expected set NGY to  30 to avoid them
 WARNING: aliasing errors must be expected set NGZ to  30 to avoid them
 aliasing errors are usually negligible using standard VASP settings
 and one can safely disregard these warnings

 serial   3D FFT for wavefunctions
 parallel 3D FFT for charge:
    minimum data exchange during FFTs selected (reduces bandwidth)


 total amount of memory used by VASP on root node    44536. kBytes
========================================================================

   base      :      30000. kBytes
   nonl-proj :       9982. kBytes
   fftplans  :        517. kBytes
   grid      :       1507. kBytes
   one-center:          6. kBytes
   wavefun   :       2524. kBytes

     INWAV:  cpu time    0.0000: real time    0.0000
 Broyden mixing: mesh for mixing (old mesh)
   NGX = 15   NGY = 15   NGZ = 15
  (NGX  = 56   NGY  = 56   NGZ  = 56)
  gives a total of   3375 points

 initial charge density was supplied:
 charge density of overlapping atoms calculated
 number of electron       8.0000000 magnetization 
 keeping initial charge density in first step


--------------------------------------------------------------------------------------------------------


 Maximum index for augmentation-charges         1417 (set IRDMAX)


--------------------------------------------------------------------------------------------------------


 First call to EWALD:  gamma=   0.512
 Maximum number of real-space cells 3x 3x 3
 Maximum number of reciprocal cells 3x 3x 3

 FEWALD executed in parallel
    FEWALD:  cpu time    0.0000: real time    0.0009


----------------------------------------- Iteration    1(   1)  ---------------------------------------


vdW kernel read from vdw_kernel.bindat
  0.0000  0.2424  0.5071  0.7962  1.1119  1.4567  1.8333  2.2446  2.6937  3.1842
  3.7199  4.3049  4.9438  5.6415  6.4036  7.2358  8.1446  9.1372 10.2212 11.4050
 12.6979 14.1099 15.6519 17.3360 19.1751 21.1837 23.3773 25.7729 28.3892 31.2465
 34.3669 37.7748 41.4965 45.5611 50.0000

    POTLOK:  cpu time    2.1240: real time    2.1269
    SETDIJ:  cpu time    0.0040: real time    0.0021
     EDDAV:  cpu time    1.6720: real time    1.6718
       DOS:  cpu time    0.0000: real time    0.0011
    --------------------------------------------
      LOOP:  cpu time    3.8040: real time    3.8036

 eigenvalue-minimisations  :  4640
 total energy-change (2. order) : 0.3026195E+01  (-0.3501487E+03)
 number of electron       8.0000000 magnetization 
 augmentation part        8.0000000 magnetization 

 Free energy of the ion-electron system (eV)
  ---------------------------------------------------
  alpha Z        PSCENC =         3.24857844
  Ewald energy   TEWEN  =      -225.91568183
  -Hartree energ DENC   =       -11.53197166
  -exchange      EXHF   =         0.00000000
  -V(xc)+E(xc)   XCENC  =       -20.29573795
  PAW double counting   =       189.40224250     -152.61488262
  entropy T*S    EENTRO =        -0.00933126
  eigenvalues    EBANDS =        12.14924141
  atomic energy  EATOM  =       208.59373829
  Solvation  Ediel_sol  =         0.00000000
  ---------------------------------------------------
  free energy    TOTEN  =         3.02619531 eV

  energy without entropy =        3.03552657  energy(sigma->0) =        3.03086094


--------------------------------------------------------------------------------------------------------




----------------------------------------- Iteration    1(   2)  ---------------------------------------


     EDDAV:  cpu time    2.5800: real time    2.5772
       DOS:  cpu time    0.0000: real time    0.0010
    --------------------------------------------
      LOOP:  cpu time    2.5800: real time    2.6243

 eigenvalue-minimisations  :  6768
 total energy-change (2. order) :-0.1135298E+02  (-0.1122160E+02)
 number of electron       8.0000000 magnetization 
 augmentation part        8.0000000 magnetization 

 Free energy of the ion-electron system (eV)
  ---------------------------------------------------
  alpha Z        PSCENC =         3.24857844
  Ewald energy   TEWEN  =      -225.91568183
  -Hartree energ DENC   =       -11.53197166
  -exchange      EXHF   =         0.00000000
  -V(xc)+E(xc)   XCENC  =       -20.29573795
  PAW double counting   =       189.40224250     -152.61488262
  entropy T*S    EENTRO =        -0.00000128
  eigenvalues    EBANDS =         0.78692903
  atomic energy  EATOM  =       208.59373829
  Solvation  Ediel_sol  =         0.00000000
  ---------------------------------------------------
  free energy    TOTEN  =        -8.32678709 eV

  energy without entropy =       -8.32678581  energy(sigma->0) =       -8.32678645


--------------------------------------------------------------------------------------------------------




----------------------------------------- Iteration    1(   3)  ---------------------------------------


     EDDAV:  cpu time    2.0760: real time    2.0725
       DOS:  cpu time    0.0000: real time    0.0011
    --------------------------------------------
      LOOP:  cpu time    2.0760: real time    2.1311

 eigenvalue-minimisations  :  5200
 total energy-change (2. order) :-0.8218493E-01  (-0.8218492E-01)
 number of electron       8.0000000 magnetization 
 augmentation part        8.0000000 magnetization 

 Free energy of the ion-electron system (eV)
  ---------------------------------------------------
  alpha Z        PSCENC =         3.24857844
  Ewald energy   TEWEN  =      -225.91568183
  -Hartree energ DENC   =       -11.53197166
  -exchange      EXHF   =         0.00000000
  -V(xc)+E(xc)   XCENC  =       -20.29573795
  PAW double counting   =       189.40224250     -152.61488262
  entropy T*S    EENTRO =        -0.00000110
  eigenvalues    EBANDS =         0.70474392
  atomic energy  EATOM  =       208.59373829
  Solvation  Ediel_sol  =         0.00000000
  ---------------------------------------------------
  free energy    TOTEN  =        -8.40897202 eV

  energy without entropy =       -8.40897092  energy(sigma->0) =       -8.40897147


--------------------------------------------------------------------------------------------------------




----------------------------------------- Iteration    1(   4)  ---------------------------------------


     EDDAV:  cpu time    4.3800: real time    4.3795
       DOS:  cpu time    0.0000: real time    0.0010
    --------------------------------------------
      LOOP:  cpu time    4.3840: real time    4.4765

 eigenvalue-minimisations  :  8672
 total energy-change (2. order) :-0.2383187E-03  (-0.2383195E-03)
 number of electron       8.0000000 magnetization 
 augmentation part        8.0000000 magnetization 

 Free energy of the ion-electron system (eV)
  ---------------------------------------------------
  alpha Z        PSCENC =         3.24857844
  Ewald energy   TEWEN  =      -225.91568183
  -Hartree energ DENC   =       -11.53197166
  -exchange      EXHF   =         0.00000000
  -V(xc)+E(xc)   XCENC  =       -20.29573795
  PAW double counting   =       189.40224250     -152.61488262
  entropy T*S    EENTRO =        -0.00000110
  eigenvalues    EBANDS =         0.70450560
  atomic energy  EATOM  =       208.59373829
  Solvation  Ediel_sol  =         0.00000000
  ---------------------------------------------------
  free energy    TOTEN  =        -8.40921034 eV

  energy without entropy =       -8.40920924  energy(sigma->0) =       -8.40920979


--------------------------------------------------------------------------------------------------------




----------------------------------------- Iteration    1(   5)  ---------------------------------------


     EDDAV:  cpu time    2.2320: real time    2.2315
       DOS:  cpu time    0.0000: real time    0.0011
    CHARGE:  cpu time    0.1240: real time    0.1233
    MIXING:  cpu time    0.0000: real time    0.0004
    --------------------------------------------
      LOOP:  cpu time    2.3560: real time    2.4341

 eigenvalue-minimisations  :  5120
 total energy-change (2. order) :-0.1280907E-07  (-0.1219140E-07)
 number of electron       7.9999999 magnetization 
 augmentation part       -0.4824989 magnetization 

 Broyden mixing:
  rms(total) = 0.36706E+00    rms(broyden)= 0.36706E+00
  rms(prec ) = 0.88301E+00
  weight for this iteration     100.00

 Free energy of the ion-electron system (eV)
  ---------------------------------------------------
  alpha Z        PSCENC =         3.24857844
  Ewald energy   TEWEN  =      -225.91568183
  -Hartree energ DENC   =       -11.53197166
  -exchange      EXHF   =         0.00000000
  -V(xc)+E(xc)   XCENC  =       -20.29573795
  PAW double counting   =       189.40224250     -152.61488262
  entropy T*S    EENTRO =        -0.00000110
  eigenvalues    EBANDS =         0.70450559
  atomic energy  EATOM  =       208.59373829
  Solvation  Ediel_sol  =         0.00000000
  ---------------------------------------------------
  free energy    TOTEN  =        -8.40921035 eV

  energy without entropy =       -8.40920925  energy(sigma->0) =       -8.40920980


--------------------------------------------------------------------------------------------------------




----------------------------------------- Iteration    1(   6)  ---------------------------------------


    POTLOK:  cpu time    1.5960: real time    1.5965
    SETDIJ:  cpu time    0.0040: real time    0.0026
     EDDAV:  cpu time    2.8600: real time    2.8611
       DOS:  cpu time    0.0040: real time    0.0011
    CHARGE:  cpu time    0.1200: real time    0.1194
    MIXING:  cpu time    0.0000: real time    0.0004
    --------------------------------------------
      LOOP:  cpu time    4.5840: real time    5.0846

 eigenvalue-minimisations  :  6944
 total energy-change (2. order) : 0.4945632E-01  (-0.8472953E-02)
 number of electron       7.9999999 magnetization 
 augmentation part       -0.4758197 magnetization 

 Broyden mixing:
  rms(total) = 0.22444E+00    rms(broyden)= 0.22444E+00
  rms(prec ) = 0.53317E+00
  weight for this iteration     100.00

 eigenvalues of (default mixing * dielectric matrix)
  average eigenvalue GAMMA=   2.5568
  2.5568

 Free energy of the ion-electron system (eV)
  ---------------------------------------------------
  alpha Z        PSCENC =         3.24857844
  Ewald energy   TEWEN  =      -225.91568183
  -Hartree energ DENC   =       -13.05557988
  -exchange      EXHF   =         0.00000000
  -V(xc)+E(xc)   XCENC  =       -20.06113299
  PAW double counting   =       304.67679600     -268.01731750
  entropy T*S    EENTRO =        -0.00000474
  eigenvalues    EBANDS =         2.17085018
  atomic energy  EATOM  =       208.59373829
  Solvation  Ediel_sol  =         0.00000000
  ---------------------------------------------------
  free energy    TOTEN  =        -8.35975403 eV

  energy without entropy =       -8.35974930  energy(sigma->0) =       -8.35975166


--------------------------------------------------------------------------------------------------------




----------------------------------------- Iteration    1(   7)  ---------------------------------------


    POTLOK:  cpu time    1.6280: real time    1.6290
    SETDIJ:  cpu time    0.0040: real time    0.0019
     EDDAV:  cpu time    3.2000: real time    3.1988
       DOS:  cpu time    0.0000: real time    0.0011
    CHARGE:  cpu time    0.1200: real time    0.1208
    MIXING:  cpu time    0.0000: real time    0.0005
    --------------------------------------------
      LOOP:  cpu time    4.9520: real time    5.0056

 eigenvalue-minimisations  :  7104
 total energy-change (2. order) : 0.5823531E-02  (-0.1936000E-01)
 number of electron       7.9999999 magnetization 
 augmentation part       -0.4668944 magnetization 

 Broyden mixing:
  rms(total) = 0.18549E-01    rms(broyden)= 0.18549E-01
  rms(prec ) = 0.47416E-01
  weight for this iteration     100.00

 eigenvalues of (default mixing * dielectric matrix)
  average eigenvalue GAMMA=   2.3175
  2.3175  2.3175

 Free energy of the ion-electron system (eV)
  ---------------------------------------------------
  alpha Z        PSCENC =         3.24857844
  Ewald energy   TEWEN  =      -225.91568183
  -Hartree energ DENC   =       -15.63066820
  -exchange      EXHF   =         0.00000000
  -V(xc)+E(xc)   XCENC  =       -19.64197595
  PAW double counting   =       542.05498082     -505.56039951
  entropy T*S    EENTRO =        -0.00003427
  eigenvalues    EBANDS =         4.49753171
  atomic energy  EATOM  =       208.59373829
  Solvation  Ediel_sol  =         0.00000000
  ---------------------------------------------------
  free energy    TOTEN  =        -8.35393050 eV

  energy without entropy =       -8.35389623  energy(sigma->0) =       -8.35391337


--------------------------------------------------------------------------------------------------------




----------------------------------------- Iteration    1(   8)  ---------------------------------------


    POTLOK:  cpu time    1.6200: real time    1.6174
    SETDIJ:  cpu time    0.0000: real time    0.0019
     EDDAV:  cpu time    2.1200: real time    2.1170
       DOS:  cpu time    0.0000: real time    0.0013
    CHARGE:  cpu time    0.1200: real time    0.1183
    MIXING:  cpu time    0.0000: real time    0.0005
    --------------------------------------------
      LOOP:  cpu time    3.8600: real time    3.9208

 eigenvalue-minimisations  :  5456
 total energy-change (2. order) : 0.1640261E-01  (-0.4951946E-03)
 number of electron       7.9999999 magnetization 
 augmentation part       -0.4681937 magnetization 

 Broyden mixing:
  rms(total) = 0.95537E-02    rms(broyden)= 0.95537E-02
  rms(prec ) = 0.23528E-01
  weight for this iteration     100.00

 eigenvalues of (default mixing * dielectric matrix)
  average eigenvalue GAMMA=   2.2048
  3.1175  1.7485  1.7485

 Free energy of the ion-electron system (eV)
  ---------------------------------------------------
  alpha Z        PSCENC =         3.24857844
  Ewald energy   TEWEN  =      -225.91568183
  -Hartree energ DENC   =       -15.40733795
  -exchange      EXHF   =         0.00000000
  -V(xc)+E(xc)   XCENC  =       -19.65717451
  PAW double counting   =       520.41834435     -483.86052601
  entropy T*S    EENTRO =        -0.00002400
  eigenvalues    EBANDS =         4.24255532
  atomic energy  EATOM  =       208.59373829
  Solvation  Ediel_sol  =         0.00000000
  ---------------------------------------------------
  free energy    TOTEN  =        -8.33752789 eV

  energy without entropy =       -8.33750389  energy(sigma->0) =       -8.33751589


--------------------------------------------------------------------------------------------------------




----------------------------------------- Iteration    1(   9)  ---------------------------------------


    POTLOK:  cpu time    1.6240: real time    1.6222
    SETDIJ:  cpu time    0.0000: real time    0.0026
     EDDAV:  cpu time    2.9160: real time    2.9149
       DOS:  cpu time    0.0040: real time    0.0012
    CHARGE:  cpu time    0.1200: real time    0.1215
    MIXING:  cpu time    0.0000: real time    0.0005
    --------------------------------------------
      LOOP:  cpu time    4.6640: real time    4.8347

 eigenvalue-minimisations  :  7008
 total energy-change (2. order) :-0.1109615E-02  (-0.5505152E-04)
 number of electron       7.9999999 magnetization 
 augmentation part       -0.4678710 magnetization 

 Broyden mixing:
  rms(total) = 0.52386E-02    rms(broyden)= 0.52386E-02
  rms(prec ) = 0.68358E-02
  weight for this iteration     100.00

 eigenvalues of (default mixing * dielectric matrix)
  average eigenvalue GAMMA=   2.2431
  0.9631  2.9869  2.5862  2.4362

 Free energy of the ion-electron system (eV)
  ---------------------------------------------------
  alpha Z        PSCENC =         3.24857844
  Ewald energy   TEWEN  =      -225.91568183
  -Hartree energ DENC   =       -15.55065789
  -exchange      EXHF   =         0.00000000
  -V(xc)+E(xc)   XCENC  =       -19.63292192
  PAW double counting   =       530.43129668     -493.88037656
  entropy T*S    EENTRO =        -0.00002614
  eigenvalues    EBANDS =         4.36741343
  atomic energy  EATOM  =       208.59373829
  Solvation  Ediel_sol  =         0.00000000
  ---------------------------------------------------
  free energy    TOTEN  =        -8.33863750 eV

  energy without entropy =       -8.33861136  energy(sigma->0) =       -8.33862443


--------------------------------------------------------------------------------------------------------




----------------------------------------- Iteration    1(  10)  ---------------------------------------


    POTLOK:  cpu time    1.6120: real time    1.6099
    SETDIJ:  cpu time    0.0000: real time    0.0019
     EDDAV:  cpu time    2.9200: real time    2.9174
       DOS:  cpu time    0.0000: real time    0.0012
    CHARGE:  cpu time    0.1200: real time    0.1198
    MIXING:  cpu time    0.0000: real time    0.0005
    --------------------------------------------
      LOOP:  cpu time    4.6520: real time    4.7075

 eigenvalue-minimisations  :  6112
 total energy-change (2. order) :-0.2610482E-04  (-0.2297015E-05)
 number of electron       7.9999999 magnetization 
 augmentation part       -0.4678906 magnetization 

 Broyden mixing:
  rms(total) = 0.10528E-02    rms(broyden)= 0.10528E-02
  rms(prec ) = 0.11695E-02
  weight for this iteration     100.00

 eigenvalues of (default mixing * dielectric matrix)
  average eigenvalue GAMMA=   1.8887
  2.9246  2.5033  2.2646  0.9682  0.7831

 Free energy of the ion-electron system (eV)
  ---------------------------------------------------
  alpha Z        PSCENC =         3.24857844
  Ewald energy   TEWEN  =      -225.91568183
  -Hartree energ DENC   =       -15.53131281
  -exchange      EXHF   =         0.00000000
  -V(xc)+E(xc)   XCENC  =       -19.63701622
  PAW double counting   =       521.87357515     -485.32209193
  entropy T*S    EENTRO =        -0.00002563
  eigenvalues    EBANDS =         4.35157294
  atomic energy  EATOM  =       208.59373829
  Solvation  Ediel_sol  =         0.00000000
  ---------------------------------------------------
  free energy    TOTEN  =        -8.33866361 eV

  energy without entropy =       -8.33863797  energy(sigma->0) =       -8.33865079


--------------------------------------------------------------------------------------------------------




----------------------------------------- Iteration    1(  11)  ---------------------------------------


    POTLOK:  cpu time    1.6120: real time    1.6100
    SETDIJ:  cpu time    0.0000: real time    0.0020
     EDDAV:  cpu time    3.4320: real time    3.4293
       DOS:  cpu time    0.0000: real time    0.0012
    CHARGE:  cpu time    0.1200: real time    0.1182
    MIXING:  cpu time    0.0000: real time    0.0006
    --------------------------------------------
      LOOP:  cpu time    5.1640: real time    5.4547

 eigenvalue-minimisations  :  7632
 total energy-change (2. order) : 0.1833237E-03  (-0.3002118E-07)
 number of electron       7.9999999 magnetization 
[...]
     10      16.2785      0.00000
     11      17.1958      0.00000
     12      18.5297      0.00000
     13      20.8176      0.00000
     14      22.0311      0.00000
     15      22.3779      0.00000
     16      23.3621      0.00000

 k-point   126 :      -0.3125    0.3125    0.1250
  band No.  band energies     occupation 
      1      -3.2423      2.00000
      2      -1.0565      2.00000
      3       1.6653      2.00000
      4       3.1055      2.00000
      5       8.4340      0.00000
      6       9.3257      0.00000
      7      11.4463      0.00000
      8      12.4046      0.00000
      9      12.5344      0.00000
     10      15.3145      0.00000
     11      17.9822      0.00000
     12      18.7614      0.00000
     13      21.0472      0.00000
     14      21.4623      0.00000
     15      22.0943      0.00000
     16      23.0164      0.00000

 k-point   127 :      -0.2500    0.3125    0.1250
  band No.  band energies     occupation 
      1      -3.6308      2.00000
      2      -0.5671      2.00000
      3       1.7307      2.00000
      4       3.3084      2.00000
      5       8.6958      0.00000
      6       9.1696      0.00000
      7      10.4357      0.00000
      8      12.3107      0.00000
      9      13.8030      0.00000
     10      14.3353      0.00000
     11      18.3289      0.00000
     12      19.4365      0.00000
     13      19.9253      0.00000
     14      20.1390      0.00000
     15      22.4446      0.00000
     16      23.3175      0.00000

 k-point   128 :      -0.1875    0.3125    0.1250
  band No.  band energies     occupation 
      1      -4.0836      2.00000
      2       0.0116      2.00000
      3       1.9895      2.00000
      4       3.5784      2.00000
      5       8.8314      0.00000
      6       8.9967      0.00000
      7       9.8221      0.00000
      8      11.9335      0.00000
      9      13.7146      0.00000
     10      15.1041      0.00000
     11      18.1380      0.00000
     12      18.4562      0.00000
     13      19.0360      0.00000
     14      20.5995      0.00000
     15      21.8563      0.00000
     16      23.3012      0.00000

 k-point   129 :       0.5000    0.3750    0.1250
  band No.  band energies     occupation 
      1      -3.6850      2.00000
      2      -0.3922      2.00000
      3       2.2608      2.00000
      4       2.8400      2.00000
      5       7.4773      0.00000
      6       8.1859      0.00000
      7      11.1428      0.00000
      8      13.3069      0.00000
      9      15.4728      0.00000
     10      15.5271      0.00000
     11      18.0491      0.00000
     12      18.5723      0.00000
     13      19.4716      0.00000
     14      19.9579      0.00000
     15      21.8780      0.00000
     16      22.2873      0.00000

 k-point   130 :      -0.4375    0.3750    0.1250
  band No.  band energies     occupation 
      1      -3.2288      2.00000
      2      -0.9156      2.00000
      3       1.9093      2.00000
      4       2.6581      2.00000
      5       7.7707      0.00000
      6       8.7683      0.00000
      7      10.8878      0.00000
      8      13.6405      0.00000
      9      14.1850      0.00000
     10      16.1250      0.00000
     11      17.7624      0.00000
     12      19.3770      0.00000
     13      19.9408      0.00000
     14      20.1791      0.00000
     15      22.1714      0.00000
     16      23.0487      0.00000

 k-point   131 :      -0.3750    0.3750    0.1250
  band No.  band energies     occupation 
      1      -2.8473      2.00000
      2      -1.3247      2.00000
      3       1.5972      2.00000
      4       2.6490      2.00000
      5       7.9157      0.00000
      6       9.7624      0.00000
      7      10.6829      0.00000
      8      12.8006      0.00000
      9      13.7278      0.00000
     10      16.3553      0.00000
     11      17.4659      0.00000
     12      19.6148      0.00000
     13      20.5642      0.00000
     14      21.1141      0.00000
     15      22.7762      0.00000
     16      23.5726      0.00000

 k-point   132 :      -0.3125    0.3750    0.1250
  band No.  band energies     occupation 
      1      -2.8285      2.00000
      2      -1.3371      2.00000
      3       1.4155      2.00000
      4       2.7761      2.00000
      5       8.1106      0.00000
      6      10.3108      0.00000
      7      11.0934      0.00000
      8      11.6145      0.00000
      9      13.5978      0.00000
     10      15.3522      0.00000
     11      18.4830      0.00000
     12      19.6347      0.00000
     13      20.6696      0.00000
     14      21.6862      0.00000
     15      22.4576      0.00000
     16      23.1088      0.00000

 k-point   133 :      -0.2500    0.3750    0.1250
  band No.  band energies     occupation 
      1      -3.1855      2.00000
      2      -0.9716      2.00000
      3       1.4388      2.00000
      4       3.0068      2.00000
      5       8.3764      0.00000
      6       9.9965      0.00000
      7      10.6465      0.00000
      8      12.4198      0.00000
      9      13.1889      0.00000
     10      14.5760      0.00000
     11      19.3151      0.00000
     12      19.5688      0.00000
     13      19.8859      0.00000
     14      21.4068      0.00000
     15      21.7075      0.00000
     16      23.4524      0.00000

 k-point   134 :      -0.4375    0.4375    0.1250
  band No.  band energies     occupation 
      1      -2.9324      2.00000
      2      -1.2537      2.00000
      3       2.1572      2.00000
      4       2.4355      2.00000
      5       7.4224      0.00000
      6       7.7644      0.00000
      7      12.1244      0.00000
      8      14.2221      0.00000
      9      14.7128      0.00000
     10      16.5052      0.00000
     11      17.5192      0.00000
     12      19.1257      0.00000
     13      19.4890      0.00000
     14      21.1222      0.00000
     15      21.6859      0.00000
     16      22.7072      0.00000

 k-point   135 :      -0.3750    0.4375    0.1250
  band No.  band energies     occupation 
      1      -2.5003      2.00000
      2      -1.6659      2.00000
      3       1.7942      2.00000
      4       2.3792      2.00000
      5       7.6692      0.00000
      6       8.5663      0.00000
      7      11.8758      0.00000
      8      12.9730      0.00000
      9      14.9117      0.00000
     10      16.2591      0.00000
     11      17.7094      0.00000
     12      19.0782      0.00000
     13      20.8302      0.00000
     14      21.4081      0.00000
     15      22.1071      0.00000
     16      23.0085      0.00000

 k-point   136 :      -0.3125    0.4375    0.1250
  band No.  band energies     occupation 
      1      -2.4558      2.00000
      2      -1.6825      2.00000
      3       1.4823      2.00000
      4       2.5244      2.00000
      5       7.8518      0.00000
      6       9.6971      0.00000
      7      11.5548      0.00000
      8      11.8161      0.00000
      9      14.5891      0.00000
     10      15.5749      0.00000
     11      18.3498      0.00000
     12      19.5224      0.00000
     13      20.9118      0.00000
     14      21.8631      0.00000
     15      22.2306      0.00000
     16      22.8262      0.00000

 k-point   137 :      -0.3750    0.5000    0.1250
  band No.  band energies     occupation 
      1      -2.1120      2.00000
      2      -2.1120      2.00000
      3       2.2109      2.00000
      4       2.2109      2.00000
      5       7.5136      0.00000
      6       7.5136      0.00000
      7      13.1904      0.00000
      8      13.1904      0.00000
      9      15.8426      0.00000
     10      15.8426      0.00000
     11      18.1161      0.00000
     12      18.1161      0.00000
     13      20.7181      0.00000
     14      20.7181      0.00000
     15      22.6528      0.00000
     16      22.6528      0.00000

 k-point   138 :      -0.4375    0.3750    0.1875
  band No.  band energies     occupation 
      1      -3.4637      2.00000
      2      -0.6517      2.00000
      3       1.7857      2.00000
      4       2.8636      2.00000
      5       8.6605      0.00000
      6       9.2393      0.00000
      7       9.7640      0.00000
      8      13.2488      0.00000
      9      13.9426      0.00000
     10      15.0534      0.00000
     11      18.8258      0.00000
     12      19.3595      0.00000
     13      19.5943      0.00000
     14      20.0364      0.00000
     15      21.8273      0.00000
     16      23.4918      0.00000

 k-point   139 :      -0.3750    0.3750    0.1875
  band No.  band energies     occupation 
      1      -3.0298      2.00000
      2      -1.1172      2.00000
      3       1.5922      2.00000
      4       2.6344      2.00000
      5       8.9658      0.00000
      6       9.3814      0.00000
      7      10.1396      0.00000
      8      12.5848      0.00000
      9      13.6389      0.00000
     10      15.7430      0.00000
     11      18.1162      0.00000
     12      19.4975      0.00000
     13      20.3723      0.00000
     14      21.2514      0.00000
     15      21.9857      0.00000
     16      24.0649      0.00000

 k-point   140 :      -0.3125    0.3750    0.1875
  band No.  band energies     occupation 
      1      -2.8080      2.00000
      2      -1.3541      2.00000
      3       1.5341      2.00000
      4       2.5511      2.00000
      5       9.0538      0.00000
      6       9.2742      0.00000
      7      11.0821      0.00000
      8      11.4801      0.00000
      9      13.7217      0.00000
     10      16.4499      0.00000
     11      17.3663      0.00000
     12      19.4747      0.00000
     13      20.6915      0.00000
     14      22.3098      0.00000
     15      22.5685      0.00000
     16      23.1749      0.00000

 k-point   141 :      -0.3750    0.4375    0.1875
  band No.  band energies     occupation 
      1      -2.7778      2.00000
      2      -1.3411      2.00000
      3       1.7529      2.00000
      4       2.2876      2.00000
      5       8.6033      0.00000
      6       8.8900      0.00000
      7      10.6204      0.00000
      8      12.7469      0.00000
      9      14.5764      0.00000
     10      16.2233      0.00000
     11      17.8309      0.00000
     12      19.2839      0.00000
     13      20.5412      0.00000
     14      21.3018      0.00000
     15      22.0533      0.00000
     16      23.5190      0.00000

 k-point   142 :      -0.3125    0.4375    0.1875
  band No.  band energies     occupation 
      1      -2.4400      2.00000
      2      -1.6571      2.00000
      3       1.6017      2.00000
      4       2.1723      2.00000
      5       8.8708      0.00000
      6       9.7804      0.00000
      7      10.4543      0.00000
      8      11.4418      0.00000
      9      14.9033      0.00000
     10      16.3213      0.00000
     11      17.6912      0.00000
     12      19.1799      0.00000
     13      20.8901      0.00000
     14      22.3255      0.00000
     15      22.6243      0.00000
     16      23.4239      0.00000

 k-point   143 :      -0.2500    0.4375    0.1875
  band No.  band energies     occupation 
      1      -2.6069      2.00000
      2      -1.4916      2.00000
      3       1.5057      2.00000
      4       2.3233      2.00000
      5       9.0777      0.00000
      6       9.9162      0.00000
      7      10.3544      0.00000
      8      11.2701      0.00000
      9      14.5729      0.00000
     10      15.9042      0.00000
     11      18.1119      0.00000
     12      19.4532      0.00000
     13      20.5978      0.00000
     14      21.8407      0.00000
     15      22.7911      0.00000
     16      23.7510      0.00000

 k-point   144 :      -0.3125    0.5000    0.1875
  band No.  band energies     occupation 
      1      -2.0581      2.00000
      2      -2.0581      2.00000
      3       1.9144      2.00000
      4       1.9144      2.00000
      5       8.6760      0.00000
      6       8.6760      0.00000
      7      11.6279      0.00000
      8      11.6279      0.00000
      9      15.8376      0.00000
     10      15.8376      0.00000
     11      18.2123      0.00000
     12      18.2123      0.00000
     13      21.8258      0.00000
     14      21.8258      0.00000
     15      22.7061      0.00000
     16      22.7061      0.00000

 k-point   145 :      -0.2500    0.5000    0.2500
  band No.  band energies     occupation 
      1      -2.0347      2.00000
      2      -2.0347      2.00000
      3       1.8021      2.00000
      4       1.8021      2.00000
      5       9.7642      0.00000
      6       9.7642      0.00000
      7      10.4072      0.00000
      8      10.4072      0.00000
      9      15.8397      0.00000
     10      15.8397      0.00000
     11      18.2558      0.00000
     12      18.2558      0.00000
     13      21.7404      0.00000
     14      21.7404      0.00000
     15      23.7798      0.00000
     16      23.7798      0.00000


--------------------------------------------------------------------------------------------------------


 soft charge-density along one line, spin component           1
         0         1         2         3         4         5         6         7         8         9
 total charge-density along one line

 pseudopotential strength for first ion, spin component:           1
 18.546  25.870  -0.000  -0.000  -0.000  -0.000  -0.000  -0.000
 25.870  36.092  -0.000  -0.000  -0.000  -0.000  -0.000  -0.000
 -0.000  -0.000   4.200  -0.000  -0.000   7.819  -0.000  -0.000
 -0.000  -0.000  -0.000   4.200  -0.000  -0.000   7.819  -0.000
 -0.000  -0.000  -0.000  -0.000   4.200  -0.000  -0.000   7.819
 -0.000  -0.000   7.819  -0.000  -0.000  14.567  -0.000  -0.000
 -0.000  -0.000  -0.000   7.819  -0.000  -0.000  14.567  -0.000
 -0.000  -0.000  -0.000  -0.000   7.819  -0.000  -0.000  14.567
 total augmentation occupancy for first ion, spin component:           1
  3.174  -0.925   0.000  -0.000  -0.000  -0.000  -0.000  -0.000
 -0.925   0.476   0.000   0.000   0.000  -0.000  -0.000   0.000
  0.000  -0.000   2.219  -0.000   0.000  -0.395   0.000   0.000
 -0.000  -0.000  -0.000   2.219  -0.000   0.000  -0.395  -0.000
  0.000  -0.000   0.000  -0.000   2.219   0.000   0.000  -0.395
  0.000   0.000  -0.395  -0.000   0.000   0.081   0.000   0.000
 -0.000  -0.000   0.000  -0.395  -0.000   0.000   0.081   0.000
 -0.000   0.000  -0.000  -0.000  -0.395   0.000  -0.000   0.081


------------------------ aborting loop because EDIFF is reached ----------------------------------------


    CHARGE:  cpu time    0.1200: real time    0.1200
    FORLOC:  cpu time    0.0000: real time    0.0005
    FORNL :  cpu time    0.1920: real time    0.1895
    STRESS:  cpu time    2.1840: real time    2.1818
    FORCOR:  cpu time    1.5880: real time    1.5867
    FORHAR:  cpu time    0.0040: real time    0.0040
    MIXING:  cpu time    0.0000: real time    0.0007
    OFIELD:  cpu time    0.0000: real time    0.0000

  FORCE on cell =-STRESS in cart. coord.  units (eV):
  Direction    XX          YY          ZZ          XY          YZ          ZX
  --------------------------------------------------------------------------------------
  Alpha Z     3.24858     3.24858     3.24858
  Ewald     -75.30526   -75.30526   -75.30526     0.00000    -0.00000    -0.00000
  Hartree     5.17714     5.17714     5.17714     0.00000     0.00000     0.00000
  E(xc)     -25.30722   -25.30722   -25.30722    -0.00000    -0.00000    -0.00000
  Local     -29.74888   -29.74888   -29.74888     0.00001     0.00001     0.00001
  n-local    78.52104    80.07470    74.28727     2.18488    -1.30449     0.50285
  augment   -11.97759   -11.97759   -11.97759    -0.00001    -0.00001    -0.00001
  Kinetic    58.49327    55.93252    54.43156     3.56458    -0.72131     1.05239
  Fock        0.00000     0.00000     0.00000     0.00000     0.00000     0.00000
  -------------------------------------------------------------------------------------
  Total       0.00023     0.00023     0.00023    -0.00000    -0.00000    -0.00000
  in kB       0.00876     0.00876     0.00876    -0.00000    -0.00000    -0.00000
  external pressure =        0.01 kB  Pullay stress =        0.00 kB


 VOLUME and BASIS-vectors are now :
 -----------------------------------------------------------------------------
  energy-cutoff  :      500.00
  volume of cell :       41.45
      direct lattice vectors                 reciprocal lattice vectors
     0.000000000  2.746821138  2.746821138    -0.182028598  0.182028598  0.182028598
     2.746821138  0.000000000  2.746821138     0.182028598 -0.182028598  0.182028598
     2.746821138  2.746821138  0.000000000     0.182028598  0.182028598 -0.182028598

  length of vectors
     3.884591706  3.884591706  3.884591706     0.315282780  0.315282780  0.315282780


 FORCES acting on ions
    electron-ion (+dipol)            ewald-force                    non-local-force                 convergence-correction
 -----------------------------------------------------------------------------------------------
   0.983E-08 0.983E-08 0.107E-07   -.313E-14 -.268E-14 -.153E-14   -.139E-15 -.763E-16 -.104E-15   -.465E-12 -.463E-12 -.467E-12
   -.983E-08 -.983E-08 -.107E-07   0.307E-14 0.301E-14 0.222E-14   0.118E-15 0.902E-16 0.937E-16   0.463E-12 0.463E-12 0.464E-12
 -----------------------------------------------------------------------------------------------
   0.348E-13 0.833E-13 -.121E-12   -.615E-16 0.330E-15 0.690E-15   -.208E-16 0.139E-16 -.104E-16   -.256E-14 -.297E-15 -.335E-14


 POSITION                                       TOTAL-FORCE (eV/Angst)
 -----------------------------------------------------------------------------------
      4.12023      4.12023      4.12023         0.000000      0.000000      0.000000
      2.74682      2.74682      2.74682        -0.000000     -0.000000     -0.000000
 -----------------------------------------------------------------------------------
    total drift:                                0.000000      0.000000     -0.000000


--------------------------------------------------------------------------------------------------------



  FREE ENERGIE OF THE ION-ELECTRON SYSTEM (eV)
  ---------------------------------------------------
  free  energy   TOTEN  =        -8.33846693 eV

  energy  without entropy=       -8.33844136  energy(sigma->0) =       -8.33845415



--------------------------------------------------------------------------------------------------------


    POTLOK:  cpu time    1.6200: real time    1.6198


--------------------------------------------------------------------------------------------------------




--------------------------------------------------------------------------------------------------------


  
 reached required accuracy - stopping structural energy minimisation
     LOOP+:  cpu time   66.5600: real time   70.3387
    4ORBIT:  cpu time    0.0000: real time    0.0000

 total amount of memory used by VASP on root node    44536. kBytes
========================================================================

   base      :      30000. kBytes
   nonl-proj :       9982. kBytes
   fftplans  :        517. kBytes
   grid      :       1507. kBytes
   one-center:          6. kBytes
   wavefun   :       2524. kBytes

  
  
 General timing and accounting informations for this job:
 ========================================================
  
                  Total CPU time used (sec):       67.620
                            User time (sec):       66.588
                          System time (sec):        1.032
                         Elapsed time (sec):       72.658
  
                   Maximum memory used (kb):      128292.
                   Average memory used (kb):           0.
  
                          Minor page faults:       761053
                          Major page faults:            6
                 Voluntary context switches:          280
