 running on   16 total cores
 distrk:  each k-point on   16 cores,    1 groups
 distr:  one band on    1 cores,   16 groups
 using from now: INCAR     
 vasp.5.4.1 24Jun15 (build Feb  9 2019 14:16:27) complex                         
 POSCAR found type information on POSCAR  Si
 POSCAR found :  1 types and       2 ions
 scaLAPACK will be used

 ----------------------------------------------------------------------------- 
|                                                                             |
|           W    W    AA    RRRRR   N    N  II  N    N   GGGG   !!!           |
|           W    W   A  A   R    R  NN   N  II  NN   N  G    G  !!!           |
|           W    W  A    A  R    R  N N  N  II  N N  N  G       !!!           |
|           W WW W  AAAAAA  RRRRR   N  N N  II  N  N N  G  GGG   !            |
|           WW  WW  A    A  R   R   N   NN  II  N   NN  G    G                |
|           W    W  A    A  R    R  N    N  II  N    N   GGGG   !!!           |
|                                                                             |
|      For optimal performance we recommend to set                            |
|        NCORE= 4 - approx SQRT( number of cores)                             |
|      NCORE specifies how many cores store one orbital (NPAR=cpu/NCORE).     |
|      This setting can  greatly improve the performance of VASP for DFT.     |
|      The default, NPAR=number of cores might be grossly inefficient         |
|      on modern multi-core architectures or massively parallel machines.     |
|      Do your own testing !!!!                                               |
|      Unfortunately you need to use the default for GW and RPA calculations. |
|      (for HF NCORE is supported but not extensively tested yet)             |
|                                                                             |
 ----------------------------------------------------------------------------- 


 ----------------------------------------------------------------------------- 
|                                                                             |
|  ADVICE TO THIS USER RUNNING 'VASP/VAMP'   (HEAR YOUR MASTER'S VOICE ...):  |
|                                                                             |
|      You have switched on vdW-DFT.                                          |
|      This routine was written and supplied by Jiri Klimes.                  |
|      We recommed that you carefully read and cite the following             |
|      publication                                                            |
|      J. Klimes, D.R. Bowler, A. Michelides                                  |
|        J. Phys.: Cond Matt. 22 022201 (2010)                                |
|      J. Klimes, D.R. Bowler, A. Michelides                                  |
|        Phys. Rev. B. 83, 195131 (2011)                                      |
|      and references therein.                                                |
|                                                                             |
 ----------------------------------------------------------------------------- 


 ----------------------------------------------------------------------------- 
|                                                                             |
|  ADVICE TO THIS USER RUNNING 'VASP/VAMP'   (HEAR YOUR MASTER'S VOICE ...):  |
|                                                                             |
|      You enforced a specific xc-type in the INCAR file,                     |
|      a different type was found on the POTCAR file                          |
|          I HOPE YOU KNOW, WHAT YOU ARE  DOING                               |
|                                                                             |
 ----------------------------------------------------------------------------- 

 LDA part: xc-table for Pade appr. of Perdew
 POSCAR, INCAR and KPOINTS ok, starting setup
 WARNING: small aliasing (wrap around) errors must be expected
 FFT: planning ...
 WAVECAR not read
 entering main loop
       N       E                     dE             d eps       ncg     rms          rms(c)
Total vdW correction in eV:      1.0901334
DAV:   1     0.302619530863E+01    0.30262E+01   -0.35015E+03  4640   0.394E+02
DAV:   2    -0.832678709163E+01   -0.11353E+02   -0.11222E+02  6768   0.397E+01
DAV:   3    -0.840897201722E+01   -0.82185E-01   -0.82185E-01  5200   0.433E+00
DAV:   4    -0.840921033596E+01   -0.23832E-03   -0.23832E-03  8672   0.255E-01
DAV:   5    -0.840921034877E+01   -0.12809E-07   -0.12191E-07  5120   0.159E-03    0.367E+00
Total vdW correction in eV:      1.1375756
DAV:   6    -0.835975403112E+01    0.49456E-01   -0.84730E-02  6944   0.858E-01    0.224E+00
Total vdW correction in eV:      1.2281375
DAV:   7    -0.835393050059E+01    0.58235E-02   -0.19360E-01  7104   0.128E+00    0.185E-01
Total vdW correction in eV:      1.2235760
DAV:   8    -0.833752788796E+01    0.16403E-01   -0.49519E-03  5456   0.243E-01    0.955E-02
Total vdW correction in eV:      1.2294194
DAV:   9    -0.833863750256E+01   -0.11096E-02   -0.55052E-04  7008   0.819E-02    0.524E-02
Total vdW correction in eV:      1.2291062
DAV:  10    -0.833866360738E+01   -0.26105E-04   -0.22970E-05  6112   0.215E-02    0.105E-02
Total vdW correction in eV:      1.2291078
DAV:  11    -0.833848028369E+01    0.18332E-03   -0.30021E-07  7632   0.257E-03    0.189E-03
Total vdW correction in eV:      1.2291490
DAV:  12    -0.833846923786E+01    0.11046E-04   -0.68103E-08  6160   0.136E-03    0.417E-04
Total vdW correction in eV:      1.2291475
DAV:  13    -0.833846691492E+01    0.23229E-05   -0.51726E-09  5344   0.330E-04    0.723E-05
Total vdW correction in eV:      1.2291486
DAV:  14    -0.833846718528E+01   -0.27037E-06   -0.17885E-10  3264   0.676E-05    0.445E-06
Total vdW correction in eV:      1.2291485
DAV:  15    -0.833846694320E+01    0.24208E-06   -0.71547E-12  3152   0.132E-05    0.255E-06
Total vdW correction in eV:      1.2291485
DAV:  16    -0.833846693303E+01    0.10168E-07   -0.12713E-12  2944   0.575E-06
Total vdW correction in eV:      1.2291485
Total vdW correction in eV:      1.2291485
   1 F= -.83384669E+01 E0= -.83384541E+01  d E =-.833847E+01
 curvature:   0.00 expect dE= 0.000E+00 dE for cont linesearch  0.000E+00
 trial: gam= 0.00000 g(F)=  0.118E-48 g(S)=  0.000E+00 ort = 0.000E+00 (trialstep = 0.100E+01)
 search vector abs. value=  0.100E-09
 reached required accuracy - stopping structural energy minimisation
