   2   2   1   0
  0.2072475E+02  0.3884586E-09  0.3884587E-09  0.3884586E-09  0.5000000E-15
   1.0000000000000000E-004
  CAR 
 Slab                                    
     49.70387706     -9.21107815 5000      5.37918281      1.00000000
     -9.211  0.0000E+00  0.0000E+00
     -9.199  0.0000E+00  0.0000E+00
     -9.188  0.0000E+00  0.0000E+00
     -9.176  0.0000E+00  0.0000E+00
     -9.164  0.0000E+00  0.0000E+00
     -9.152  0.0000E+00  0.0000E+00
     -9.140  0.0000E+00  0.0000E+00
     -9.129  0.0000E+00  0.0000E+00
     -9.117  0.0000E+00  0.0000E+00
     -9.105  0.0000E+00  0.0000E+00
     -9.093  0.0000E+00  0.0000E+00
     -9.081  0.0000E+00  0.0000E+00
     -9.070  0.0000E+00  0.0000E+00
     -9.058  0.0000E+00  0.0000E+00
     -9.046  0.0000E+00  0.0000E+00
     -9.034  0.0000E+00  0.0000E+00
     -9.023  0.0000E+00  0.0000E+00
     -9.011  0.0000E+00  0.0000E+00
     -8.999  0.0000E+00  0.0000E+00
     -8.987  0.0000E+00  0.0000E+00
     -8.975  0.0000E+00  0.0000E+00
     -8.964  0.0000E+00  0.0000E+00
     -8.952  0.0000E+00  0.0000E+00
     -8.940  0.0000E+00  0.0000E+00
     -8.928  0.0000E+00  0.0000E+00
     -8.916  0.0000E+00  0.0000E+00
     -8.905  0.0000E+00  0.0000E+00
     -8.893  0.0000E+00  0.0000E+00
     -8.881  0.0000E+00  0.0000E+00
     -8.869  0.0000E+00  0.0000E+00
     -8.858  0.0000E+00  0.0000E+00
     -8.846  0.0000E+00  0.0000E+00
     -8.834  0.0000E+00  0.0000E+00
     -8.822  0.0000E+00  0.0000E+00
     -8.810  0.0000E+00  0.0000E+00
     -8.799  0.0000E+00  0.0000E+00
     -8.787  0.0000E+00  0.0000E+00
     -8.775  0.0000E+00  0.0000E+00
     -8.763  0.0000E+00  0.0000E+00
     -8.751  0.0000E+00  0.0000E+00
     -8.740  0.0000E+00  0.0000E+00
     -8.728  0.0000E+00  0.0000E+00
     -8.716  0.0000E+00  0.0000E+00
     -8.704  0.0000E+00  0.0000E+00
     -8.693  0.0000E+00  0.0000E+00
     -8.681  0.0000E+00  0.0000E+00
     -8.669  0.0000E+00  0.0000E+00
     -8.657  0.0000E+00  0.0000E+00
     -8.645  0.0000E+00  0.0000E+00
     -8.634  0.0000E+00  0.0000E+00
     -8.622  0.0000E+00  0.0000E+00
     -8.610  0.0000E+00  0.0000E+00
     -8.598  0.0000E+00  0.0000E+00
     -8.586  0.0000E+00  0.0000E+00
     -8.575  0.0000E+00  0.0000E+00
     -8.563  0.0000E+00  0.0000E+00
     -8.551  0.0000E+00  0.0000E+00
     -8.539  0.0000E+00  0.0000E+00
     -8.528  0.0000E+00  0.0000E+00
     -8.516  0.0000E+00  0.0000E+00
     -8.504  0.0000E+00  0.0000E+00
     -8.492  0.0000E+00  0.0000E+00
     -8.480  0.0000E+00  0.0000E+00
     -8.469  0.0000E+00  0.0000E+00
     -8.457  0.0000E+00  0.0000E+00
     -8.445  0.0000E+00  0.0000E+00
     -8.433  0.0000E+00  0.0000E+00
     -8.421  0.0000E+00  0.0000E+00
     -8.410  0.0000E+00  0.0000E+00
     -8.398  0.0000E+00  0.0000E+00
     -8.386  0.0000E+00  0.0000E+00
     -8.374  0.0000E+00  0.0000E+00
     -8.363  0.0000E+00  0.0000E+00
     -8.351  0.0000E+00  0.0000E+00
     -8.339  0.0000E+00  0.0000E+00
     -8.327  0.0000E+00  0.0000E+00
     -8.315  0.0000E+00  0.0000E+00
     -8.304  0.0000E+00  0.0000E+00
     -8.292  0.0000E+00  0.0000E+00
     -8.280  0.0000E+00  0.0000E+00
     -8.268  0.0000E+00  0.0000E+00
     -8.256  0.0000E+00  0.0000E+00
     -8.245  0.0000E+00  0.0000E+00
     -8.233  0.0000E+00  0.0000E+00
     -8.221  0.0000E+00  0.0000E+00
     -8.209  0.0000E+00  0.0000E+00
     -8.198  0.0000E+00  0.0000E+00
     -8.186  0.0000E+00  0.0000E+00
     -8.174  0.0000E+00  0.0000E+00
     -8.162  0.0000E+00  0.0000E+00
     -8.150  0.0000E+00  0.0000E+00
     -8.139  0.0000E+00  0.0000E+00
     -8.127  0.0000E+00  0.0000E+00
     -8.115  0.0000E+00  0.0000E+00
     -8.103  0.0000E+00  0.0000E+00
     -8.091  0.0000E+00  0.0000E+00
     -8.080  0.0000E+00  0.0000E+00
     -8.068  0.0000E+00  0.0000E+00
     -8.056  0.0000E+00  0.0000E+00
     -8.044  0.0000E+00  0.0000E+00
     -8.033  0.0000E+00  0.0000E+00
     -8.021  0.0000E+00  0.0000E+00
     -8.009  0.0000E+00  0.0000E+00
     -7.997  0.0000E+00  0.0000E+00
     -7.985  0.0000E+00  0.0000E+00
     -7.974  0.0000E+00  0.0000E+00
     -7.962  0.0000E+00  0.0000E+00
     -7.950  0.0000E+00  0.0000E+00
     -7.938  0.0000E+00  0.0000E+00
     -7.926  0.0000E+00  0.0000E+00
     -7.915  0.0000E+00  0.0000E+00
     -7.903  0.0000E+00  0.0000E+00
     -7.891  0.0000E+00  0.0000E+00
     -7.879  0.0000E+00  0.0000E+00
     -7.868  0.0000E+00  0.0000E+00
     -7.856  0.0000E+00  0.0000E+00
     -7.844  0.0000E+00  0.0000E+00
     -7.832  0.0000E+00  0.0000E+00
     -7.820  0.0000E+00  0.0000E+00
     -7.809  0.0000E+00  0.0000E+00
     -7.797  0.0000E+00  0.0000E+00
     -7.785  0.0000E+00  0.0000E+00
     -7.773  0.0000E+00  0.0000E+00
     -7.761  0.0000E+00  0.0000E+00
     -7.750  0.0000E+00  0.0000E+00
     -7.738  0.0000E+00  0.0000E+00
     -7.726  0.0000E+00  0.0000E+00
     -7.714  0.0000E+00  0.0000E+00
     -7.703  0.0000E+00  0.0000E+00
     -7.691  0.0000E+00  0.0000E+00
     -7.679  0.0000E+00  0.0000E+00
     -7.667  0.0000E+00  0.0000E+00
     -7.655  0.0000E+00  0.0000E+00
     -7.644  0.0000E+00  0.0000E+00
     -7.632  0.0000E+00  0.0000E+00
     -7.620  0.0000E+00  0.0000E+00
     -7.608  0.0000E+00  0.0000E+00
     -7.596  0.0000E+00  0.0000E+00
     -7.585  0.0000E+00  0.0000E+00
     -7.573  0.0000E+00  0.0000E+00
     -7.561  0.0000E+00  0.0000E+00
     -7.549  0.0000E+00  0.0000E+00
     -7.538  0.0000E+00  0.0000E+00
     -7.526  0.0000E+00  0.0000E+00
     -7.514  0.0000E+00  0.0000E+00
     -7.502  0.0000E+00  0.0000E+00
     -7.490  0.0000E+00  0.0000E+00
     -7.479  0.0000E+00  0.0000E+00
     -7.467  0.0000E+00  0.0000E+00
     -7.455  0.0000E+00  0.0000E+00
     -7.443  0.0000E+00  0.0000E+00
     -7.431  0.0000E+00  0.0000E+00
     -7.420  0.0000E+00  0.0000E+00
     -7.408  0.0000E+00  0.0000E+00
     -7.396  0.0000E+00  0.0000E+00
     -7.384  0.0000E+00  0.0000E+00
     -7.373  0.0000E+00  0.0000E+00
     -7.361  0.0000E+00  0.0000E+00
     -7.349  0.0000E+00  0.0000E+00
     -7.337  0.0000E+00  0.0000E+00
     -7.325  0.0000E+00  0.0000E+00
     -7.314  0.0000E+00  0.0000E+00
     -7.302  0.0000E+00  0.0000E+00
     -7.290  0.0000E+00  0.0000E+00
     -7.278  0.0000E+00  0.0000E+00
     -7.266  0.0000E+00  0.0000E+00
     -7.255  0.0000E+00  0.0000E+00
     -7.243  0.0000E+00  0.0000E+00
     -7.231  0.0000E+00  0.0000E+00
     -7.219  0.0000E+00  0.0000E+00
     -7.208  0.0000E+00  0.0000E+00
     -7.196  0.0000E+00  0.0000E+00
     -7.184  0.0000E+00  0.0000E+00
     -7.172  0.0000E+00  0.0000E+00
     -7.160  0.0000E+00  0.0000E+00
     -7.149  0.0000E+00  0.0000E+00
     -7.137  0.0000E+00  0.0000E+00
     -7.125  0.7078E-17  0.8341E-19
     -7.113  0.7078E-17  0.1668E-18
     -7.102  0.4247E-16  0.6673E-18
     -7.090  0.1699E-15  0.2669E-17
     -7.078  0.6087E-15  0.9843E-17
     -7.066  0.2208E-14  0.3587E-16
     -7.054  0.7722E-14  0.1269E-15
     -7.043  0.2632E-13  0.4371E-15
     -7.031  0.8722E-13  0.1465E-14
     -7.019  0.2812E-12  0.4779E-14
     -7.007  0.8815E-12  0.1517E-13
     -6.995  0.2688E-11  0.4685E-13
     -6.984  0.7973E-11  0.1408E-12
     -6.972  0.2300E-10  0.4119E-12
     -6.960  0.6455E-10  0.1173E-11
     -6.948  0.1762E-09  0.3249E-11
     -6.937  0.4678E-09  0.8763E-11
     -6.925  0.1208E-08  0.2300E-10
     -6.913  0.3035E-08  0.5877E-10
     -6.901  0.7416E-08  0.1462E-09
     -6.889  0.1763E-07  0.3539E-09
     -6.878  0.4076E-07  0.8343E-09
     -6.866  0.9167E-07  0.1915E-08
     -6.854  0.2006E-06  0.4278E-08
     -6.842  0.4269E-06  0.9310E-08
     -6.830  0.8842E-06  0.1973E-07
     -6.819  0.1782E-05  0.4073E-07
     -6.807  0.3493E-05  0.8189E-07
     -6.795  0.6665E-05  0.1604E-06
     -6.783  0.1238E-04  0.3063E-06
     -6.772  0.2238E-04  0.5700E-06
     -6.760  0.3939E-04  0.1034E-05
     -6.748  0.6753E-04  0.1830E-05
     -6.736  0.1128E-03  0.3160E-05
     -6.724  0.1837E-03  0.5325E-05
     -6.713  0.2918E-03  0.8764E-05
     -6.701  0.4524E-03  0.1410E-04
     -6.689  0.6853E-03  0.2217E-04
     -6.677  0.1015E-02  0.3413E-04
     -6.665  0.1472E-02  0.5149E-04
     -6.654  0.2094E-02  0.7617E-04
     -6.642  0.2926E-02  0.1107E-03
     -6.630  0.4022E-02  0.1581E-03
     -6.618  0.5448E-02  0.2223E-03
     -6.607  0.7284E-02  0.3081E-03
     -6.595  0.9625E-02  0.4215E-03
     -6.583  0.1258E-01  0.5698E-03
     -6.571  0.1628E-01  0.7618E-03
     -6.559  0.2086E-01  0.1008E-02
     -6.548  0.2642E-01  0.1319E-02
     -6.536  0.3306E-01  0.1709E-02
     -6.524  0.4083E-01  0.2190E-02
     -6.512  0.4968E-01  0.2775E-02
     -6.500  0.5947E-01  0.3476E-02
     -6.489  0.6994E-01  0.4300E-02
     -6.477  0.8073E-01  0.5252E-02
     -6.465  0.9137E-01  0.6329E-02
     -6.453  0.1013E+00  0.7523E-02
     -6.442  0.1102E+00  0.8821E-02
     -6.430  0.1174E+00  0.1020E-01
     -6.418  0.1227E+00  0.1165E-01
     -6.406  0.1261E+00  0.1314E-01
     -6.394  0.1276E+00  0.1464E-01
     -6.383  0.1277E+00  0.1615E-01
     -6.371  0.1268E+00  0.1764E-01
     -6.359  0.1257E+00  0.1912E-01
     -6.347  0.1251E+00  0.2060E-01
     -6.335  0.1256E+00  0.2208E-01
     -6.324  0.1278E+00  0.2358E-01
     -6.312  0.1321E+00  0.2514E-01
     -6.300  0.1388E+00  0.2678E-01
     -6.288  0.1479E+00  0.2852E-01
     -6.277  0.1594E+00  0.3040E-01
     -6.265  0.1730E+00  0.3244E-01
     -6.253  0.1884E+00  0.3466E-01
     -6.241  0.2051E+00  0.3707E-01
     -6.229  0.2228E+00  0.3970E-01
     -6.218  0.2406E+00  0.4253E-01
     -6.206  0.2578E+00  0.4557E-01
     -6.194  0.2735E+00  0.4880E-01
     -6.182  0.2868E+00  0.5218E-01
     -6.170  0.2965E+00  0.5567E-01
     -6.159  0.3018E+00  0.5923E-01
     -6.147  0.3020E+00  0.6278E-01
     -6.135  0.2969E+00  0.6628E-01
     -6.123  0.2865E+00  0.6966E-01
     -6.112  0.2715E+00  0.7286E-01
     -6.100  0.2529E+00  0.7584E-01
     -6.088  0.2320E+00  0.7858E-01
     -6.076  0.2105E+00  0.8106E-01
     -6.064  0.1898E+00  0.8329E-01
     -6.053  0.1717E+00  0.8532E-01
     -6.041  0.1573E+00  0.8717E-01
     -6.029  0.1479E+00  0.8891E-01
     -6.017  0.1441E+00  0.9061E-01
     -6.005  0.1464E+00  0.9234E-01
     -5.994  0.1550E+00  0.9416E-01
     -5.982  0.1697E+00  0.9616E-01
     -5.970  0.1902E+00  0.9841E-01
     -5.958  0.2156E+00  0.1009E+00
     -5.947  0.2450E+00  0.1038E+00
     -5.935  0.2769E+00  0.1071E+00
     -5.923  0.3097E+00  0.1107E+00
     -5.911  0.3417E+00  0.1148E+00
     -5.899  0.3709E+00  0.1191E+00
     -5.888  0.3956E+00  0.1238E+00
     -5.876  0.4144E+00  0.1287E+00
     -5.864  0.4263E+00  0.1337E+00
     -5.852  0.4310E+00  0.1388E+00
     -5.840  0.4287E+00  0.1438E+00
     -5.829  0.4207E+00  0.1488E+00
     -5.817  0.4082E+00  0.1536E+00
     -5.805  0.3933E+00  0.1583E+00
     -5.793  0.3777E+00  0.1627E+00
     -5.782  0.3632E+00  0.1670E+00
     -5.770  0.3511E+00  0.1711E+00
     -5.758  0.3424E+00  0.1752E+00
     -5.746  0.3374E+00  0.1791E+00
     -5.734  0.3360E+00  0.1831E+00
     -5.723  0.3378E+00  0.1871E+00
     -5.711  0.3420E+00  0.1911E+00
     -5.699  0.3477E+00  0.1952E+00
     -5.687  0.3541E+00  0.1994E+00
     -5.675  0.3602E+00  0.2036E+00
     -5.664  0.3651E+00  0.2079E+00
     -5.652  0.3680E+00  0.2123E+00
     -5.640  0.3681E+00  0.2166E+00
     -5.628  0.3649E+00  0.2209E+00
     -5.617  0.3578E+00  0.2251E+00
     -5.605  0.3468E+00  0.2292E+00
     -5.593  0.3322E+00  0.2331E+00
     -5.581  0.3145E+00  0.2368E+00
     -5.569  0.2948E+00  0.2403E+00
     -5.558  0.2746E+00  0.2435E+00
     -5.546  0.2553E+00  0.2465E+00
     -5.534  0.2388E+00  0.2494E+00
     -5.522  0.2267E+00  0.2520E+00
     -5.510  0.2205E+00  0.2546E+00
     -5.499  0.2215E+00  0.2572E+00
     -5.487  0.2305E+00  0.2600E+00
     -5.475  0.2481E+00  0.2629E+00
     -5.463  0.2743E+00  0.2661E+00
     -5.452  0.3090E+00  0.2698E+00
     -5.440  0.3511E+00  0.2739E+00
     -5.428  0.3993E+00  0.2786E+00
     -5.416  0.4515E+00  0.2839E+00
     -5.404  0.5051E+00  0.2899E+00
     -5.393  0.5571E+00  0.2964E+00
     -5.381  0.6042E+00  0.3036E+00
     -5.369  0.6433E+00  0.3111E+00
     -5.357  0.6713E+00  0.3191E+00
     -5.345  0.6865E+00  0.3271E+00
     -5.334  0.6876E+00  0.3352E+00
     -5.322  0.6752E+00  0.3432E+00
     -5.310  0.6506E+00  0.3509E+00
     -5.298  0.6166E+00  0.3581E+00
     -5.287  0.5767E+00  0.3649E+00
     -5.275  0.5348E+00  0.3712E+00
     -5.263  0.4948E+00  0.3771E+00
     -5.251  0.4602E+00  0.3825E+00
     -5.239  0.4334E+00  0.3876E+00
     -5.228  0.4160E+00  0.3925E+00
     -5.216  0.4084E+00  0.3973E+00
     -5.204  0.4100E+00  0.4021E+00
     -5.192  0.4193E+00  0.4071E+00
     -5.180  0.4342E+00  0.4122E+00
     -5.169  0.4522E+00  0.4175E+00
     -5.157  0.4710E+00  0.4231E+00
     -5.145  0.4883E+00  0.4288E+00
     -5.133  0.5022E+00  0.4348E+00
     -5.122  0.5114E+00  0.4408E+00
     -5.110  0.5149E+00  0.4469E+00
     -5.098  0.5123E+00  0.4529E+00
     -5.086  0.5036E+00  0.4588E+00
     -5.074  0.4891E+00  0.4646E+00
     -5.063  0.4695E+00  0.4701E+00
     -5.051  0.4458E+00  0.4754E+00
     -5.039  0.4191E+00  0.4803E+00
     -5.027  0.3907E+00  0.4849E+00
     -5.015  0.3621E+00  0.4892E+00
     -5.004  0.3351E+00  0.4931E+00
     -4.992  0.3114E+00  0.4968E+00
     -4.980  0.2926E+00  0.5003E+00
     -4.968  0.2805E+00  0.5036E+00
     -4.957  0.2763E+00  0.5068E+00
     -4.945  0.2813E+00  0.5101E+00
     -4.933  0.2959E+00  0.5136E+00
     -4.921  0.3204E+00  0.5174E+00
     -4.909  0.3542E+00  0.5216E+00
     -4.898  0.3963E+00  0.5262E+00
     -4.886  0.4451E+00  0.5315E+00
     -4.874  0.4986E+00  0.5374E+00
     -4.862  0.5546E+00  0.5439E+00
     -4.850  0.6110E+00  0.5511E+00
     -4.839  0.6655E+00  0.5589E+00
     -4.827  0.7165E+00  0.5674E+00
     -4.815  0.7624E+00  0.5764E+00
     -4.803  0.8022E+00  0.5858E+00
     -4.792  0.8351E+00  0.5957E+00
     -4.780  0.8608E+00  0.6058E+00
     -4.768  0.8791E+00  0.6162E+00
     -4.756  0.8898E+00  0.6267E+00
     -4.744  0.8931E+00  0.6372E+00
     -4.733  0.8890E+00  0.6477E+00
     -4.721  0.8781E+00  0.6580E+00
     -4.709  0.8610E+00  0.6682E+00
     -4.697  0.8388E+00  0.6780E+00
     -4.686  0.8130E+00  0.6876E+00
     -4.674  0.7851E+00  0.6969E+00
     -4.662  0.7571E+00  0.7058E+00
     -4.650  0.7304E+00  0.7144E+00
     -4.638  0.7064E+00  0.7227E+00
     -4.627  0.6858E+00  0.7308E+00
     -4.615  0.6688E+00  0.7387E+00
     -4.603  0.6551E+00  0.7464E+00
     -4.591  0.6438E+00  0.7540E+00
     -4.579  0.6340E+00  0.7615E+00
     -4.568  0.6247E+00  0.7688E+00
     -4.556  0.6154E+00  0.7761E+00
     -4.544  0.6054E+00  0.7832E+00
     -4.532  0.5948E+00  0.7902E+00
     -4.521  0.5839E+00  0.7971E+00
     -4.509  0.5730E+00  0.8039E+00
     -4.497  0.5624E+00  0.8105E+00
     -4.485  0.5524E+00  0.8170E+00
     -4.473  0.5430E+00  0.8234E+00
     -4.462  0.5340E+00  0.8297E+00
     -4.450  0.5251E+00  0.8359E+00
     -4.438  0.5161E+00  0.8420E+00
     -4.426  0.5067E+00  0.8479E+00
     -4.414  0.4973E+00  0.8538E+00
     -4.403  0.4885E+00  0.8596E+00
     -4.391  0.4816E+00  0.8652E+00
     -4.379  0.4786E+00  0.8709E+00
     -4.367  0.4816E+00  0.8766E+00
     -4.356  0.4932E+00  0.8824E+00
     -4.344  0.5158E+00  0.8884E+00
     -4.332  0.5512E+00  0.8949E+00
     -4.320  0.6008E+00  0.9020E+00
     -4.308  0.6649E+00  0.9099E+00
     -4.297  0.7426E+00  0.9186E+00
     -4.285  0.8320E+00  0.9284E+00
     -4.273  0.9299E+00  0.9394E+00
     -4.261  0.1032E+01  0.9515E+00
     -4.249  0.1134E+01  0.9649E+00
     -4.238  0.1231E+01  0.9794E+00
     -4.226  0.1317E+01  0.9949E+00
     -4.214  0.1388E+01  0.1011E+01
     -4.202  0.1439E+01  0.1028E+01
     -4.191  0.1467E+01  0.1046E+01
     -4.179  0.1470E+01  0.1063E+01
     -4.167  0.1446E+01  0.1080E+01
     -4.155  0.1398E+01  0.1096E+01
     -4.143  0.1328E+01  0.1112E+01
     -4.132  0.1239E+01  0.1127E+01
     -4.120  0.1139E+01  0.1140E+01
     -4.108  0.1033E+01  0.1152E+01
     -4.096  0.9292E+00  0.1163E+01
     -4.084  0.8338E+00  0.1173E+01
     -4.073  0.7531E+00  0.1182E+01
     -4.061  0.6917E+00  0.1190E+01
     -4.049  0.6524E+00  0.1198E+01
     -4.037  0.6357E+00  0.1205E+01
     -4.026  0.6401E+00  0.1213E+01
     -4.014  0.6618E+00  0.1221E+01
     -4.002  0.6955E+00  0.1229E+01
     -3.990  0.7348E+00  0.1237E+01
     -3.978  0.7732E+00  0.1247E+01
     -3.967  0.8041E+00  0.1256E+01
     -3.955  0.8225E+00  0.1266E+01
     -3.943  0.8249E+00  0.1275E+01
     -3.931  0.8096E+00  0.1285E+01
     -3.919  0.7773E+00  0.1294E+01
     -3.908  0.7305E+00  0.1303E+01
     -3.896  0.6733E+00  0.1311E+01
     -3.884  0.6107E+00  0.1318E+01
     -3.872  0.5483E+00  0.1324E+01
     -3.861  0.4912E+00  0.1330E+01
     -3.849  0.4439E+00  0.1335E+01
     -3.837  0.4099E+00  0.1340E+01
     -3.825  0.3914E+00  0.1345E+01
     -3.813  0.3892E+00  0.1349E+01
     -3.802  0.4032E+00  0.1354E+01
     -3.790  0.4321E+00  0.1359E+01
     -3.778  0.4742E+00  0.1365E+01
     -3.766  0.5269E+00  0.1371E+01
     -3.754  0.5879E+00  0.1378E+01
     -3.743  0.6544E+00  0.1386E+01
     -3.731  0.7240E+00  0.1394E+01
     -3.719  0.7941E+00  0.1404E+01
     -3.707  0.8628E+00  0.1414E+01
     -3.696  0.9279E+00  0.1425E+01
     -3.684  0.9875E+00  0.1436E+01
     -3.672  0.1040E+01  0.1449E+01
     -3.660  0.1083E+01  0.1461E+01
     -3.648  0.1116E+01  0.1474E+01
     -3.637  0.1136E+01  0.1488E+01
     -3.625  0.1143E+01  0.1501E+01
     -3.613  0.1136E+01  0.1515E+01
     -3.601  0.1114E+01  0.1528E+01
     -3.589  0.1077E+01  0.1541E+01
     -3.578  0.1027E+01  0.1553E+01
     -3.566  0.9646E+00  0.1564E+01
     -3.554  0.8928E+00  0.1575E+01
     -3.542  0.8146E+00  0.1584E+01
     -3.531  0.7335E+00  0.1593E+01
     -3.519  0.6531E+00  0.1601E+01
     -3.507  0.5772E+00  0.1607E+01
     -3.495  0.5090E+00  0.1613E+01
     -3.483  0.4512E+00  0.1619E+01
     -3.472  0.4059E+00  0.1623E+01
     -3.460  0.3740E+00  0.1628E+01
     -3.448  0.3556E+00  0.1632E+01
     -3.436  0.3496E+00  0.1636E+01
     -3.424  0.3541E+00  0.1640E+01
     -3.413  0.3662E+00  0.1645E+01
     -3.401  0.3829E+00  0.1649E+01
     -3.389  0.4006E+00  0.1654E+01
     -3.377  0.4162E+00  0.1659E+01
     -3.366  0.4273E+00  0.1664E+01
     -3.354  0.4321E+00  0.1669E+01
     -3.342  0.4302E+00  0.1674E+01
     -3.330  0.4225E+00  0.1679E+01
     -3.318  0.4108E+00  0.1684E+01
     -3.307  0.3979E+00  0.1688E+01
     -3.295  0.3873E+00  0.1693E+01
     -3.283  0.3824E+00  0.1698E+01
     -3.271  0.3864E+00  0.1702E+01
     -3.259  0.4017E+00  0.1707E+01
     -3.248  0.4295E+00  0.1712E+01
     -3.236  0.4699E+00  0.1717E+01
     -3.224  0.5215E+00  0.1724E+01
     -3.212  0.5814E+00  0.1730E+01
     -3.201  0.6460E+00  0.1738E+01
     -3.189  0.7106E+00  0.1746E+01
     -3.177  0.7706E+00  0.1755E+01
     -3.165  0.8212E+00  0.1765E+01
     -3.153  0.8587E+00  0.1775E+01
     -3.142  0.8801E+00  0.1786E+01
     -3.130  0.8839E+00  0.1796E+01
     -3.118  0.8700E+00  0.1806E+01
     -3.106  0.8400E+00  0.1816E+01
     -3.094  0.7962E+00  0.1826E+01
     -3.083  0.7423E+00  0.1834E+01
     -3.071  0.6822E+00  0.1842E+01
     -3.059  0.6197E+00  0.1850E+01
     -3.047  0.5585E+00  0.1856E+01
     -3.036  0.5015E+00  0.1862E+01
     -3.024  0.4507E+00  0.1868E+01
     -3.012  0.4069E+00  0.1872E+01
     -3.000  0.3703E+00  0.1877E+01
     -2.988  0.3400E+00  0.1881E+01
     -2.977  0.3150E+00  0.1884E+01
     -2.965  0.2936E+00  0.1888E+01
     -2.953  0.2747E+00  0.1891E+01
     -2.941  0.2571E+00  0.1894E+01
     -2.929  0.2404E+00  0.1897E+01
     -2.918  0.2244E+00  0.1900E+01
     -2.906  0.2095E+00  0.1902E+01
     -2.894  0.1966E+00  0.1904E+01
     -2.882  0.1865E+00  0.1907E+01
     -2.871  0.1799E+00  0.1909E+01
     -2.859  0.1776E+00  0.1911E+01
     -2.847  0.1796E+00  0.1913E+01
     -2.835  0.1858E+00  0.1915E+01
     -2.823  0.1955E+00  0.1917E+01
     -2.812  0.2078E+00  0.1920E+01
     -2.800  0.2216E+00  0.1922E+01
     -2.788  0.2358E+00  0.1925E+01
     -2.776  0.2493E+00  0.1928E+01
     -2.764  0.2616E+00  0.1931E+01
     -2.753  0.2723E+00  0.1934E+01
     -2.741  0.2813E+00  0.1938E+01
     -2.729  0.2887E+00  0.1941E+01
     -2.717  0.2949E+00  0.1945E+01
     -2.706  0.3002E+00  0.1948E+01
     -2.694  0.3047E+00  0.1952E+01
     -2.682  0.3082E+00  0.1955E+01
     -2.670  0.3107E+00  0.1959E+01
     -2.658  0.3117E+00  0.1963E+01
     -2.647  0.3107E+00  0.1966E+01
     -2.635  0.3073E+00  0.1970E+01
     -2.623  0.3014E+00  0.1974E+01
     -2.611  0.2928E+00  0.1977E+01
     -2.599  0.2818E+00  0.1980E+01
     -2.588  0.2689E+00  0.1984E+01
     -2.576  0.2545E+00  0.1987E+01
     -2.564  0.2396E+00  0.1989E+01
     -2.552  0.2246E+00  0.1992E+01
     -2.541  0.2104E+00  0.1994E+01
     -2.529  0.1972E+00  0.1997E+01
     -2.517  0.1853E+00  0.1999E+01
     -2.505  0.1748E+00  0.2001E+01
     -2.493  0.1655E+00  0.2003E+01
     -2.482  0.1571E+00  0.2005E+01
     -2.470  0.1493E+00  0.2007E+01
     -2.458  0.1419E+00  0.2008E+01
     -2.446  0.1347E+00  0.2010E+01
     -2.435  0.1279E+00  0.2011E+01
     -2.423  0.1218E+00  0.2013E+01
     -2.411  0.1169E+00  0.2014E+01
     -2.399  0.1138E+00  0.2016E+01
     -2.387  0.1132E+00  0.2017E+01
     -2.376  0.1154E+00  0.2018E+01
     -2.364  0.1209E+00  0.2020E+01
     -2.352  0.1296E+00  0.2021E+01
     -2.340  0.1410E+00  0.2023E+01
     -2.328  0.1544E+00  0.2025E+01
     -2.317  0.1686E+00  0.2027E+01
     -2.305  0.1822E+00  0.2029E+01
     -2.293  0.1940E+00  0.2031E+01
     -2.281  0.2025E+00  0.2033E+01
     -2.270  0.2070E+00  0.2036E+01
     -2.258  0.2067E+00  0.2038E+01
     -2.246  0.2018E+00  0.2041E+01
     -2.234  0.1926E+00  0.2043E+01
     -2.222  0.1803E+00  0.2045E+01
     -2.211  0.1661E+00  0.2047E+01
     -2.199  0.1516E+00  0.2049E+01
     -2.187  0.1383E+00  0.2051E+01
     -2.175  0.1277E+00  0.2052E+01
     -2.163  0.1209E+00  0.2053E+01
     -2.152  0.1187E+00  0.2055E+01
     -2.140  0.1214E+00  0.2056E+01
     -2.128  0.1287E+00  0.2058E+01
     -2.116  0.1399E+00  0.2059E+01
     -2.105  0.1541E+00  0.2061E+01
     -2.093  0.1699E+00  0.2063E+01
     -2.081  0.1859E+00  0.2065E+01
     -2.069  0.2011E+00  0.2068E+01
     -2.057  0.2144E+00  0.2070E+01
     -2.046  0.2255E+00  0.2073E+01
     -2.034  0.2345E+00  0.2076E+01
     -2.022  0.2423E+00  0.2079E+01
     -2.010  0.2503E+00  0.2082E+01
     -1.998  0.2603E+00  0.2085E+01
     -1.987  0.2742E+00  0.2088E+01
     -1.975  0.2942E+00  0.2091E+01
     -1.963  0.3218E+00  0.2095E+01
     -1.951  0.3582E+00  0.2099E+01
     -1.940  0.4034E+00  0.2104E+01
     -1.928  0.4570E+00  0.2109E+01
     -1.916  0.5172E+00  0.2116E+01
     -1.904  0.5817E+00  0.2122E+01
     -1.892  0.6475E+00  0.2130E+01
     -1.881  0.7113E+00  0.2138E+01
     -1.869  0.7698E+00  0.2148E+01
     -1.857  0.8201E+00  0.2157E+01
     -1.845  0.8598E+00  0.2167E+01
     -1.833  0.8871E+00  0.2178E+01
     -1.822  0.9012E+00  0.2188E+01
     -1.810  0.9020E+00  0.2199E+01
     -1.798  0.8898E+00  0.2210E+01
     -1.786  0.8657E+00  0.2220E+01
     -1.775  0.8310E+00  0.2230E+01
     -1.763  0.7871E+00  0.2239E+01
     -1.751  0.7359E+00  0.2247E+01
     -1.739  0.6792E+00  0.2255E+01
     -1.727  0.6191E+00  0.2263E+01
     -1.716  0.5580E+00  0.2269E+01
     -1.704  0.4984E+00  0.2275E+01
     -1.692  0.4433E+00  0.2280E+01
     -1.680  0.3955E+00  0.2285E+01
     -1.668  0.3581E+00  0.2289E+01
     -1.657  0.3338E+00  0.2293E+01
     -1.645  0.3250E+00  0.2297E+01
     -1.633  0.3335E+00  0.2301E+01
     -1.621  0.3604E+00  0.2305E+01
     -1.610  0.4057E+00  0.2310E+01
     -1.598  0.4687E+00  0.2316E+01
     -1.586  0.5477E+00  0.2322E+01
     -1.574  0.6402E+00  0.2330E+01
     -1.562  0.7426E+00  0.2338E+01
     -1.551  0.8513E+00  0.2348E+01
     -1.539  0.9619E+00  0.2360E+01
     -1.527  0.1070E+01  0.2372E+01
     -1.515  0.1173E+01  0.2386E+01
     -1.503  0.1266E+01  0.2401E+01
     -1.492  0.1346E+01  0.2417E+01
     -1.480  0.1413E+01  0.2434E+01
     -1.468  0.1465E+01  0.2451E+01
     -1.456  0.1502E+01  0.2469E+01
     -1.445  0.1526E+01  0.2487E+01
     -1.433  0.1537E+01  0.2505E+01
     -1.421  0.1538E+01  0.2523E+01
     -1.409  0.1531E+01  0.2541E+01
     -1.397  0.1518E+01  0.2559E+01
     -1.386  0.1500E+01  0.2576E+01
     -1.374  0.1477E+01  0.2594E+01
     -1.362  0.1449E+01  0.2611E+01
     -1.350  0.1417E+01  0.2628E+01
     -1.338  0.1379E+01  0.2644E+01
     -1.327  0.1335E+01  0.2660E+01
     -1.315  0.1285E+01  0.2675E+01
     -1.303  0.1229E+01  0.2689E+01
     -1.291  0.1169E+01  0.2703E+01
     -1.280  0.1108E+01  0.2716E+01
     -1.268  0.1047E+01  0.2728E+01
     -1.256  0.9917E+00  0.2740E+01
     -1.244  0.9448E+00  0.2751E+01
     -1.232  0.9097E+00  0.2762E+01
     -1.221  0.8885E+00  0.2772E+01
     -1.209  0.8819E+00  0.2783E+01
     -1.197  0.8892E+00  0.2793E+01
     -1.185  0.9079E+00  0.2804E+01
     -1.173  0.9339E+00  0.2815E+01
     -1.162  0.9623E+00  0.2826E+01
     -1.150  0.9875E+00  0.2838E+01
     -1.138  0.1004E+01  0.2850E+01
     -1.126  0.1008E+01  0.2862E+01
     -1.115  0.9960E+00  0.2873E+01
     -1.103  0.9662E+00  0.2885E+01
     -1.091  0.9192E+00  0.2896E+01
     -1.079  0.8569E+00  0.2906E+01
     -1.067  0.7825E+00  0.2915E+01
     -1.056  0.7002E+00  0.2923E+01
     -1.044  0.6146E+00  0.2930E+01
     -1.032  0.5301E+00  0.2937E+01
     -1.020  0.4511E+00  0.2942E+01
     -1.008  0.3811E+00  0.2946E+01
     -0.997  0.3232E+00  0.2950E+01
     -0.985  0.2796E+00  0.2954E+01
     -0.973  0.2522E+00  0.2957E+01
     -0.961  0.2419E+00  0.2959E+01
     -0.950  0.2493E+00  0.2962E+01
     -0.938  0.2743E+00  0.2966E+01
     -0.926  0.3164E+00  0.2969E+01
     -0.914  0.3742E+00  0.2974E+01
     -0.902  0.4454E+00  0.2979E+01
     -0.891  0.5270E+00  0.2985E+01
     -0.879  0.6151E+00  0.2992E+01
     -0.867  0.7051E+00  0.3001E+01
     -0.855  0.7918E+00  0.3010E+01
     -0.843  0.8701E+00  0.3020E+01
     -0.832  0.9352E+00  0.3031E+01
     -0.820  0.9830E+00  0.3043E+01
     -0.808  0.1011E+01  0.3055E+01
     -0.796  0.1018E+01  0.3067E+01
     -0.785  0.1005E+01  0.3079E+01
     -0.773  0.9736E+00  0.3090E+01
     -0.761  0.9274E+00  0.3101E+01
     -0.749  0.8704E+00  0.3111E+01
     -0.737  0.8071E+00  0.3121E+01
     -0.726  0.7413E+00  0.3130E+01
     -0.714  0.6763E+00  0.3138E+01
     -0.702  0.6145E+00  0.3145E+01
     -0.690  0.5573E+00  0.3151E+01
     -0.678  0.5050E+00  0.3157E+01
     -0.667  0.4577E+00  0.3163E+01
     -0.655  0.4149E+00  0.3168E+01
     -0.643  0.3763E+00  0.3172E+01
     -0.631  0.3418E+00  0.3176E+01
     -0.620  0.3116E+00  0.3180E+01
     -0.608  0.2864E+00  0.3183E+01
     -0.596  0.2672E+00  0.3186E+01
     -0.584  0.2549E+00  0.3189E+01
     -0.572  0.2508E+00  0.3192E+01
     -0.561  0.2555E+00  0.3195E+01
     -0.549  0.2695E+00  0.3198E+01
     -0.537  0.2926E+00  0.3202E+01
     -0.525  0.3241E+00  0.3206E+01
     -0.513  0.3624E+00  0.3210E+01
     -0.502  0.4058E+00  0.3215E+01
     -0.490  0.4517E+00  0.3220E+01
     -0.478  0.4975E+00  0.3226E+01
     -0.466  0.5403E+00  0.3232E+01
     -0.455  0.5773E+00  0.3239E+01
     -0.443  0.6062E+00  0.3246E+01
     -0.431  0.6248E+00  0.3254E+01
     -0.419  0.6319E+00  0.3261E+01
     -0.407  0.6267E+00  0.3268E+01
     -0.396  0.6096E+00  0.3276E+01
     -0.384  0.5815E+00  0.3282E+01
     -0.372  0.5444E+00  0.3289E+01
     -0.360  0.5007E+00  0.3295E+01
     -0.348  0.4533E+00  0.3300E+01
     -0.337  0.4053E+00  0.3305E+01
     -0.325  0.3600E+00  0.3309E+01
     -0.313  0.3203E+00  0.3313E+01
     -0.301  0.2885E+00  0.3316E+01
     -0.290  0.2665E+00  0.3319E+01
     -0.278  0.2553E+00  0.3322E+01
     -0.266  0.2550E+00  0.3325E+01
     -0.254  0.2648E+00  0.3329E+01
     -0.242  0.2834E+00  0.3332E+01
     -0.231  0.3084E+00  0.3336E+01
     -0.219  0.3370E+00  0.3340E+01
     -0.207  0.3663E+00  0.3344E+01
     -0.195  0.3935E+00  0.3348E+01
     -0.184  0.4161E+00  0.3353E+01
     -0.172  0.4325E+00  0.3358E+01
     -0.160  0.4420E+00  0.3364E+01
     -0.148  0.4447E+00  0.3369E+01
     -0.136  0.4420E+00  0.3374E+01
     -0.125  0.4357E+00  0.3379E+01
     -0.113  0.4283E+00  0.3384E+01
     -0.101  0.4218E+00  0.3389E+01
     -0.089  0.4183E+00  0.3394E+01
     -0.077  0.4187E+00  0.3399E+01
     -0.066  0.4233E+00  0.3404E+01
     -0.054  0.4313E+00  0.3409E+01
     -0.042  0.4411E+00  0.3414E+01
     -0.030  0.4509E+00  0.3420E+01
     -0.019  0.4584E+00  0.3425E+01
     -0.007  0.4620E+00  0.3431E+01
      0.005  0.4603E+00  0.3436E+01
      0.017  0.4530E+00  0.3441E+01
      0.029  0.4405E+00  0.3447E+01
      0.040  0.4236E+00  0.3452E+01
      0.052  0.4039E+00  0.3456E+01
      0.064  0.3829E+00  0.3461E+01
      0.076  0.3619E+00  0.3465E+01
      0.088  0.3419E+00  0.3469E+01
      0.099  0.3235E+00  0.3473E+01
      0.111  0.3067E+00  0.3477E+01
      0.123  0.2913E+00  0.3480E+01
      0.135  0.2769E+00  0.3483E+01
      0.146  0.2632E+00  0.3486E+01
      0.158  0.2501E+00  0.3489E+01
      0.170  0.2377E+00  0.3492E+01
      0.182  0.2266E+00  0.3495E+01
      0.194  0.2176E+00  0.3497E+01
      0.205  0.2116E+00  0.3500E+01
      0.217  0.2095E+00  0.3502E+01
      0.229  0.2118E+00  0.3505E+01
      0.241  0.2188E+00  0.3507E+01
      0.253  0.2303E+00  0.3510E+01
      0.264  0.2459E+00  0.3513E+01
      0.276  0.2648E+00  0.3516E+01
      0.288  0.2858E+00  0.3519E+01
      0.300  0.3080E+00  0.3523E+01
      0.311  0.3302E+00  0.3527E+01
      0.323  0.3517E+00  0.3531E+01
      0.335  0.3716E+00  0.3536E+01
      0.347  0.3894E+00  0.3540E+01
      0.359  0.4046E+00  0.3545E+01
      0.370  0.4166E+00  0.3550E+01
      0.382  0.4251E+00  0.3555E+01
      0.394  0.4296E+00  0.3560E+01
      0.406  0.4296E+00  0.3565E+01
      0.418  0.4247E+00  0.3570E+01
      0.429  0.4146E+00  0.3575E+01
      0.441  0.3991E+00  0.3580E+01
      0.453  0.3785E+00  0.3584E+01
      0.465  0.3530E+00  0.3588E+01
      0.476  0.3235E+00  0.3592E+01
      0.488  0.2910E+00  0.3595E+01
      0.500  0.2567E+00  0.3598E+01
      0.512  0.2217E+00  0.3601E+01