 vasp.5.4.1 24Jun15 (build Jul  1 2016 12:41:44) complex                         
 executed on           IFC91_ompi date 2017.06.25  22:32:22
 running on   16 total cores
 distrk:  each k-point on   16 cores,    1 groups
 distr:  one band on NCORES_PER_BAND=   4 cores,    4 groups


--------------------------------------------------------------------------------------------------------


 INCAR:
 POTCAR:    PAW_PBE Si 05Jan2001                  
 POTCAR:    PAW_PBE Si 05Jan2001                  
   VRHFIN =Si: s2p2                                                             
   LEXCH  = PE                                                                  
   EATOM  =   103.0669 eV,    7.5752 Ry                                         
                                                                                
   TITEL  = PAW_PBE Si 05Jan2001                                                
   LULTRA =        F    use ultrasoft PP ?                                      
   IUNSCR =        1    unscreen: 0-lin 1-nonlin 2-no                           
   RPACOR =    1.500    partial core radius                                     
   POMASS =   28.085; ZVAL   =    4.000    mass and valenz                      
   RCORE  =    1.900    outmost cutoff radius                                   
   RWIGS  =    2.480; RWIGS  =    1.312    wigner-seitz radius (au A)           
   ENMAX  =  245.345; ENMIN  =  184.009 eV                                      
   ICORE  =        2    local potential                                         
   LCOR   =        T    correct aug charges                                     
   LPAW   =        T    paw PP                                                  
   EAUG   =  322.069                                                            
   DEXC   =    0.000                                                            
   RMAX   =    1.950    core radius for proj-oper                               
   RAUG   =    1.300    factor for augmentation sphere                          
   RDEP   =    1.993    radius for radial grids                                 
   RDEPT  =    1.837    core radius for aug-charge                              
                                                                                
   Atomic configuration                                                         
    6 entries                                                                   
     n  l   j            E        occ.                                          
     1  0  0.50     -1785.8828   2.0000                                         
     2  0  0.50      -139.4969   2.0000                                         
     2  1  1.50       -95.5546   6.0000                                         
     3  0  0.50       -10.8127   2.0000                                         
     3  1  0.50        -4.0811   2.0000                                         
     3  2  1.50        -4.0817   0.0000                                         
   Description                                                                  
     l       E           TYP  RCUT    TYP  RCUT                                 
     0    -10.8127223     23  1.900                                             
     0     -7.6451159     23  1.900                                             
     1     -4.0811372     23  1.900                                             
     1      2.4879257     23  1.900                                             
     2     -4.0817478      7  1.900                                             
  local pseudopotential read in
  partial core-charges read in
  partial kinetic energy density read in
  atomic valenz-charges read in
  non local Contribution for L=           0  read in
    real space projection operators read in
  non local Contribution for L=           0  read in
    real space projection operators read in
  non local Contribution for L=           1  read in
    real space projection operators read in
  non local Contribution for L=           1  read in
    real space projection operators read in
    PAW grid and wavefunctions read in

   number of l-projection  operators is LMAX  =           4
   number of lm-projection operators is LMMAX =           8

  PAW_PBE Si 05Jan2001                  :
 energy of atom  1       EATOM= -103.0669
 kinetic energy error for atom=    0.0006 (will be added to EATOM!!)


 POSCAR: bulk@mp_149                             
  positions in direct lattice
  velocities in cartesian coordinates

 METAGGA = MBJ      LMAXTAU =  0    LMIXTAU =  F    CMBJ =    1.0000

 exchange correlation table for  LEXCH =        8
   RHO(1)=    0.500       N(1)  =     2000
   RHO(2)=  100.500       N(2)  =     4000



--------------------------------------------------------------------------------------------------------


 ion  position               nearest neighbor table
   1  0.875  0.875  0.875-   2 2.38   2 2.38   2 2.38   2 2.38
   2  0.125  0.125  0.125-   1 2.38   1 2.38   1 2.38   1 2.38


IMPORTANT INFORMATION: All symmetrisations will be switched off!
NOSYMM: (Re-)initialisation of all symmetry stuff for point group C_1.



 KPOINTS: Automatic kpoint scheme                 

Automatic generation of k-mesh.
Space group operators:
 irot       det(A)        alpha          n_x          n_y          n_z        tau_x        tau_y        tau_z
    1     1.000000     0.000001     1.000000     0.000000     0.000000     0.000000     0.000000     0.000000
 
 Subroutine IBZKPT returns following result:
 ===========================================
 
 Found    666 irreducible k-points:
 
 Following reciprocal coordinates:
            Coordinates               Weight
  0.000000  0.000000  0.000000      1.000000
  0.090909  0.000000  0.000000      2.000000
  0.181818  0.000000  0.000000      2.000000
  0.272727  0.000000  0.000000      2.000000
  0.363636  0.000000  0.000000      2.000000
  0.454545  0.000000  0.000000      2.000000
  0.000000  0.090909  0.000000      2.000000
  0.090909  0.090909  0.000000      2.000000
  0.181818  0.090909  0.000000      2.000000
  0.272727  0.090909  0.000000      2.000000
  0.363636  0.090909  0.000000      2.000000
  0.454545  0.090909  0.000000      2.000000
 -0.454545  0.090909  0.000000      2.000000
 -0.363636  0.090909  0.000000      2.000000
 -0.272727  0.090909  0.000000      2.000000
 -0.181818  0.090909  0.000000      2.000000
 -0.090909  0.090909  0.000000      2.000000
  0.000000  0.181818  0.000000      2.000000
  0.090909  0.181818  0.000000      2.000000
  0.181818  0.181818  0.000000      2.000000
  0.272727  0.181818  0.000000      2.000000
  0.363636  0.181818  0.000000      2.000000
  0.454545  0.181818  0.000000      2.000000
 -0.454545  0.181818  0.000000      2.000000
 -0.363636  0.181818  0.000000      2.000000
 -0.272727  0.181818  0.000000      2.000000
 -0.181818  0.181818  0.000000      2.000000
 -0.090909  0.181818  0.000000      2.000000
  0.000000  0.272727  0.000000      2.000000
  0.090909  0.272727  0.000000      2.000000
  0.181818  0.272727  0.000000      2.000000
  0.272727  0.272727  0.000000      2.000000
  0.363636  0.272727  0.000000      2.000000
  0.454545  0.272727  0.000000      2.000000
 -0.454545  0.272727  0.000000      2.000000
 -0.363636  0.272727  0.000000      2.000000
 -0.272727  0.272727  0.000000      2.000000
 -0.181818  0.272727  0.000000      2.000000
 -0.090909  0.272727  0.000000      2.000000
  0.000000  0.363636  0.000000      2.000000
  0.090909  0.363636  0.000000      2.000000
  0.181818  0.363636  0.000000      2.000000
  0.272727  0.363636  0.000000      2.000000
  0.363636  0.363636  0.000000      2.000000
  0.454545  0.363636  0.000000      2.000000
 -0.454545  0.363636  0.000000      2.000000
 -0.363636  0.363636  0.000000      2.000000
 -0.272727  0.363636  0.000000      2.000000
 -0.181818  0.363636  0.000000      2.000000
 -0.090909  0.363636  0.000000      2.000000
  0.000000  0.454545  0.000000      2.000000
  0.090909  0.454545  0.000000      2.000000
  0.181818  0.454545  0.000000      2.000000
  0.272727  0.454545  0.000000      2.000000
  0.363636  0.454545  0.000000      2.000000
  0.454545  0.454545  0.000000      2.000000
 -0.454545  0.454545  0.000000      2.000000
 -0.363636  0.454545  0.000000      2.000000
 -0.272727  0.454545  0.000000      2.000000
 -0.181818  0.454545  0.000000      2.000000
 -0.090909  0.454545  0.000000      2.000000
  0.000000  0.000000  0.090909      2.000000
  0.090909  0.000000  0.090909      2.000000
  0.181818  0.000000  0.090909      2.000000
  0.272727  0.000000  0.090909      2.000000
  0.363636  0.000000  0.090909      2.000000
  0.454545  0.000000  0.090909      2.000000
 -0.454545  0.000000  0.090909      2.000000
 -0.363636  0.000000  0.090909      2.000000
 -0.272727  0.000000  0.090909      2.000000
 -0.181818  0.000000  0.090909      2.000000
 -0.090909  0.000000  0.090909      2.000000
  0.000000  0.090909  0.090909      2.000000
  0.090909  0.090909  0.090909      2.000000
  0.181818  0.090909  0.090909      2.000000
  0.272727  0.090909  0.090909      2.000000
  0.363636  0.090909  0.090909      2.000000
  0.454545  0.090909  0.090909      2.000000
 -0.454545  0.090909  0.090909      2.000000
 -0.363636  0.090909  0.090909      2.000000
 -0.272727  0.090909  0.090909      2.000000
 -0.181818  0.090909  0.090909      2.000000
 -0.090909  0.090909  0.090909      2.000000
  0.000000  0.181818  0.090909      2.000000
  0.090909  0.181818  0.090909      2.000000
  0.181818  0.181818  0.090909      2.000000
  0.272727  0.181818  0.090909      2.000000
  0.363636  0.181818  0.090909      2.000000
  0.454545  0.181818  0.090909      2.000000
 -0.454545  0.181818  0.090909      2.000000
 -0.363636  0.181818  0.090909      2.000000
 -0.272727  0.181818  0.090909      2.000000
 -0.181818  0.181818  0.090909      2.000000
 -0.090909  0.181818  0.090909      2.000000
  0.000000  0.272727  0.090909      2.000000
  0.090909  0.272727  0.090909      2.000000
  0.181818  0.272727  0.090909      2.000000
  0.272727  0.272727  0.090909      2.000000
  0.363636  0.272727  0.090909      2.000000
  0.454545  0.272727  0.090909      2.000000
 -0.454545  0.272727  0.090909      2.000000
 -0.363636  0.272727  0.090909      2.000000
 -0.272727  0.272727  0.090909      2.000000
 -0.181818  0.272727  0.090909      2.000000
 -0.090909  0.272727  0.090909      2.000000
  0.000000  0.363636  0.090909      2.000000
  0.090909  0.363636  0.090909      2.000000
  0.181818  0.363636  0.090909      2.000000
  0.272727  0.363636  0.090909      2.000000
  0.363636  0.363636  0.090909      2.000000
  0.454545  0.363636  0.090909      2.000000
 -0.454545  0.363636  0.090909      2.000000
 -0.363636  0.363636  0.090909      2.000000
 -0.272727  0.363636  0.090909      2.000000
 -0.181818  0.363636  0.090909      2.000000
 -0.090909  0.363636  0.090909      2.000000
  0.000000  0.454545  0.090909      2.000000
  0.090909  0.454545  0.090909      2.000000
  0.181818  0.454545  0.090909      2.000000
  0.272727  0.454545  0.090909      2.000000
  0.363636  0.454545  0.090909      2.000000
  0.454545  0.454545  0.090909      2.000000
 -0.454545  0.454545  0.090909      2.000000
 -0.363636  0.454545  0.090909      2.000000
 -0.272727  0.454545  0.090909      2.000000
 -0.181818  0.454545  0.090909      2.000000
 -0.090909  0.454545  0.090909      2.000000
  0.000000 -0.454545  0.090909      2.000000
  0.090909 -0.454545  0.090909      2.000000
  0.181818 -0.454545  0.090909      2.000000
  0.272727 -0.454545  0.090909      2.000000
  0.363636 -0.454545  0.090909      2.000000
  0.454545 -0.454545  0.090909      2.000000
 -0.454545 -0.454545  0.090909      2.000000
 -0.363636 -0.454545  0.090909      2.000000
 -0.272727 -0.454545  0.090909      2.000000
 -0.181818 -0.454545  0.090909      2.000000
 -0.090909 -0.454545  0.090909      2.000000
  0.000000 -0.363636  0.090909      2.000000
  0.090909 -0.363636  0.090909      2.000000
  0.181818 -0.363636  0.090909      2.000000
  0.272727 -0.363636  0.090909      2.000000
  0.363636 -0.363636  0.090909      2.000000
  0.454545 -0.363636  0.090909      2.000000
 -0.454545 -0.363636  0.090909      2.000000
 -0.363636 -0.363636  0.090909      2.000000
 -0.272727 -0.363636  0.090909      2.000000
 -0.181818 -0.363636  0.090909      2.000000
 -0.090909 -0.363636  0.090909      2.000000
  0.000000 -0.272727  0.090909      2.000000
  0.090909 -0.272727  0.090909      2.000000
  0.181818 -0.272727  0.090909      2.000000
  0.272727 -0.272727  0.090909      2.000000
  0.363636 -0.272727  0.090909      2.000000
  0.454545 -0.272727  0.090909      2.000000
 -0.454545 -0.272727  0.090909      2.000000
 -0.363636 -0.272727  0.090909      2.000000
 -0.272727 -0.272727  0.090909      2.000000
 -0.181818 -0.272727  0.090909      2.000000
 -0.090909 -0.272727  0.090909      2.000000
  0.000000 -0.181818  0.090909      2.000000
  0.090909 -0.181818  0.090909      2.000000
  0.181818 -0.181818  0.090909      2.000000
  0.272727 -0.181818  0.090909      2.000000
  0.363636 -0.181818  0.090909      2.000000
  0.454545 -0.181818  0.090909      2.000000
 -0.454545 -0.181818  0.090909      2.000000
 -0.363636 -0.181818  0.090909      2.000000
 -0.272727 -0.181818  0.090909      2.000000
 -0.181818 -0.181818  0.090909      2.000000
 -0.090909 -0.181818  0.090909      2.000000
  0.000000 -0.090909  0.090909      2.000000
  0.090909 -0.090909  0.090909      2.000000
  0.181818 -0.090909  0.090909      2.000000
  0.272727 -0.090909  0.090909      2.000000
  0.363636 -0.090909  0.090909      2.000000
  0.454545 -0.090909  0.090909      2.000000
 -0.454545 -0.090909  0.090909      2.000000
 -0.363636 -0.090909  0.090909      2.000000
 -0.272727 -0.090909  0.090909      2.000000
 -0.181818 -0.090909  0.090909      2.000000
 -0.090909 -0.090909  0.090909      2.000000
  0.000000  0.000000  0.181818      2.000000
  0.090909  0.000000  0.181818      2.000000
  0.181818  0.000000  0.181818      2.000000
  0.272727  0.000000  0.181818      2.000000
  0.363636  0.000000  0.181818      2.000000
  0.454545  0.000000  0.181818      2.000000
 -0.454545  0.000000  0.181818      2.000000
 -0.363636  0.000000  0.181818      2.000000
 -0.272727  0.000000  0.181818      2.000000
 -0.181818  0.000000  0.181818      2.000000
 -0.090909  0.000000  0.181818      2.000000
  0.000000  0.090909  0.181818      2.000000
  0.090909  0.090909  0.181818      2.000000
  0.181818  0.090909  0.181818      2.000000
  0.272727  0.090909  0.181818      2.000000
  0.363636  0.090909  0.181818      2.000000
  0.454545  0.090909  0.181818      2.000000
 -0.454545  0.090909  0.181818      2.000000
 -0.363636  0.090909  0.181818      2.000000
 -0.272727  0.090909  0.181818      2.000000
 -0.181818  0.090909  0.181818      2.000000
 -0.090909  0.090909  0.181818      2.000000
  0.000000  0.181818  0.181818      2.000000
  0.090909  0.181818  0.181818      2.000000
  0.181818  0.181818  0.181818      2.000000
  0.272727  0.181818  0.181818      2.000000
  0.363636  0.181818  0.181818      2.000000
  0.454545  0.181818  0.181818      2.000000
 -0.454545  0.181818  0.181818      2.000000
 -0.363636  0.181818  0.181818      2.000000
 -0.272727  0.181818  0.181818      2.000000
 -0.181818  0.181818  0.181818      2.000000
 -0.090909  0.181818  0.181818      2.000000
  0.000000  0.272727  0.181818      2.000000
  0.090909  0.272727  0.181818      2.000000
  0.181818  0.272727  0.181818      2.000000
  0.272727  0.272727  0.181818      2.000000
  0.363636  0.272727  0.181818      2.000000
  0.454545  0.272727  0.181818      2.000000
 -0.454545  0.272727  0.181818      2.000000
 -0.363636  0.272727  0.181818      2.000000
 -0.272727  0.272727  0.181818      2.000000
 -0.181818  0.272727  0.181818      2.000000
 -0.090909  0.272727  0.181818      2.000000
  0.000000  0.363636  0.181818      2.000000
  0.090909  0.363636  0.181818      2.000000
  0.181818  0.363636  0.181818      2.000000
  0.272727  0.363636  0.181818      2.000000
  0.363636  0.363636  0.181818      2.000000
  0.454545  0.363636  0.181818      2.000000
 -0.454545  0.363636  0.181818      2.000000
 -0.363636  0.363636  0.181818      2.000000
 -0.272727  0.363636  0.181818      2.000000
 -0.181818  0.363636  0.181818      2.000000
 -0.090909  0.363636  0.181818      2.000000
  0.000000  0.454545  0.181818      2.000000
  0.090909  0.454545  0.181818      2.000000
  0.181818  0.454545  0.181818      2.000000
  0.272727  0.454545  0.181818      2.000000
  0.363636  0.454545  0.181818      2.000000
  0.454545  0.454545  0.181818      2.000000
 -0.454545  0.454545  0.181818      2.000000
 -0.363636  0.454545  0.181818      2.000000
 -0.272727  0.454545  0.181818      2.000000
 -0.181818  0.454545  0.181818      2.000000
 -0.090909  0.454545  0.181818      2.000000
  0.000000 -0.454545  0.181818      2.000000
  0.090909 -0.454545  0.181818      2.000000
  0.181818 -0.454545  0.181818      2.000000
  0.272727 -0.454545  0.181818      2.000000
  0.363636 -0.454545  0.181818      2.000000
  0.454545 -0.454545  0.181818      2.000000
 -0.454545 -0.454545  0.181818      2.000000
 -0.363636 -0.454545  0.181818      2.000000
 -0.272727 -0.454545  0.181818      2.000000
 -0.181818 -0.454545  0.181818      2.000000
 -0.090909 -0.454545  0.181818      2.000000
  0.000000 -0.363636  0.181818      2.000000
  0.090909 -0.363636  0.181818      2.000000
  0.181818 -0.363636  0.181818      2.000000
  0.272727 -0.363636  0.181818      2.000000
  0.363636 -0.363636  0.181818      2.000000
  0.454545 -0.363636  0.181818      2.000000
 -0.454545 -0.363636  0.181818      2.000000
 -0.363636 -0.363636  0.181818      2.000000
 -0.272727 -0.363636  0.181818      2.000000
 -0.181818 -0.363636  0.181818      2.000000
 -0.090909 -0.363636  0.181818      2.000000
  0.000000 -0.272727  0.181818      2.000000
  0.090909 -0.272727  0.181818      2.000000
  0.181818 -0.272727  0.181818      2.000000
  0.272727 -0.272727  0.181818      2.000000
  0.363636 -0.272727  0.181818      2.000000
  0.454545 -0.272727  0.181818      2.000000
 -0.454545 -0.272727  0.181818      2.000000
 -0.363636 -0.272727  0.181818      2.000000
 -0.272727 -0.272727  0.181818      2.000000
 -0.181818 -0.272727  0.181818      2.000000
 -0.090909 -0.272727  0.181818      2.000000
  0.000000 -0.181818  0.181818      2.000000
  0.090909 -0.181818  0.181818      2.000000
  0.181818 -0.181818  0.181818      2.000000
  0.272727 -0.181818  0.181818      2.000000
  0.363636 -0.181818  0.181818      2.000000
  0.454545 -0.181818  0.181818      2.000000
 -0.454545 -0.181818  0.181818      2.000000
 -0.363636 -0.181818  0.181818      2.000000
 -0.272727 -0.181818  0.181818      2.000000
 -0.181818 -0.181818  0.181818      2.000000
 -0.090909 -0.181818  0.181818      2.000000
  0.000000 -0.090909  0.181818      2.000000
  0.090909 -0.090909  0.181818      2.000000
  0.181818 -0.090909  0.181818      2.000000
  0.272727 -0.090909  0.181818      2.000000
  0.363636 -0.090909  0.181818      2.000000
  0.454545 -0.090909  0.181818      2.000000
 -0.454545 -0.090909  0.181818      2.000000
 -0.363636 -0.090909  0.181818      2.000000
 -0.272727 -0.090909  0.181818      2.000000
 -0.181818 -0.090909  0.181818      2.000000
 -0.090909 -0.090909  0.181818      2.000000
  0.000000  0.000000  0.272727      2.000000
  0.090909  0.000000  0.272727      2.000000
  0.181818  0.000000  0.272727      2.000000
  0.272727  0.000000  0.272727      2.000000
  0.363636  0.000000  0.272727      2.000000
  0.454545  0.000000  0.272727      2.000000
 -0.454545  0.000000  0.272727      2.000000
 -0.363636  0.000000  0.272727      2.000000
 -0.272727  0.000000  0.272727      2.000000
 -0.181818  0.000000  0.272727      2.000000
 -0.090909  0.000000  0.272727      2.000000
  0.000000  0.090909  0.272727      2.000000
  0.090909  0.090909  0.272727      2.000000
  0.181818  0.090909  0.272727      2.000000
  0.272727  0.090909  0.272727      2.000000
  0.363636  0.090909  0.272727      2.000000
  0.454545  0.090909  0.272727      2.000000
 -0.454545  0.090909  0.272727      2.000000
 -0.363636  0.090909  0.272727      2.000000
 -0.272727  0.090909  0.272727      2.000000
 -0.181818  0.090909  0.272727      2.000000
 -0.090909  0.090909  0.272727      2.000000
  0.000000  0.181818  0.272727      2.000000
  0.090909  0.181818  0.272727      2.000000
  0.181818  0.181818  0.272727      2.000000
  0.272727  0.181818  0.272727      2.000000
  0.363636  0.181818  0.272727      2.000000
  0.454545  0.181818  0.272727      2.000000
 -0.454545  0.181818  0.272727      2.000000
 -0.363636  0.181818  0.272727      2.000000
 -0.272727  0.181818  0.272727      2.000000
 -0.181818  0.181818  0.272727      2.000000
 -0.090909  0.181818  0.272727      2.000000
  0.000000  0.272727  0.272727      2.000000
  0.090909  0.272727  0.272727      2.000000
  0.181818  0.272727  0.272727      2.000000
  0.272727  0.272727  0.272727      2.000000
  0.363636  0.272727  0.272727      2.000000
  0.454545  0.272727  0.272727      2.000000
 -0.454545  0.272727  0.272727      2.000000
 -0.363636  0.272727  0.272727      2.000000
 -0.272727  0.272727  0.272727      2.000000
 -0.181818  0.272727  0.272727      2.000000
 -0.090909  0.272727  0.272727      2.000000
  0.000000  0.363636  0.272727      2.000000
  0.090909  0.363636  0.272727      2.000000
  0.181818  0.363636  0.272727      2.000000
  0.272727  0.363636  0.272727      2.000000
  0.363636  0.363636  0.272727      2.000000
  0.454545  0.363636  0.272727      2.000000
 -0.454545  0.363636  0.272727      2.000000
 -0.363636  0.363636  0.272727      2.000000
 -0.272727  0.363636  0.272727      2.000000
 -0.181818  0.363636  0.272727      2.000000
 -0.090909  0.363636  0.272727      2.000000
  0.000000  0.454545  0.272727      2.000000
  0.090909  0.454545  0.272727      2.000000
  0.181818  0.454545  0.272727      2.000000
  0.272727  0.454545  0.272727      2.000000
  0.363636  0.454545  0.272727      2.000000
  0.454545  0.454545  0.272727      2.000000
 -0.454545  0.454545  0.272727      2.000000
 -0.363636  0.454545  0.272727      2.000000
 -0.272727  0.454545  0.272727      2.000000
 -0.181818  0.454545  0.272727      2.000000
 -0.090909  0.454545  0.272727      2.000000
  0.000000 -0.454545  0.272727      2.000000
  0.090909 -0.454545  0.272727      2.000000
  0.181818 -0.454545  0.272727      2.000000
  0.272727 -0.454545  0.272727      2.000000
  0.363636 -0.454545  0.272727      2.000000
  0.454545 -0.454545  0.272727      2.000000
 -0.454545 -0.454545  0.272727      2.000000
 -0.363636 -0.454545  0.272727      2.000000
 -0.272727 -0.454545  0.272727      2.000000
 -0.181818 -0.454545  0.272727      2.000000
 -0.090909 -0.454545  0.272727      2.000000
  0.000000 -0.363636  0.272727      2.000000
  0.090909 -0.363636  0.272727      2.000000
  0.181818 -0.363636  0.272727      2.000000
  0.272727 -0.363636  0.272727      2.000000
  0.363636 -0.363636  0.272727      2.000000
  0.454545 -0.363636  0.272727      2.000000
 -0.454545 -0.363636  0.272727      2.000000
 -0.363636 -0.363636  0.272727      2.000000
 -0.272727 -0.363636  0.272727      2.000000
 -0.181818 -0.363636  0.272727      2.000000
 -0.090909 -0.363636  0.272727      2.000000
  0.000000 -0.272727  0.272727      2.000000
  0.090909 -0.272727  0.272727      2.000000
  0.181818 -0.272727  0.272727      2.000000
  0.272727 -0.272727  0.272727      2.000000
  0.363636 -0.272727  0.272727      2.000000
  0.454545 -0.272727  0.272727      2.000000
 -0.454545 -0.272727  0.272727      2.000000
 -0.363636 -0.272727  0.272727      2.000000
 -0.272727 -0.272727  0.272727      2.000000
 -0.181818 -0.272727  0.272727      2.000000
 -0.090909 -0.272727  0.272727      2.000000
  0.000000 -0.181818  0.272727      2.000000
  0.090909 -0.181818  0.272727      2.000000
  0.181818 -0.181818  0.272727      2.000000
  0.272727 -0.181818  0.272727      2.000000
  0.363636 -0.181818  0.272727      2.000000
  0.454545 -0.181818  0.272727      2.000000
 -0.454545 -0.181818  0.272727      2.000000
 -0.363636 -0.181818  0.272727      2.000000
 -0.272727 -0.181818  0.272727      2.000000
 -0.181818 -0.181818  0.272727      2.000000
 -0.090909 -0.181818  0.272727      2.000000
  0.000000 -0.090909  0.272727      2.000000
  0.090909 -0.090909  0.272727      2.000000
  0.181818 -0.090909  0.272727      2.000000
  0.272727 -0.090909  0.272727      2.000000
  0.363636 -0.090909  0.272727      2.000000
  0.454545 -0.090909  0.272727      2.000000
 -0.454545 -0.090909  0.272727      2.000000
 -0.363636 -0.090909  0.272727      2.000000
 -0.272727 -0.090909  0.272727      2.000000
 -0.181818 -0.090909  0.272727      2.000000
 -0.090909 -0.090909  0.272727      2.000000
  0.000000  0.000000  0.363636      2.000000
  0.090909  0.000000  0.363636      2.000000
  0.181818  0.000000  0.363636      2.000000
  0.272727  0.000000  0.363636      2.000000
  0.363636  0.000000  0.363636      2.000000
  0.454545  0.000000  0.363636      2.000000
 -0.454545  0.000000  0.363636      2.000000
 -0.363636  0.000000  0.363636      2.000000
 -0.272727  0.000000  0.363636      2.000000
 -0.181818  0.000000  0.363636      2.000000
 -0.090909  0.000000  0.363636      2.000000
  0.000000  0.090909  0.363636      2.000000
  0.090909  0.090909  0.363636      2.000000
  0.181818  0.090909  0.363636      2.000000
  0.272727  0.090909  0.363636      2.000000
  0.363636  0.090909  0.363636      2.000000
  0.454545  0.090909  0.363636      2.000000
 -0.454545  0.090909  0.363636      2.000000
 -0.363636  0.090909  0.363636      2.000000
 -0.272727  0.090909  0.363636      2.000000
 -0.181818  0.090909  0.363636      2.000000
 -0.090909  0.090909  0.363636      2.000000
  0.000000  0.181818  0.363636      2.000000
  0.090909  0.181818  0.363636      2.000000
  0.181818  0.181818  0.363636      2.000000
  0.272727  0.181818  0.363636      2.000000
  0.363636  0.181818  0.363636      2.000000
  0.454545  0.181818  0.363636      2.000000
 -0.454545  0.181818  0.363636      2.000000
 -0.363636  0.181818  0.363636      2.000000
 -0.272727  0.181818  0.363636      2.000000
 -0.181818  0.181818  0.363636      2.000000
 -0.090909  0.181818  0.363636      2.000000
  0.000000  0.272727  0.363636      2.000000
  0.090909  0.272727  0.363636      2.000000
  0.181818  0.272727  0.363636      2.000000
  0.272727  0.272727  0.363636      2.000000
  0.363636  0.272727  0.363636      2.000000
  0.454545  0.272727  0.363636      2.000000
 -0.454545  0.272727  0.363636      2.000000
 -0.363636  0.272727  0.363636      2.000000
 -0.272727  0.272727  0.363636      2.000000
 -0.181818  0.272727  0.363636      2.000000
 -0.090909  0.272727  0.363636      2.000000
  0.000000  0.363636  0.363636      2.000000
  0.090909  0.363636  0.363636      2.000000
  0.181818  0.363636  0.363636      2.000000
  0.272727  0.363636  0.363636      2.000000
  0.363636  0.363636  0.363636      2.000000
  0.454545  0.363636  0.363636      2.000000
 -0.454545  0.363636  0.363636      2.000000
 -0.363636  0.363636  0.363636      2.000000
 -0.272727  0.363636  0.363636      2.000000
 -0.181818  0.363636  0.363636      2.000000
 -0.090909  0.363636  0.363636      2.000000
  0.000000  0.454545  0.363636      2.000000
  0.090909  0.454545  0.363636      2.000000
  0.181818  0.454545  0.363636      2.000000
  0.272727  0.454545  0.363636      2.000000
  0.363636  0.454545  0.363636      2.000000
  0.454545  0.454545  0.363636      2.000000
 -0.454545  0.454545  0.363636      2.000000
 -0.363636  0.454545  0.363636      2.000000
 -0.272727  0.454545  0.363636      2.000000
 -0.181818  0.454545  0.363636      2.000000
 -0.090909  0.454545  0.363636      2.000000
  0.000000 -0.454545  0.363636      2.000000
  0.090909 -0.454545  0.363636      2.000000
  0.181818 -0.454545  0.363636      2.000000
  0.272727 -0.454545  0.363636      2.000000
  0.363636 -0.454545  0.363636      2.000000
  0.454545 -0.454545  0.363636      2.000000
 -0.454545 -0.454545  0.363636      2.000000
 -0.363636 -0.454545  0.363636      2.000000
 -0.272727 -0.454545  0.363636      2.000000
 -0.181818 -0.454545  0.363636      2.000000
 -0.090909 -0.454545  0.363636      2.000000
  0.000000 -0.363636  0.363636      2.000000
  0.090909 -0.363636  0.363636      2.000000
  0.181818 -0.363636  0.363636      2.000000
  0.272727 -0.363636  0.363636      2.000000
  0.363636 -0.363636  0.363636      2.000000
  0.454545 -0.363636  0.363636      2.000000
 -0.454545 -0.363636  0.363636      2.000000
 -0.363636 -0.363636  0.363636      2.000000
 -0.272727 -0.363636  0.363636      2.000000
 -0.181818 -0.363636  0.363636      2.000000
 -0.090909 -0.363636  0.363636      2.000000
  0.000000 -0.272727  0.363636      2.000000
  0.090909 -0.272727  0.363636      2.000000
  0.181818 -0.272727  0.363636      2.000000
  0.272727 -0.272727  0.363636      2.000000
  0.363636 -0.272727  0.363636      2.000000
  0.454545 -0.272727  0.363636      2.000000
 -0.454545 -0.272727  0.363636      2.000000
 -0.363636 -0.272727  0.363636      2.000000
 -0.272727 -0.272727  0.363636      2.000000
 -0.181818 -0.272727  0.363636      2.000000
 -0.090909 -0.272727  0.363636      2.000000
  0.000000 -0.181818  0.363636      2.000000
  0.090909 -0.181818  0.363636      2.000000
  0.181818 -0.181818  0.363636      2.000000
  0.272727 -0.181818  0.363636      2.000000
  0.363636 -0.181818  0.363636      2.000000
  0.454545 -0.181818  0.363636      2.000000
 -0.454545 -0.181818  0.363636      2.000000
 -0.363636 -0.181818  0.363636      2.000000
 -0.272727 -0.181818  0.363636      2.000000
 -0.181818 -0.181818  0.363636      2.000000
 -0.090909 -0.181818  0.363636      2.000000
  0.000000 -0.090909  0.363636      2.000000
  0.090909 -0.090909  0.363636      2.000000
  0.181818 -0.090909  0.363636      2.000000
  0.272727 -0.090909  0.363636      2.000000
  0.363636 -0.090909  0.363636      2.000000
  0.454545 -0.090909  0.363636      2.000000
 -0.454545 -0.090909  0.363636      2.000000
 -0.363636 -0.090909  0.363636      2.000000
 -0.272727 -0.090909  0.363636      2.000000
 -0.181818 -0.090909  0.363636      2.000000
 -0.090909 -0.090909  0.363636      2.000000
  0.000000  0.000000  0.454545      2.000000
  0.090909  0.000000  0.454545      2.000000
  0.181818  0.000000  0.454545      2.000000
  0.272727  0.000000  0.454545      2.000000
  0.363636  0.000000  0.454545      2.000000
  0.454545  0.000000  0.454545      2.000000
 -0.454545  0.000000  0.454545      2.000000
 -0.363636  0.000000  0.454545      2.000000
 -0.272727  0.000000  0.454545      2.000000
 -0.181818  0.000000  0.454545      2.000000
 -0.090909  0.000000  0.454545      2.000000
  0.000000  0.090909  0.454545      2.000000
  0.090909  0.090909  0.454545      2.000000
  0.181818  0.090909  0.454545      2.000000
  0.272727  0.090909  0.454545      2.000000
  0.363636  0.090909  0.454545      2.000000
  0.454545  0.090909  0.454545      2.000000
 -0.454545  0.090909  0.454545      2.000000
 -0.363636  0.090909  0.454545      2.000000
 -0.272727  0.090909  0.454545      2.000000
 -0.181818  0.090909  0.454545      2.000000
 -0.090909  0.090909  0.454545      2.000000
  0.000000  0.181818  0.454545      2.000000
  0.090909  0.181818  0.454545      2.000000
  0.181818  0.181818  0.454545      2.000000
  0.272727  0.181818  0.454545      2.000000
  0.363636  0.181818  0.454545      2.000000
  0.454545  0.181818  0.454545      2.000000
 -0.454545  0.181818  0.454545      2.000000
 -0.363636  0.181818  0.454545      2.000000
 -0.272727  0.181818  0.454545      2.000000
 -0.181818  0.181818  0.454545      2.000000
 -0.090909  0.181818  0.454545      2.000000
  0.000000  0.272727  0.454545      2.000000
  0.090909  0.272727  0.454545      2.000000
  0.181818  0.272727  0.454545      2.000000
  0.272727  0.272727  0.454545      2.000000
  0.363636  0.272727  0.454545      2.000000
  0.454545  0.272727  0.454545      2.000000
 -0.454545  0.272727  0.454545      2.000000
 -0.363636  0.272727  0.454545      2.000000
 -0.272727  0.272727  0.454545      2.000000
 -0.181818  0.272727  0.454545      2.000000
 -0.090909  0.272727  0.454545      2.000000
  0.000000  0.363636  0.454545      2.000000
  0.090909  0.363636  0.454545      2.000000
  0.181818  0.363636  0.454545      2.000000
  0.272727  0.363636  0.454545      2.000000
  0.363636  0.363636  0.454545      2.000000
  0.454545  0.363636  0.454545      2.000000
 -0.454545  0.363636  0.454545      2.000000
 -0.363636  0.363636  0.454545      2.000000
 -0.272727  0.363636  0.454545      2.000000
 -0.181818  0.363636  0.454545      2.000000
 -0.090909  0.363636  0.454545      2.000000
  0.000000  0.454545  0.454545      2.000000
  0.090909  0.454545  0.454545      2.000000
  0.181818  0.454545  0.454545      2.000000
  0.272727  0.454545  0.454545      2.000000
  0.363636  0.454545  0.454545      2.000000
  0.454545  0.454545  0.454545      2.000000
 -0.454545  0.454545  0.454545      2.000000
 -0.363636  0.454545  0.454545      2.000000
 -0.272727  0.454545  0.454545      2.000000
 -0.181818  0.454545  0.454545      2.000000
 -0.090909  0.454545  0.454545      2.000000
  0.000000 -0.454545  0.454545      2.000000
  0.090909 -0.454545  0.454545      2.000000
  0.181818 -0.454545  0.454545      2.000000
  0.272727 -0.454545  0.454545      2.000000
  0.363636 -0.454545  0.454545      2.000000
  0.454545 -0.454545  0.454545      2.000000
 -0.454545 -0.454545  0.454545      2.000000
 -0.363636 -0.454545  0.454545      2.000000
 -0.272727 -0.454545  0.454545      2.000000
 -0.181818 -0.454545  0.454545      2.000000
 -0.090909 -0.454545  0.454545      2.000000
  0.000000 -0.363636  0.454545      2.000000
  0.090909 -0.363636  0.454545      2.000000
  0.181818 -0.363636  0.454545      2.000000
  0.272727 -0.363636  0.454545      2.000000
  0.363636 -0.363636  0.454545      2.000000
  0.454545 -0.363636  0.454545      2.000000
 -0.454545 -0.363636  0.454545      2.000000
 -0.363636 -0.363636  0.454545      2.000000
 -0.272727 -0.363636  0.454545      2.000000
 -0.181818 -0.363636  0.454545      2.000000
 -0.090909 -0.363636  0.454545      2.000000
  0.000000 -0.272727  0.454545      2.000000
  0.090909 -0.272727  0.454545      2.000000
  0.181818 -0.272727  0.454545      2.000000
  0.272727 -0.272727  0.454545      2.000000
  0.363636 -0.272727  0.454545      2.000000
  0.454545 -0.272727  0.454545      2.000000
 -0.454545 -0.272727  0.454545      2.000000
 -0.363636 -0.272727  0.454545      2.000000
 -0.272727 -0.272727  0.454545      2.000000
 -0.181818 -0.272727  0.454545      2.000000
 -0.090909 -0.272727  0.454545      2.000000
  0.000000 -0.181818  0.454545      2.000000
  0.090909 -0.181818  0.454545      2.000000
  0.181818 -0.181818  0.454545      2.000000
  0.272727 -0.181818  0.454545      2.000000
  0.363636 -0.181818  0.454545      2.000000
  0.454545 -0.181818  0.454545      2.000000
 -0.454545 -0.181818  0.454545      2.000000
 -0.363636 -0.181818  0.454545      2.000000
 -0.272727 -0.181818  0.454545      2.000000
 -0.181818 -0.181818  0.454545      2.000000
 -0.090909 -0.181818  0.454545      2.000000
  0.000000 -0.090909  0.454545      2.000000
  0.090909 -0.090909  0.454545      2.000000
  0.181818 -0.090909  0.454545      2.000000
  0.272727 -0.090909  0.454545      2.000000
  0.363636 -0.090909  0.454545      2.000000
  0.454545 -0.090909  0.454545      2.000000
 -0.454545 -0.090909  0.454545      2.000000
 -0.363636 -0.090909  0.454545      2.000000
 -0.272727 -0.090909  0.454545      2.000000
 -0.181818 -0.090909  0.454545      2.000000
 -0.090909 -0.090909  0.454545      2.000000
 
 Following cartesian coordinates:
            Coordinates               Weight
  0.000000  0.000000  0.000000      1.000000
  0.027023 -0.009554  0.000000      2.000000
  0.054046 -0.019108  0.000000      2.000000
  0.081069 -0.028662  0.000000      2.000000
  0.108092 -0.038216  0.000000      2.000000
  0.135115 -0.047770  0.000000      2.000000
  0.000000  0.028662  0.000000      2.000000
  0.027023  0.019108  0.000000      2.000000
  0.054046  0.009554  0.000000      2.000000
  0.081069  0.000000  0.000000      2.000000
  0.108092 -0.009554  0.000000      2.000000
  0.135115 -0.019108  0.000000      2.000000
 -0.135115  0.076432  0.000000      2.000000
 -0.108092  0.066878  0.000000      2.000000
 -0.081069  0.057324  0.000000      2.000000
 -0.054046  0.047770  0.000000      2.000000
 -0.027023  0.038216  0.000000      2.000000
  0.000000  0.057324  0.000000      2.000000
  0.027023  0.047770  0.000000      2.000000
  0.054046  0.038216  0.000000      2.000000
  0.081069  0.028662  0.000000      2.000000
  0.108092  0.019108  0.000000      2.000000
  0.135115  0.009554  0.000000      2.000000
 -0.135115  0.105094  0.000000      2.000000
 -0.108092  0.095540  0.000000      2.000000
 -0.081069  0.085986  0.000000      2.000000
 -0.054046  0.076432  0.000000      2.000000
 -0.027023  0.066878  0.000000      2.000000
  0.000000  0.085986  0.000000      2.000000
  0.027023  0.076432  0.000000      2.000000
  0.054046  0.066878  0.000000      2.000000
  0.081069  0.057324  0.000000      2.000000
  0.108092  0.047770  0.000000      2.000000
  0.135115  0.038216  0.000000      2.000000
 -0.135115  0.133756  0.000000      2.000000
 -0.108092  0.124202  0.000000      2.000000
 -0.081069  0.114648  0.000000      2.000000
 -0.054046  0.105094  0.000000      2.000000
 -0.027023  0.095540  0.000000      2.000000
  0.000000  0.114648  0.000000      2.000000
  0.027023  0.105094  0.000000      2.000000
  0.054046  0.095540  0.000000      2.000000
  0.081069  0.085986  0.000000      2.000000
  0.108092  0.076432  0.000000      2.000000
  0.135115  0.066878  0.000000      2.000000
 -0.135115  0.162419  0.000000      2.000000
 -0.108092  0.152865  0.000000      2.000000
 -0.081069  0.143311  0.000000      2.000000
 -0.054046  0.133756  0.000000      2.000000
 -0.027023  0.124202  0.000000      2.000000
  0.000000  0.143311  0.000000      2.000000
  0.027023  0.133756  0.000000      2.000000
  0.054046  0.124202  0.000000      2.000000
  0.081069  0.114648  0.000000      2.000000
  0.108092  0.105094  0.000000      2.000000
  0.135115  0.095540  0.000000      2.000000
 -0.135115  0.191081  0.000000      2.000000
 -0.108092  0.181527  0.000000      2.000000
 -0.081069  0.171973  0.000000      2.000000
 -0.054046  0.162419  0.000000      2.000000
 -0.027023  0.152865  0.000000      2.000000
 -0.013511 -0.009554  0.023403      2.000000
  0.013511 -0.019108  0.023403      2.000000
  0.040534 -0.028662  0.023403      2.000000
  0.067557 -0.038216  0.023403      2.000000
  0.094580 -0.047770  0.023403      2.000000
  0.121603 -0.057324  0.023403      2.000000
 -0.148626  0.038216  0.023403      2.000000
 -0.121603  0.028662  0.023403      2.000000
 -0.094580  0.019108  0.023403      2.000000
 -0.067557  0.009554  0.023403      2.000000
 -0.040534 -0.000000  0.023403      2.000000
 -0.013511  0.019108  0.023403      2.000000
  0.013511  0.009554  0.023403      2.000000
  0.040534  0.000000  0.023403      2.000000
  0.067557 -0.009554  0.023403      2.000000
  0.094580 -0.019108  0.023403      2.000000
  0.121603 -0.028662  0.023403      2.000000
 -0.148626  0.066878  0.023403      2.000000
 -0.121603  0.057324  0.023403      2.000000
 -0.094580  0.047770  0.023403      2.000000
 -0.067557  0.038216  0.023403      2.000000
 -0.040534  0.028662  0.023403      2.000000
 -0.013511  0.047770  0.023403      2.000000
  0.013511  0.038216  0.023403      2.000000
  0.040534  0.028662  0.023403      2.000000
  0.067557  0.019108  0.023403      2.000000
  0.094580  0.009554  0.023403      2.000000
  0.121603  0.000000  0.023403      2.000000
 -0.148626  0.095540  0.023403      2.000000
 -0.121603  0.085986  0.023403      2.000000
 -0.094580  0.076432  0.023403      2.000000
 -0.067557  0.066878  0.023403      2.000000
 -0.040534  0.057324  0.023403      2.000000
 -0.013511  0.076432  0.023403      2.000000
  0.013511  0.066878  0.023403      2.000000
  0.040534  0.057324  0.023403      2.000000
  0.067557  0.047770  0.023403      2.000000
  0.094580  0.038216  0.023403      2.000000
  0.121603  0.028662  0.023403      2.000000
 -0.148626  0.124202  0.023403      2.000000
 -0.121603  0.114648  0.023403      2.000000
 -0.094580  0.105094  0.023403      2.000000
 -0.067557  0.095540  0.023403      2.000000
 -0.040534  0.085986  0.023403      2.000000
 -0.013511  0.105094  0.023403      2.000000
  0.013511  0.095540  0.023403      2.000000
  0.040534  0.085986  0.023403      2.000000
  0.067557  0.076432  0.023403      2.000000
  0.094580  0.066878  0.023403      2.000000
  0.121603  0.057324  0.023403      2.000000
 -0.148626  0.152865  0.023403      2.000000
 -0.121603  0.143311  0.023403      2.000000
 -0.094580  0.133756  0.023403      2.000000
 -0.067557  0.124202  0.023403      2.000000
 -0.040534  0.114648  0.023403      2.000000
 -0.013511  0.133756  0.023403      2.000000
  0.013511  0.124202  0.023403      2.000000
  0.040534  0.114648  0.023403      2.000000
  0.067557  0.105094  0.023403      2.000000
  0.094580  0.095540  0.023403      2.000000
  0.121603  0.085986  0.023403      2.000000
 -0.148626  0.181527  0.023403      2.000000
 -0.121603  0.171973  0.023403      2.000000
 -0.094580  0.162419  0.023403      2.000000
 -0.067557  0.152865  0.023403      2.000000
 -0.040534  0.143311  0.023403      2.000000
 -0.013511 -0.152865  0.023403      2.000000
  0.013511 -0.162419  0.023403      2.000000
  0.040534 -0.171973  0.023403      2.000000
  0.067557 -0.181527  0.023403      2.000000
  0.094580 -0.191081  0.023403      2.000000
  0.121603 -0.200635  0.023403      2.000000
 -0.148626 -0.105094  0.023403      2.000000
 -0.121603 -0.114648  0.023403      2.000000
 -0.094580 -0.124202  0.023403      2.000000
 -0.067557 -0.133757  0.023403      2.000000
 -0.040534 -0.143311  0.023403      2.000000
 -0.013511 -0.124202  0.023403      2.000000
  0.013511 -0.133756  0.023403      2.000000
  0.040534 -0.143311  0.023403      2.000000
  0.067557 -0.152865  0.023403      2.000000
  0.094580 -0.162419  0.023403      2.000000
  0.121603 -0.171973  0.023403      2.000000
 -0.148626 -0.076432  0.023403      2.000000
 -0.121603 -0.085986  0.023403      2.000000
 -0.094580 -0.095540  0.023403      2.000000
 -0.067557 -0.105094  0.023403      2.000000
 -0.040534 -0.114648  0.023403      2.000000
 -0.013511 -0.095540  0.023403      2.000000
  0.013511 -0.105094  0.023403      2.000000
  0.040534 -0.114648  0.023403      2.000000
  0.067557 -0.124202  0.023403      2.000000
  0.094580 -0.133756  0.023403      2.000000
  0.121603 -0.143311  0.023403      2.000000
 -0.148626 -0.047770  0.023403      2.000000
 -0.121603 -0.057324  0.023403      2.000000
 -0.094580 -0.066878  0.023403      2.000000
 -0.067557 -0.076432  0.023403      2.000000
 -0.040534 -0.085986  0.023403      2.000000
 -0.013511 -0.066878  0.023403      2.000000
  0.013511 -0.076432  0.023403      2.000000
  0.040534 -0.085986  0.023403      2.000000
  0.067557 -0.095540  0.023403      2.000000
  0.094580 -0.105094  0.023403      2.000000
  0.121603 -0.114648  0.023403      2.000000
 -0.148626 -0.019108  0.023403      2.000000
 -0.121603 -0.028662  0.023403      2.000000
 -0.094580 -0.038216  0.023403      2.000000
 -0.067557 -0.047770  0.023403      2.000000
 -0.040534 -0.057324  0.023403      2.000000
 -0.013511 -0.038216  0.023403      2.000000
  0.013511 -0.047770  0.023403      2.000000
  0.040534 -0.057324  0.023403      2.000000
  0.067557 -0.066878  0.023403      2.000000
  0.094580 -0.076432  0.023403      2.000000
  0.121603 -0.085986  0.023403      2.000000
 -0.148626  0.009554  0.023403      2.000000
 -0.121603 -0.000000  0.023403      2.000000
 -0.094580 -0.009554  0.023403      2.000000
 -0.067557 -0.019108  0.023403      2.000000
 -0.040534 -0.028662  0.023403      2.000000
 -0.027023 -0.019108  0.046805      2.000000
  0.000000 -0.028662  0.046805      2.000000
  0.027023 -0.038216  0.046805      2.000000
  0.054046 -0.047770  0.046805      2.000000
  0.081069 -0.057324  0.046805      2.000000
  0.108092 -0.066878  0.046805      2.000000
 -0.162137  0.028662  0.046805      2.000000
 -0.135115  0.019108  0.046805      2.000000
 -0.108092  0.009554  0.046805      2.000000
 -0.081069 -0.000000  0.046805      2.000000
 -0.054046 -0.009554  0.046805      2.000000
 -0.027023  0.009554  0.046805      2.000000
  0.000000  0.000000  0.046805      2.000000
  0.027023 -0.009554  0.046805      2.000000
  0.054046 -0.019108  0.046805      2.000000
  0.081069 -0.028662  0.046805      2.000000
  0.108092 -0.038216  0.046805      2.000000
 -0.162137  0.057324  0.046805      2.000000
 -0.135115  0.047770  0.046805      2.000000
 -0.108092  0.038216  0.046805      2.000000
 -0.081069  0.028662  0.046805      2.000000
 -0.054046  0.019108  0.046805      2.000000
 -0.027023  0.038216  0.046805      2.000000
  0.000000  0.028662  0.046805      2.000000
  0.027023  0.019108  0.046805      2.000000
  0.054046  0.009554  0.046805      2.000000
  0.081069  0.000000  0.046805      2.000000
  0.108092 -0.009554  0.046805      2.000000
 -0.162137  0.085986  0.046805      2.000000
 -0.135115  0.076432  0.046805      2.000000
 -0.108092  0.066878  0.046805      2.000000
 -0.081069  0.057324  0.046805      2.000000
 -0.054046  0.047770  0.046805      2.000000
 -0.027023  0.066878  0.046805      2.000000
  0.000000  0.057324  0.046805      2.000000
  0.027023  0.047770  0.046805      2.000000
  0.054046  0.038216  0.046805      2.000000
  0.081069  0.028662  0.046805      2.000000
  0.108092  0.019108  0.046805      2.000000
 -0.162137  0.114648  0.046805      2.000000
 -0.135115  0.105094  0.046805      2.000000
 -0.108092  0.095540  0.046805      2.000000
 -0.081069  0.085986  0.046805      2.000000
 -0.054046  0.076432  0.046805      2.000000
 -0.027023  0.095540  0.046805      2.000000
  0.000000  0.085986  0.046805      2.000000
  0.027023  0.076432  0.046805      2.000000
  0.054046  0.066878  0.046805      2.000000
  0.081069  0.057324  0.046805      2.000000
  0.108092  0.047770  0.046805      2.000000
 -0.162137  0.143311  0.046805      2.000000
 -0.135115  0.133756  0.046805      2.000000
 -0.108092  0.124202  0.046805      2.000000
 -0.081069  0.114648  0.046805      2.000000
 -0.054046  0.105094  0.046805      2.000000
 -0.027023  0.124202  0.046805      2.000000
  0.000000  0.114648  0.046805      2.000000
  0.027023  0.105094  0.046805      2.000000
  0.054046  0.095540  0.046805      2.000000
  0.081069  0.085986  0.046805      2.000000
  0.108092  0.076432  0.046805      2.000000
 -0.162137  0.171973  0.046805      2.000000
 -0.135115  0.162419  0.046805      2.000000
 -0.108092  0.152865  0.046805      2.000000
 -0.081069  0.143311  0.046805      2.000000
 -0.054046  0.133756  0.046805      2.000000
 -0.027023 -0.162419  0.046805      2.000000
  0.000000 -0.171973  0.046805      2.000000
  0.027023 -0.181527  0.046805      2.000000
  0.054046 -0.191081  0.046805      2.000000
  0.081069 -0.200635  0.046805      2.000000
  0.108092 -0.210189  0.046805      2.000000
 -0.162137 -0.114648  0.046805      2.000000
 -0.135115 -0.124202  0.046805      2.000000
 -0.108092 -0.133757  0.046805      2.000000
 -0.081069 -0.143311  0.046805      2.000000
 -0.054046 -0.152865  0.046805      2.000000
 -0.027023 -0.133756  0.046805      2.000000
  0.000000 -0.143311  0.046805      2.000000
  0.027023 -0.152865  0.046805      2.000000
  0.054046 -0.162419  0.046805      2.000000
  0.081069 -0.171973  0.046805      2.000000
  0.108092 -0.181527  0.046805      2.000000
 -0.162137 -0.085986  0.046805      2.000000
 -0.135115 -0.095540  0.046805      2.000000
 -0.108092 -0.105094  0.046805      2.000000
 -0.081069 -0.114648  0.046805      2.000000
 -0.054046 -0.124202  0.046805      2.000000
 -0.027023 -0.105094  0.046805      2.000000
  0.000000 -0.114648  0.046805      2.000000
  0.027023 -0.124202  0.046805      2.000000
  0.054046 -0.133756  0.046805      2.000000
  0.081069 -0.143311  0.046805      2.000000
  0.108092 -0.152865  0.046805      2.000000
 -0.162137 -0.057324  0.046805      2.000000
 -0.135115 -0.066878  0.046805      2.000000
 -0.108092 -0.076432  0.046805      2.000000
 -0.081069 -0.085986  0.046805      2.000000
 -0.054046 -0.095540  0.046805      2.000000
 -0.027023 -0.076432  0.046805      2.000000
  0.000000 -0.085986  0.046805      2.000000
  0.027023 -0.095540  0.046805      2.000000
  0.054046 -0.105094  0.046805      2.000000
  0.081069 -0.114648  0.046805      2.000000
  0.108092 -0.124202  0.046805      2.000000
 -0.162137 -0.028662  0.046805      2.000000
 -0.135115 -0.038216  0.046805      2.000000
 -0.108092 -0.047770  0.046805      2.000000
 -0.081069 -0.057324  0.046805      2.000000
 -0.054046 -0.066878  0.046805      2.000000
 -0.027023 -0.047770  0.046805      2.000000
  0.000000 -0.057324  0.046805      2.000000
  0.027023 -0.066878  0.046805      2.000000
  0.054046 -0.076432  0.046805      2.000000
  0.081069 -0.085986  0.046805      2.000000
  0.108092 -0.095540  0.046805      2.000000
 -0.162137 -0.000000  0.046805      2.000000
 -0.135115 -0.009554  0.046805      2.000000
 -0.108092 -0.019108  0.046805      2.000000
 -0.081069 -0.028662  0.046805      2.000000
 -0.054046 -0.038216  0.046805      2.000000
 -0.040534 -0.028662  0.070208      2.000000
 -0.013511 -0.038216  0.070208      2.000000
  0.013511 -0.047770  0.070208      2.000000
  0.040534 -0.057324  0.070208      2.000000
  0.067557 -0.066878  0.070208      2.000000
  0.094580 -0.076432  0.070208      2.000000
 -0.175649  0.019108  0.070208      2.000000
 -0.148626  0.009554  0.070208      2.000000
 -0.121603 -0.000000  0.070208      2.000000
 -0.094580 -0.009554  0.070208      2.000000
 -0.067557 -0.019108  0.070208      2.000000
 -0.040534 -0.000000  0.070208      2.000000
 -0.013511 -0.009554  0.070208      2.000000
  0.013511 -0.019108  0.070208      2.000000
  0.040534 -0.028662  0.070208      2.000000
  0.067557 -0.038216  0.070208      2.000000
  0.094580 -0.047770  0.070208      2.000000
 -0.175649  0.047770  0.070208      2.000000
 -0.148626  0.038216  0.070208      2.000000
 -0.121603  0.028662  0.070208      2.000000
 -0.094580  0.019108  0.070208      2.000000
 -0.067557  0.009554  0.070208      2.000000
 -0.040534  0.028662  0.070208      2.000000
 -0.013511  0.019108  0.070208      2.000000
  0.013511  0.009554  0.070208      2.000000
  0.040534  0.000000  0.070208      2.000000
  0.067557 -0.009554  0.070208      2.000000
  0.094580 -0.019108  0.070208      2.000000
 -0.175649  0.076432  0.070208      2.000000
 -0.148626  0.066878  0.070208      2.000000
 -0.121603  0.057324  0.070208      2.000000
 -0.094580  0.047770  0.070208      2.000000
 -0.067557  0.038216  0.070208      2.000000
 -0.040534  0.057324  0.070208      2.000000
 -0.013511  0.047770  0.070208      2.000000
  0.013511  0.038216  0.070208      2.000000
  0.040534  0.028662  0.070208      2.000000
  0.067557  0.019108  0.070208      2.000000
  0.094580  0.009554  0.070208      2.000000
 -0.175649  0.105094  0.070208      2.000000
 -0.148626  0.095540  0.070208      2.000000
 -0.121603  0.085986  0.070208      2.000000
 -0.094580  0.076432  0.070208      2.000000
 -0.067557  0.066878  0.070208      2.000000
 -0.040534  0.085986  0.070208      2.000000
 -0.013511  0.076432  0.070208      2.000000
  0.013511  0.066878  0.070208      2.000000
  0.040534  0.057324  0.070208      2.000000
  0.067557  0.047770  0.070208      2.000000
  0.094580  0.038216  0.070208      2.000000
 -0.175649  0.133756  0.070208      2.000000
 -0.148626  0.124202  0.070208      2.000000
 -0.121603  0.114648  0.070208      2.000000
 -0.094580  0.105094  0.070208      2.000000
 -0.067557  0.095540  0.070208      2.000000
 -0.040534  0.114648  0.070208      2.000000
 -0.013511  0.105094  0.070208      2.000000
  0.013511  0.095540  0.070208      2.000000
  0.040534  0.085986  0.070208      2.000000
  0.067557  0.076432  0.070208      2.000000
  0.094580  0.066878  0.070208      2.000000
 -0.175649  0.162419  0.070208      2.000000
 -0.148626  0.152865  0.070208      2.000000
 -0.121603  0.143311  0.070208      2.000000
 -0.094580  0.133756  0.070208      2.000000
 -0.067557  0.124202  0.070208      2.000000
 -0.040534 -0.171973  0.070208      2.000000
 -0.013511 -0.181527  0.070208      2.000000
  0.013511 -0.191081  0.070208      2.000000
  0.040534 -0.200635  0.070208      2.000000
  0.067557 -0.210189  0.070208      2.000000
  0.094580 -0.219743  0.070208      2.000000
 -0.175649 -0.124202  0.070208      2.000000
 -0.148626 -0.133757  0.070208      2.000000
 -0.121603 -0.143311  0.070208      2.000000
 -0.094580 -0.152865  0.070208      2.000000
 -0.067557 -0.162419  0.070208      2.000000
 -0.040534 -0.143311  0.070208      2.000000
 -0.013511 -0.152865  0.070208      2.000000
  0.013511 -0.162419  0.070208      2.000000
  0.040534 -0.171973  0.070208      2.000000
  0.067557 -0.181527  0.070208      2.000000
  0.094580 -0.191081  0.070208      2.000000
 -0.175649 -0.095540  0.070208      2.000000
 -0.148626 -0.105094  0.070208      2.000000
 -0.121603 -0.114648  0.070208      2.000000
 -0.094580 -0.124202  0.070208      2.000000
 -0.067557 -0.133757  0.070208      2.000000
 -0.040534 -0.114648  0.070208      2.000000
 -0.013511 -0.124202  0.070208      2.000000
  0.013511 -0.133756  0.070208      2.000000
  0.040534 -0.143311  0.070208      2.000000
  0.067557 -0.152865  0.070208      2.000000
  0.094580 -0.162419  0.070208      2.000000
 -0.175649 -0.066878  0.070208      2.000000
 -0.148626 -0.076432  0.070208      2.000000
 -0.121603 -0.085986  0.070208      2.000000
 -0.094580 -0.095540  0.070208      2.000000
 -0.067557 -0.105094  0.070208      2.000000
 -0.040534 -0.085986  0.070208      2.000000
 -0.013511 -0.095540  0.070208      2.000000
  0.013511 -0.105094  0.070208      2.000000
  0.040534 -0.114648  0.070208      2.000000
  0.067557 -0.124202  0.070208      2.000000
  0.094580 -0.133756  0.070208      2.000000
 -0.175649 -0.038216  0.070208      2.000000
 -0.148626 -0.047770  0.070208      2.000000
 -0.121603 -0.057324  0.070208      2.000000
 -0.094580 -0.066878  0.070208      2.000000
 -0.067557 -0.076432  0.070208      2.000000
 -0.040534 -0.057324  0.070208      2.000000
 -0.013511 -0.066878  0.070208      2.000000
  0.013511 -0.076432  0.070208      2.000000
  0.040534 -0.085986  0.070208      2.000000
  0.067557 -0.095540  0.070208      2.000000
  0.094580 -0.105094  0.070208      2.000000
 -0.175649 -0.009554  0.070208      2.000000
 -0.148626 -0.019108  0.070208      2.000000
 -0.121603 -0.028662  0.070208      2.000000
 -0.094580 -0.038216  0.070208      2.000000
 -0.067557 -0.047770  0.070208      2.000000
 -0.054046 -0.038216  0.093610      2.000000
 -0.027023 -0.047770  0.093610      2.000000
  0.000000 -0.057324  0.093610      2.000000
  0.027023 -0.066878  0.093610      2.000000
  0.054046 -0.076432  0.093610      2.000000
  0.081069 -0.085986  0.093610      2.000000
 -0.189160  0.009554  0.093610      2.000000
 -0.162137 -0.000000  0.093610      2.000000
 -0.135115 -0.009554  0.093610      2.000000
 -0.108092 -0.019108  0.093610      2.000000
 -0.081069 -0.028662  0.093610      2.000000
 -0.054046 -0.009554  0.093610      2.000000
 -0.027023 -0.019108  0.093610      2.000000
  0.000000 -0.028662  0.093610      2.000000
  0.027023 -0.038216  0.093610      2.000000
  0.054046 -0.047770  0.093610      2.000000
  0.081069 -0.057324  0.093610      2.000000
 -0.189160  0.038216  0.093610      2.000000
 -0.162137  0.028662  0.093610      2.000000
 -0.135115  0.019108  0.093610      2.000000
 -0.108092  0.009554  0.093610      2.000000
 -0.081069 -0.000000  0.093610      2.000000
 -0.054046  0.019108  0.093610      2.000000
 -0.027023  0.009554  0.093610      2.000000
  0.000000  0.000000  0.093610      2.000000
  0.027023 -0.009554  0.093610      2.000000
  0.054046 -0.019108  0.093610      2.000000
  0.081069 -0.028662  0.093610      2.000000
 -0.189160  0.066878  0.093610      2.000000
 -0.162137  0.057324  0.093610      2.000000
 -0.135115  0.047770  0.093610      2.000000
 -0.108092  0.038216  0.093610      2.000000
 -0.081069  0.028662  0.093610      2.000000
 -0.054046  0.047770  0.093610      2.000000
 -0.027023  0.038216  0.093610      2.000000
  0.000000  0.028662  0.093610      2.000000
  0.027023  0.019108  0.093610      2.000000
  0.054046  0.009554  0.093610      2.000000
  0.081069  0.000000  0.093610      2.000000
 -0.189160  0.095540  0.093610      2.000000
 -0.162137  0.085986  0.093610      2.000000
 -0.135115  0.076432  0.093610      2.000000
 -0.108092  0.066878  0.093610      2.000000
 -0.081069  0.057324  0.093610      2.000000
 -0.054046  0.076432  0.093610      2.000000
 -0.027023  0.066878  0.093610      2.000000
  0.000000  0.057324  0.093610      2.000000
  0.027023  0.047770  0.093610      2.000000
  0.054046  0.038216  0.093610      2.000000
  0.081069  0.028662  0.093610      2.000000
 -0.189160  0.124202  0.093610      2.000000
 -0.162137  0.114648  0.093610      2.000000
 -0.135115  0.105094  0.093610      2.000000
 -0.108092  0.095540  0.093610      2.000000
 -0.081069  0.085986  0.093610      2.000000
 -0.054046  0.105094  0.093610      2.000000
 -0.027023  0.095540  0.093610      2.000000
  0.000000  0.085986  0.093610      2.000000
  0.027023  0.076432  0.093610      2.000000
  0.054046  0.066878  0.093610      2.000000
  0.081069  0.057324  0.093610      2.000000
 -0.189160  0.152865  0.093610      2.000000
 -0.162137  0.143311  0.093610      2.000000
 -0.135115  0.133756  0.093610      2.000000
 -0.108092  0.124202  0.093610      2.000000
 -0.081069  0.114648  0.093610      2.000000
 -0.054046 -0.181527  0.093610      2.000000
 -0.027023 -0.191081  0.093610      2.000000
  0.000000 -0.200635  0.093610      2.000000
  0.027023 -0.210189  0.093610      2.000000
  0.054046 -0.219743  0.093610      2.000000
  0.081069 -0.229297  0.093610      2.000000
 -0.189160 -0.133757  0.093610      2.000000
 -0.162137 -0.143311  0.093610      2.000000
 -0.135115 -0.152865  0.093610      2.000000
 -0.108092 -0.162419  0.093610      2.000000
 -0.081069 -0.171973  0.093610      2.000000
 -0.054046 -0.152865  0.093610      2.000000
 -0.027023 -0.162419  0.093610      2.000000
  0.000000 -0.171973  0.093610      2.000000
  0.027023 -0.181527  0.093610      2.000000
  0.054046 -0.191081  0.093610      2.000000
  0.081069 -0.200635  0.093610      2.000000
 -0.189160 -0.105094  0.093610      2.000000
 -0.162137 -0.114648  0.093610      2.000000
 -0.135115 -0.124202  0.093610      2.000000
 -0.108092 -0.133757  0.093610      2.000000
 -0.081069 -0.143311  0.093610      2.000000
 -0.054046 -0.124202  0.093610      2.000000
 -0.027023 -0.133756  0.093610      2.000000
  0.000000 -0.143311  0.093610      2.000000
  0.027023 -0.152865  0.093610      2.000000
  0.054046 -0.162419  0.093610      2.000000
  0.081069 -0.171973  0.093610      2.000000
 -0.189160 -0.076432  0.093610      2.000000
 -0.162137 -0.085986  0.093610      2.000000
 -0.135115 -0.095540  0.093610      2.000000
 -0.108092 -0.105094  0.093610      2.000000
 -0.081069 -0.114648  0.093610      2.000000
 -0.054046 -0.095540  0.093610      2.000000
 -0.027023 -0.105094  0.093610      2.000000
  0.000000 -0.114648  0.093610      2.000000
  0.027023 -0.124202  0.093610      2.000000
  0.054046 -0.133756  0.093610      2.000000
  0.081069 -0.143311  0.093610      2.000000
 -0.189160 -0.047770  0.093610      2.000000
 -0.162137 -0.057324  0.093610      2.000000
 -0.135115 -0.066878  0.093610      2.000000
 -0.108092 -0.076432  0.093610      2.000000
 -0.081069 -0.085986  0.093610      2.000000
 -0.054046 -0.066878  0.093610      2.000000
 -0.027023 -0.076432  0.093610      2.000000
  0.000000 -0.085986  0.093610      2.000000
  0.027023 -0.095540  0.093610      2.000000
  0.054046 -0.105094  0.093610      2.000000
  0.081069 -0.114648  0.093610      2.000000
 -0.189160 -0.019108  0.093610      2.000000
 -0.162137 -0.028662  0.093610      2.000000
 -0.135115 -0.038216  0.093610      2.000000
 -0.108092 -0.047770  0.093610      2.000000
 -0.081069 -0.057324  0.093610      2.000000
 -0.067557 -0.047770  0.117013      2.000000
 -0.040534 -0.057324  0.117013      2.000000
 -0.013511 -0.066878  0.117013      2.000000
  0.013511 -0.076432  0.117013      2.000000
  0.040534 -0.085986  0.117013      2.000000
  0.067557 -0.095540  0.117013      2.000000
 -0.202672 -0.000000  0.117013      2.000000
 -0.175649 -0.009554  0.117013      2.000000
 -0.148626 -0.019108  0.117013      2.000000
 -0.121603 -0.028662  0.117013      2.000000
 -0.094580 -0.038216  0.117013      2.000000
 -0.067557 -0.019108  0.117013      2.000000
 -0.040534 -0.028662  0.117013      2.000000
 -0.013511 -0.038216  0.117013      2.000000
  0.013511 -0.047770  0.117013      2.000000
  0.040534 -0.057324  0.117013      2.000000
  0.067557 -0.066878  0.117013      2.000000
 -0.202672  0.028662  0.117013      2.000000
 -0.175649  0.019108  0.117013      2.000000
 -0.148626  0.009554  0.117013      2.000000
 -0.121603 -0.000000  0.117013      2.000000
 -0.094580 -0.009554  0.117013      2.000000
 -0.067557  0.009554  0.117013      2.000000
 -0.040534 -0.000000  0.117013      2.000000
 -0.013511 -0.009554  0.117013      2.000000
  0.013511 -0.019108  0.117013      2.000000
  0.040534 -0.028662  0.117013      2.000000
  0.067557 -0.038216  0.117013      2.000000
 -0.202672  0.057324  0.117013      2.000000
 -0.175649  0.047770  0.117013      2.000000
 -0.148626  0.038216  0.117013      2.000000
 -0.121603  0.028662  0.117013      2.000000
 -0.094580  0.019108  0.117013      2.000000
 -0.067557  0.038216  0.117013      2.000000
 -0.040534  0.028662  0.117013      2.000000
 -0.013511  0.019108  0.117013      2.000000
  0.013511  0.009554  0.117013      2.000000
  0.040534  0.000000  0.117013      2.000000
  0.067557 -0.009554  0.117013      2.000000
 -0.202672  0.085986  0.117013      2.000000
 -0.175649  0.076432  0.117013      2.000000
 -0.148626  0.066878  0.117013      2.000000
 -0.121603  0.057324  0.117013      2.000000
 -0.094580  0.047770  0.117013      2.000000
 -0.067557  0.066878  0.117013      2.000000
 -0.040534  0.057324  0.117013      2.000000
 -0.013511  0.047770  0.117013      2.000000
  0.013511  0.038216  0.117013      2.000000
  0.040534  0.028662  0.117013      2.000000
  0.067557  0.019108  0.117013      2.000000
 -0.202672  0.114648  0.117013      2.000000
 -0.175649  0.105094  0.117013      2.000000
 -0.148626  0.095540  0.117013      2.000000
 -0.121603  0.085986  0.117013      2.000000
 -0.094580  0.076432  0.117013      2.000000
 -0.067557  0.095540  0.117013      2.000000
 -0.040534  0.085986  0.117013      2.000000
 -0.013511  0.076432  0.117013      2.000000
  0.013511  0.066878  0.117013      2.000000
  0.040534  0.057324  0.117013      2.000000
  0.067557  0.047770  0.117013      2.000000
 -0.202672  0.143311  0.117013      2.000000
 -0.175649  0.133756  0.117013      2.000000
 -0.148626  0.124202  0.117013      2.000000
 -0.121603  0.114648  0.117013      2.000000
 -0.094580  0.105094  0.117013      2.000000
 -0.067557 -0.191081  0.117013      2.000000
 -0.040534 -0.200635  0.117013      2.000000
 -0.013511 -0.210189  0.117013      2.000000
  0.013511 -0.219743  0.117013      2.000000
  0.040534 -0.229297  0.117013      2.000000
  0.067557 -0.238851  0.117013      2.000000
 -0.202672 -0.143311  0.117013      2.000000
 -0.175649 -0.152865  0.117013      2.000000
 -0.148626 -0.162419  0.117013      2.000000
 -0.121603 -0.171973  0.117013      2.000000
 -0.094580 -0.181527  0.117013      2.000000
 -0.067557 -0.162419  0.117013      2.000000
 -0.040534 -0.171973  0.117013      2.000000
 -0.013511 -0.181527  0.117013      2.000000
  0.013511 -0.191081  0.117013      2.000000
  0.040534 -0.200635  0.117013      2.000000
  0.067557 -0.210189  0.117013      2.000000
 -0.202672 -0.114648  0.117013      2.000000
 -0.175649 -0.124202  0.117013      2.000000
 -0.148626 -0.133757  0.117013      2.000000
 -0.121603 -0.143311  0.117013      2.000000
 -0.094580 -0.152865  0.117013      2.000000
 -0.067557 -0.133757  0.117013      2.000000
 -0.040534 -0.143311  0.117013      2.000000
 -0.013511 -0.152865  0.117013      2.000000
  0.013511 -0.162419  0.117013      2.000000
  0.040534 -0.171973  0.117013      2.000000
  0.067557 -0.181527  0.117013      2.000000
 -0.202672 -0.085986  0.117013      2.000000
 -0.175649 -0.095540  0.117013      2.000000
 -0.148626 -0.105094  0.117013      2.000000
 -0.121603 -0.114648  0.117013      2.000000
 -0.094580 -0.124202  0.117013      2.000000
 -0.067557 -0.105094  0.117013      2.000000
 -0.040534 -0.114648  0.117013      2.000000
 -0.013511 -0.124202  0.117013      2.000000
  0.013511 -0.133756  0.117013      2.000000
  0.040534 -0.143311  0.117013      2.000000
  0.067557 -0.152865  0.117013      2.000000
 -0.202672 -0.057324  0.117013      2.000000
 -0.175649 -0.066878  0.117013      2.000000
 -0.148626 -0.076432  0.117013      2.000000
 -0.121603 -0.085986  0.117013      2.000000
 -0.094580 -0.095540  0.117013      2.000000
 -0.067557 -0.076432  0.117013      2.000000
 -0.040534 -0.085986  0.117013      2.000000
 -0.013511 -0.095540  0.117013      2.000000
  0.013511 -0.105094  0.117013      2.000000
  0.040534 -0.114648  0.117013      2.000000
  0.067557 -0.124202  0.117013      2.000000
 -0.202672 -0.028662  0.117013      2.000000
 -0.175649 -0.038216  0.117013      2.000000
 -0.148626 -0.047770  0.117013      2.000000
 -0.121603 -0.057324  0.117013      2.000000
 -0.094580 -0.066878  0.117013      2.000000
 


--------------------------------------------------------------------------------------------------------




 Dimension of arrays:
   k-points           NKPTS =      666   k-points in BZ     NKDIM =      666   number of bands    NBANDS=     36
   number of dos      NEDOS =   5000   number of ions     NIONS =      2
   non local maximal  LDIM  =      4   non local SUM 2l+1 LMDIM =      8
   total plane-waves  NPLWV =  21952
   max r-space proj   IRMAX =      1   max aug-charges    IRDMAX=  17905
   dimension x,y,z NGX =    28 NGY =   28 NGZ =   28
   dimension x,y,z NGXF=    56 NGYF=   56 NGZF=   56
   support grid    NGXF=    56 NGYF=   56 NGZF=   56
   ions per type =               2
 NGX,Y,Z   is equivalent  to a cutoff of  11.98, 11.98, 11.98 a.u.
 NGXF,Y,Z  is equivalent  to a cutoff of  23.97, 23.97, 23.97 a.u.


 I would recommend the setting:
   dimension x,y,z NGX =    28 NGY =   28 NGZ =   28
 SYSTEM =  Slab                                    
 POSCAR =  bulk@mp_149                             

 Startparameter for this run:
   NWRITE =      2    write-flag & timer
   PREC   = accura    normal or accurate (medium, high low for compatibility)
   ISTART =      0    job   : 0-new  1-cont  2-samecut
   ICHARG =      2    charge: 1-file 2-atom 10-const
   ISPIN  =      1    spin polarized calculation?
   LNONCOLLINEAR =      F non collinear calculations
   LSORBIT =      F    spin-orbit coupling
   INIWAV =      1    electr: 0-lowe 1-rand  2-diag
   LASPH  =      F    aspherical Exc in radial PAW
   METAGGA=      F    non-selfconsistent MetaGGA calc.

 Electronic Relaxation 1
   ENCUT  =  500.0 eV  36.75 Ry    6.06 a.u.   7.08  7.08  7.08*2*pi/ulx,y,z
   ENINI  =  500.0     initial cutoff
   ENAUG  =  322.1 eV  augmentation charge cutoff
   NELM   =    500;   NELMIN=  2; NELMDL= -5     # of ELM steps 
   EDIFF  = 0.1E-05   stopping-criterion for ELM
   LREAL  =      F    real-space projection
   NLSPLINE    = F    spline interpolate recip. space projectors
   LCOMPAT=      F    compatible to vasp.4.4
   GGA_COMPAT  = T    GGA compatible to vasp.4.4-vasp.4.6
   LMAXPAW     = -100 max onsite density
   LMAXMIX     =    2 max onsite mixed and CHGCAR
   VOSKOWN=      0    Vosko Wilk Nusair interpolation
   ROPT   =    0.00000
 Ionic relaxation
   EDIFFG = 0.1E-04   stopping-criterion for IOM
   NSW    =      0    number of steps for IOM
   NBLOCK =      1;   KBLOCK =      1    inner block; outer block 
   IBRION =     -1    ionic relax: 0-MD 1-quasi-New 2-CG
   NFREE  =      0    steps in history (QN), initial steepest desc. (CG)
   ISIF   =      2    stress and relaxation
   IWAVPR =     10    prediction:  0-non 1-charg 2-wave 3-comb
   ISYM   =      0    0-nonsym 1-usesym 2-fastsym
   LCORR  =      T    Harris-Foulkes like correction to forces

   POTIM  = 0.5000    time-step for ionic-motion
   TEIN   =    0.0    initial temperature
   TEBEG  =    0.0;   TEEND  =   0.0 temperature during run
   SMASS  =  -3.00    Nose mass-parameter (am)
   estimated Nose-frequenzy (Omega)   =  0.10E-29 period in steps =****** mass=  -0.345E-27a.u.
   SCALEE = 1.0000    scale energy and forces
   NPACO  =    256;   APACO  = 16.0  distance and # of slots for P.C.
   PSTRESS=    0.0 pullay stress

  Mass of Ions in am
   POMASS =  28.09
  Ionic Valenz
   ZVAL   =   4.00
  Atomic Wigner-Seitz radii
   RWIGS  =  -1.00
  virtual crystal weights 
   VCA    =   1.00
   NELECT =       8.0000    total number of electrons
   NUPDOWN=      -1.0000    fix difference up-down

 DOS related values:
   EMIN   =  10.00;   EMAX   =-10.00  energy-range for DOS
   EFERMI =   0.00
   ISMEAR =     0;   SIGMA  =   0.10  broadening in eV -4-tet -1-fermi 0-gaus

 Electronic relaxation 2 (details)
   IALGO  =     38    algorithm
   LDIAG  =      T    sub-space diagonalisation (order eigenvalues)
   LSUBROT=      F    optimize rotation matrix (better conditioning)
   TURBO    =      0    0=normal 1=particle mesh
   IRESTART =      0    0=no restart 2=restart with 2 vectors
   NREBOOT  =      0    no. of reboots
   NMIN     =      0    reboot dimension
   EREF     =   0.00    reference energy to select bands
   IMIX   =      4    mixing-type and parameters
     AMIX     =   0.40;   BMIX     =  1.00
     AMIX_MAG =   1.60;   BMIX_MAG =  1.00
     AMIN     =   0.10
     WC   =   100.;   INIMIX=   1;  MIXPRE=   1;  MAXMIX= -45

 Intra band minimization:
   WEIMIN = 0.0000     energy-eigenvalue tresh-hold
   EBREAK =  0.69E-08  absolut break condition
   DEPER  =   0.30     relativ break condition  

   TIME   =   0.40     timestep for ELM

  volume/ion in A,a.u.               =      20.72       139.86
  Fermi-wavevector in a.u.,A,eV,Ry     =   0.946088  1.787848 12.178347  0.895083
  Thomas-Fermi vector in A             =   2.074053

 Write flags
   LWAVE  =      F    write WAVECAR
   LCHARG =      F    write CHGCAR
   LVTOT  =      F    write LOCPOT, total local potential
   LVHAR  =      F    write LOCPOT, Hartree potential only
   LELF   =      F    write electronic localiz. function (ELF)
   LORBIT =     11    0 simple, 1 ext, 2 COOP (PROOUT)


 Dipole corrections
   LMONO  =      F    monopole corrections only (constant potential shift)
   LDIPOL =      F    correct potential (dipole corrections)
   IDIPOL =      0    1-x, 2-y, 3-z, 4-all directions 
   EPSILON=  1.0000000 bulk dielectric constant

 Exchange correlation treatment:
   GGA     =    --    GGA type
   LEXCH   =     8    internal setting for exchange type
   VOSKOWN=      0    Vosko Wilk Nusair interpolation
   LHFCALC =     F    Hartree Fock is set to
   LHFONE  =     F    Hartree Fock one center treatment
   AEXX    =    0.0000 exact exchange contribution

 Linear response parameters
   LEPSILON=     F    determine dielectric tensor
   LRPA    =     F    only Hartree local field effects (RPA)
   LNABLA  =     F    use nabla operator in PAW spheres
   LVEL    =     F    velocity operator in full k-point grid
   LINTERFAST=   F  fast interpolation
   KINTER  =     0    interpolate to denser k-point grid
   CSHIFT  =0.1000    complex shift for real part using Kramers Kronig
   OMEGAMAX=  -1.0    maximum frequency
   DEG_THRESHOLD= 0.2000000E-02 threshold for treating states as degnerate
   RTIME   =    0.100 relaxation time in fs

 Orbital magnetization related:
   ORBITALMAG=     F  switch on orbital magnetization
   LCHIMAG   =     F  perturbation theory with respect to B field
   DQ        =  0.001000  dq finite difference perturbation B field



--------------------------------------------------------------------------------------------------------


 Static calculation
 charge density and potential will be updated during run
 non-spin polarized calculation
 Variant of blocked Davidson
 Davidson routine will perform the subspace rotation
 perform sub-space diagonalisation
    after iterative eigenvector-optimisation
 modified Broyden-mixing scheme, WC =      100.0
 initial mixing is a Kerker type mixing with AMIX =  0.4000 and BMIX =      1.0000
 Hartree-type preconditioning will be used
 using additional bands           32
 reciprocal scheme for non local part
 use partial core corrections
 calculate Harris-corrections to forces   (improved forces if not selfconsistent)
 use gradient corrections 
 use of overlap-Matrix (Vanderbilt PP)
 Gauss-broadening in eV      SIGMA  =   0.10


--------------------------------------------------------------------------------------------------------


  energy-cutoff  :      500.00
  volume of cell :       41.45
      direct lattice vectors                 reciprocal lattice vectors
     3.364150000 -0.000000000  1.942293000     0.297251906 -0.105094356  0.000000000
     1.121383000  3.171752000  1.942293000     0.000000000  0.315283162  0.000000000
    -0.000000000 -0.000000000  3.884586000    -0.148625953 -0.105094403  0.257427690

  length of vectors
     3.884585862  3.884586552  3.884586000     0.315283237  0.315283162  0.315283242



 k-points in units of 2pi/SCALE and weight: Automatic kpoint scheme                 
   0.00000000  0.00000000  0.00000000       0.001
   0.02702290 -0.00955403  0.00000000       0.002
   0.05404580 -0.01910806  0.00000000       0.002
   0.08106870 -0.02866210  0.00000000       0.002
   0.10809160 -0.03821613  0.00000000       0.002
   0.13511450 -0.04777016  0.00000000       0.002
   0.00000000  0.02866211  0.00000000       0.002
   0.02702290  0.01910807  0.00000000       0.002
   0.05404580  0.00955404  0.00000000       0.002
   0.08106870  0.00000001  0.00000000       0.002
   0.10809160 -0.00955402  0.00000000       0.002
   0.13511450 -0.01910806  0.00000000       0.002
  -0.13511450  0.07643227  0.00000000       0.002
  -0.10809160  0.06687824  0.00000000       0.002
  -0.08106870  0.05732420  0.00000000       0.002
  -0.05404580  0.04777017  0.00000000       0.002
  -0.02702290  0.03821614  0.00000000       0.002
   0.00000000  0.05732421  0.00000000       0.002
   0.02702290  0.04777018  0.00000000       0.002
   0.05404580  0.03821615  0.00000000       0.002
   0.08106870  0.02866211  0.00000000       0.002
   0.10809160  0.01910808  0.00000000       0.002
   0.13511450  0.00955405  0.00000000       0.002
  -0.13511450  0.10509437  0.00000000       0.002
  -0.10809160  0.09554034  0.00000000       0.002
  -0.08106870  0.08598631  0.00000000       0.002
  -0.05404580  0.07643228  0.00000000       0.002
  -0.02702290  0.06687824  0.00000000       0.002
   0.00000000  0.08598632  0.00000000       0.002
   0.02702290  0.07643228  0.00000000       0.002
   0.05404580  0.06687825  0.00000000       0.002
   0.08106870  0.05732422  0.00000000       0.002
   0.10809160  0.04777019  0.00000000       0.002
   0.13511450  0.03821616  0.00000000       0.002
  -0.13511450  0.13375648  0.00000000       0.002
  -0.10809160  0.12420245  0.00000000       0.002
  -0.08106870  0.11464841  0.00000000       0.002
  -0.05404580  0.10509438  0.00000000       0.002
  -0.02702290  0.09554035  0.00000000       0.002
   0.00000000  0.11464842  0.00000000       0.002
   0.02702290  0.10509439  0.00000000       0.002
   0.05404580  0.09554036  0.00000000       0.002
   0.08106870  0.08598633  0.00000000       0.002
   0.10809160  0.07643229  0.00000000       0.002
   0.13511450  0.06687826  0.00000000       0.002
  -0.13511450  0.16241858  0.00000000       0.002
  -0.10809160  0.15286455  0.00000000       0.002
  -0.08106870  0.14331052  0.00000000       0.002
  -0.05404580  0.13375649  0.00000000       0.002
  -0.02702290  0.12420245  0.00000000       0.002
   0.00000000  0.14331053  0.00000000       0.002
   0.02702290  0.13375650  0.00000000       0.002
   0.05404580  0.12420246  0.00000000       0.002
   0.08106870  0.11464843  0.00000000       0.002
   0.10809160  0.10509440  0.00000000       0.002
   0.13511450  0.09554037  0.00000000       0.002
  -0.13511450  0.19108069  0.00000000       0.002
  -0.10809160  0.18152666  0.00000000       0.002
  -0.08106870  0.17197263  0.00000000       0.002
  -0.05404580  0.16241859  0.00000000       0.002
  -0.02702290  0.15286456  0.00000000       0.002
  -0.01351145 -0.00955404  0.02340252       0.002
   0.01351145 -0.01910807  0.02340252       0.002
   0.04053435 -0.02866210  0.02340252       0.002
   0.06755725 -0.03821613  0.02340252       0.002
   0.09458015 -0.04777017  0.02340252       0.002
   0.12160305 -0.05732420  0.02340252       0.002
  -0.14862595  0.03821613  0.02340252       0.002
  -0.12160305  0.02866209  0.02340252       0.002
  -0.09458015  0.01910806  0.02340252       0.002
  -0.06755725  0.00955403  0.02340252       0.002
  -0.04053435 -0.00000000  0.02340252       0.002
  -0.01351145  0.01910807  0.02340252       0.002
   0.01351145  0.00955404  0.02340252       0.002
   0.04053435  0.00000000  0.02340252       0.002
   0.06755725 -0.00955403  0.02340252       0.002
   0.09458015 -0.01910806  0.02340252       0.002
   0.12160305 -0.02866209  0.02340252       0.002
  -0.14862595  0.06687823  0.02340252       0.002
  -0.12160305  0.05732420  0.02340252       0.002
  -0.09458015  0.04777017  0.02340252       0.002
  -0.06755725  0.03821613  0.02340252       0.002
  -0.04053435  0.02866210  0.02340252       0.002
  -0.01351145  0.04777017  0.02340252       0.002
   0.01351145  0.03821614  0.02340252       0.002
   0.04053435  0.02866211  0.02340252       0.002
   0.06755725  0.01910808  0.02340252       0.002
   0.09458015  0.00955405  0.02340252       0.002
   0.12160305  0.00000001  0.02340252       0.002
  -0.14862595  0.09554034  0.02340252       0.002
  -0.12160305  0.08598630  0.02340252       0.002
  -0.09458015  0.07643227  0.02340252       0.002
  -0.06755725  0.06687824  0.02340252       0.002
  -0.04053435  0.05732421  0.02340252       0.002
  -0.01351145  0.07643228  0.02340252       0.002
   0.01351145  0.06687825  0.02340252       0.002
   0.04053435  0.05732422  0.02340252       0.002
   0.06755725  0.04777018  0.02340252       0.002
   0.09458015  0.03821615  0.02340252       0.002
   0.12160305  0.02866212  0.02340252       0.002
  -0.14862595  0.12420244  0.02340252       0.002
  -0.12160305  0.11464841  0.02340252       0.002
  -0.09458015  0.10509438  0.02340252       0.002
  -0.06755725  0.09554035  0.02340252       0.002
  -0.04053435  0.08598631  0.02340252       0.002
  -0.01351145  0.10509439  0.02340252       0.002
   0.01351145  0.09554035  0.02340252       0.002
   0.04053435  0.08598632  0.02340252       0.002
   0.06755725  0.07643229  0.02340252       0.002
   0.09458015  0.06687826  0.02340252       0.002
   0.12160305  0.05732422  0.02340252       0.002
  -0.14862595  0.15286455  0.02340252       0.002
  -0.12160305  0.14331052  0.02340252       0.002
  -0.09458015  0.13375648  0.02340252       0.002
  -0.06755725  0.12420245  0.02340252       0.002
  -0.04053435  0.11464842  0.02340252       0.002
  -0.01351145  0.13375649  0.02340252       0.002
   0.01351145  0.12420246  0.02340252       0.002
   0.04053435  0.11464843  0.02340252       0.002
   0.06755725  0.10509439  0.02340252       0.002
   0.09458015  0.09554036  0.02340252       0.002
   0.12160305  0.08598633  0.02340252       0.002
  -0.14862595  0.18152665  0.02340252       0.002
  -0.12160305  0.17197262  0.02340252       0.002
[...]
   36.513153    0.809415    0.809415    0.809414   -0.000000   -0.000000   -0.000000
   36.641720    0.810686    0.810686    0.810685   -0.000000   -0.000000   -0.000000
   36.770288    0.812678    0.812679    0.812678   -0.000000   -0.000000   -0.000000
   36.898855    0.815493    0.815493    0.815492   -0.000000   -0.000000   -0.000000
   37.027422    0.818020    0.818019    0.818019   -0.000000   -0.000000   -0.000000
   37.155990    0.819438    0.819438    0.819437   -0.000000   -0.000000   -0.000000
   37.284557    0.820147    0.820147    0.820147   -0.000000   -0.000000   -0.000000
   37.413125    0.821066    0.821066    0.821065   -0.000000   -0.000000   -0.000000
   37.541692    0.821769    0.821769    0.821769   -0.000000   -0.000000   -0.000000
   37.670260    0.821688    0.821687    0.821687   -0.000000   -0.000000   -0.000000
   37.798827    0.822871    0.822870    0.822870   -0.000000   -0.000000   -0.000000
   37.927395    0.824334    0.824333    0.824333   -0.000000   -0.000000   -0.000000
   38.055962    0.823912    0.823911    0.823911   -0.000000   -0.000000   -0.000000
   38.184529    0.823125    0.823125    0.823125   -0.000000   -0.000000   -0.000000
   38.313097    0.821022    0.821022    0.821022   -0.000000   -0.000000   -0.000000
   38.441664    0.819661    0.819661    0.819660   -0.000000   -0.000000   -0.000000
   38.570232    0.820878    0.820877    0.820877   -0.000000   -0.000000   -0.000000
   38.698799    0.822262    0.822262    0.822261   -0.000000   -0.000000   -0.000000
   38.827367    0.824184    0.824184    0.824183   -0.000000   -0.000000   -0.000000
   38.955934    0.827585    0.827585    0.827584   -0.000000   -0.000000   -0.000000
   39.084501    0.830379    0.830379    0.830378   -0.000000   -0.000000   -0.000000
   39.213069    0.832075    0.832074    0.832074   -0.000000   -0.000000   -0.000000
   39.341636    0.833479    0.833478    0.833478   -0.000000   -0.000000   -0.000000
   39.470204    0.834411    0.834411    0.834410   -0.000000   -0.000000   -0.000000
   39.598771    0.833499    0.833499    0.833498   -0.000000   -0.000000   -0.000000
   39.727339    0.832759    0.832759    0.832758   -0.000000   -0.000000   -0.000000
   39.855906    0.834466    0.834465    0.834465   -0.000000   -0.000000   -0.000000
   39.984474    0.836712    0.836712    0.836711   -0.000000   -0.000000   -0.000000
   40.113041    0.837830    0.837830    0.837829   -0.000000   -0.000000   -0.000000
   40.241608    0.839072    0.839071    0.839071   -0.000000   -0.000000   -0.000000
   40.370176    0.839620    0.839619    0.839618   -0.000000   -0.000000   -0.000000
   40.498743    0.838882    0.838881    0.838881   -0.000000   -0.000000   -0.000000
   40.627311    0.839910    0.839909    0.839908   -0.000000   -0.000000   -0.000000
   40.755878    0.841591    0.841590    0.841589   -0.000000   -0.000000   -0.000000
   40.884446    0.842352    0.842351    0.842350   -0.000000   -0.000000   -0.000000
   41.013013    0.843010    0.843010    0.843009   -0.000000   -0.000000   -0.000000
   41.141580    0.843956    0.843955    0.843954   -0.000000   -0.000000   -0.000000
   41.270148    0.844343    0.844342    0.844341   -0.000000   -0.000000   -0.000000
   41.398715    0.844535    0.844534    0.844534   -0.000001   -0.000000   -0.000000
   41.527283    0.845063    0.845062    0.845061   -0.000001   -0.000000   -0.000000
   41.655850    0.844978    0.844977    0.844976   -0.000001   -0.000000   -0.000000
   41.784418    0.846387    0.846385    0.846384   -0.000001   -0.000000   -0.000000
   41.912985    0.848244    0.848243    0.848242   -0.000001   -0.000000   -0.000000
   42.041553    0.849533    0.849531    0.849530   -0.000001   -0.000000    0.000000
   42.170120    0.851140    0.851137    0.851137   -0.000001   -0.000000    0.000000
   42.298687    0.852308    0.852305    0.852305   -0.000001   -0.000000    0.000001
   42.427255    0.852292    0.852288    0.852288   -0.000001    0.000000    0.000001
   42.555822    0.852501    0.852495    0.852495   -0.000001    0.000000    0.000002
   42.684390    0.853301    0.853296    0.853295   -0.000001   -0.000000    0.000002
   42.812957    0.854226    0.854229    0.854225   -0.000000   -0.000002   -0.000003
   42.941525    0.855301    0.855308    0.855304    0.000001   -0.000002   -0.000005
   43.070092    0.857277    0.857283    0.857279    0.000000   -0.000002   -0.000004
   43.198660    0.858655    0.858659    0.858656    0.000000   -0.000002   -0.000003
   43.327227    0.859051    0.859054    0.859051   -0.000000   -0.000002   -0.000003
   43.455794    0.859530    0.859532    0.859530   -0.000000   -0.000002   -0.000003
   43.584362    0.860230    0.860232    0.860229   -0.000000   -0.000002   -0.000002
   43.712929    0.861288    0.861289    0.861287   -0.000000   -0.000002   -0.000002
   43.841497    0.862013    0.862015    0.862012   -0.000000   -0.000002   -0.000002
   43.970064    0.862318    0.862320    0.862317   -0.000000   -0.000002   -0.000003
   44.098632    0.863589    0.863590    0.863587   -0.000001   -0.000002   -0.000003
   44.227199    0.864976    0.864977    0.864973   -0.000001   -0.000002   -0.000003
   44.355766    0.865540    0.865542    0.865538   -0.000001   -0.000002   -0.000003
   44.484334    0.866206    0.866208    0.866203   -0.000001   -0.000002   -0.000004
   44.612901    0.867535    0.867537    0.867532   -0.000001   -0.000003   -0.000004
   44.741469    0.868724    0.868726    0.868720   -0.000001   -0.000003   -0.000004
   44.870036    0.868687    0.868689    0.868682   -0.000002   -0.000004   -0.000005
   44.998604    0.869053    0.869056    0.869047   -0.000002   -0.000005   -0.000006
   45.127171    0.869967    0.869970    0.869958   -0.000003   -0.000006   -0.000008
   45.255739    0.870616    0.870620    0.870604   -0.000004   -0.000008   -0.000011
   45.384306    0.871210    0.871215    0.871199   -0.000004   -0.000008   -0.000011
   45.512873    0.871885    0.871884    0.871890    0.000002    0.000003    0.000003
   45.641441    0.872888    0.872885    0.872903    0.000005    0.000009    0.000012
   45.770008    0.873834    0.873832    0.873846    0.000004    0.000007    0.000009
   45.898576    0.874654    0.874653    0.874662    0.000003    0.000005    0.000006
   46.027143    0.875743    0.875742    0.875749    0.000002    0.000004    0.000005
   46.155711    0.876588    0.876587    0.876593    0.000002    0.000003    0.000004
   46.284278    0.876964    0.876964    0.876969    0.000002    0.000003    0.000003
   46.412845    0.877744    0.877743    0.877748    0.000002    0.000002    0.000003
   46.541413    0.878817    0.878817    0.878821    0.000001    0.000002    0.000003
   46.669980    0.879331    0.879331    0.879335    0.000001    0.000002    0.000002
   46.798548    0.879475    0.879475    0.879478    0.000001    0.000001    0.000002
   46.927115    0.880146    0.880146    0.880149    0.000001    0.000001    0.000002
   47.055683    0.881122    0.881123    0.881126    0.000001    0.000001    0.000002
   47.184250    0.881711    0.881712    0.881715    0.000002    0.000001    0.000002
   47.312818    0.882259    0.882260    0.882263    0.000002    0.000001    0.000002
   47.441385    0.882749    0.882749    0.882749    0.000000    0.000000    0.000000
   47.569952    0.882837    0.882835    0.882834   -0.000001    0.000000   -0.000001
   47.698520    0.883180    0.883179    0.883179   -0.000000    0.000001    0.000000
   47.827087    0.883683    0.883683    0.883684   -0.000000    0.000000    0.000000
   47.955655    0.884404    0.884404    0.884405   -0.000000    0.000000    0.000000
   48.084222    0.885021    0.885021    0.885021   -0.000000    0.000000    0.000000
   48.212790    0.885727    0.885727    0.885727   -0.000000    0.000000   -0.000000
   48.341357    0.886785    0.886785    0.886785   -0.000000    0.000000   -0.000000
   48.469925    0.887676    0.887676    0.887676   -0.000000    0.000000   -0.000000
   48.598492    0.888280    0.888280    0.888280   -0.000000   -0.000000   -0.000000
   48.727059    0.888918    0.888918    0.888918   -0.000000   -0.000000   -0.000001
   48.855627    0.889910    0.889911    0.889910   -0.000000   -0.000000   -0.000001
   48.984194    0.890708    0.890708    0.890707   -0.000000   -0.000001   -0.000001
   49.112762    0.891086    0.891087    0.891084   -0.000001   -0.000001   -0.000002
   49.241329    0.891627    0.891628    0.891624   -0.000001   -0.000002   -0.000003
   49.369897    0.892293    0.892294    0.892290   -0.000001   -0.000002   -0.000003
   49.498464    0.892642    0.892642    0.892643    0.000000    0.000000    0.000000
   49.627031    0.892866    0.892865    0.892871    0.000002    0.000003    0.000004
   49.755599    0.893627    0.893626    0.893631    0.000001    0.000003    0.000004
   49.884166    0.894429    0.894428    0.894432    0.000001    0.000002    0.000003
   50.012734    0.895189    0.895189    0.895192    0.000001    0.000002    0.000002
   50.141301    0.895669    0.895669    0.895671    0.000001    0.000001    0.000002
   50.269869    0.896001    0.896001    0.896004    0.000001    0.000001    0.000002
   50.398436    0.896511    0.896510    0.896513    0.000001    0.000001    0.000001
   50.527004    0.897256    0.897255    0.897257    0.000001    0.000001    0.000001
   50.655571    0.897957    0.897956    0.897958    0.000000    0.000001    0.000001
   50.784138    0.898417    0.898417    0.898418    0.000000    0.000001    0.000001
   50.912706    0.898929    0.898928    0.898930    0.000000    0.000001    0.000001
   51.041273    0.899460    0.899460    0.899461    0.000000    0.000001    0.000001
   51.169841    0.899898    0.899898    0.899899    0.000000    0.000001    0.000001
   51.298408    0.900487    0.900487    0.900488    0.000000    0.000001    0.000001
   51.426976    0.901083    0.901083    0.901084    0.000000    0.000001    0.000001
   51.555543    0.901592    0.901592    0.901593    0.000000    0.000001    0.000001
   51.684110    0.902161    0.902161    0.902162    0.000000    0.000001    0.000001
   51.812678    0.902760    0.902760    0.902761    0.000000    0.000001    0.000001
   51.941245    0.903357    0.903357    0.903358    0.000000    0.000001    0.000001
   52.069813    0.903934    0.903934    0.903935    0.000000    0.000001    0.000001
   52.198380    0.904496    0.904496    0.904497    0.000000    0.000000    0.000001
   52.326948    0.905046    0.905046    0.905047    0.000000    0.000000    0.000001
   52.455515    0.905576    0.905575    0.905576    0.000000    0.000000    0.000001
   52.584083    0.906068    0.906068    0.906068    0.000000    0.000000    0.000001
   52.712650    0.906568    0.906568    0.906569    0.000000    0.000000    0.000001
   52.841217    0.907082    0.907082    0.907083    0.000000    0.000000    0.000001
   52.969785    0.907591    0.907591    0.907592    0.000000    0.000000    0.000001
   53.098352    0.908091    0.908091    0.908091    0.000000    0.000000    0.000000
   53.226920    0.908584    0.908584    0.908585    0.000000    0.000000    0.000000
   53.355487    0.909070    0.909070    0.909071    0.000000    0.000000    0.000000
   53.484055    0.909551    0.909551    0.909552    0.000000    0.000000    0.000000
   53.612622    0.910027    0.910026    0.910027    0.000000    0.000000    0.000000
   53.741190    0.910498    0.910497    0.910498    0.000000    0.000000    0.000000
   53.869757    0.910964    0.910964    0.910964    0.000000    0.000000    0.000000
   53.998324    0.911424    0.911424    0.911425    0.000000    0.000000    0.000000
   54.126892    0.911881    0.911881    0.911882    0.000000    0.000000    0.000000
   54.255459    0.912333    0.912333    0.912334    0.000000    0.000000    0.000000
   54.384027    0.912781    0.912781    0.912782    0.000000    0.000000    0.000000
   54.512594    0.913225    0.913225    0.913226    0.000000    0.000000    0.000000
   54.641162    0.913665    0.913665    0.913665    0.000000    0.000000    0.000000
   54.769729    0.914101    0.914101    0.914101    0.000000    0.000000    0.000000
   54.898296    0.914533    0.914533    0.914533    0.000000    0.000000    0.000000
   55.026864    0.914961    0.914961    0.914961    0.000000    0.000000    0.000000
   55.155431    0.915385    0.915385    0.915386    0.000000    0.000000    0.000000
   55.283999    0.915806    0.915806    0.915807    0.000000    0.000000    0.000000
   55.412566    0.916223    0.916223    0.916224    0.000000    0.000000    0.000000
   55.541134    0.916637    0.916637    0.916638    0.000000    0.000000    0.000000
   55.669701    0.917047    0.917047    0.917048    0.000000    0.000000    0.000000
   55.798269    0.917454    0.917454    0.917455    0.000000    0.000000    0.000000
   55.926836    0.917858    0.917858    0.917858    0.000000    0.000000    0.000000
   56.055403    0.918258    0.918258    0.918258    0.000000    0.000000    0.000000
   56.183971    0.918655    0.918655    0.918656    0.000000    0.000000    0.000000
   56.312538    0.919049    0.919049    0.919049    0.000000    0.000000    0.000000
   56.441106    0.919439    0.919440    0.919440    0.000000    0.000000    0.000000
   56.569673    0.919827    0.919827    0.919828    0.000000    0.000000    0.000000
   56.698241    0.920212    0.920212    0.920212    0.000000    0.000000    0.000000
   56.826808    0.920593    0.920593    0.920594    0.000000    0.000000    0.000000
   56.955375    0.920972    0.920972    0.920972    0.000000    0.000000    0.000000
   57.083943    0.921347    0.921347    0.921348    0.000000    0.000000    0.000000
   57.212510    0.921720    0.921720    0.921721    0.000000    0.000000    0.000000
   57.341078    0.922090    0.922090    0.922090    0.000000    0.000000    0.000000
   57.469645    0.922457    0.922457    0.922458    0.000000    0.000000    0.000000
   57.598213    0.922821    0.922821    0.922822    0.000000    0.000000    0.000000
   57.726780    0.923183    0.923183    0.923183    0.000000    0.000000    0.000000
   57.855348    0.923542    0.923542    0.923542    0.000000    0.000000    0.000000
   57.983915    0.923898    0.923898    0.923898    0.000000    0.000000    0.000000
   58.112482    0.924251    0.924251    0.924252    0.000000    0.000000    0.000000
   58.241050    0.924602    0.924602    0.924602    0.000000    0.000000    0.000000
   58.369617    0.924951    0.924950    0.924951    0.000000    0.000000    0.000000
   58.498185    0.925296    0.925296    0.925296    0.000000    0.000000    0.000000
   58.626752    0.925639    0.925639    0.925639    0.000000    0.000000    0.000000
   58.755320    0.925980    0.925980    0.925980    0.000000    0.000000    0.000000
   58.883887    0.926318    0.926318    0.926318    0.000000    0.000000    0.000000
   59.012455    0.926653    0.926653    0.926654    0.000000    0.000000    0.000000
   59.141022    0.926987    0.926987    0.926987    0.000000    0.000000    0.000000
   59.269589    0.927318    0.927318    0.927318    0.000000    0.000000    0.000000
   59.398157    0.927646    0.927646    0.927646    0.000000    0.000000    0.000000
   59.526724    0.927972    0.927972    0.927973    0.000000    0.000000    0.000000
   59.655292    0.928296    0.928296    0.928297    0.000000    0.000000    0.000000
   59.783859    0.928618    0.928618    0.928619    0.000000    0.000000    0.000000
   59.912427    0.928938    0.928938    0.928938    0.000000    0.000000    0.000000
   60.040994    0.929254    0.929254    0.929255    0.000000    0.000000    0.000000
   60.169561    0.929570    0.929570    0.929570    0.000000    0.000000    0.000000
   60.298129    0.929882    0.929882    0.929882    0.000000    0.000000    0.000000
   60.426696    0.930193    0.930193    0.930193    0.000000    0.000000    0.000000
   60.555264    0.930501    0.930501    0.930501    0.000000    0.000000    0.000000
   60.683831    0.930807    0.930807    0.930807    0.000000    0.000000    0.000000
   60.812399    0.931111    0.931111    0.931112    0.000000    0.000000    0.000000
   60.940966    0.931414    0.931414    0.931414    0.000000    0.000000    0.000000
   61.069534    0.931713    0.931713    0.931714    0.000000    0.000000    0.000000
   61.198101    0.932011    0.932011    0.932011    0.000000    0.000000    0.000000
   61.326668    0.932307    0.932307    0.932308    0.000000    0.000000    0.000000
   61.455236    0.932601    0.932601    0.932602    0.000000    0.000000    0.000000
   61.583803    0.932893    0.932893    0.932893    0.000000    0.000000    0.000000
   61.712371    0.933183    0.933183    0.933183    0.000000    0.000000    0.000000
   61.840938    0.933471    0.933471    0.933471    0.000000    0.000000    0.000000
   61.969506    0.933757    0.933757    0.933758    0.000000    0.000000    0.000000
   62.098073    0.934042    0.934042    0.934042    0.000000    0.000000    0.000000
   62.226640    0.934324    0.934324    0.934324    0.000000    0.000000    0.000000
   62.355208    0.934604    0.934604    0.934604    0.000000    0.000000    0.000000
   62.483775    0.934883    0.934883    0.934883    0.000000    0.000000    0.000000
   62.612343    0.935160    0.935160    0.935160    0.000000    0.000000    0.000000
   62.740910    0.935435    0.935434    0.935435    0.000000    0.000000    0.000000
   62.869478    0.935708    0.935708    0.935708    0.000000    0.000000    0.000000
   62.998045    0.935979    0.935979    0.935979    0.000000    0.000000    0.000000
   63.126613    0.936248    0.936248    0.936249    0.000000    0.000000    0.000000
   63.255180    0.936516    0.936516    0.936517    0.000000    0.000000    0.000000
   63.383747    0.936782    0.936782    0.936783    0.000000    0.000000    0.000000
   63.512315    0.937047    0.937047    0.937047    0.000000    0.000000    0.000000
   63.640882    0.937310    0.937310    0.937310    0.000000    0.000000    0.000000
   63.769450    0.937571    0.937570    0.937571    0.000000    0.000000    0.000000
   63.898017    0.937830    0.937830    0.937830    0.000000    0.000000    0.000000
   64.026585    0.938088    0.938088    0.938088    0.000000    0.000000    0.000000
   64.155152    0.938344    0.938344    0.938344    0.000000    0.000000    0.000000

 The outermost node in the dielectric function lies at epsilon=  16.8


--------------------------------------------------------------------------------------------------------


    OPTICS:  cpu time   36.5863: real time  236.7915
    4ORBIT:  cpu time    0.0000: real time    0.0000



 total charge     

# of ion     s       p       d       tot
----------------------------------------
  1        0.656   0.885   0.000   1.540
  2        0.656   0.885   0.000   1.540
------------------------------------------------
tot        1.312   1.769   0.000   3.081


 total amount of memory used by VASP on root node    70991. kBytes
========================================================================

   base      :      30000. kBytes
   nonl-proj :      11943. kBytes
   fftplans  :        586. kBytes
   grid      :        839. kBytes
   one-center:          3. kBytes
   wavefun   :      27620. kBytes

  
  
 General timing and accounting informations for this job:
 ========================================================
  
                  Total CPU time used (sec):     6183.838
                            User time (sec):     6063.103
                          System time (sec):      120.736
                         Elapsed time (sec):     6472.486
  
                   Maximum memory used (kb):       98296.
                   Average memory used (kb):           0.
  
                          Minor page faults:     40507875
                          Major page faults:            2
                 Voluntary context switches:         2038
