 running on   16 total cores
 distrk:  each k-point on   16 cores,    1 groups
 distr:  one band on    4 cores,    4 groups
 using from now: INCAR     
 vasp.5.4.1 24Jun15 (build Jul  1 2016 12:41:44) complex                         
 POSCAR found type information on POSCAR  Si
 POSCAR found :  1 types and       2 ions
 scaLAPACK will be used
 LDA part: xc-table for Pade appr. of Perdew
 POSCAR, INCAR and KPOINTS ok, starting setup
 WARNING: small aliasing (wrap around) errors must be expected
 FFT: planning ...
 WAVECAR not read
 entering main loop
       N       E                     dE             d eps       ncg     rms          rms(c)
DAV:   1     0.115448513398E+04    0.11545E+04   -0.24981E+03 47952   0.173E+02
DAV:   2     0.113149892558E+04   -0.22986E+02   -0.21878E+02 59816   0.469E+01
DAV:   3     0.113090991980E+04   -0.58901E+00   -0.58434E+00 58624   0.603E+00
DAV:   4     0.113090826496E+04   -0.16548E-02   -0.16546E-02 56072   0.343E-01
DAV:   5     0.113090826149E+04   -0.34708E-05   -0.34704E-05 56268   0.172E-02    0.238E+00
DAV:   6     0.111659581291E+04   -0.14312E+02   -0.67241E+01 50592   0.168E+01    0.107E+01
DAV:   7     0.112981526570E+04    0.13219E+02   -0.11033E+01 48580   0.735E+00    0.685E+00
DAV:   8     0.112831896539E+04   -0.14963E+01   -0.62972E-01 55112   0.178E+00    0.766E+00
DAV:   9     0.112968664886E+04    0.13677E+01   -0.82819E-02 54680   0.607E-01    0.800E+00
DAV:  10     0.113077723959E+04    0.10906E+01   -0.12666E-01 54992   0.731E-01    0.101E+01
DAV:  11     0.113110815202E+04    0.33091E+00   -0.45999E-02 57584   0.429E-01    0.110E+01
DAV:  12     0.113142985765E+04    0.32171E+00   -0.63758E-03 56096   0.163E-01    0.108E+01
DAV:  13     0.113159349564E+04    0.16364E+00   -0.11665E-01 53316   0.648E-01    0.132E+01
DAV:  14     0.113218982739E+04    0.59633E+00   -0.24528E-02 58380   0.307E-01    0.135E+01
DAV:  15     0.113244763398E+04    0.25781E+00   -0.39458E-02 52424   0.380E-01    0.143E+01
DAV:  16     0.113299151117E+04    0.54388E+00   -0.22621E-02 51008   0.287E-01    0.127E+01
DAV:  17     0.113286368630E+04   -0.12782E+00   -0.14411E-01 53592   0.713E-01    0.101E+01
DAV:  18     0.113199751617E+04   -0.86617E+00   -0.40048E-01 54568   0.119E+00    0.677E+00
DAV:  19     0.113068728631E+04   -0.13102E+01   -0.19024E-01 56756   0.835E-01    0.566E+00
DAV:  20     0.112985185964E+04   -0.83543E+00   -0.12389E-01 54216   0.669E-01    0.489E+00
DAV:  21     0.112920309605E+04   -0.64876E+00   -0.59428E-02 56504   0.465E-01    0.449E+00
DAV:  22     0.112878142665E+04   -0.42167E+00   -0.36595E-02 54408   0.362E-01    0.412E+00
DAV:  23     0.112826987923E+04   -0.51155E+00   -0.69084E-02 55552   0.493E-01    0.321E+00
DAV:  24     0.112774857322E+04   -0.52131E+00   -0.61919E-02 55996   0.468E-01    0.263E+00
DAV:  25     0.112742666610E+04   -0.32191E+00   -0.56833E-02 55656   0.444E-01    0.242E+00
DAV:  26     0.112716246447E+04   -0.26420E+00   -0.44328E-02 56904   0.389E-01    0.224E+00
DAV:  27     0.112694684893E+04   -0.21562E+00   -0.23376E-02 55808   0.283E-01    0.203E+00
DAV:  28     0.112673106054E+04   -0.21579E+00   -0.12991E-02 55640   0.212E-01    0.191E+00
DAV:  29     0.112655455538E+04   -0.17651E+00   -0.56481E-03 56156   0.143E-01    0.186E+00
DAV:  30     0.112644566065E+04   -0.10889E+00   -0.91173E-03 54120   0.173E-01    0.182E+00
DAV:  31     0.112652720205E+04    0.81541E-01   -0.11679E-02 52556   0.204E-01    0.164E+00
DAV:  32     0.112641587749E+04   -0.11132E+00   -0.24676E-02 52240   0.286E-01    0.126E+00
DAV:  33     0.112608497071E+04   -0.33091E+00   -0.20566E-02 56816   0.263E-01    0.134E+00
DAV:  34     0.112592247720E+04   -0.16249E+00   -0.74248E-03 54892   0.159E-01    0.127E+00
DAV:  35     0.112581497838E+04   -0.10750E+00   -0.41230E-03 56304   0.118E-01    0.122E+00
DAV:  36     0.112583355916E+04    0.18581E-01   -0.23084E-03 54356   0.858E-02    0.996E-01
DAV:  37     0.112583606020E+04    0.25010E-02   -0.95646E-04 56456   0.540E-02    0.954E-01
DAV:  38     0.112580373355E+04   -0.32327E-01   -0.29351E-04 56028   0.296E-02    0.958E-01
DAV:  39     0.112578162194E+04   -0.22112E-01   -0.20598E-04 55584   0.253E-02    0.967E-01
DAV:  40     0.112576441080E+04   -0.17211E-01   -0.12939E-04 55300   0.214E-02    0.952E-01
DAV:  41     0.112574147104E+04   -0.22940E-01   -0.83971E-05 55456   0.173E-02    0.960E-01
DAV:  42     0.112573227539E+04   -0.91956E-02   -0.15389E-05 56812   0.785E-03    0.954E-01
DAV:  43     0.112577892696E+04    0.46652E-01   -0.49426E-04 53428   0.409E-02    0.911E-01
DAV:  44     0.112580764811E+04    0.28721E-01   -0.12556E-04 58140   0.212E-02    0.917E-01
DAV:  45     0.112582010496E+04    0.12457E-01   -0.36375E-05 52824   0.118E-02    0.922E-01
DAV:  46     0.112582158441E+04    0.14795E-02   -0.38435E-06 57864   0.392E-03    0.926E-01
DAV:  47     0.112582067143E+04   -0.91298E-03   -0.12213E-07 29648   0.797E-04    0.927E-01
DAV:  48     0.112582221743E+04    0.15460E-02   -0.78395E-07 41512   0.166E-03    0.928E-01
DAV:  49     0.112582244628E+04    0.22885E-03   -0.63385E-08 26288   0.495E-04    0.928E-01
DAV:  50     0.112582221457E+04   -0.23170E-03   -0.16744E-08 25772   0.257E-04    0.928E-01
DAV:  51     0.112577821017E+04   -0.44004E-01   -0.50584E-04 53348   0.413E-02    0.976E-01
DAV:  52     0.112577037138E+04   -0.78388E-02   -0.17821E-05 51576   0.880E-03    0.971E-01
DAV:  53     0.112579798674E+04    0.27615E-01   -0.10439E-04 52696   0.189E-02    0.984E-01
DAV:  54     0.112580911348E+04    0.11127E-01   -0.22161E-05 57332   0.904E-03    0.988E-01
DAV:  55     0.112581625941E+04    0.71459E-02   -0.28713E-05 53096   0.971E-03    0.992E-01
DAV:  56     0.112601832050E+04    0.20206E+00   -0.11614E-02 53364   0.201E-01    0.124E+00
DAV:  57     0.112614695134E+04    0.12863E+00   -0.32225E-03 57792   0.108E-01    0.136E+00
DAV:  58     0.112621603833E+04    0.69087E-01   -0.19253E-03 53164   0.807E-02    0.143E+00
DAV:  59     0.112627377427E+04    0.57736E-01   -0.61335E-04 57880   0.469E-02    0.145E+00
DAV:  60     0.112631171187E+04    0.37938E-01   -0.80029E-04 53040   0.510E-02    0.152E+00
DAV:  61     0.112667525056E+04    0.36354E+00   -0.33094E-02 53320   0.341E-01    0.233E+00
DAV:  62     0.112674109201E+04    0.65841E-01   -0.13352E-03 53064   0.763E-02    0.199E+00
DAV:  63     0.112659528285E+04   -0.14581E+00   -0.72262E-03 52832   0.153E-01    0.145E+00
DAV:  64     0.112643909870E+04   -0.15618E+00   -0.43754E-03 56920   0.123E-01    0.118E+00
DAV:  65     0.112628670926E+04   -0.15239E+00   -0.38946E-03 53368   0.119E-01    0.857E-01
DAV:  66     0.112609864901E+04   -0.18806E+00   -0.71178E-03 54768   0.159E-01    0.401E-01
DAV:  67     0.112599814082E+04   -0.10051E+00   -0.27802E-03 56872   0.995E-02    0.201E-01
DAV:  68     0.112594549517E+04   -0.52646E-01   -0.92925E-04 55272   0.576E-02    0.107E-01
DAV:  69     0.112592793765E+04   -0.17558E-01   -0.97650E-05 56580   0.197E-02    0.105E-01
DAV:  70     0.112593124331E+04    0.33057E-02   -0.25587E-05 52292   0.973E-03    0.122E-01
DAV:  71     0.112593879964E+04    0.75563E-02   -0.19174E-05 56148   0.787E-03    0.131E-01
DAV:  72     0.112594418563E+04    0.53860E-02   -0.16844E-05 53832   0.724E-03    0.134E-01
DAV:  73     0.112594701315E+04    0.28275E-02   -0.77360E-06 55872   0.496E-03    0.127E-01
DAV:  74     0.112594285028E+04   -0.41629E-02   -0.20396E-05 52908   0.773E-03    0.109E-01
DAV:  75     0.112593587209E+04   -0.69782E-02   -0.37047E-05 53416   0.107E-02    0.763E-02
DAV:  76     0.112592997478E+04   -0.58973E-02   -0.28394E-05 55548   0.948E-03    0.461E-02
DAV:  77     0.112592746814E+04   -0.25066E-02   -0.90920E-06 56844   0.553E-03    0.295E-02
DAV:  78     0.112592575119E+04   -0.17169E-02   -0.21756E-06 53112   0.278E-03    0.236E-02
DAV:  79     0.112592435026E+04   -0.14009E-02   -0.40686E-07 26284   0.120E-03    0.229E-02
DAV:  80     0.112592180410E+04   -0.25462E-02   -0.48333E-06 54964   0.389E-03    0.120E-02
DAV:  81     0.112591723138E+04   -0.45727E-02   -0.55766E-06 55420   0.427E-03    0.452E-03
DAV:  82     0.112591359463E+04   -0.36367E-02   -0.15676E-06 52580   0.240E-03    0.283E-03
DAV:  83     0.112591159806E+04   -0.19966E-02   -0.63650E-07 48796   0.158E-03    0.249E-03
DAV:  84     0.112591101278E+04   -0.58528E-03   -0.17650E-07 25604   0.806E-04    0.258E-03
DAV:  85     0.112591136230E+04    0.34952E-03   -0.37931E-08 24800   0.339E-04    0.200E-03
DAV:  86     0.112591187834E+04    0.51604E-03   -0.65183E-08 24572   0.443E-04    0.107E-03
DAV:  87     0.112591229873E+04    0.42039E-03   -0.45171E-08 24564   0.363E-04    0.643E-04
DAV:  88     0.112591240553E+04    0.10680E-03   -0.38088E-08 24492   0.317E-04    0.439E-04
DAV:  89     0.112591241882E+04    0.13296E-04   -0.20150E-08 24420   0.224E-04    0.319E-04
DAV:  90     0.112591245351E+04    0.34691E-04   -0.10009E-08 24348   0.151E-04    0.408E-04
DAV:  91     0.112591243563E+04   -0.17883E-04   -0.80960E-09 24348   0.142E-04    0.389E-04
DAV:  92     0.112591251427E+04    0.78640E-04   -0.39849E-09 24348   0.969E-05    0.467E-04
DAV:  93     0.112591254875E+04    0.34476E-04   -0.34922E-09 24348   0.929E-05    0.523E-04
DAV:  94     0.112591259852E+04    0.49772E-04   -0.19752E-09 24348   0.692E-05    0.585E-04
DAV:  95     0.112591262830E+04    0.29786E-04   -0.11286E-09 24348   0.523E-05    0.632E-04
DAV:  96     0.112591266691E+04    0.38602E-04   -0.24127E-09 24348   0.816E-05    0.699E-04
DAV:  97     0.112591271549E+04    0.48583E-04   -0.14145E-09 24348   0.617E-05    0.743E-04
DAV:  98     0.112591275250E+04    0.37012E-04   -0.65444E-10 24348   0.414E-05    0.777E-04
DAV:  99     0.112591278168E+04    0.29179E-04   -0.67922E-10 24348   0.434E-05    0.814E-04
DAV: 100     0.112591281220E+04    0.30524E-04   -0.28816E-10 24348   0.284E-05    0.838E-04
DAV: 101     0.112591279533E+04   -0.16870E-04   -0.19522E-10 24348   0.230E-05    0.835E-04
DAV: 102     0.112591280450E+04    0.91610E-05   -0.84988E-11 24348   0.162E-05    0.849E-04
DAV: 103     0.112591282368E+04    0.19181E-04   -0.11617E-10 24348   0.196E-05    0.863E-04
DAV: 104     0.112591282807E+04    0.43911E-05   -0.16415E-11 24348   0.765E-06    0.856E-04
DAV: 105     0.112591282798E+04   -0.86600E-07   -0.14529E-10 24348   0.173E-05
   1 F= 0.11259128E+04 E0= 0.11259128E+04  d E =-.237370E-10
 optical routines
 imaginary and real dielectric function

 ----------------------------------------------------------------------------- 
|                                                                             |
|           W    W    AA    RRRRR   N    N  II  N    N   GGGG   !!!           |
|           W    W   A  A   R    R  NN   N  II  NN   N  G    G  !!!           |
|           W    W  A    A  R    R  N N  N  II  N N  N  G       !!!           |
|           W WW W  AAAAAA  RRRRR   N  N N  II  N  N N  G  GGG   !            |
|           WW  WW  A    A  R   R   N   NN  II  N   NN  G    G                |
|           W    W  A    A  R    R  N    N  II  N    N   GGGG   !!!           |
|                                                                             |
|      You have switched on METAGGA and linear response routines.             |
|      This combination is currently not supported.                           |
|      If you have selected LOPTICS=.TRUE., VASP will continue but some       |
|      matrix elements [H,r] are neglected   (you might try to use            |
|      LPEAD=.TRUE. which works irrespective of H).                           |
|      In all other cases VASP will stop now. SOOO sorry...                   |
|                                                                             |
 ----------------------------------------------------------------------------- 

 direction            1
 direction            2
 direction            3
