datafile (written by JARVIS-Tools) 

12 	 atoms 
1  atom types
0.0 4.08165  xlo xhi
0.0 4.08165  ylo yhi
0.0 30.24495  zlo zhi
0.0 0.0 0.0  xy xz yz


Atoms 

     1   1 0.000000 1.0204125 3.0612375 1.020412500000001
     2   1 0.000000 1.0204125 3.0612375 5.1020625000000015
     3   1 0.000000 1.0204125 3.0612375 9.183712500000002
     4   1 0.000000 3.0612375 1.0204125 1.020412500000001
     5   1 0.000000 3.0612375 1.0204125 5.1020625000000015
     6   1 0.000000 3.0612375 1.0204125 9.183712500000002
     7   1 0.000000 1.0204125 1.0204125 3.061237500000001
     8   1 0.000000 1.0204125 1.0204125 7.142887500000001
     9   1 0.000000 1.0204125 1.0204125 11.2245375
    10   1 0.000000 3.0612375 3.0612375 3.061237500000001
    11   1 0.000000 3.0612375 3.0612375 7.142887500000001
    12   1 0.000000 3.0612375 3.0612375 11.2245375
