LAMMPS data file via write_data, version 19 Oct 2016, timestep = 51

12 atoms
1 atom types

3.6617023301825202e-02 4.0450329766981756e+00 xlo xhi
3.6617023301838025e-02 4.0450329766981623e+00 ylo yhi
-1.9574404942699050e-01 3.0440694049426963e+01 zlo zhi
0.0000000000000000e+00 0.0000000000000000e+00 0.0000000000000000e+00 xy xz yz

Masses

1 26.982

Atoms # charge

1 1 0.0000000000000000e+00 1.0387210116509076e+00 3.0429289883490780e+00 8.4886544654614193e-01 0 0 0
2 1 0.0000000000000000e+00 1.0387210116509076e+00 3.0429289883490784e+00 4.9584174850114584e+00 0 0 0
3 1 0.0000000000000000e+00 1.0387210116509078e+00 3.0429289883490780e+00 9.1215063987065683e+00 0 0 0
4 1 0.0000000000000000e+00 3.0429289883490829e+00 1.0387210116509165e+00 8.4886544654614149e-01 0 0 0
5 1 0.0000000000000000e+00 3.0429289883490833e+00 1.0387210116509160e+00 4.9584174850114584e+00 0 0 0
6 1 0.0000000000000000e+00 3.0429289883490833e+00 1.0387210116509160e+00 9.1215063987065683e+00 0 0 0
7 1 0.0000000000000000e+00 1.0387210116509076e+00 1.0387210116509165e+00 2.8904531093477814e+00 0 0 0
8 1 0.0000000000000000e+00 1.0387210116509076e+00 1.0387210116509160e+00 7.0535420230428896e+00 0 0 0
9 1 0.0000000000000000e+00 1.0387210116509078e+00 1.0387210116509160e+00 1.1163094061508209e+01 0 0 0
10 1 0.0000000000000000e+00 3.0429289883490833e+00 3.0429289883490784e+00 2.8904531093477814e+00 0 0 0
11 1 0.0000000000000000e+00 3.0429289883490833e+00 3.0429289883490784e+00 7.0535420230428896e+00 0 0 0
12 1 0.0000000000000000e+00 3.0429289883490829e+00 3.0429289883490780e+00 1.1163094061508209e+01 0 0 0

Velocities

1 0.0000000000000000e+00 0.0000000000000000e+00 0.0000000000000000e+00
2 0.0000000000000000e+00 0.0000000000000000e+00 0.0000000000000000e+00
3 0.0000000000000000e+00 0.0000000000000000e+00 0.0000000000000000e+00
4 0.0000000000000000e+00 0.0000000000000000e+00 0.0000000000000000e+00
5 0.0000000000000000e+00 0.0000000000000000e+00 0.0000000000000000e+00
6 0.0000000000000000e+00 0.0000000000000000e+00 0.0000000000000000e+00
7 0.0000000000000000e+00 0.0000000000000000e+00 0.0000000000000000e+00
8 0.0000000000000000e+00 0.0000000000000000e+00 0.0000000000000000e+00
9 0.0000000000000000e+00 0.0000000000000000e+00 0.0000000000000000e+00
10 0.0000000000000000e+00 0.0000000000000000e+00 0.0000000000000000e+00
11 0.0000000000000000e+00 0.0000000000000000e+00 0.0000000000000000e+00
12 0.0000000000000000e+00 0.0000000000000000e+00 0.0000000000000000e+00
