   2   2   0   0
  0.2044415E+02  0.3866974E-09  0.3866975E-09  0.3866975E-09  0.5000000E-15
  1.000000000000000E-004
  CAR 
 unknown system                          
     17.58308248     -8.14714766  301      5.93233184      1.00000000
     -8.147  0.0000E+00  0.0000E+00
     -8.061  0.0000E+00  0.0000E+00
     -7.976  0.0000E+00  0.0000E+00
     -7.890  0.0000E+00  0.0000E+00
     -7.804  0.0000E+00  0.0000E+00
     -7.718  0.0000E+00  0.0000E+00
     -7.633  0.0000E+00  0.0000E+00
     -7.547  0.0000E+00  0.0000E+00
     -7.461  0.0000E+00  0.0000E+00
     -7.375  0.0000E+00  0.0000E+00
     -7.289  0.2830E-17  0.2428E-18
     -7.204  0.4213E-15  0.3637E-16
     -7.118  0.3773E-13  0.3273E-14
     -7.032  0.2389E-11  0.2081E-12
     -6.946  0.1074E-09  0.9420E-11
     -6.861  0.3441E-08  0.3046E-09
     -6.775  0.7877E-07  0.7061E-08
     -6.689  0.1292E-05  0.1178E-06
     -6.603  0.1521E-04  0.1422E-05
     -6.518  0.1291E-03  0.1250E-04
     -6.432  0.7948E-03  0.8067E-04
     -6.346  0.3584E-02  0.3881E-03
     -6.260  0.1204E-01  0.1420E-02
     -6.174  0.3081E-01  0.4063E-02
     -6.089  0.6200E-01  0.9380E-02
     -6.003  0.1017E+00  0.1810E-01
     -5.917  0.1423E+00  0.3031E-01
     -5.831  0.1792E+00  0.4567E-01
     -5.746  0.2121E+00  0.6386E-01
     -5.660  0.2393E+00  0.8439E-01
     -5.574  0.2609E+00  0.1068E+00
     -5.488  0.2842E+00  0.1311E+00
     -5.403  0.3126E+00  0.1579E+00
     -5.317  0.3349E+00  0.1867E+00
     -5.231  0.3448E+00  0.2162E+00
     -5.145  0.3579E+00  0.2469E+00
     -5.060  0.3892E+00  0.2803E+00
     -4.974  0.4246E+00  0.3167E+00
     -4.888  0.4386E+00  0.3544E+00
     -4.802  0.4356E+00  0.3917E+00
     -4.716  0.4468E+00  0.4300E+00
     -4.631  0.4848E+00  0.4716E+00
     -4.545  0.5300E+00  0.5171E+00
     -4.459  0.5577E+00  0.5649E+00
     -4.373  0.5609E+00  0.6130E+00
     -4.288  0.5589E+00  0.6610E+00
     -4.202  0.5855E+00  0.7112E+00
     -4.116  0.6531E+00  0.7672E+00
     -4.030  0.7361E+00  0.8303E+00
     -3.945  0.7922E+00  0.8983E+00
     -3.859  0.8018E+00  0.9670E+00
     -3.773  0.7934E+00  0.1035E+01
     -3.687  0.8116E+00  0.1105E+01
     -3.601  0.8510E+00  0.1178E+01
     -3.516  0.8605E+00  0.1251E+01
     -3.430  0.8121E+00  0.1321E+01
     -3.344  0.7373E+00  0.1384E+01
     -3.258  0.6874E+00  0.1443E+01
     -3.173  0.6745E+00  0.1501E+01
     -3.087  0.6721E+00  0.1559E+01
     -3.001  0.6572E+00  0.1615E+01
     -2.915  0.6196E+00  0.1668E+01
     -2.830  0.5604E+00  0.1716E+01
     -2.744  0.5023E+00  0.1759E+01
     -2.658  0.4716E+00  0.1800E+01
     -2.572  0.4660E+00  0.1840E+01
     -2.486  0.4533E+00  0.1879E+01
     -2.401  0.4016E+00  0.1913E+01
     -2.315  0.3139E+00  0.1940E+01
     -2.229  0.2293E+00  0.1960E+01
     -2.143  0.1860E+00  0.1976E+01
     -2.058  0.1841E+00  0.1992E+01
     -1.972  0.1898E+00  0.2008E+01
     -1.886  0.1759E+00  0.2023E+01
     -1.800  0.1563E+00  0.2036E+01
     -1.715  0.1751E+00  0.2051E+01
     -1.629  0.2596E+00  0.2074E+01
     -1.543  0.3811E+00  0.2106E+01
     -1.457  0.4728E+00  0.2147E+01
     -1.372  0.5142E+00  0.2191E+01
     -1.286  0.5787E+00  0.2241E+01
     -1.200  0.7525E+00  0.2305E+01
     -1.114  0.1016E+01  0.2392E+01
     -1.028  0.1227E+01  0.2498E+01
     -0.943  0.1253E+01  0.2605E+01
     -0.857  0.1106E+01  0.2700E+01
     -0.771  0.9204E+00  0.2779E+01
     -0.685  0.7952E+00  0.2847E+01
     -0.600  0.7385E+00  0.2910E+01
     -0.514  0.7163E+00  0.2972E+01
     -0.428  0.6821E+00  0.3030E+01
     -0.342  0.6115E+00  0.3083E+01
     -0.257  0.5280E+00  0.3128E+01
     -0.171  0.4698E+00  0.3168E+01
     -0.085  0.4575E+00  0.3207E+01
      0.001  0.4820E+00  0.3249E+01
      0.087  0.4958E+00  0.3291E+01
      0.172  0.4551E+00  0.3330E+01
      0.258  0.3842E+00  0.3363E+01
      0.344  0.3442E+00  0.3393E+01
      0.430  0.3416E+00  0.3422E+01
      0.515  0.3328E+00  0.3451E+01
      0.601  0.3127E+00  0.3477E+01
      0.687  0.3186E+00  0.3505E+01
      0.773  0.3432E+00  0.3534E+01
      0.858  0.3326E+00  0.3563E+01
      0.944  0.2765E+00  0.3586E+01
      1.030  0.2245E+00  0.3606E+01
      1.116  0.2150E+00  0.3624E+01
      1.202  0.2504E+00  0.3646E+01
      1.287  0.3327E+00  0.3674E+01
      1.373  0.4748E+00  0.3715E+01
      1.459  0.6667E+00  0.3772E+01
      1.545  0.8645E+00  0.3846E+01
      1.630  0.1019E+01  0.3934E+01
      1.716  0.1097E+01  0.4028E+01
      1.802  0.1101E+01  0.4122E+01
      1.888  0.1078E+01  0.4215E+01
      1.973  0.1071E+01  0.4306E+01
      2.059  0.1076E+01  0.4399E+01
      2.145  0.1074E+01  0.4491E+01
      2.231  0.1072E+01  0.4583E+01
      2.316  0.1086E+01  0.4676E+01
      2.402  0.1118E+01  0.4772E+01
      2.488  0.1161E+01  0.4871E+01
      2.574  0.1207E+01  0.4975E+01
      2.660  0.1260E+01  0.5083E+01
      2.745  0.1323E+01  0.5196E+01
      2.831  0.1385E+01  0.5315E+01
      2.917  0.1426E+01  0.5437E+01
      3.003  0.1441E+01  0.5561E+01
      3.088  0.1449E+01  0.5685E+01
      3.174  0.1487E+01  0.5813E+01
      3.260  0.1559E+01  0.5947E+01
      3.346  0.1596E+01  0.6083E+01
      3.431  0.1524E+01  0.6214E+01
      3.517  0.1376E+01  0.6332E+01
      3.603  0.1271E+01  0.6441E+01
      3.689  0.1261E+01  0.6549E+01
      3.775  0.1292E+01  0.6660E+01
      3.860  0.1305E+01  0.6772E+01
      3.946  0.1303E+01  0.6884E+01
      4.032  0.1299E+01  0.6995E+01
      4.118  0.1277E+01  0.7105E+01
      4.203  0.1230E+01  0.7210E+01
      4.289  0.1187E+01  0.7312E+01
      4.375  0.1143E+01  0.7410E+01
      4.461  0.1050E+01  0.7500E+01
      4.546  0.9095E+00  0.7578E+01
      4.632  0.7711E+00  0.7644E+01
      4.718  0.6576E+00  0.7701E+01
      4.804  0.5737E+00  0.7750E+01
      4.890  0.5267E+00  0.7795E+01
      4.975  0.4982E+00  0.7838E+01
      5.061  0.4531E+00  0.7877E+01
      5.147  0.3827E+00  0.7909E+01
      5.233  0.3057E+00  0.7936E+01
      5.318  0.2380E+00  0.7956E+01
      5.404  0.1824E+00  0.7972E+01
      5.490  0.1361E+00  0.7983E+01
      5.576  0.9483E-01  0.7992E+01
      5.661  0.5724E-01  0.7996E+01
      5.747  0.2771E-01  0.7999E+01
      5.833  0.1026E-01  0.8000E+01
      5.919  0.3105E-02  0.8000E+01
      6.004  0.2178E-02  0.8000E+01
      6.090  0.6388E-02  0.8001E+01
      6.176  0.1911E-01  0.8002E+01
      6.262  0.4613E-01  0.8006E+01
      6.348  0.9014E-01  0.8014E+01
      6.433  0.1451E+00  0.8026E+01
      6.519  0.2004E+00  0.8044E+01
      6.605  0.2554E+00  0.8066E+01
      6.691  0.3196E+00  0.8093E+01
      6.776  0.3958E+00  0.8127E+01
      6.862  0.4743E+00  0.8168E+01
      6.948  0.5473E+00  0.8215E+01
      7.034  0.6145E+00  0.8267E+01
      7.119  0.6727E+00  0.8325E+01
      7.205  0.7171E+00  0.8386E+01
      7.291  0.7583E+00  0.8451E+01
      7.377  0.8167E+00  0.8522E+01
      7.463  0.8919E+00  0.8598E+01
      7.548  0.9646E+00  0.8681E+01
      7.634  0.1043E+01  0.8770E+01
      7.720  0.1168E+01  0.8870E+01
      7.806  0.1348E+01  0.8986E+01
      7.891  0.1526E+01  0.9117E+01
      7.977  0.1648E+01  0.9258E+01
      8.063  0.1699E+01  0.9404E+01
      8.149  0.1671E+01  0.9547E+01
      8.234  0.1548E+01  0.9680E+01
      8.320  0.1352E+01  0.9796E+01
      8.406  0.1159E+01  0.9895E+01
      8.492  0.1049E+01  0.9985E+01
      8.578  0.1047E+01  0.1008E+02
      8.663  0.1130E+01  0.1017E+02
      8.749  0.1259E+01  0.1028E+02
      8.835  0.1420E+01  0.1040E+02
      8.921  0.1621E+01  0.1054E+02
      9.006  0.1816E+01  0.1070E+02
      9.092  0.1909E+01  0.1086E+02
      9.178  0.1879E+01  0.1102E+02
      9.264  0.1817E+01  0.1118E+02
      9.349  0.1816E+01  0.1133E+02
      9.435  0.1851E+01  0.1149E+02
      9.521  0.1797E+01  0.1165E+02
      9.607  0.1596E+01  0.1178E+02
      9.692  0.1355E+01  0.1190E+02
      9.778  0.1214E+01  0.1200E+02
      9.864  0.1195E+01  0.1211E+02
      9.950  0.1228E+01  0.1221E+02
     10.036  0.1247E+01  0.1232E+02
     10.121  0.1225E+01  0.1242E+02
     10.207  0.1176E+01  0.1252E+02
     10.293  0.1136E+01  0.1262E+02
     10.379  0.1132E+01  0.1272E+02
     10.464  0.1158E+01  0.1282E+02
     10.550  0.1195E+01  0.1292E+02
     10.636  0.1254E+01  0.1303E+02
     10.722  0.1356E+01  0.1314E+02
     10.807  0.1482E+01  0.1327E+02
     10.893  0.1573E+01  0.1341E+02
     10.979  0.1571E+01  0.1354E+02
     11.065  0.1450E+01  0.1367E+02
     11.151  0.1235E+01  0.1377E+02
     11.236  0.1001E+01  0.1386E+02
     11.322  0.8456E+00  0.1393E+02
     11.408  0.8077E+00  0.1400E+02
     11.494  0.8303E+00  0.1407E+02
     11.579  0.8336E+00  0.1414E+02
     11.665  0.8137E+00  0.1421E+02
     11.751  0.8167E+00  0.1428E+02
     11.837  0.8589E+00  0.1435E+02
     11.922  0.9363E+00  0.1444E+02
     12.008  0.1067E+01  0.1453E+02
     12.094  0.1250E+01  0.1463E+02
     12.180  0.1391E+01  0.1475E+02
     12.266  0.1364E+01  0.1487E+02
     12.351  0.1150E+01  0.1497E+02
     12.437  0.8739E+00  0.1504E+02
     12.523  0.6645E+00  0.1510E+02
     12.609  0.5576E+00  0.1515E+02
     12.694  0.5299E+00  0.1519E+02
     12.780  0.5397E+00  0.1524E+02
     12.866  0.5409E+00  0.1529E+02
     12.952  0.5206E+00  0.1533E+02
     13.037  0.5153E+00  0.1538E+02
     13.123  0.5511E+00  0.1542E+02
     13.209  0.5984E+00  0.1547E+02
     13.295  0.6256E+00  0.1553E+02
     13.380  0.6612E+00  0.1558E+02
     13.466  0.7278E+00  0.1565E+02
     13.552  0.7556E+00  0.1571E+02
     13.638  0.6587E+00  0.1577E+02
     13.724  0.4616E+00  0.1581E+02
     13.809  0.2634E+00  0.1583E+02
     13.895  0.1270E+00  0.1584E+02
     13.981  0.5777E-01  0.1585E+02
     14.067  0.3989E-01  0.1585E+02
     14.152  0.5506E-01  0.1585E+02
     14.238  0.8771E-01  0.1586E+02
     14.324  0.1291E+00  0.1587E+02
     14.410  0.1718E+00  0.1589E+02
     14.495  0.2012E+00  0.1591E+02
     14.581  0.2074E+00  0.1592E+02
     14.667  0.2004E+00  0.1594E+02
     14.753  0.1927E+00  0.1596E+02
     14.839  0.1763E+00  0.1597E+02
     14.924  0.1377E+00  0.1598E+02
     15.010  0.8479E-01  0.1599E+02
     15.096  0.3942E-01  0.1599E+02
     15.182  0.1361E-01  0.1600E+02
     15.267  0.3909E-02  0.1600E+02
     15.353  0.2604E-02  0.1600E+02
     15.439  0.5279E-02  0.1600E+02
     15.525  0.9481E-02  0.1600E+02
     15.610  0.1208E-01  0.1600E+02
     15.696  0.1078E-01  0.1600E+02
     15.782  0.6735E-02  0.1600E+02
     15.868  0.2944E-02  0.1600E+02
     15.954  0.9006E-03  0.1600E+02
     16.039  0.1926E-03  0.1600E+02
     16.125  0.2880E-04  0.1600E+02
     16.211  0.3007E-05  0.1600E+02
     16.297  0.2192E-06  0.1600E+02
     16.382  0.1115E-07  0.1600E+02
     16.468  0.3953E-09  0.1600E+02
     16.554  0.9767E-11  0.1600E+02
     16.640  0.1680E-12  0.1600E+02
     16.725  0.2010E-14  0.1600E+02
     16.811  0.1698E-16  0.1600E+02
     16.897  0.0000E+00  0.1600E+02
     16.983  0.0000E+00  0.1600E+02
     17.068  0.0000E+00  0.1600E+02
     17.154  0.0000E+00  0.1600E+02
     17.240  0.0000E+00  0.1600E+02
     17.326  0.0000E+00  0.1600E+02
     17.412  0.0000E+00  0.1600E+02
     17.497  0.0000E+00  0.1600E+02
     17.583  0.0000E+00  0.1600E+02
