    2    2    1    1
  0.2044415E+02  0.3866974E-09  0.3866975E-09  0.3866975E-09  0.5000000E-15
  1.000000000000000E-004
  CAR 
 unknown system                          
    8  104    8
 
  0.0000000E+00  0.0000000E+00  0.0000000E+00  0.3644315E-03
   1       -6.147148
   2        5.593603
   3        5.593604
   4        5.593605
   5        8.216250
   6        8.216253
   7        8.216254
   8        8.821496
 
  0.7142857E-01  0.3469447E-17  0.0000000E+00  0.2915452E-02
   1       -6.081586
   2        4.944809
   3        5.491004
   4        5.491006
   5        8.246909
   6        8.368949
   7        8.368952
   8        9.329509
 
  0.1428571E+00  0.1387779E-16  0.0000000E+00  0.2915452E-02
   1       -5.886377
   2        3.707685
   3        5.253036
   4        5.253038
   5        8.043580
   6        8.719911
   7        8.719914
   8       10.498629
 
  0.2142857E+00  0.2775558E-16  0.0000000E+00  0.2915452E-02
   1       -5.566899
   2        2.393816
   3        4.986663
   4        4.986664
   5        7.762884
   6        9.048022
   7        9.048025
   8       11.771160
 
  0.2857143E+00  0.0000000E+00  0.0000000E+00  0.2915452E-02
   1       -5.135827
   2        1.142466
   3        4.752786
   4        4.752788
   5        7.502511
   6        9.177363
   7        9.177365
   8       12.947810
 
  0.3571429E+00  0.2775558E-16  0.0000000E+00  0.2915452E-02
   1       -4.624267
   2        0.027534
   3        4.577372
   4        4.577375
   5        7.301882
   6        9.131196
   7        9.131198
   8       13.499861
 
  0.4285714E+00  0.5551115E-16  0.0000000E+00  0.2915452E-02
   1       -4.121213
   2       -0.843188
   3        4.470135
   4        4.470138
   5        7.177386
   6        9.044330
   7        9.044332
   8       13.428725
 
  0.5000000E+00  0.2775558E-16  0.0000000E+00  0.1457726E-02
   1       -3.874239
   2       -1.213544
   3        4.434184
   4        4.434186
   5        7.135349
   6        9.006485
   7        9.006488
   8       13.372480
 
  0.7142857E-01  0.7142857E-01  0.0000000E+00  0.2186589E-02
   1       -6.059647
   2        5.062410
   3        5.280518
   4        5.280518
   5        8.014205
   6        8.636847
   7        8.636847
   8        9.324718
 
  0.1428571E+00  0.7142857E-01  0.0000000E+00  0.8746356E-02
   1       -5.907384
   2        4.069697
   3        4.988627
   4        5.158025
   5        8.012162
   6        8.702605
   7        9.064843
   8       10.164040
 
  0.2142857E+00  0.7142857E-01  0.0000000E+00  0.8746356E-02
   1       -5.628633
   2        2.807913
   3        4.708286
   4        4.919076
   5        8.090422
   6        8.707492
   7        9.456694
   8       10.983569
 
  0.2857143E+00  0.7142857E-01  0.0000000E+00  0.8746356E-02
   1       -5.232939
   2        1.552460
   3        4.486337
   4        4.629436
   5        7.941849
   6        8.881684
   7        9.629595
   8       11.433570
 
  0.3571429E+00  0.7142857E-01  0.0000000E+00  0.8746356E-02
   1       -4.742811
   2        0.397542
   3        4.342474
   4        4.360734
   5        7.752736
   6        8.936465
   7        9.567107
   8       12.116982
 
  0.4285714E+00  0.7142857E-01  0.0000000E+00  0.8746356E-02
   1       -4.219571
   2       -0.565907
   3        4.144745
   4        4.283047
   5        7.613232
   6        8.913791
   7        9.406004
   8       13.016935
 
  0.5000000E+00  0.7142857E-01  0.0000000E+00  0.8746356E-02
   1       -3.846808
   2       -1.140845
   3        3.996906
   4        4.307273
   5        7.547045
   6        8.926690
   7        9.260947
   8       13.542193
 
 -0.4285714E+00  0.7142857E-01  0.0000000E+00  0.8746356E-02
   1       -3.934541
   2       -1.012123
   3        3.926787
   4        4.410118
   5        7.560993
   6        9.018771
   7        9.180951
   8       13.597148
 
 -0.3571429E+00  0.7142857E-01  0.0000000E+00  0.8746356E-02
   1       -4.391229
   2       -0.272390
   3        3.941375
   4        4.583184
   5        7.654937
   6        9.161197
   7        9.177744
   8       13.317450
 
 -0.2857143E+00  0.7142857E-01  0.0000000E+00  0.8746356E-02
   1       -4.914988
   2        0.768427
   3        4.045567
   4        4.813834
   5        7.823458
   6        9.136162
   7        9.329410
   8       12.545125
 
 -0.2142857E+00  0.7142857E-01  0.0000000E+00  0.8746356E-02
   1       -5.377463
   2        1.962170
   3        4.242008
   4        5.080508
   5        8.052443
   6        8.984419
   7        9.310748
   8       11.754715
 
 -0.1428571E+00  0.7142857E-01  0.0000000E+00  0.8746356E-02
   1       -5.735593
   2        3.216022
   3        4.534152
   4        5.340544
   5        8.307385
   6        8.675475
   7        8.983275
   8       10.959632
 
 -0.7142857E-01  0.7142857E-01  0.0000000E+00  0.4373178E-02
   1       -5.972689
   2        4.341523
   3        4.964140
   4        5.511102
   5        8.396622
   6        8.494412
   7        8.499714
   8       10.004262
 
  0.1428571E+00  0.1428571E+00  0.0000000E+00  0.2186589E-02
   1       -5.798113
   2        3.975542
   3        4.664545
   4        4.664545
   5        7.550017
   6        9.571576
   7        9.571576
   8        9.953698
 
  0.2142857E+00  0.1428571E+00  0.0000000E+00  0.8746356E-02
   1       -5.561118
   2        3.051758
   3        4.366247
   4        4.416981
   5        7.524849
   6        9.541063
   7       10.064897
   8       10.215834
 
  0.2857143E+00  0.1428571E+00  0.0000000E+00  0.8746356E-02
   1       -5.203437
   2        1.907224
   3        4.092562
   4        4.136886
   5        7.730375
   6        9.486914
   7       10.203864
   8       10.348252
 
  0.3571429E+00  0.1428571E+00  0.0000000E+00  0.8746356E-02
   1       -4.741430
   2        0.777781
   3        3.737422
   4        3.995833
   5        7.812971
   6        9.520448
   7       10.339556
   8       10.505179
 
  0.4285714E+00  0.1428571E+00  0.0000000E+00  0.8746356E-02
   1       -4.217400
   2       -0.226468
   3        3.420865
   4        3.950223
   5        7.791155
   6        9.425722
   7       10.159392
   8       11.390245
 
  0.5000000E+00  0.1428571E+00  0.0000000E+00  0.8746356E-02
   1       -3.759421
   2       -0.948102
   3        3.175297
   4        4.000028
   5        7.796958
   6        9.347673
   7        9.949312
   8       12.555511
 
 -0.4285714E+00  0.1428571E+00  0.0000000E+00  0.8746356E-02
   1       -3.674994
   2       -1.067654
   3        3.018634
   4        4.139793
   5        7.880513
   6        9.345417
   7        9.780214
   8       13.748321
 
 -0.3571429E+00  0.1428571E+00  0.0000000E+00  0.8746356E-02
   1       -4.053443
   2       -0.495474
   3        2.964481
   4        4.358361
   5        8.043185
   6        9.425690
   7        9.662436
   8       13.228369
 
 -0.2857143E+00  0.1428571E+00  0.0000000E+00  0.8746356E-02
   1       -4.577215
   2        0.437585
   3        3.028386
   4        4.636524
   5        8.263781
   6        9.541820
   7        9.544164
   8       12.213640
 
 -0.2142857E+00  0.1428571E+00  0.0000000E+00  0.8746356E-02
   1       -5.065452
   2        1.506747
   3        3.242512
   4        4.940516
   5        8.504699
   6        9.301187
   7        9.519807
   8       11.459703
 
 -0.1428571E+00  0.1428571E+00  0.0000000E+00  0.4373178E-02
   1       -5.458869
   2        2.512863
   3        3.708762
   4        5.208585
   5        8.656941
   6        8.936157
   7        9.151383
   8       11.192009
 
  0.2142857E+00  0.2142857E+00  0.0000000E+00  0.2186589E-02
   1       -5.365696
   2        2.748004
   3        4.048717
   4        4.048717
   5        7.042392
   6        9.320848
   7       10.708262
   8       10.708263
 
  0.2857143E+00  0.2142857E+00  0.0000000E+00  0.8746356E-02
   1       -5.047361
   2        1.946966
   3        3.704851
   4        3.801412
   5        7.053450
   6        8.952094
   7       10.977347
   8       11.181226
 
  0.3571429E+00  0.2142857E+00  0.0000000E+00  0.8746356E-02
   1       -4.618008
   2        0.991838
   3        3.246498
   4        3.645829
   5        7.275904
   6        9.060334
   7       10.877252
   8       11.312746
 
  0.4285714E+00  0.2142857E+00  0.0000000E+00  0.8746356E-02
   1       -4.106827
   2        0.049814
   3        2.797749
   4        3.590943
   5        7.368200
   6        9.778511
   7       10.709464
   8       11.173725
 
  0.5000000E+00  0.2142857E+00  0.0000000E+00  0.8746356E-02
   1       -3.600286
   2       -0.729596
   3        2.431636
   4        3.638385
   5        7.425921
   6       10.512204
   7       10.940476
   8       10.946074
 
 -0.4285714E+00  0.2142857E+00  0.0000000E+00  0.8746356E-02
   1       -3.357541
   2       -1.057812
   3        2.178951
   4        3.784108
   5        7.560079
   6       10.440648
   7       10.714150
   8       12.252705
 
 -0.3571429E+00  0.2142857E+00  0.0000000E+00  0.8746356E-02
   1       -3.627205
   2       -0.682993
   3        2.063333
   4        4.017695
   5        7.793354
   6       10.409193
   7       10.514306
   8       13.142150
 
 -0.2857143E+00  0.2142857E+00  0.0000000E+00  0.8746356E-02
   1       -4.136530
   2        0.088244
   3        2.127195
   4        4.318958
   5        8.103916
   6       10.267697
   7       10.389524
   8       12.034657
 
 -0.2142857E+00  0.2142857E+00  0.0000000E+00  0.4373178E-02
   1       -4.642564
   2        0.897866
   3        2.478165
   4        4.650027
   5        8.419203
   6        9.829296
   7       10.102982
   8       11.389613
 
  0.2857143E+00  0.2857143E+00  0.0000000E+00  0.2186589E-02
   1       -4.767975
   2        1.490116
   3        3.531933
   4        3.531933
   5        6.621985
   6        8.293778
   7       11.939782
   8       11.939782
 
  0.3571429E+00  0.2857143E+00  0.0000000E+00  0.8746356E-02
   1       -4.373615
   2        0.783817
   3        3.152476
   4        3.353535
   5        6.695079
   6        8.020343
   7       12.229381
   8       12.354890
 
  0.4285714E+00  0.2857143E+00  0.0000000E+00  0.8746356E-02
   1       -3.884384
   2        0.018983
   3        2.586067
   4        3.277526
   5        6.903040
   6        8.366098
   7       12.153503
   8       12.350061
 
  0.5000000E+00  0.2857143E+00  0.0000000E+00  0.8746356E-02
   1       -3.357397
   2       -0.691915
   3        2.050962
   4        3.307340
   5        6.999674
   6        9.316919
   7       12.005215
   8       12.137480
 
 -0.4285714E+00  0.2857143E+00  0.0000000E+00  0.8746356E-02
   1       -2.991193
   2       -1.128592
   3        1.659219
   4        3.440627
   5        7.142420
   6       10.556819
   7       11.874546
   8       11.896707
 
 -0.3571429E+00  0.2857143E+00  0.0000000E+00  0.8746356E-02
   1       -3.142098
   2       -0.943501
   3        1.474262
   4        3.668724
   5        7.389993
   6       11.538428
   7       11.576098
   8       12.234294
 
 -0.2857143E+00  0.2857143E+00  0.0000000E+00  0.4373178E-02
   1       -3.625536
   2       -0.394829
   3        1.589507
   4        3.973444
   5        7.732212
   6       11.063178
   7       11.347268
   8       12.166500
 
  0.3571429E+00  0.3571429E+00  0.0000000E+00  0.2186589E-02
   1       -4.013569
   2        0.243081
   3        3.149020
   4        3.149020
   5        6.354821
   6        7.423159
   7       13.228434
   8       13.228434
 
  0.4285714E+00  0.3571429E+00  0.0000000E+00  0.8746356E-02
   1       -3.551244
   2       -0.391900
   3        2.783810
   4        3.046364
   5        6.494219
   6        7.311003
   7       13.544709
   8       13.574549
 
  0.5000000E+00  0.3571429E+00  0.0000000E+00  0.8746356E-02
   1       -3.023197
   2       -1.004948
   3        2.187420
   4        3.050917
   5        6.662087
   6        7.943104
   7       13.466415
   8       13.489852
 
 -0.4285714E+00  0.3571429E+00  0.0000000E+00  0.8746356E-02
   1       -2.578676
   2       -1.451582
   3        1.648948
   4        3.162054
   5        6.800689
   6        9.091304
   7       13.171785
   8       13.350680
 
 -0.3571429E+00  0.3571429E+00  0.0000000E+00  0.4373178E-02
   1       -2.677638
   2       -1.332384
   3        1.356583
   4        3.373104
   5        7.041783
   6       10.467552
   7       12.606789
   8       13.089014
 
  0.4285714E+00  0.4285714E+00  0.0000000E+00  0.2186589E-02
   1       -3.114988
   2       -0.960762
   3        2.914899
   4        2.914899
   5        6.278360
   6        6.795619
   7       14.551092
   8       14.551092
 
  0.5000000E+00  0.4285714E+00  0.0000000E+00  0.8746356E-02
   1       -2.597238
   2       -1.531518
   3        2.599989
   4        2.890603
   5        6.452907
   6        6.889268
   7       14.802293
   8       14.874634
 
 -0.4285714E+00  0.4285714E+00  0.0000000E+00  0.4373178E-02
   1       -2.188004
   2       -1.899771
   3        2.056365
   4        2.974560
   5        6.578816
   6        7.802998
   7       14.358808
   8       14.767281
 
  0.5000000E+00  0.5000000E+00  0.0000000E+00  0.1093294E-02
   1       -2.089663
   2       -2.089663
   3        2.836219
   4        2.836219
   5        6.418495
   6        6.418495
   7       15.583082
   8       15.583082
 
  0.2142857E+00  0.1428571E+00  0.7142857E-01  0.8746356E-02
   1       -5.712936
   2        3.380054
   3        4.341494
   4        5.075145
   5        8.005626
   6        8.979506
   7        9.420682
   8       10.574095
 
  0.2857143E+00  0.1428571E+00  0.7142857E-01  0.1749271E-01
   1       -5.394654
   2        2.313278
   3        3.881291
   4        4.875511
   5        8.210297
   6        8.973650
   7        9.823262
   8       10.694331
 
  0.3571429E+00  0.1428571E+00  0.7142857E-01  0.1749271E-01
   1       -4.964872
   2        1.156430
   3        3.606781
   4        4.604650
   5        8.240976
   6        9.002406
   7        9.980219
   8       11.001269
 
  0.4285714E+00  0.1428571E+00  0.7142857E-01  0.1749271E-01
   1       -4.453964
   2        0.084479
   3        3.442544
   4        4.354770
   5        8.139699
   6        8.949460
   7        9.930818
   8       11.774437
 
  0.5000000E+00  0.1428571E+00  0.7142857E-01  0.1749271E-01
   1       -3.949317
   2       -0.768218
   3        3.359337
   4        4.180504
   5        8.053310
   6        8.855016
   7        9.839984
   8       12.834463
 
 -0.4285714E+00  0.1428571E+00  0.7142857E-01  0.8746356E-02
   1       -3.699719
   2       -1.135392
   3        3.335076
   4        4.117581
   5        8.022362
   6        8.814086
   7        9.800766
   8       13.720196
 
  0.2857143E+00  0.2142857E+00  0.7142857E-01  0.8746356E-02
   1       -5.283860
   2        2.356225
   3        3.722843
   4        4.335096
   5        7.519797
   6        9.484097
   7       10.188962
   8       10.599515
 
  0.3571429E+00  0.2142857E+00  0.7142857E-01  0.1749271E-01
   1       -4.890216
   2        1.411750
   3        3.261681
   4        4.113197
   5        7.780719
   6        9.512462
   7       10.011800
   8       10.976025
 
  0.4285714E+00  0.2142857E+00  0.7142857E-01  0.1749271E-01
   1       -4.401682
   2        0.409130
   3        2.952407
   4        3.879994
   5        7.923485
   6        9.707950
   7       10.140963
   8       11.039831
 
  0.5000000E+00  0.2142857E+00  0.7142857E-01  0.1749271E-01
   1       -3.877138
   2       -0.481003
   3        2.725267
   4        3.742925
   5        7.969687
   6        9.470620
   7       10.934393
   8       11.173608
 
 -0.4285714E+00  0.2142857E+00  0.7142857E-01  0.1749271E-01
   1       -3.500188
   2       -1.028506
   3        2.560517
   4        3.740613
   5        8.057470
   6        9.275072
   7       10.846839
   8       12.424775
 
 -0.3571429E+00  0.2142857E+00  0.7142857E-01  0.1749271E-01
   1       -3.595528
   2       -0.893866
   3        2.472402
   4        3.867424
   5        8.227870
   6        9.153217
   7       10.790006
   8       12.750479
 
 -0.2857143E+00  0.2142857E+00  0.7142857E-01  0.1749271E-01
   1       -4.059323
   2       -0.187997
   3        2.490100
   4        4.097627
   5        8.467881
   6        9.096385
   7       10.750496
   8       11.591589
 
 -0.2142857E+00  0.2142857E+00  0.7142857E-01  0.1749271E-01
   1       -4.581959
   2        0.738603
   3        2.660575
   4        4.392545
   5        8.717942
   6        9.012830
   7       10.579747
   8       10.811509
 
 -0.1428571E+00  0.2142857E+00  0.7142857E-01  0.8746356E-02
   1       -5.040482
   2        1.641421
   3        3.088722
   4        4.688447
   5        8.602665
   6        8.989101
   7       10.323820
   8       10.458361
 
  0.3571429E+00  0.2857143E+00  0.7142857E-01  0.8746356E-02
   1       -4.691712
   2        1.275994
   3        3.211474
   4        3.640829
   5        7.109318
   6        8.609877
   7       11.117981
   8       11.875847
 
  0.4285714E+00  0.2857143E+00  0.7142857E-01  0.1749271E-01
   1       -4.232023
   2        0.479996
   3        2.732595
   4        3.426474
   5        7.399253
   6        8.760101
   7       10.929270
   8       12.231663
 
  0.5000000E+00  0.2857143E+00  0.7142857E-01  0.1749271E-01
   1       -3.707715
   2       -0.321257
   3        2.305268
   4        3.310714
   5        7.533459
   6        9.555056
   7       10.680553
   8       12.236120
 
 -0.4285714E+00  0.2857143E+00  0.7142857E-01  0.1749271E-01
   1       -3.245090
   2       -0.941731
   3        1.970064
   4        3.335282
   5        7.645471
   6       10.329739
   7       10.849838
   8       12.130136
 
 -0.3571429E+00  0.2857143E+00  0.7142857E-01  0.1749271E-01
   1       -3.178051
   2       -1.020058
   3        1.767650
   4        3.486964
   5        7.842466
   6       10.186851
   7       11.958132
   8       12.192728
 
 -0.2857143E+00  0.2857143E+00  0.7142857E-01  0.1749271E-01
   1       -3.580441
   2       -0.498715
   3        1.747775
   4        3.742196
   5        8.134656
   6       10.016468
   7       11.482369
   8       11.894644
 
 -0.2142857E+00  0.2857143E+00  0.7142857E-01  0.8746356E-02
   1       -4.103504
   2        0.184883
   3        2.007947
   4        4.065533
   5        8.486644
   6        9.632808
   7       10.761726
   8       11.465820
 
  0.4285714E+00  0.3571429E+00  0.7142857E-01  0.8746356E-02
   1       -3.946400
   2        0.151654
   3        2.845056
   4        3.108353
   5        6.840138
   6        7.789625
   7       12.253921
   8       13.204509
 
  0.5000000E+00  0.3571429E+00  0.7142857E-01  0.1749271E-01
   1       -3.435967
   2       -0.506378
   3        2.334483
   4        2.965076
   5        7.132824
   6        8.176794
   7       12.028358
   8       13.550494
 
 -0.4285714E+00  0.3571429E+00  0.7142857E-01  0.1749271E-01
   1       -2.924984
   2       -1.086566
   3        1.813650
   4        2.990674
   5        7.268086
   6        9.211180
   7       11.769563
   8       13.503174
 
 -0.3571429E+00  0.3571429E+00  0.7142857E-01  0.1749271E-01
   1       -2.722836
   2       -1.290121
   3        1.464460
   4        3.144540
   5        7.461335
   6       10.498049
   7       11.558644
   8       12.837866
 
 -0.2857143E+00  0.3571429E+00  0.7142857E-01  0.8746356E-02
   1       -3.070665
   2       -0.931067
   3        1.402939
   4        3.405064
   5        7.758171
   6       10.971669
   7       11.763088
   8       12.124865
 
  0.5000000E+00  0.4285714E+00  0.7142857E-01  0.8746356E-02
   1       -3.062804
   2       -0.977373
   3        2.641675
   4        2.765649
   5        6.749918
   6        7.206156
   7       13.463363
   8       14.546823
 
 -0.4285714E+00  0.4285714E+00  0.7142857E-01  0.1749271E-01
   1       -2.531314
   2       -1.516123
   3        2.119909
   4        2.744358
   5        6.999258
   6        7.878667
   7       13.219642
   8       14.441693
 
 -0.3571429E+00  0.4285714E+00  0.7142857E-01  0.8746356E-02
   1       -2.317907
   2       -1.683923
   3        1.634549
   4        2.888951
   5        7.175633
   6        9.098450
   7       12.812087
   8       13.168670
 
 -0.4285714E+00  0.5000000E+00  0.7142857E-01  0.4373178E-02
   1       -2.062764
   2       -2.062763
   3        2.612382
   4        2.612383
   5        6.864822
   6        6.864822
   7       14.710089
   8       14.710094
 
  0.4285714E+00  0.2857143E+00  0.1428571E+00  0.8746356E-02
   1       -4.466407
   2        0.775484
   3        2.591012
   4        3.872535
   5        8.228128
   6        9.476243
   7        9.750236
   8       11.701329
 
  0.5000000E+00  0.2857143E+00  0.1428571E+00  0.1749271E-01
   1       -3.959385
   2        0.004520
   3        2.203779
   4        3.576876
   5        8.570382
   6        9.419945
   7        9.998768
   8       12.079416
 
 -0.4285714E+00  0.2857143E+00  0.1428571E+00  0.1749271E-01
   1       -3.449284
   2       -0.719172
   3        2.027025
   4        3.355108
   5        8.710809
   6        9.112840
   7       11.071224
   8       12.155757
 
 -0.3571429E+00  0.2857143E+00  0.1428571E+00  0.8746356E-02
   1       -3.188204
   2       -1.059748
   3        1.977706
   4        3.273806
   5        8.861314
   6        8.884599
   7       12.152042
   8       12.250350
 
  0.5000000E+00  0.3571429E+00  0.1428571E+00  0.8746356E-02
   1       -3.750867
   2       -0.114472
   3        2.259275
   4        3.096196
   5        7.970626
   6        8.753841
   7       10.654113
   8       13.133103
 
 -0.4285714E+00  0.3571429E+00  0.1428571E+00  0.1749271E-01
   1       -3.224799
   2       -0.737282
   3        1.901178
   4        2.851184
   5        8.301650
   6        9.459190
   7       10.372746
   8       13.519416
 
 -0.3571429E+00  0.3571429E+00  0.1428571E+00  0.1749271E-01
   1       -2.833954
   2       -1.175600
   3        1.660209
   4        2.800898
   5        8.473713
   6        9.971347
   7       10.825449
   8       12.525858
 
 -0.2857143E+00  0.3571429E+00  0.1428571E+00  0.1749271E-01
   1       -2.962478
   2       -1.030085
   3        1.576653
   4        2.939336
   5        8.717551
   6        9.786956
   7       11.090854
   8       12.291622
 
 -0.2142857E+00  0.3571429E+00  0.1428571E+00  0.8746356E-02
   1       -3.446548
   2       -0.503693
   3        1.730944
   4        3.220848
   5        9.045141
   6        9.407846
   7       10.158703
   8       13.011862
 
 -0.4285714E+00  0.4285714E+00  0.1428571E+00  0.8746356E-02
   1       -2.916664
   2       -1.047480
   3        2.120488
   4        2.521739
   5        7.870576
   6        8.242985
   7       11.726983
   8       14.206176
 
 -0.3571429E+00  0.4285714E+00  0.1428571E+00  0.1749271E-01
   1       -2.438713
   2       -1.505377
   3        1.759611
   4        2.430369
   5        8.157994
   6        9.230502
   7       11.443373
   8       12.689016
 
 -0.2857143E+00  0.4285714E+00  0.1428571E+00  0.8746356E-02
   1       -2.493133
   2       -1.434737
   3        1.503082
   4        2.610712
   5        8.390900
   6       10.456812
   7       11.232483
   8       11.378156
 
 -0.3571429E+00  0.5000000E+00  0.1428571E+00  0.4373178E-02
   1       -1.999033
   2       -1.999030
   3        2.199592
   4        2.199592
   5        7.954393
   6        7.954393
   7       12.932813
   8       12.932818
 
 -0.3571429E+00  0.4285714E+00  0.2142857E+00  0.8746356E-02
   1       -2.709167
   2       -1.203741
   3        1.688279
   4        2.447892
   5        9.310530
   6        9.513747
   7       10.151863
   8       12.441469
 
 -0.2857143E+00  0.4285714E+00  0.2142857E+00  0.8746356E-02
   1       -2.392567
   2       -1.505098
   3        1.635752
   4        2.284489
   5        9.475561
   6        9.786009
   7       10.749176
   8       11.154759
 
 -0.2857143E+00  0.5000000E+00  0.2142857E+00  0.4373178E-02
   1       -1.944196
   2       -1.944193
   3        1.920349
   4        1.920350
   5        9.363253
   6        9.363254
   7       11.172499
   8       11.172503
