 vasp.5.3.3 18Dez12 (build Jan 30 2013 10:57:47) complex                        
  
 executed on             LinuxIFC date 2016.06.21  06:31:01
 running on   16 total cores
 distrk:  each k-point on   16 cores,    1 groups
 distr:  one band on NCORES_PER_BAND=   4 cores,    4 groups


--------------------------------------------------------------------------------------------------------


 INCAR:
 POTCAR:    PAW_PBE Si 05Jan2001                  

 ----------------------------------------------------------------------------- 
|                                                                             |
|  ADVICE TO THIS USER RUNNING 'VASP/VAMP'   (HEAR YOUR MASTER'S VOICE ...):  |
|                                                                             |
|      You have switched on vdW-DFT.                                          |
|      This routine was written and supplied by Jiri Klimes.                  |
|      We recommed that you carefully read and cite the following             |
|      publication                                                            |
|      J. Klimes, D.R. Bowler, A. Michelides                                  |
|        J. Phys.: Cond Matt. 22 022201 (2010)                                |
|      J. Klimes, D.R. Bowler, A. Michelides                                  |
|        Phys. Rev. B. 83, 195131 (2011)                                      |
|      and references therein.                                                |
|                                                                             |
 ----------------------------------------------------------------------------- 

 POTCAR:    PAW_PBE Si 05Jan2001                  
   VRHFIN =Si: s2p2                                                             
   LEXCH  = PE                                                                  
   EATOM  =   103.0669 eV,    7.5752 Ry                                         
                                                                                
   TITEL  = PAW_PBE Si 05Jan2001                                                
   LULTRA =        F    use ultrasoft PP ?                                      
   IUNSCR =        1    unscreen: 0-lin 1-nonlin 2-no                           
   RPACOR =    1.500    partial core radius                                     
   POMASS =   28.085; ZVAL   =    4.000    mass and valenz                      
   RCORE  =    1.900    outmost cutoff radius                                   
   RWIGS  =    2.480; RWIGS  =    1.312    wigner-seitz radius (au A)           
   ENMAX  =  245.345; ENMIN  =  184.009 eV                                      
   ICORE  =        2    local potential                                         
   LCOR   =        T    correct aug charges                                     
   LPAW   =        T    paw PP                                                  
   EAUG   =  322.069                                                            
   DEXC   =    0.000                                                            
   RMAX   =    1.950    core radius for proj-oper                               
   RAUG   =    1.300    factor for augmentation sphere                          
   RDEP   =    1.993    radius for radial grids                                 
   RDEPT  =    1.837    core radius for aug-charge                              
                                                                                
   Atomic configuration                                                         
    6 entries                                                                   
     n  l   j            E        occ.                                          
     1  0  0.50     -1785.8828   2.0000                                         
     2  0  0.50      -139.4969   2.0000                                         
     2  1  1.50       -95.5546   6.0000                                         
     3  0  0.50       -10.8127   2.0000                                         
     3  1  0.50        -4.0811   2.0000                                         
     3  2  1.50        -4.0817   0.0000                                         
   Description                                                                  
     l       E           TYP  RCUT    TYP  RCUT                                 
     0    -10.8127223     23  1.900                                             
     0     -7.6451159     23  1.900                                             
     1     -4.0811372     23  1.900                                             
     1      2.4879257     23  1.900                                             
     2     -4.0817478      7  1.900                                             
  local pseudopotential read in
  partial core-charges read in
  partial kinetic energy density read in
  atomic valenz-charges read in
  non local Contribution for L=           0  read in
    real space projection operators read in
  non local Contribution for L=           0  read in
    real space projection operators read in
  non local Contribution for L=           1  read in
    real space projection operators read in
  non local Contribution for L=           1  read in
    real space projection operators read in
    PAW grid and wavefunctions read in
 
   number of l-projection  operators is LMAX  =           4
   number of lm-projection operators is LMMAX =           8
 

 ----------------------------------------------------------------------------- 
|                                                                             |
|  ADVICE TO THIS USER RUNNING 'VASP/VAMP'   (HEAR YOUR MASTER'S VOICE ...):  |
|                                                                             |
|      You enforced a specific xc-type in the INCAR file,                     |
|      a different type was found on the POTCAR file                          |
|          I HOPE YOU KNOW, WHAT YOU ARE  DOING                               |
|                                                                             |
 ----------------------------------------------------------------------------- 

  PAW_PBE Si 05Jan2001                  :
 energy of atom  1       EATOM= -103.0669
 kinetic energy error for atom=    0.0004 (will be added to EATOM!!)
 
 
 POSCAR: bulk@mp_149                             
  positions in direct lattice
  No initial velocities read in
 exchange correlation table for  LEXCH =       42
   RHO(1)=    0.500       N(1)  =     2000
   RHO(2)=  100.500       N(2)  =     4000
 


--------------------------------------------------------------------------------------------------------


 ion  position               nearest neighbor table
   1  0.875  0.875  0.875-   2 2.37   2 2.37   2 2.37   2 2.37
   2  0.125  0.125  0.125-   1 2.37   1 2.37   1 2.37   1 2.37
 
  LATTYP: Found a face centered cubic cell.
 ALAT       =     5.4687284904
  
  Lattice vectors:
  
 A1 = (   3.3488980000,   0.0000000000,   1.9334870000)
 A2 = (   1.1162990000,   3.1573720000,   1.9334870000)
 A3 = (   0.0000000000,   0.0000000000,   3.8669750000)


Analysis of symmetry for initial positions (statically):
=====================================================================
 Subroutine PRICEL returns:
 Original cell was already a primitive cell.
 

 Routine SETGRP: Setting up the symmetry group for a 
 face centered cubic supercell.


 Subroutine GETGRP returns: Found 48 space group operations
 (whereof 12 operations were pure point group operations)
 out of a pool of 48 trial point group operations.


The static configuration has the point symmetry D_3d.
 The point group associated with its full space group is O_h .


Analysis of symmetry for dynamics (positions and initial velocities):
=====================================================================
 Subroutine PRICEL returns:
 Original cell was already a primitive cell.
 

 Routine SETGRP: Setting up the symmetry group for a 
 face centered cubic supercell.


 Subroutine GETGRP returns: Found 48 space group operations
 (whereof 12 operations were pure point group operations)
 out of a pool of 48 trial point group operations.


The dynamic configuration has the point symmetry D_3d.
 The point group associated with its full space group is O_h .


 irot  :   1
 --------------------------------------------------------------------
 isymop:   1   0   0
           0   1   0
           0   0   1

 gtrans:     0.0000000     0.0000000     0.0000000

 ptrans:     0.0000000     0.0000000     0.0000000
 rotmap:
 (   1->   1)  (   2->   2) 


 irot  :   2
 --------------------------------------------------------------------
 isymop:  -1   0   0
           0  -1   0
           0   0  -1

 gtrans:     0.0000000     0.0000000     0.0000000

 ptrans:     0.0000000     0.0000000     0.0000000
 rotmap:
 (   1->   2)  (   2->   1) 


 irot  :   3
 --------------------------------------------------------------------
 isymop:   0   0   1
           1   0   0
           0   1   0

 gtrans:     0.0000000     0.0000000     0.0000000

 ptrans:     0.0000000     0.0000000     0.0000000
 rotmap:
 (   1->   1)  (   2->   2) 


 irot  :   4
 --------------------------------------------------------------------
 isymop:   0   0  -1
          -1   0   0
           0  -1   0

 gtrans:     0.0000000     0.0000000     0.0000000

 ptrans:     0.0000000     0.0000000     0.0000000
 rotmap:
 (   1->   2)  (   2->   1) 


 irot  :   5
 --------------------------------------------------------------------
 isymop:   0   1   0
           0   0   1
           1   0   0

 gtrans:     0.0000000     0.0000000     0.0000000

 ptrans:     0.0000000     0.0000000     0.0000000
 rotmap:
 (   1->   1)  (   2->   2) 


 irot  :   6
 --------------------------------------------------------------------
 isymop:   0  -1   0
           0   0  -1
          -1   0   0

 gtrans:     0.0000000     0.0000000     0.0000000

 ptrans:     0.0000000     0.0000000     0.0000000
 rotmap:
 (   1->   2)  (   2->   1) 


 irot  :   7
 --------------------------------------------------------------------
 isymop:  -1   0   0
           0   0  -1
           0  -1   0

 gtrans:     0.0000000     0.0000000     0.0000000

 ptrans:     0.0000000     0.0000000     0.0000000
 rotmap:
 (   1->   2)  (   2->   1) 


 irot  :   8
 --------------------------------------------------------------------
 isymop:   1   0   0
           0   0   1
           0   1   0

 gtrans:     0.0000000     0.0000000     0.0000000

 ptrans:     0.0000000     0.0000000     0.0000000
 rotmap:
 (   1->   1)  (   2->   2) 


 irot  :   9
 --------------------------------------------------------------------
 isymop:   0  -1   0
          -1   0   0
           0   0  -1

 gtrans:     0.0000000     0.0000000     0.0000000

 ptrans:     0.0000000     0.0000000     0.0000000
 rotmap:
 (   1->   2)  (   2->   1) 


 irot  :  10
 --------------------------------------------------------------------
 isymop:   0   1   0
           1   0   0
           0   0   1

 gtrans:     0.0000000     0.0000000     0.0000000

 ptrans:     0.0000000     0.0000000     0.0000000
 rotmap:
 (   1->   1)  (   2->   2) 


 irot  :  11
 --------------------------------------------------------------------
 isymop:   0   0  -1
           0  -1   0
          -1   0   0

 gtrans:     0.0000000     0.0000000     0.0000000

 ptrans:     0.0000000     0.0000000     0.0000000
 rotmap:
 (   1->   2)  (   2->   1) 


 irot  :  12
 --------------------------------------------------------------------
 isymop:   0   0   1
           0   1   0
           1   0   0

 gtrans:     0.0000000     0.0000000     0.0000000

 ptrans:     0.0000000     0.0000000     0.0000000
 rotmap:
 (   1->   1)  (   2->   2) 


 irot  :  13
 --------------------------------------------------------------------
 isymop:   1   1   1
           0   0  -1
          -1   0   0

 gtrans:     0.5000000     0.0000000     0.0000000

 ptrans:     0.0000000     0.0000000     0.0000000
 rotmap:
 (   1->   2)  (   2->   1) 


 irot  :  14
 --------------------------------------------------------------------
 isymop:  -1  -1  -1
           0   0   1
           1   0   0

 gtrans:     0.5000000     0.0000000     0.0000000

 ptrans:     0.0000000     0.0000000     0.0000000
 rotmap:
 (   1->   1)  (   2->   2) 


 irot  :  15
 --------------------------------------------------------------------
 isymop:   1   1   1
           0  -1   0
           0   0  -1

 gtrans:     0.5000000     0.0000000     0.0000000

 ptrans:     0.0000000     0.0000000     0.0000000
 rotmap:
 (   1->   2)  (   2->   1) 


 irot  :  16
 --------------------------------------------------------------------
 isymop:  -1  -1  -1
           0   1   0
           0   0   1

 gtrans:     0.5000000     0.0000000     0.0000000

 ptrans:     0.0000000     0.0000000     0.0000000
 rotmap:
 (   1->   1)  (   2->   2) 


 irot  :  17
 --------------------------------------------------------------------
 isymop:   1   1   1
          -1   0   0
           0  -1   0

 gtrans:     0.5000000     0.0000000     0.0000000

 ptrans:     0.0000000     0.0000000     0.0000000
 rotmap:
 (   1->   2)  (   2->   1) 


 irot  :  18
 --------------------------------------------------------------------
 isymop:  -1  -1  -1
           1   0   0
           0   1   0

 gtrans:     0.5000000     0.0000000     0.0000000

 ptrans:     0.0000000     0.0000000     0.0000000
 rotmap:
 (   1->   1)  (   2->   2) 


 irot  :  19
 --------------------------------------------------------------------
 isymop:   0   1   0
           1   0   0
          -1  -1  -1

 gtrans:     0.0000000     0.0000000     0.5000000

 ptrans:     0.0000000     0.0000000     0.0000000
 rotmap:
 (   1->   1)  (   2->   2) 


 irot  :  20
 --------------------------------------------------------------------
 isymop:   0  -1   0
          -1   0   0
           1   1   1

 gtrans:     0.0000000     0.0000000     0.5000000

 ptrans:     0.0000000     0.0000000     0.0000000
 rotmap:
 (   1->   2)  (   2->   1) 


 irot  :  21
 --------------------------------------------------------------------
 isymop:   1   0   0
           0   0   1
          -1  -1  -1

 gtrans:     0.0000000     0.0000000     0.5000000

 ptrans:     0.0000000     0.0000000     0.0000000
 rotmap:
 (   1->   1)  (   2->   2) 


 irot  :  22
 --------------------------------------------------------------------
 isymop:  -1   0   0
           0   0  -1
           1   1   1

 gtrans:     0.0000000     0.0000000     0.5000000

 ptrans:     0.0000000     0.0000000     0.0000000
 rotmap:
 (   1->   2)  (   2->   1) 


 irot  :  23
 --------------------------------------------------------------------
 isymop:   0   0   1
           0   1   0
          -1  -1  -1

 gtrans:     0.0000000     0.0000000     0.5000000

 ptrans:     0.0000000     0.0000000     0.0000000
 rotmap:
 (   1->   1)  (   2->   2) 


 irot  :  24
 --------------------------------------------------------------------
 isymop:   0   0  -1
           0  -1   0
           1   1   1

 gtrans:     0.0000000     0.0000000     0.5000000

 ptrans:     0.0000000     0.0000000     0.0000000
 rotmap:
 (   1->   2)  (   2->   1) 


 irot  :  25
 --------------------------------------------------------------------
 isymop:   0   0  -1
           1   1   1
           0  -1   0

 gtrans:     0.0000000     0.5000000     0.0000000

 ptrans:     0.0000000     0.0000000     0.0000000
 rotmap:
 (   1->   2)  (   2->   1) 


 irot  :  26
 --------------------------------------------------------------------
 isymop:   0   0   1
          -1  -1  -1
           0   1   0

 gtrans:     0.0000000     0.5000000     0.0000000

 ptrans:     0.0000000     0.0000000     0.0000000
 rotmap:
 (   1->   1)  (   2->   2) 


 irot  :  27
 --------------------------------------------------------------------
 isymop:   0  -1   0
           1   1   1
          -1   0   0

 gtrans:     0.0000000     0.5000000     0.0000000

 ptrans:     0.0000000     0.0000000     0.0000000
 rotmap:
 (   1->   2)  (   2->   1) 


 irot  :  28
 --------------------------------------------------------------------
 isymop:   0   1   0
          -1  -1  -1
           1   0   0

 gtrans:     0.0000000     0.5000000     0.0000000

 ptrans:     0.0000000     0.0000000     0.0000000
 rotmap:
 (   1->   1)  (   2->   2) 


 irot  :  29
 --------------------------------------------------------------------
 isymop:  -1   0   0
           1   1   1
           0   0  -1

 gtrans:     0.0000000     0.5000000     0.0000000

 ptrans:     0.0000000     0.0000000     0.0000000
 rotmap:
 (   1->   2)  (   2->   1) 


 irot  :  30
 --------------------------------------------------------------------
 isymop:   1   0   0
          -1  -1  -1
           0   0   1

 gtrans:     0.0000000     0.5000000     0.0000000

 ptrans:     0.0000000     0.0000000     0.0000000
 rotmap:
 (   1->   1)  (   2->   2) 


 irot  :  31
 --------------------------------------------------------------------
 isymop:  -1  -1  -1
           0   1   0
           1   0   0

 gtrans:     0.5000000     0.0000000     0.0000000

 ptrans:     0.0000000     0.0000000     0.0000000
 rotmap:
 (   1->   1)  (   2->   2) 


 irot  :  32
 --------------------------------------------------------------------
 isymop:   1   1   1
           0  -1   0
          -1   0   0

 gtrans:     0.5000000     0.0000000     0.0000000

 ptrans:     0.0000000     0.0000000     0.0000000
 rotmap:
 (   1->   2)  (   2->   1) 


 irot  :  33
 --------------------------------------------------------------------
 isymop:  -1  -1  -1
           1   0   0
           0   0   1

 gtrans:     0.5000000     0.0000000     0.0000000

 ptrans:     0.0000000     0.0000000     0.0000000
 rotmap:
 (   1->   1)  (   2->   2) 


 irot  :  34
 --------------------------------------------------------------------
 isymop:   1   1   1
          -1   0   0
           0   0  -1

 gtrans:     0.5000000     0.0000000     0.0000000

 ptrans:     0.0000000     0.0000000     0.0000000
 rotmap:
 (   1->   2)  (   2->   1) 


 irot  :  35
 --------------------------------------------------------------------
 isymop:  -1  -1  -1
           0   0   1
           0   1   0

 gtrans:     0.5000000     0.0000000     0.0000000

 ptrans:     0.0000000     0.0000000     0.0000000
 rotmap:
 (   1->   1)  (   2->   2) 


 irot  :  36
 --------------------------------------------------------------------
 isymop:   1   1   1
           0   0  -1
           0  -1   0

 gtrans:     0.5000000     0.0000000     0.0000000

 ptrans:     0.0000000     0.0000000     0.0000000
 rotmap:
 (   1->   2)  (   2->   1) 


 irot  :  37
 --------------------------------------------------------------------
 isymop:   0  -1   0
           0   0  -1
           1   1   1

 gtrans:     0.0000000     0.0000000     0.5000000

 ptrans:     0.0000000     0.0000000     0.0000000
 rotmap:
 (   1->   2)  (   2->   1) 


 irot  :  38
 --------------------------------------------------------------------
 isymop:   0   1   0
           0   0   1
          -1  -1  -1

 gtrans:     0.0000000     0.0000000     0.5000000

 ptrans:     0.0000000     0.0000000     0.0000000
 rotmap:
 (   1->   1)  (   2->   2) 


 irot  :  39
 --------------------------------------------------------------------
 isymop:  -1   0   0
           0  -1   0
           1   1   1

 gtrans:     0.0000000     0.0000000     0.5000000

 ptrans:     0.0000000     0.0000000     0.0000000
 rotmap:
 (   1->   2)  (   2->   1) 


 irot  :  40
 --------------------------------------------------------------------
 isymop:   1   0   0
           0   1   0
          -1  -1  -1

 gtrans:     0.0000000     0.0000000     0.5000000

 ptrans:     0.0000000     0.0000000     0.0000000
 rotmap:
 (   1->   1)  (   2->   2) 


 irot  :  41
 --------------------------------------------------------------------
 isymop:   0   0  -1
          -1   0   0
           1   1   1

 gtrans:     0.0000000     0.0000000     0.5000000

 ptrans:     0.0000000     0.0000000     0.0000000
 rotmap:
 (   1->   2)  (   2->   1) 


 irot  :  42
 --------------------------------------------------------------------
 isymop:   0   0   1
           1   0   0
          -1  -1  -1

 gtrans:     0.0000000     0.0000000     0.5000000

 ptrans:     0.0000000     0.0000000     0.0000000
 rotmap:
 (   1->   1)  (   2->   2) 


 irot  :  43
 --------------------------------------------------------------------
 isymop:   1   0   0
          -1  -1  -1
           0   1   0

 gtrans:     0.0000000     0.5000000     0.0000000

 ptrans:     0.0000000     0.0000000     0.0000000
 rotmap:
 (   1->   1)  (   2->   2) 


 irot  :  44
 --------------------------------------------------------------------
 isymop:  -1   0   0
           1   1   1
           0  -1   0

 gtrans:     0.0000000     0.5000000     0.0000000

 ptrans:     0.0000000     0.0000000     0.0000000
 rotmap:
 (   1->   2)  (   2->   1) 


 irot  :  45
 --------------------------------------------------------------------
 isymop:   0   0   1
          -1  -1  -1
           1   0   0

 gtrans:     0.0000000     0.5000000     0.0000000

 ptrans:     0.0000000     0.0000000     0.0000000
 rotmap:
 (   1->   1)  (   2->   2) 


 irot  :  46
 --------------------------------------------------------------------
 isymop:   0   0  -1
           1   1   1
          -1   0   0

 gtrans:     0.0000000     0.5000000     0.0000000

 ptrans:     0.0000000     0.0000000     0.0000000
 rotmap:
 (   1->   2)  (   2->   1) 


 irot  :  47
 --------------------------------------------------------------------
 isymop:   0   1   0
          -1  -1  -1
           0   0   1

 gtrans:     0.0000000     0.5000000     0.0000000

 ptrans:     0.0000000     0.0000000     0.0000000
 rotmap:
 (   1->   1)  (   2->   2) 


 irot  :  48
 --------------------------------------------------------------------
 isymop:   0  -1   0
           1   1   1
           0   0  -1

 gtrans:     0.0000000     0.5000000     0.0000000

 ptrans:     0.0000000     0.0000000     0.0000000
 rotmap:
 (   1->   2)  (   2->   1) 
 
 
 KPOINTS: Automatic kpoint scheme                 

Automatic generation of k-mesh.
Space group operators:
 irot       det(A)        alpha          n_x          n_y          n_z        tau_x        tau_y        tau_z
    1     1.000000     0.000000     1.000000     0.000000     0.000000     0.000000     0.000000     0.000000
    2    -1.000000     0.000000     1.000000     0.000000     0.000000     0.000000     0.000000     0.000000
    3     1.000000   120.000000    -0.471405    -0.333333    -0.816497     0.000000     0.000000     0.000000
    4    -1.000000   120.000000    -0.471405    -0.333333    -0.816497     0.000000     0.000000     0.000000
    5     1.000000   120.000000     0.471405     0.333334     0.816496     0.000000     0.000000     0.000000
    6    -1.000000   120.000000     0.471405     0.333334     0.816496     0.000000     0.000000     0.000000
    7     1.000000   180.000000     0.288675     0.816497    -0.500000     0.000000     0.000000     0.000000
    8    -1.000000   180.000000     0.288675     0.816497    -0.500000     0.000000     0.000000     0.000000
    9     1.000000   180.000000     0.577350    -0.816497     0.000000     0.000000     0.000000     0.000000
   10    -1.000000   180.000000     0.577350    -0.816497     0.000000     0.000000     0.000000     0.000000
   11     1.000000   180.000000     0.866025     0.000000    -0.500000     0.000000     0.000000     0.000000
   12    -1.000000   180.000000     0.866025     0.000000    -0.500000     0.000000     0.000000     0.000000
   13     1.000000    90.000000    -0.816496    -0.577350     0.000000     0.500000     0.000000     0.000000
   14    -1.000000    90.000000    -0.816496    -0.577350     0.000000     0.500000     0.000000     0.000000
   15     1.000000   180.000000     0.866025     0.000000     0.500000     0.500000     0.000000     0.000000
   16    -1.000000   180.000000     0.866025     0.000000     0.500000     0.500000     0.000000     0.000000
   17     1.000000    90.000000     0.408248    -0.577350     0.707107     0.500000     0.000000     0.000000
   18    -1.000000    90.000000     0.408248    -0.577350     0.707107     0.500000     0.000000     0.000000
   19     1.000000   180.000000     0.816497     0.577350     0.000000     0.000000     0.000000     0.500000
   20    -1.000000   180.000000     0.816497     0.577350     0.000000     0.000000     0.000000     0.500000
   21     1.000000   120.000000     0.942809    -0.333333     0.000000     0.000000     0.000000     0.500000
   22    -1.000000   120.000000     0.942809    -0.333333     0.000000     0.000000     0.000000     0.500000
   23     1.000000   120.000000     0.000000    -1.000000     0.000000     0.000000     0.000000     0.500000
   24    -1.000000   120.000000     0.000000    -1.000000     0.000000     0.000000     0.000000     0.500000
   25     1.000000    90.000000     0.816497     0.577350     0.000000     0.000000     0.500000     0.000000
   26    -1.000000    90.000000     0.816497     0.577350     0.000000     0.000000     0.500000     0.000000
   27     1.000000    90.000000     0.408248    -0.577350    -0.707107     0.000000     0.500000     0.000000
   28    -1.000000    90.000000     0.408248    -0.577350    -0.707107     0.000000     0.500000     0.000000
   29     1.000000   180.000000     0.288675     0.816497     0.500000     0.000000     0.500000     0.000000
   30    -1.000000   180.000000     0.288675     0.816497     0.500000     0.000000     0.500000     0.000000
   31     1.000000   120.000000     0.000000     1.000000     0.000000     0.500000     0.000000     0.000000
   32    -1.000000   120.000000     0.000000     1.000000     0.000000     0.500000     0.000000     0.000000
   33     1.000000   120.000000     0.471404     0.333333    -0.816497     0.500000     0.000000     0.000000
   34    -1.000000   120.000000     0.471404     0.333333    -0.816497     0.500000     0.000000     0.000000
   35     1.000000   180.000000    -0.408248     0.577350     0.707107     0.500000     0.000000     0.000000
   36    -1.000000   180.000000    -0.408248     0.577350     0.707107     0.500000     0.000000     0.000000
   37     1.000000    90.000000    -0.408248     0.577350    -0.707107     0.000000     0.000000     0.500000
   38    -1.000000    90.000000    -0.408248     0.577350    -0.707107     0.000000     0.000000     0.500000
   39     1.000000   180.000000     0.000000     0.000000     1.000000     0.000000     0.000000     0.500000
   40    -1.000000   180.000000     0.000000     0.000000     1.000000     0.000000     0.000000     0.500000
   41     1.000000    90.000000    -0.408248     0.577350     0.707107     0.000000     0.000000     0.500000
   42    -1.000000    90.000000    -0.408248     0.577350     0.707107     0.000000     0.000000     0.500000
   43     1.000000   120.000000    -0.942809     0.333333     0.000000     0.000000     0.500000     0.000000
   44    -1.000000   120.000000    -0.942809     0.333333     0.000000     0.000000     0.500000     0.000000
   45     1.000000   179.999999    -0.408248     0.577350    -0.707107     0.000000     0.500000     0.000000
   46    -1.000000   179.999999    -0.408248     0.577350    -0.707107     0.000000     0.500000     0.000000
   47     1.000000   120.000000    -0.471404    -0.333333     0.816497     0.000000     0.500000     0.000000
   48    -1.000000   120.000000    -0.471404    -0.333333     0.816497     0.000000     0.500000     0.000000
 
 Subroutine IBZKPT returns following result:
 ===========================================
 
 Found    104 irreducible k-points:
 
 Following reciprocal coordinates:
            Coordinates               Weight
  0.000000  0.000000  0.000000      1.000000
  0.071429  0.000000  0.000000      8.000000
  0.142857  0.000000  0.000000      8.000000
  0.214286  0.000000  0.000000      8.000000
  0.285714  0.000000  0.000000      8.000000
  0.357143  0.000000  0.000000      8.000000
  0.428571  0.000000  0.000000      8.000000
  0.500000  0.000000  0.000000      4.000000
  0.071429  0.071429  0.000000      6.000000
  0.142857  0.071429  0.000000     24.000000
  0.214286  0.071429  0.000000     24.000000
  0.285714  0.071429  0.000000     24.000000
  0.357143  0.071429  0.000000     24.000000
  0.428571  0.071429  0.000000     24.000000
  0.500000  0.071429  0.000000     24.000000
 -0.428571  0.071429  0.000000     24.000000
 -0.357143  0.071429  0.000000     24.000000
 -0.285714  0.071429  0.000000     24.000000
 -0.214286  0.071429  0.000000     24.000000
 -0.142857  0.071429  0.000000     24.000000
 -0.071429  0.071429  0.000000     12.000000
  0.142857  0.142857  0.000000      6.000000
  0.214286  0.142857  0.000000     24.000000
  0.285714  0.142857  0.000000     24.000000
  0.357143  0.142857  0.000000     24.000000
  0.428571  0.142857  0.000000     24.000000
  0.500000  0.142857  0.000000     24.000000
 -0.428571  0.142857  0.000000     24.000000
 -0.357143  0.142857  0.000000     24.000000
 -0.285714  0.142857  0.000000     24.000000
 -0.214286  0.142857  0.000000     24.000000
 -0.142857  0.142857  0.000000     12.000000
  0.214286  0.214286  0.000000      6.000000
  0.285714  0.214286  0.000000     24.000000
  0.357143  0.214286  0.000000     24.000000
  0.428571  0.214286  0.000000     24.000000
  0.500000  0.214286  0.000000     24.000000
 -0.428571  0.214286  0.000000     24.000000
 -0.357143  0.214286  0.000000     24.000000
 -0.285714  0.214286  0.000000     24.000000
 -0.214286  0.214286  0.000000     12.000000
  0.285714  0.285714  0.000000      6.000000
  0.357143  0.285714  0.000000     24.000000
  0.428571  0.285714  0.000000     24.000000
  0.500000  0.285714  0.000000     24.000000
 -0.428571  0.285714  0.000000     24.000000
 -0.357143  0.285714  0.000000     24.000000
 -0.285714  0.285714  0.000000     12.000000
  0.357143  0.357143  0.000000      6.000000
  0.428571  0.357143  0.000000     24.000000
  0.500000  0.357143  0.000000     24.000000
 -0.428571  0.357143  0.000000     24.000000
 -0.357143  0.357143  0.000000     12.000000
  0.428571  0.428571  0.000000      6.000000
  0.500000  0.428571  0.000000     24.000000
 -0.428571  0.428571  0.000000     12.000000
  0.500000  0.500000  0.000000      3.000000
  0.214286  0.142857  0.071429     24.000000
  0.285714  0.142857  0.071429     48.000000
  0.357143  0.142857  0.071429     48.000000
  0.428571  0.142857  0.071429     48.000000
  0.500000  0.142857  0.071429     48.000000
 -0.428571  0.142857  0.071429     24.000000
  0.285714  0.214286  0.071429     24.000000
  0.357143  0.214286  0.071429     48.000000
  0.428571  0.214286  0.071429     48.000000
  0.500000  0.214286  0.071429     48.000000
 -0.428571  0.214286  0.071429     48.000000
 -0.357143  0.214286  0.071429     48.000000
 -0.285714  0.214286  0.071429     48.000000
 -0.214286  0.214286  0.071429     48.000000
 -0.142857  0.214286  0.071429     24.000000
  0.357143  0.285714  0.071429     24.000000
  0.428571  0.285714  0.071429     48.000000
  0.500000  0.285714  0.071429     48.000000
 -0.428571  0.285714  0.071429     48.000000
 -0.357143  0.285714  0.071429     48.000000
 -0.285714  0.285714  0.071429     48.000000
 -0.214286  0.285714  0.071429     24.000000
  0.428571  0.357143  0.071429     24.000000
  0.500000  0.357143  0.071429     48.000000
 -0.428571  0.357143  0.071429     48.000000
 -0.357143  0.357143  0.071429     48.000000
 -0.285714  0.357143  0.071429     24.000000
  0.500000  0.428571  0.071429     24.000000
 -0.428571  0.428571  0.071429     48.000000
 -0.357143  0.428571  0.071429     24.000000
 -0.428571  0.500000  0.071429     12.000000
  0.428571  0.285714  0.142857     24.000000
  0.500000  0.285714  0.142857     48.000000
 -0.428571  0.285714  0.142857     48.000000
 -0.357143  0.285714  0.142857     24.000000
  0.500000  0.357143  0.142857     24.000000
 -0.428571  0.357143  0.142857     48.000000
 -0.357143  0.357143  0.142857     48.000000
 -0.285714  0.357143  0.142857     48.000000
 -0.214286  0.357143  0.142857     24.000000
 -0.428571  0.428571  0.142857     24.000000
 -0.357143  0.428571  0.142857     48.000000
 -0.285714  0.428571  0.142857     24.000000
 -0.357143  0.500000  0.142857     12.000000
 -0.357143  0.428571  0.214286     24.000000
 -0.285714  0.428571  0.214286     24.000000
 -0.285714  0.500000  0.214286     12.000000
 
 Following cartesian coordinates:
            Coordinates               Weight
  0.000000  0.000000  0.000000      1.000000
  0.021329 -0.007541  0.000000      8.000000
  0.042658 -0.015082  0.000000      8.000000
  0.063987 -0.022623  0.000000      8.000000
  0.085316 -0.030164  0.000000      8.000000
  0.106645 -0.037705  0.000000      8.000000
  0.127974 -0.045246  0.000000      8.000000
  0.149303 -0.052786  0.000000      4.000000
  0.021329  0.015082  0.000000      6.000000
  0.042658  0.007541  0.000000     24.000000
  0.063987  0.000000  0.000000     24.000000
  0.085316 -0.007541  0.000000     24.000000
  0.106645 -0.015082  0.000000     24.000000
  0.127974 -0.022623  0.000000     24.000000
  0.149303 -0.030164  0.000000     24.000000
 -0.127974  0.067868  0.000000     24.000000
 -0.106645  0.060327  0.000000     24.000000
 -0.085316  0.052787  0.000000     24.000000
 -0.063987  0.045246  0.000000     24.000000
 -0.042658  0.037705  0.000000     24.000000
 -0.021329  0.030164  0.000000     12.000000
  0.042658  0.030164  0.000000      6.000000
  0.063987  0.022623  0.000000     24.000000
  0.085316  0.015082  0.000000     24.000000
  0.106645  0.007541  0.000000     24.000000
  0.127974  0.000000  0.000000     24.000000
  0.149303 -0.007541  0.000000     24.000000
 -0.127974  0.090491  0.000000     24.000000
 -0.106645  0.082950  0.000000     24.000000
 -0.085316  0.075409  0.000000     24.000000
 -0.063987  0.067868  0.000000     24.000000
 -0.042658  0.060327  0.000000     12.000000
  0.063987  0.045246  0.000000      6.000000
  0.085316  0.037705  0.000000     24.000000
  0.106645  0.030164  0.000000     24.000000
  0.127974  0.022623  0.000000     24.000000
  0.149303  0.015082  0.000000     24.000000
 -0.127974  0.113114  0.000000     24.000000
 -0.106645  0.105573  0.000000     24.000000
 -0.085316  0.098032  0.000000     24.000000
 -0.063987  0.090491  0.000000     12.000000
  0.085316  0.060327  0.000000      6.000000
  0.106645  0.052787  0.000000     24.000000
  0.127974  0.045246  0.000000     24.000000
  0.149303  0.037705  0.000000     24.000000
 -0.127974  0.135737  0.000000     24.000000
 -0.106645  0.128196  0.000000     24.000000
 -0.085316  0.120655  0.000000     12.000000
  0.106645  0.075409  0.000000      6.000000
  0.127974  0.067868  0.000000     24.000000
  0.149303  0.060327  0.000000     24.000000
 -0.127974  0.158360  0.000000     24.000000
 -0.106645  0.150819  0.000000     12.000000
  0.127974  0.090491  0.000000      6.000000
  0.149303  0.082950  0.000000     24.000000
 -0.127974  0.180982  0.000000     12.000000
  0.149303  0.105573  0.000000      3.000000
  0.053322  0.015082  0.018471     24.000000
  0.074651  0.007541  0.018471     48.000000
  0.095980  0.000000  0.018471     48.000000
  0.117309 -0.007541  0.018471     48.000000
  0.138638 -0.015082  0.018471     48.000000
 -0.138638  0.082950  0.018471     24.000000
  0.074651  0.030164  0.018471     24.000000
  0.095980  0.022623  0.018471     48.000000
  0.117309  0.015082  0.018471     48.000000
  0.138638  0.007541  0.018471     48.000000
 -0.138638  0.105573  0.018471     48.000000
 -0.117309  0.098032  0.018471     48.000000
 -0.095980  0.090491  0.018471     48.000000
 -0.074651  0.082950  0.018471     48.000000
 -0.053322  0.075409  0.018471     24.000000
  0.095980  0.045246  0.018471     24.000000
  0.117309  0.037705  0.018471     48.000000
  0.138638  0.030164  0.018471     48.000000
 -0.138638  0.128196  0.018471     48.000000
 -0.117309  0.120655  0.018471     48.000000
 -0.095980  0.113114  0.018471     48.000000
 -0.074651  0.105573  0.018471     24.000000
  0.117309  0.060327  0.018471     24.000000
  0.138638  0.052787  0.018471     48.000000
 -0.138638  0.150819  0.018471     48.000000
 -0.117309  0.143278  0.018471     48.000000
 -0.095980  0.135737  0.018471     24.000000
  0.138638  0.075409  0.018471     24.000000
 -0.138638  0.173441  0.018471     48.000000
 -0.117309  0.165900  0.018471     24.000000
 -0.138638  0.196064  0.018471     12.000000
  0.106645  0.030164  0.036943     24.000000
  0.127974  0.022623  0.036943     48.000000
 -0.149303  0.120655  0.036943     48.000000
 -0.127974  0.113114  0.036943     24.000000
  0.127974  0.045246  0.036943     24.000000
 -0.149303  0.143278  0.036943     48.000000
 -0.127974  0.135737  0.036943     48.000000
 -0.106645  0.128196  0.036943     48.000000
 -0.085316  0.120655  0.036943     24.000000
 -0.149303  0.165900  0.036943     24.000000
 -0.127974  0.158360  0.036943     48.000000
 -0.106645  0.150819  0.036943     24.000000
 -0.127974  0.180982  0.036943     12.000000
 -0.138638  0.150819  0.055414     24.000000
 -0.117309  0.143278  0.055414     24.000000
 -0.117309  0.165900  0.055414     12.000000
 


--------------------------------------------------------------------------------------------------------




 Dimension of arrays:
   k-points           NKPTS =    104   k-points in BZ     NKDIM =    104   number of bands    NBANDS=      8
   number of dos      NEDOS =    301   number of ions     NIONS =      2
   non local maximal  LDIM  =      4   non local SUM 2l+1 LMDIM =      8
   total plane-waves  NPLWV =  27000
   max r-space proj   IRMAX =      1   max aug-charges    IRDMAX=  22275
   dimension x,y,z NGX =    30 NGY =   30 NGZ =   30
   dimension x,y,z NGXF=    60 NGYF=   60 NGZF=   60
   support grid    NGXF=    60 NGYF=   60 NGZF=   60
   ions per type =               2
 NGX,Y,Z   is equivalent  to a cutoff of  12.90, 12.90, 12.90 a.u.
 NGXF,Y,Z  is equivalent  to a cutoff of  25.79, 25.79, 25.79 a.u.


 I would recommend the setting:
   dimension x,y,z NGX =    30 NGY =   30 NGZ =   30
 SYSTEM =  unknown system                          
 POSCAR =  bulk@mp_149                             

 Startparameter for this run:
   NWRITE =      2    write-flag & timer
   PREC   = accura    normal or accurate (medium, high low for compatibility)
   ISTART =      0    job   : 0-new  1-cont  2-samecut
   ICHARG =      2    charge: 1-file 2-atom 10-const
   ISPIN  =      1    spin polarized calculation?
   LNONCOLLINEAR =      F non collinear calculations
   LSORBIT =      F    spin-orbit coupling
   INIWAV =      1    electr: 0-lowe 1-rand  2-diag
   LASPH  =      F    aspherical Exc in radial PAW
   METAGGA=      F    non-selfconsistent MetaGGA calc.

 Electronic Relaxation 1
   ENCUT  =  550.0 eV  40.42 Ry    6.36 a.u.   7.39  7.39  7.39*2*pi/ulx,y,z
   ENINI  =  550.0     initial cutoff
   ENAUG  =  322.1 eV  augmentation charge cutoff
   NELM   =    400;   NELMIN=  2; NELMDL= -5     # of ELM steps 
   EDIFF  = 0.1E-06   stopping-criterion for ELM
   LREAL  =      F    real-space projection
   NLSPLINE    = F    spline interpolate recip. space projectors
   LCOMPAT=      F    compatible to vasp.4.4
   GGA_COMPAT  = T    GGA compatible to vasp.4.4-vasp.4.6
   LMAXPAW     = -100 max onsite density
   LMAXMIX     =    2 max onsite mixed and CHGCAR
   VOSKOWN=      0    Vosko Wilk Nusair interpolation
   ROPT   =    0.00000
 Ionic relaxation
   EDIFFG = 0.1E-05   stopping-criterion for IOM
   NSW    =      1    number of steps for IOM
   NBLOCK =      1;   KBLOCK =      1    inner block; outer block 
   IBRION =      2    ionic relax: 0-MD 1-quasi-New 2-CG
   NFREE  =      1    steps in history (QN), initial steepest desc. (CG)
   ISIF   =      2    stress and relaxation
   IWAVPR =     11    prediction:  0-non 1-charg 2-wave 3-comb
   ISYM   =      2    0-nonsym 1-usesym 2-fastsym
   LCORR  =      T    Harris-Foulkes like correction to forces

   POTIM  = 0.5000    time-step for ionic-motion
   TEIN   =    0.0    initial temperature
   TEBEG  =    0.0;   TEEND  =   0.0 temperature during run
   SMASS  =  -3.00    Nose mass-parameter (am)
   estimated Nose-frequenzy (Omega)   =  0.10E-29 period in steps =****** mass=  -0.342E-27a.u.
   SCALEE = 1.0000    scale energy and forces
   NPACO  =    256;   APACO  = 16.0  distance and # of slots for P.C.
   PSTRESS=    0.0 pullay stress

  Mass of Ions in am
   POMASS =  28.09
  Ionic Valenz
   ZVAL   =   4.00
  Atomic Wigner-Seitz radii
   RWIGS  =  -1.00
  virtual crystal weights 
   VCA    =   1.00
   NELECT =       8.0000    total number of electrons
   NUPDOWN=      -1.0000    fix difference up-down

 DOS related values:
   EMIN   =  10.00;   EMAX   =-10.00  energy-range for DOS
   EFERMI =   0.00
   ISMEAR =     0;   SIGMA  =   0.20  broadening in eV -4-tet -1-fermi 0-gaus

 Electronic relaxation 2 (details)
   IALGO  =     38    algorithm
   LDIAG  =      T    sub-space diagonalisation (order eigenvalues)
   LSUBROT=      T    optimize rotation matrix (better conditioning)
   TURBO    =      0    0=normal 1=particle mesh
   IRESTART =      0    0=no restart 2=restart with 2 vectors
   NREBOOT  =      0    no. of reboots
   NMIN     =      0    reboot dimension
   EREF     =   0.00    reference energy to select bands
   IMIX   =      4    mixing-type and parameters
     AMIX     =   0.40;   BMIX     =  1.00
     AMIX_MAG =   1.60;   BMIX_MAG =  1.00
     AMIN     =   0.10
     WC   =   100.;   INIMIX=   1;  MIXPRE=   1;  MAXMIX= -45

 Intra band minimization:
   WEIMIN = 0.0010     energy-eigenvalue tresh-hold
   EBREAK =  0.31E-08  absolut break condition
   DEPER  =   0.30     relativ break condition  

   TIME   =   0.40     timestep for ELM

  volume/ion in A,a.u.               =      20.44       137.96
  Fermi-wavevector in a.u.,A,eV,Ry     =   0.950397  1.795990 12.289528  0.903255
  Thomas-Fermi vector in A             =   2.078770
 
 Write flags
   LWAVE  =      F    write WAVECAR
   LCHARG =      F    write CHGCAR
   LVTOT  =      F    write LOCPOT, total local potential
   LVHAR  =      F    write LOCPOT, Hartree potential only
   LELF   =      F    write electronic localiz. function (ELF)
   LORBIT =      0    0 simple, 1 ext, 2 COOP (PROOUT)


 Dipole corrections
   LMONO  =      F    monopole corrections only (constant potential shift)
   LDIPOL =      F    correct potential (dipole corrections)
   IDIPOL =      0    1-x, 2-y, 3-z, 4-all directions 
   EPSILON=  1.0000000 bulk dielectric constant

 Exchange correlation treatment:
   GGA     =    BO    GGA type
   LEXCH   =    42    internal setting for exchange type
   VOSKOWN=      0    Vosko Wilk Nusair interpolation
   LHFCALC =     F    Hartree Fock is set to
   LHFONE  =     F    Hartree Fock one center treatment
   AEXX    =    0.0000 exact exchange contribution

 vdW DFT:
   LUSE_VDW   =     T    switch on vdW DFT
   Zab_VDW    =-.8491    correlation parameter
   PARAM1     =0.1833
   PARAM2     =0.2200
   PARAM3     =0.0000

 Linear response parameters
   LEPSILON=     F    determine dielectric tensor
   LRPA    =     F    only Hartree local field effects (RPA)
   LNABLA  =     F    use nabla operator in PAW spheres
   LVEL    =     F    velocity operator in full k-point grid
   LINTERFAST=   F  fast interpolation
   KINTER  =     0    interpolate to denser k-point grid
   CSHIFT  =0.1000    complex shift for real part using Kramers Kronig
   OMEGAMAX=  -1.0    maximum frequency
   DEG_THRESHOLD= 0.2000000E-02 threshold for treating states as degnerate
   RTIME   =    0.100 relaxation time in fs

 Orbital magnetization related:
   ORBITALMAG=     F  switch on orbital magnetization
   LCHIMAG   =     F  perturbation theory with respect to B field
   DQ        =  0.001000  dq finite difference perturbation B field



--------------------------------------------------------------------------------------------------------


 conjugate gradient relaxation of ions
 charge density and potential will be updated during run
 non-spin polarized calculation
 Variant of blocked Davidson
 Davidson routine will perform the subspace rotation
 perform sub-space diagonalisation
    after iterative eigenvector-optimisation
 modified Broyden-mixing scheme, WC =      100.0
 initial mixing is a Kerker type mixing with AMIX =  0.4000 and BMIX =      1.0000
 Hartree-type preconditioning will be used
 using additional bands            4
 reciprocal scheme for non local part
 use partial core corrections
 calculate Harris-corrections to forces 
   (improved forces if not selfconsistent)
 use gradient corrections 
 use of overlap-Matrix (Vanderbilt PP)
 Gauss-broadening in eV      SIGMA  =   0.20


--------------------------------------------------------------------------------------------------------


  energy-cutoff  :      550.00
  volume of cell :       40.89
      direct lattice vectors                 reciprocal lattice vectors
     3.348898000  0.000000000  1.933487000     0.298605691 -0.105573000  0.000000000
     1.116299000  3.157372000  1.933487000     0.000000000  0.316719094  0.000000000
     0.000000000  0.000000000  3.866975000    -0.149302807 -0.105573020  0.258600069

  length of vectors
     3.866974243  3.866974707  3.866975000     0.316719145  0.316719094  0.316719096


 
 k-points in units of 2pi/SCALE and weight: Automatic kpoint scheme                 
   0.00000000  0.00000000  0.00000000       0.000
   0.02132898 -0.00754093  0.00000000       0.003
   0.04265796 -0.01508186  0.00000000       0.003
   0.06398693 -0.02262279  0.00000000       0.003
   0.08531591 -0.03016371  0.00000000       0.003
   0.10664489 -0.03770464  0.00000000       0.003
   0.12797387 -0.04524557  0.00000000       0.003
   0.14930285 -0.05278650  0.00000000       0.001
   0.02132898  0.01508186  0.00000000       0.002
   0.04265796  0.00754094  0.00000000       0.009
   0.06398693  0.00000001  0.00000000       0.009
   0.08531591 -0.00754092  0.00000000       0.009
   0.10664489 -0.01508185  0.00000000       0.009
   0.12797387 -0.02262278  0.00000000       0.009
   0.14930285 -0.03016371  0.00000000       0.009
  -0.12797387  0.06786836  0.00000000       0.009
  -0.10664489  0.06032744  0.00000000       0.009
  -0.08531591  0.05278651  0.00000000       0.009
  -0.06398693  0.04524558  0.00000000       0.009
  -0.04265796  0.03770465  0.00000000       0.009
  -0.02132898  0.03016372  0.00000000       0.004
   0.04265796  0.03016373  0.00000000       0.002
   0.06398693  0.02262280  0.00000000       0.009
   0.08531591  0.01508187  0.00000000       0.009
   0.10664489  0.00754094  0.00000000       0.009
   0.12797387  0.00000001  0.00000000       0.009
   0.14930285 -0.00754092  0.00000000       0.009
  -0.12797387  0.09049116  0.00000000       0.009
  -0.10664489  0.08295023  0.00000000       0.009
  -0.08531591  0.07540930  0.00000000       0.009
  -0.06398693  0.06786837  0.00000000       0.009
  -0.04265796  0.06032744  0.00000000       0.004
   0.06398693  0.04524559  0.00000000       0.002
   0.08531591  0.03770466  0.00000000       0.009
   0.10664489  0.03016373  0.00000000       0.009
   0.12797387  0.02262281  0.00000000       0.009
   0.14930285  0.01508188  0.00000000       0.009
  -0.12797387  0.11311395  0.00000000       0.009
  -0.10664489  0.10557302  0.00000000       0.009
  -0.08531591  0.09803209  0.00000000       0.009
  -0.06398693  0.09049116  0.00000000       0.004
   0.08531591  0.06032746  0.00000000       0.002
   0.10664489  0.05278653  0.00000000       0.009
   0.12797387  0.04524560  0.00000000       0.009
   0.14930285  0.03770467  0.00000000       0.009
  -0.12797387  0.13573674  0.00000000       0.009
  -0.10664489  0.12819581  0.00000000       0.009
  -0.08531591  0.12065488  0.00000000       0.004
   0.10664489  0.07540932  0.00000000       0.002
   0.12797387  0.06786839  0.00000000       0.009
   0.14930285  0.06032746  0.00000000       0.009
  -0.12797387  0.15835953  0.00000000       0.009
  -0.10664489  0.15081861  0.00000000       0.004
   0.12797387  0.09049118  0.00000000       0.002
   0.14930285  0.08295025  0.00000000       0.009
  -0.12797387  0.18098233  0.00000000       0.004
   0.14930285  0.10557305  0.00000000       0.001
   0.05332245  0.01508187  0.01847143       0.009
   0.07465143  0.00754094  0.01847143       0.017
   0.09598040  0.00000001  0.01847143       0.017
   0.11730938 -0.00754092  0.01847143       0.017
   0.13863836 -0.01508185  0.01847143       0.017
  -0.13863835  0.08295023  0.01847143       0.009
   0.07465143  0.03016373  0.01847143       0.009
   0.09598040  0.02262280  0.01847143       0.017
   0.11730938  0.01508188  0.01847143       0.017
   0.13863836  0.00754095  0.01847143       0.017
  -0.13863835  0.10557302  0.01847143       0.017
  -0.11730938  0.09803209  0.01847143       0.017
  -0.09598040  0.09049116  0.01847143       0.017
  -0.07465142  0.08295023  0.01847143       0.017
  -0.05332244  0.07540930  0.01847143       0.009
   0.09598040  0.04524560  0.01847143       0.009
   0.11730938  0.03770467  0.01847143       0.017
   0.13863836  0.03016374  0.01847143       0.017
  -0.13863835  0.12819581  0.01847143       0.017
  -0.11730938  0.12065488  0.01847143       0.017
  -0.09598040  0.11311395  0.01847143       0.017
  -0.07465142  0.10557303  0.01847143       0.009
   0.11730938  0.06032746  0.01847143       0.009
   0.13863836  0.05278653  0.01847143       0.017
  -0.13863835  0.15081860  0.01847143       0.017
  -0.11730938  0.14327768  0.01847143       0.017
  -0.09598040  0.13573675  0.01847143       0.009
   0.13863836  0.07540932  0.01847143       0.009
  -0.13863835  0.17344140  0.01847143       0.017
  -0.11730938  0.16590047  0.01847143       0.009
  -0.13863835  0.19606419  0.01847143       0.004
   0.10664490  0.03016374  0.03694287       0.009
   0.12797387  0.02262281  0.03694287       0.017
  -0.14930284  0.12065488  0.03694287       0.017
  -0.12797386  0.11311395  0.03694287       0.009
   0.12797387  0.04524560  0.03694287       0.009
  -0.14930284  0.14327767  0.03694287       0.017
  -0.12797386  0.13573675  0.03694287       0.017
  -0.10664488  0.12819582  0.03694287       0.017
  -0.08531591  0.12065489  0.03694287       0.009
  -0.14930284  0.16590047  0.03694287       0.009
  -0.12797386  0.15835954  0.03694287       0.017
  -0.10664488  0.15081861  0.03694287       0.009
  -0.12797386  0.18098233  0.03694287       0.004
  -0.13863835  0.15081861  0.05541430       0.009
  -0.11730937  0.14327768  0.05541430       0.009
  -0.11730937  0.16590047  0.05541430       0.004
 
 k-points in reciprocal lattice and weights: Automatic kpoint scheme                 
   0.00000000  0.00000000  0.00000000       0.000
   0.07142857  0.00000000  0.00000000       0.003
   0.14285714  0.00000000  0.00000000       0.003
   0.21428571  0.00000000  0.00000000       0.003
   0.28571429  0.00000000  0.00000000       0.003
   0.35714286  0.00000000  0.00000000       0.003
   0.42857143  0.00000000  0.00000000       0.003
   0.50000000  0.00000000  0.00000000       0.001
   0.07142857  0.07142857  0.00000000       0.002
   0.14285714  0.07142857  0.00000000       0.009
   0.21428571  0.07142857  0.00000000       0.009
   0.28571429  0.07142857  0.00000000       0.009
   0.35714286  0.07142857  0.00000000       0.009
   0.42857143  0.07142857  0.00000000       0.009
   0.50000000  0.07142857  0.00000000       0.009
  -0.42857143  0.07142857  0.00000000       0.009
  -0.35714286  0.07142857  0.00000000       0.009
  -0.28571429  0.07142857  0.00000000       0.009
  -0.21428571  0.07142857  0.00000000       0.009
  -0.14285714  0.07142857  0.00000000       0.009
  -0.07142857  0.07142857  0.00000000       0.004
   0.14285714  0.14285714  0.00000000       0.002
   0.21428571  0.14285714  0.00000000       0.009
   0.28571429  0.14285714  0.00000000       0.009
   0.35714286  0.14285714  0.00000000       0.009
   0.42857143  0.14285714  0.00000000       0.009
   0.50000000  0.14285714  0.00000000       0.009
  -0.42857143  0.14285714  0.00000000       0.009
  -0.35714286  0.14285714  0.00000000       0.009
  -0.28571429  0.14285714  0.00000000       0.009
  -0.21428571  0.14285714  0.00000000       0.009
  -0.14285714  0.14285714  0.00000000       0.004
   0.21428571  0.21428571  0.00000000       0.002
   0.28571429  0.21428571  0.00000000       0.009
   0.35714286  0.21428571  0.00000000       0.009
   0.42857143  0.21428571  0.00000000       0.009
   0.50000000  0.21428571  0.00000000       0.009
  -0.42857143  0.21428571  0.00000000       0.009
  -0.35714286  0.21428571  0.00000000       0.009
  -0.28571429  0.21428571  0.00000000       0.009
  -0.21428571  0.21428571  0.00000000       0.004
   0.28571429  0.28571429  0.00000000       0.002
   0.35714286  0.28571429  0.00000000       0.009
   0.42857143  0.28571429  0.00000000       0.009
   0.50000000  0.28571429  0.00000000       0.009
  -0.42857143  0.28571429  0.00000000       0.009
  -0.35714286  0.28571429  0.00000000       0.009
  -0.28571429  0.28571429  0.00000000       0.004
   0.35714286  0.35714286  0.00000000       0.002
   0.42857143  0.35714286  0.00000000       0.009
   0.50000000  0.35714286  0.00000000       0.009
  -0.42857143  0.35714286  0.00000000       0.009
  -0.35714286  0.35714286  0.00000000       0.004
   0.42857143  0.42857143  0.00000000       0.002
   0.50000000  0.42857143  0.00000000       0.009
  -0.42857143  0.42857143  0.00000000       0.004
   0.50000000  0.50000000  0.00000000       0.001
   0.21428571  0.14285714  0.07142857       0.009
   0.28571429  0.14285714  0.07142857       0.017
   0.35714286  0.14285714  0.07142857       0.017
   0.42857143  0.14285714  0.07142857       0.017
   0.50000000  0.14285714  0.07142857       0.017
  -0.42857143  0.14285714  0.07142857       0.009
   0.28571429  0.21428571  0.07142857       0.009
   0.35714286  0.21428571  0.07142857       0.017
   0.42857143  0.21428571  0.07142857       0.017
   0.50000000  0.21428571  0.07142857       0.017
  -0.42857143  0.21428571  0.07142857       0.017
  -0.35714286  0.21428571  0.07142857       0.017
  -0.28571429  0.21428571  0.07142857       0.017
  -0.21428571  0.21428571  0.07142857       0.017
  -0.14285714  0.21428571  0.07142857       0.009
   0.35714286  0.28571429  0.07142857       0.009
   0.42857143  0.28571429  0.07142857       0.017
   0.50000000  0.28571429  0.07142857       0.017
  -0.42857143  0.28571429  0.07142857       0.017
  -0.35714286  0.28571429  0.07142857       0.017
  -0.28571429  0.28571429  0.07142857       0.017
  -0.21428571  0.28571429  0.07142857       0.009
   0.42857143  0.35714286  0.07142857       0.009
   0.50000000  0.35714286  0.07142857       0.017
  -0.42857143  0.35714286  0.07142857       0.017
  -0.35714286  0.35714286  0.07142857       0.017
  -0.28571429  0.35714286  0.07142857       0.009
   0.50000000  0.42857143  0.07142857       0.009
  -0.42857143  0.42857143  0.07142857       0.017
  -0.35714286  0.42857143  0.07142857       0.009
  -0.42857143  0.50000000  0.07142857       0.004
   0.42857143  0.28571429  0.14285714       0.009
   0.50000000  0.28571429  0.14285714       0.017
  -0.42857143  0.28571429  0.14285714       0.017
  -0.35714286  0.28571429  0.14285714       0.009
   0.50000000  0.35714286  0.14285714       0.009
  -0.42857143  0.35714286  0.14285714       0.017
  -0.35714286  0.35714286  0.14285714       0.017
  -0.28571429  0.35714286  0.14285714       0.017
  -0.21428571  0.35714286  0.14285714       0.009
  -0.42857143  0.42857143  0.14285714       0.009
  -0.35714286  0.42857143  0.14285714       0.017
  -0.28571429  0.42857143  0.14285714       0.009
  -0.35714286  0.50000000  0.14285714       0.004
  -0.35714286  0.42857143  0.21428571       0.009
  -0.28571429  0.42857143  0.21428571       0.009
  -0.28571429  0.50000000  0.21428571       0.004
 
 position of ions in fractional coordinates (direct lattice) 
   0.87500000  0.87500000  0.87500000
   0.12500000  0.12500000  0.12500000
 
 position of ions in cartesian coordinates  (Angst):
   3.90704738  2.76270050  6.76720537
   0.55814962  0.39467150  0.96674362
 


--------------------------------------------------------------------------------------------------------


 k-point  1 :   0.0000 0.0000 0.0000  plane waves:    1243
 k-point  2 :   0.0714 0.0000 0.0000  plane waves:    1230
 k-point  3 :   0.1429 0.0000 0.0000  plane waves:    1209
 k-point  4 :   0.2143 0.0000 0.0000  plane waves:    1215
 k-point  5 :   0.2857 0.0000 0.0000  plane waves:    1209
 k-point  6 :   0.3571 0.0000 0.0000  plane waves:    1188
 k-point  7 :   0.4286 0.0000 0.0000  plane waves:    1185
 k-point  8 :   0.5000 0.0000 0.0000  plane waves:    1194
 k-point  9 :   0.0714 0.0714 0.0000  plane waves:    1227
 k-point 10 :   0.1429 0.0714 0.0000  plane waves:    1211
 k-point 11 :   0.2143 0.0714 0.0000  plane waves:    1208
 k-point 12 :   0.2857 0.0714 0.0000  plane waves:    1202
 k-point 13 :   0.3571 0.0714 0.0000  plane waves:    1199
 k-point 14 :   0.4286 0.0714 0.0000  plane waves:    1191
 k-point 15 :   0.5000 0.0714 0.0000  plane waves:    1196
 k-point 16 :  -0.4286 0.0714 0.0000  plane waves:    1189
 k-point 17 :  -0.3571 0.0714 0.0000  plane waves:    1194
 k-point 18 :  -0.2857 0.0714 0.0000  plane waves:    1197
 k-point 19 :  -0.2143 0.0714 0.0000  plane waves:    1210
 k-point 20 :  -0.1429 0.0714 0.0000  plane waves:    1206
 k-point 21 :  -0.0714 0.0714 0.0000  plane waves:    1219
 k-point 22 :   0.1429 0.1429 0.0000  plane waves:    1207
 k-point 23 :   0.2143 0.1429 0.0000  plane waves:    1206
 k-point 24 :   0.2857 0.1429 0.0000  plane waves:    1210
 k-point 25 :   0.3571 0.1429 0.0000  plane waves:    1199
 k-point 26 :   0.4286 0.1429 0.0000  plane waves:    1198
 k-point 27 :   0.5000 0.1429 0.0000  plane waves:    1198
 k-point 28 :  -0.4286 0.1429 0.0000  plane waves:    1193
 k-point 29 :  -0.3571 0.1429 0.0000  plane waves:    1189
 k-point 30 :  -0.2857 0.1429 0.0000  plane waves:    1201
 k-point 31 :  -0.2143 0.1429 0.0000  plane waves:    1200
 k-point 32 :  -0.1429 0.1429 0.0000  plane waves:    1201
 k-point 33 :   0.2143 0.2143 0.0000  plane waves:    1207
 k-point 34 :   0.2857 0.2143 0.0000  plane waves:    1205
 k-point 35 :   0.3571 0.2143 0.0000  plane waves:    1199
 k-point 36 :   0.4286 0.2143 0.0000  plane waves:    1192
 k-point 37 :   0.5000 0.2143 0.0000  plane waves:    1200
 k-point 38 :  -0.4286 0.2143 0.0000  plane waves:    1194
 k-point 39 :  -0.3571 0.2143 0.0000  plane waves:    1188
 k-point 40 :  -0.2857 0.2143 0.0000  plane waves:    1191
 k-point 41 :  -0.2143 0.2143 0.0000  plane waves:    1195
 k-point 42 :   0.2857 0.2857 0.0000  plane waves:    1198
 k-point 43 :   0.3571 0.2857 0.0000  plane waves:    1211
 k-point 44 :   0.4286 0.2857 0.0000  plane waves:    1201
 k-point 45 :   0.5000 0.2857 0.0000  plane waves:    1201
 k-point 46 :  -0.4286 0.2857 0.0000  plane waves:    1188
 k-point 47 :  -0.3571 0.2857 0.0000  plane waves:    1192
 k-point 48 :  -0.2857 0.2857 0.0000  plane waves:    1193
 k-point 49 :   0.3571 0.3571 0.0000  plane waves:    1206
 k-point 50 :   0.4286 0.3571 0.0000  plane waves:    1202
 k-point 51 :   0.5000 0.3571 0.0000  plane waves:    1199
 k-point 52 :  -0.4286 0.3571 0.0000  plane waves:    1190
 k-point 53 :  -0.3571 0.3571 0.0000  plane waves:    1196
 k-point 54 :   0.4286 0.4286 0.0000  plane waves:    1190
 k-point 55 :   0.5000 0.4286 0.0000  plane waves:    1196
 k-point 56 :  -0.4286 0.4286 0.0000  plane waves:    1184
 k-point 57 :   0.5000 0.5000 0.0000  plane waves:    1186
 k-point 58 :   0.2143 0.1429 0.0714  plane waves:    1203
 k-point 59 :   0.2857 0.1429 0.0714  plane waves:    1207
 k-point 60 :   0.3571 0.1429 0.0714  plane waves:    1202
 k-point 61 :   0.4286 0.1429 0.0714  plane waves:    1202
 k-point 62 :   0.5000 0.1429 0.0714  plane waves:    1198
 k-point 63 :  -0.4286 0.1429 0.0714  plane waves:    1190
 k-point 64 :   0.2857 0.2143 0.0714  plane waves:    1209
 k-point 65 :   0.3571 0.2143 0.0714  plane waves:    1205
 k-point 66 :   0.4286 0.2143 0.0714  plane waves:    1197
 k-point 67 :   0.5000 0.2143 0.0714  plane waves:    1198
 k-point 68 :  -0.4286 0.2143 0.0714  plane waves:    1196
 k-point 69 :  -0.3571 0.2143 0.0714  plane waves:    1193
 k-point 70 :  -0.2857 0.2143 0.0714  plane waves:    1195
 k-point 71 :  -0.2143 0.2143 0.0714  plane waves:    1200
 k-point 72 :  -0.1429 0.2143 0.0714  plane waves:    1204
 k-point 73 :   0.3571 0.2857 0.0714  plane waves:    1208
 k-point 74 :   0.4286 0.2857 0.0714  plane waves:    1206
 k-point 75 :   0.5000 0.2857 0.0714  plane waves:    1202
 k-point 76 :  -0.4286 0.2857 0.0714  plane waves:    1192
 k-point 77 :  -0.3571 0.2857 0.0714  plane waves:    1187
 k-point 78 :  -0.2857 0.2857 0.0714  plane waves:    1193
 k-point 79 :  -0.2143 0.2857 0.0714  plane waves:    1191
 k-point 80 :   0.4286 0.3571 0.0714  plane waves:    1209
 k-point 81 :   0.5000 0.3571 0.0714  plane waves:    1199
 k-point 82 :  -0.4286 0.3571 0.0714  plane waves:    1195
 k-point 83 :  -0.3571 0.3571 0.0714  plane waves:    1188
 k-point 84 :  -0.2857 0.3571 0.0714  plane waves:    1191
 k-point 85 :   0.5000 0.4286 0.0714  plane waves:    1197
 k-point 86 :  -0.4286 0.4286 0.0714  plane waves:    1189
 k-point 87 :  -0.3571 0.4286 0.0714  plane waves:    1187
 k-point 88 :  -0.4286 0.5000 0.0714  plane waves:    1196
 k-point 89 :   0.4286 0.2857 0.1429  plane waves:    1198
 k-point 90 :   0.5000 0.2857 0.1429  plane waves:    1195
 k-point 91 :  -0.4286 0.2857 0.1429  plane waves:    1202
 k-point 92 :  -0.3571 0.2857 0.1429  plane waves:    1192
 k-point 93 :   0.5000 0.3571 0.1429  plane waves:    1200
 k-point 94 :  -0.4286 0.3571 0.1429  plane waves:    1205
 k-point 95 :  -0.3571 0.3571 0.1429  plane waves:    1191
 k-point 96 :  -0.2857 0.3571 0.1429  plane waves:    1196
 k-point 97 :  -0.2143 0.3571 0.1429  plane waves:    1197
 k-point 98 :  -0.4286 0.4286 0.1429  plane waves:    1199
 k-point 99 :  -0.3571 0.4286 0.1429  plane waves:    1192
 k-point ** :  -0.2857 0.4286 0.1429  plane waves:    1189
 k-point ** :  -0.3571 0.5000 0.1429  plane waves:    1188
 k-point ** :  -0.3571 0.4286 0.2143  plane waves:    1198
 k-point ** :  -0.2857 0.4286 0.2143  plane waves:    1196
 k-point ** :  -0.2857 0.5000 0.2143  plane waves:    1200

 maximum and minimum number of plane-waves per node :       316      287

 maximum number of plane-waves:      1243
 maximum index in each direction: 
   IXMAX=    7   IYMAX=    7   IZMAX=    7
   IXMIN=   -7   IYMIN=   -7   IZMIN=   -7

 NGX is ok and might be reduce to  30
 NGY is ok and might be reduce to  30
 NGZ is ok and might be reduce to  30

 parallel 3D FFT for wavefunctions:
    minimum data exchange during FFTs selected (reduces bandwidth)
 parallel 3D FFT for charge:
    minimum data exchange during FFTs selected (reduces bandwidth)


 total amount of memory used by VASP on root node    34892. kBytes
========================================================================

   base      :      30000. kBytes
   nonl-proj :       2113. kBytes
   fftplans  :        700. kBytes
   grid      :        998. kBytes
   one-center:          3. kBytes
   wavefun   :       1078. kBytes
 
 Broyden mixing: mesh for mixing (old mesh)
   NGX = 15   NGY = 15   NGZ = 15
  (NGX  = 60   NGY  = 60   NGZ  = 60)
  gives a total of   3375 points

 initial charge density was supplied:
 charge density of overlapping atoms calculated
 number of electron       8.0000000 magnetization 
 keeping initial charge density in first step


--------------------------------------------------------------------------------------------------------


 Maximum index for augmentation-charges         1526 (set IRDMAX)


--------------------------------------------------------------------------------------------------------


 First call to EWALD:  gamma=   0.514
 Maximum number of real-space cells 3x 3x 3
 Maximum number of reciprocal cells 3x 3x 3

 FEWALD executed in parallel
    FEWALD:  cpu time    0.00: real time    0.00


----------------------------------------- Iteration    1(   1)  ---------------------------------------


vdW kernel read from vdw_kernel.bindat
  0.0000  0.2424  0.5071  0.7962  1.1119  1.4567  1.8333  2.2446  2.6937  3.1842
  3.7199  4.3049  4.9438  5.6415  6.4036  7.2358  8.1446  9.1372 10.2212 11.4050
 12.6979 14.1099 15.6519 17.3360 19.1751 21.1837 23.3773 25.7729 28.3892 31.2465
 34.3669 37.7748 41.4965 45.5611 50.0000
 
    POTLOK:  cpu time    2.50: real time    2.54
    SETDIJ:  cpu time    0.00: real time    0.00
     EDDAV:  cpu time    0.77: real time    0.78
       DOS:  cpu time    0.00: real time    0.00
    --------------------------------------------
      LOOP:  cpu time    3.28: real time    3.53

 eigenvalue-minimisations  :  1664
 total energy-change (2. order) : 0.8438833E+01  (-0.3350618E+03)
 number of electron       8.0000000 magnetization 
 augmentation part        8.0000000 magnetization 

 Free energy of the ion-electron system (eV)
  ---------------------------------------------------
  alpha Z        PSCENC =         3.29317992
  Ewald energy   TEWEN  =      -226.94489173
  -1/2 Hartree   DENC   =       -11.32339116
  -exchange  EXHF       =         0.00000000
  -V(xc)+E(xc)   XCENC  =       -20.24410379
  PAW double counting   =       189.40224250     -152.61488262
  entropy T*S    EENTRO =        -0.00902090
  eigenvalues    EBANDS =        18.28553732
  atomic energy  EATOM  =       208.59416316
  ---------------------------------------------------
  free energy    TOTEN  =         8.43883269 eV

  energy without entropy =        8.44785358  energy(sigma->0) =        8.44334314


--------------------------------------------------------------------------------------------------------




----------------------------------------- Iteration    1(   2)  ---------------------------------------


     EDDAV:  cpu time    1.15: real time    1.20
       DOS:  cpu time    0.00: real time    0.00
    --------------------------------------------
      LOOP:  cpu time    1.15: real time    6.57

 eigenvalue-minimisations  :  2544
 total energy-change (2. order) :-0.1662872E+02  (-0.1607970E+02)
 number of electron       8.0000000 magnetization 
 augmentation part        8.0000000 magnetization 

 Free energy of the ion-electron system (eV)
  ---------------------------------------------------
  alpha Z        PSCENC =         3.29317992
  Ewald energy   TEWEN  =      -226.94489173
  -1/2 Hartree   DENC   =       -11.32339116
  -exchange  EXHF       =         0.00000000
  -V(xc)+E(xc)   XCENC  =       -20.24410379
  PAW double counting   =       189.40224250     -152.61488262
  entropy T*S    EENTRO =        -0.00000114
  eigenvalues    EBANDS =         1.64779432
  atomic energy  EATOM  =       208.59416316
  ---------------------------------------------------
  free energy    TOTEN  =        -8.18989055 eV

  energy without entropy =       -8.18988942  energy(sigma->0) =       -8.18988999


--------------------------------------------------------------------------------------------------------




----------------------------------------- Iteration    1(   3)  ---------------------------------------


     EDDAV:  cpu time    0.96: real time    0.98
       DOS:  cpu time    0.00: real time    0.00
    --------------------------------------------
      LOOP:  cpu time    0.96: real time    1.38

 eigenvalue-minimisations  :  2136
 total energy-change (2. order) :-0.2237948E+00  (-0.2237948E+00)
 number of electron       8.0000000 magnetization 
 augmentation part        8.0000000 magnetization 

 Free energy of the ion-electron system (eV)
  ---------------------------------------------------
  alpha Z        PSCENC =         3.29317992
  Ewald energy   TEWEN  =      -226.94489173
  -1/2 Hartree   DENC   =       -11.32339116
  -exchange  EXHF       =         0.00000000
  -V(xc)+E(xc)   XCENC  =       -20.24410379
  PAW double counting   =       189.40224250     -152.61488262
  entropy T*S    EENTRO =        -0.00000150
  eigenvalues    EBANDS =         1.42399988
  atomic energy  EATOM  =       208.59416316
  ---------------------------------------------------
  free energy    TOTEN  =        -8.41368536 eV

  energy without entropy =       -8.41368386  energy(sigma->0) =       -8.41368461


--------------------------------------------------------------------------------------------------------




----------------------------------------- Iteration    1(   4)  ---------------------------------------


     EDDAV:  cpu time    1.05: real time    1.06
       DOS:  cpu time    0.00: real time    0.00
    --------------------------------------------
      LOOP:  cpu time    1.06: real time    5.42

 eigenvalue-minimisations  :  2680
 total energy-change (2. order) :-0.1075509E-02  (-0.1075509E-02)
 number of electron       8.0000000 magnetization 
 augmentation part        8.0000000 magnetization 

 Free energy of the ion-electron system (eV)
  ---------------------------------------------------
  alpha Z        PSCENC =         3.29317992
  Ewald energy   TEWEN  =      -226.94489173
  -1/2 Hartree   DENC   =       -11.32339116
  -exchange  EXHF       =         0.00000000
  -V(xc)+E(xc)   XCENC  =       -20.24410379
  PAW double counting   =       189.40224250     -152.61488262
  entropy T*S    EENTRO =        -0.00000150
  eigenvalues    EBANDS =         1.42292437
  atomic energy  EATOM  =       208.59416316
  ---------------------------------------------------
  free energy    TOTEN  =        -8.41476087 eV

  energy without entropy =       -8.41475937  energy(sigma->0) =       -8.41476012


--------------------------------------------------------------------------------------------------------




----------------------------------------- Iteration    1(   5)  ---------------------------------------


     EDDAV:  cpu time    0.94: real time    0.95
       DOS:  cpu time    0.00: real time    0.00
    CHARGE:  cpu time    0.06: real time    0.09
    MIXING:  cpu time    0.00: real time    0.00
    --------------------------------------------
      LOOP:  cpu time    1.00: real time    3.69

 eigenvalue-minimisations  :  2256
 total energy-change (2. order) :-0.2753237E-05  (-0.2753208E-05)
 number of electron       8.0000000 magnetization 
 augmentation part       -0.4831221 magnetization 

 Broyden mixing:
  rms(total) = 0.37366E+00    rms(broyden)= 0.37366E+00
  rms(prec ) = 0.89803E+00
  weight for this iteration     100.00

 Free energy of the ion-electron system (eV)
  ---------------------------------------------------
  alpha Z        PSCENC =         3.29317992
  Ewald energy   TEWEN  =      -226.94489173
  -1/2 Hartree   DENC   =       -11.32339116
  -exchange  EXHF       =         0.00000000
  -V(xc)+E(xc)   XCENC  =       -20.24410379
  PAW double counting   =       189.40224250     -152.61488262
  entropy T*S    EENTRO =        -0.00000150
  eigenvalues    EBANDS =         1.42292161
  atomic energy  EATOM  =       208.59416316
  ---------------------------------------------------
  free energy    TOTEN  =        -8.41476362 eV

  energy without entropy =       -8.41476212  energy(sigma->0) =       -8.41476287


--------------------------------------------------------------------------------------------------------




----------------------------------------- Iteration    1(   6)  ---------------------------------------


    POTLOK:  cpu time    1.12: real time    1.12
    SETDIJ:  cpu time    0.00: real time    0.00
     EDDAV:  cpu time    0.83: real time    0.83
       DOS:  cpu time    0.00: real time    0.00
    CHARGE:  cpu time    0.04: real time    0.04
    MIXING:  cpu time    0.00: real time    0.00
    --------------------------------------------
      LOOP:  cpu time    1.98: real time    2.73

 eigenvalue-minimisations  :  2016
 total energy-change (2. order) : 0.5328355E-01  (-0.8884269E-02)
 number of electron       8.0000000 magnetization 
 augmentation part       -0.4761933 magnetization 

 Broyden mixing:
  rms(total) = 0.22933E+00    rms(broyden)= 0.22933E+00
  rms(prec ) = 0.54165E+00
  weight for this iteration     100.00

 eigenvalues of (default mixing * dielectric matrix)
  average eigenvalue GAMMA=   2.5730
  2.5730

 Free energy of the ion-electron system (eV)
  ---------------------------------------------------
  alpha Z        PSCENC =         3.29317992
  Ewald energy   TEWEN  =      -226.94489173
  -1/2 Hartree   DENC   =       -12.87019635
  -exchange  EXHF       =         0.00000000
  -V(xc)+E(xc)   XCENC  =       -20.00583998
  PAW double counting   =       308.82141105     -272.16875370
  entropy T*S    EENTRO =        -0.00000658
  eigenvalues    EBANDS =         2.91945415
  atomic energy  EATOM  =       208.59416316
  ---------------------------------------------------
  free energy    TOTEN  =        -8.36148007 eV

  energy without entropy =       -8.36147349  energy(sigma->0) =       -8.36147678


--------------------------------------------------------------------------------------------------------




----------------------------------------- Iteration    1(   7)  ---------------------------------------


    POTLOK:  cpu time    1.14: real time    1.14
    SETDIJ:  cpu time    0.00: real time    0.00
     EDDAV:  cpu time    0.91: real time    0.92
       DOS:  cpu time    0.00: real time    0.00
    CHARGE:  cpu time    0.04: real time    0.04
    MIXING:  cpu time    0.00: real time    0.00
    --------------------------------------------
      LOOP:  cpu time    2.11: real time    6.47

 eigenvalue-minimisations  :  2240
 total energy-change (2. order) : 0.5301730E-02  (-0.2025878E-01)
 number of electron       8.0000000 magnetization 
 augmentation part       -0.4668315 magnetization 

 Broyden mixing:
  rms(total) = 0.18579E-01    rms(broyden)= 0.18579E-01
  rms(prec ) = 0.48589E-01
  weight for this iteration     100.00

 eigenvalues of (default mixing * dielectric matrix)
  average eigenvalue GAMMA=   2.2945
  2.2945  2.2945

 Free energy of the ion-electron system (eV)
  ---------------------------------------------------
  alpha Z        PSCENC =         3.29317992
  Ewald energy   TEWEN  =      -226.94489173
  -1/2 Hartree   DENC   =       -15.47791694
  -exchange  EXHF       =         0.00000000
  -V(xc)+E(xc)   XCENC  =       -19.58115623
  PAW double counting   =       559.39374335     -522.91621363
  entropy T*S    EENTRO =        -0.00004754
  eigenvalues    EBANDS =         5.28296131
  atomic energy  EATOM  =       208.59416316
  ---------------------------------------------------
  free energy    TOTEN  =        -8.35617834 eV

  energy without entropy =       -8.35613080  energy(sigma->0) =       -8.35615457


--------------------------------------------------------------------------------------------------------




----------------------------------------- Iteration    1(   8)  ---------------------------------------


    POTLOK:  cpu time    1.17: real time    1.18
    SETDIJ:  cpu time    0.00: real time    0.00
     EDDAV:  cpu time    0.86: real time    0.86
       DOS:  cpu time    0.00: real time    0.00
    CHARGE:  cpu time    0.04: real time    0.04
    MIXING:  cpu time    0.00: real time    0.00
    --------------------------------------------
      LOOP:  cpu time    2.08: real time    2.49

 eigenvalue-minimisations  :  2016
 total energy-change (2. order) : 0.1673077E-01  (-0.6111847E-03)
 number of electron       8.0000000 magnetization 
 augmentation part       -0.4684425 magnetization 

 Broyden mixing:
  rms(total) = 0.98151E-02    rms(broyden)= 0.98151E-02
  rms(prec ) = 0.23746E-01
  weight for this iteration     100.00

 eigenvalues of (default mixing * dielectric matrix)
  average eigenvalue GAMMA=   2.1233
  2.8012  1.7843  1.7843

 Free energy of the ion-electron system (eV)
  ---------------------------------------------------
  alpha Z        PSCENC =         3.29317992
  Ewald energy   TEWEN  =      -226.94489173
  -1/2 Hartree   DENC   =       -15.24711546
  -exchange  EXHF       =         0.00000000
  -V(xc)+E(xc)   XCENC  =       -19.59603679
  PAW double counting   =       543.06332450     -506.52038708
  entropy T*S    EENTRO =        -0.00003319
  eigenvalues    EBANDS =         5.01834912
  atomic energy  EATOM  =       208.59416316
  ---------------------------------------------------
  free energy    TOTEN  =        -8.33944757 eV

  energy without entropy =       -8.33941438  energy(sigma->0) =       -8.33943098


--------------------------------------------------------------------------------------------------------




----------------------------------------- Iteration    1(   9)  ---------------------------------------


    POTLOK:  cpu time    1.16: real time    1.16
    SETDIJ:  cpu time    0.00: real time    0.00
     EDDAV:  cpu time    1.00: real time    1.00
       DOS:  cpu time    0.00: real time    0.00
    CHARGE:  cpu time    0.04: real time    0.04
    MIXING:  cpu time    0.00: real time    0.00
    --------------------------------------------
      LOOP:  cpu time    2.20: real time    2.78

 eigenvalue-minimisations  :  2336
 total energy-change (2. order) :-0.1652535E-02  (-0.6064395E-04)
 number of electron       8.0000000 magnetization 
 augmentation part       -0.4680927 magnetization 

 Broyden mixing:
  rms(total) = 0.73130E-02    rms(broyden)= 0.73130E-02
  rms(prec ) = 0.83847E-02
  weight for this iteration     100.00

 eigenvalues of (default mixing * dielectric matrix)
  average eigenvalue GAMMA=   2.3918
  3.6031  0.9812  2.6897  2.2934

 Free energy of the ion-electron system (eV)
  ---------------------------------------------------
  alpha Z        PSCENC =         3.29317992
  Ewald energy   TEWEN  =      -226.94489173
  -1/2 Hartree   DENC   =       -15.38809461
  -exchange  EXHF       =         0.00000000
  -V(xc)+E(xc)   XCENC  =       -19.57337038
  PAW double counting   =       550.33999812     -513.80614226
  entropy T*S    EENTRO =        -0.00003637
  eigenvalues    EBANDS =         5.14409405
  atomic energy  EATOM  =       208.59416316
  ---------------------------------------------------
  free energy    TOTEN  =        -8.34110011 eV

  energy without entropy =       -8.34106374  energy(sigma->0) =       -8.34108192


--------------------------------------------------------------------------------------------------------




----------------------------------------- Iteration    1(  10)  ---------------------------------------


    POTLOK:  cpu time    1.24: real time    1.25
    SETDIJ:  cpu time    0.00: real time    0.01
     EDDAV:  cpu time    1.06: real time    1.07
       DOS:  cpu time    0.00: real time    0.00
    CHARGE:  cpu time    0.04: real time    0.04
    MIXING:  cpu time    0.00: real time    0.00
    --------------------------------------------
      LOOP:  cpu time    2.36: real time    2.72

 eigenvalue-minimisations  :  2144
 total energy-change (2. order) : 0.7240075E-03  (-0.4085683E-05)
 number of electron       8.0000000 magnetization 
 augmentation part       -0.4681325 magnetization 

 Broyden mixing:
  rms(total) = 0.29111E-02    rms(broyden)= 0.29111E-02
  rms(prec ) = 0.30184E-02
  weight for this iteration     100.00

 eigenvalues of (default mixing * dielectric matrix)
  average eigenvalue GAMMA=   1.9032
  2.9638  2.4363  2.2661  0.9249  0.9249

 Free energy of the ion-electron system (eV)
  ---------------------------------------------------
  alpha Z        PSCENC =         3.29317992
  Ewald energy   TEWEN  =      -226.94489173
  -1/2 Hartree   DENC   =       -15.36996766
[...]

 k-point  69 :      -0.3571    0.2143    0.0714
  band No.  band energies     occupation 
      1      -3.5955      2.00000
      2      -0.8939      2.00000
      3       2.4724      2.00000
      4       3.8674      2.00000
      5       8.2279      0.00000
      6       9.1532      0.00000
      7      10.7900      0.00000
      8      12.7505      0.00000

 k-point  70 :      -0.2857    0.2143    0.0714
  band No.  band energies     occupation 
      1      -4.0593      2.00000
      2      -0.1880      2.00000
      3       2.4901      2.00000
      4       4.0976      2.00000
      5       8.4679      0.00000
      6       9.0964      0.00000
      7      10.7505      0.00000
      8      11.5916      0.00000

 k-point  71 :      -0.2143    0.2143    0.0714
  band No.  band energies     occupation 
      1      -4.5820      2.00000
      2       0.7386      2.00000
      3       2.6606      2.00000
      4       4.3925      2.00000
      5       8.7179      0.00000
      6       9.0128      0.00000
      7      10.5797      0.00000
      8      10.8115      0.00000

 k-point  72 :      -0.1429    0.2143    0.0714
  band No.  band energies     occupation 
      1      -5.0405      2.00000
      2       1.6414      2.00000
      3       3.0887      2.00000
      4       4.6884      2.00000
      5       8.6027      0.00000
      6       8.9891      0.00000
      7      10.3238      0.00000
      8      10.4584      0.00000

 k-point  73 :       0.3571    0.2857    0.0714
  band No.  band energies     occupation 
      1      -4.6917      2.00000
      2       1.2760      2.00000
      3       3.2115      2.00000
      4       3.6408      2.00000
      5       7.1093      0.00000
      6       8.6099      0.00000
      7      11.1180      0.00000
      8      11.8758      0.00000

 k-point  74 :       0.4286    0.2857    0.0714
  band No.  band energies     occupation 
      1      -4.2320      2.00000
      2       0.4800      2.00000
      3       2.7326      2.00000
      4       3.4265      2.00000
      5       7.3993      0.00000
      6       8.7601      0.00000
      7      10.9293      0.00000
      8      12.2317      0.00000

 k-point  75 :       0.5000    0.2857    0.0714
  band No.  band energies     occupation 
      1      -3.7077      2.00000
      2      -0.3213      2.00000
      3       2.3053      2.00000
      4       3.3107      2.00000
      5       7.5335      0.00000
      6       9.5551      0.00000
      7      10.6806      0.00000
      8      12.2361      0.00000

 k-point  76 :      -0.4286    0.2857    0.0714
  band No.  band energies     occupation 
      1      -3.2451      2.00000
      2      -0.9417      2.00000
      3       1.9701      2.00000
      4       3.3353      2.00000
      5       7.6455      0.00000
      6      10.3297      0.00000
      7      10.8498      0.00000
      8      12.1301      0.00000

 k-point  77 :      -0.3571    0.2857    0.0714
  band No.  band energies     occupation 
      1      -3.1781      2.00000
      2      -1.0201      2.00000
      3       1.7676      2.00000
      4       3.4870      2.00000
      5       7.8425      0.00000
      6      10.1869      0.00000
      7      11.9581      0.00000
      8      12.1927      0.00000

 k-point  78 :      -0.2857    0.2857    0.0714
  band No.  band energies     occupation 
      1      -3.5804      2.00000
      2      -0.4987      2.00000
      3       1.7478      2.00000
      4       3.7422      2.00000
      5       8.1347      0.00000
      6      10.0165      0.00000
      7      11.4824      0.00000
      8      11.8946      0.00000

 k-point  79 :      -0.2143    0.2857    0.0714
  band No.  band energies     occupation 
      1      -4.1035      2.00000
      2       0.1849      2.00000
      3       2.0079      2.00000
      4       4.0655      2.00000
      5       8.4866      0.00000
      6       9.6328      0.00000
      7      10.7617      0.00000
      8      11.4658      0.00000

 k-point  80 :       0.4286    0.3571    0.0714
  band No.  band energies     occupation 
      1      -3.9464      2.00000
      2       0.1517      2.00000
      3       2.8451      2.00000
      4       3.1084      2.00000
      5       6.8401      0.00000
      6       7.7896      0.00000
      7      12.2539      0.00000
      8      13.2045      0.00000

 k-point  81 :       0.5000    0.3571    0.0714
  band No.  band energies     occupation 
      1      -3.4360      2.00000
      2      -0.5064      2.00000
      3       2.3345      2.00000
      4       2.9651      2.00000
      5       7.1328      0.00000
      6       8.1768      0.00000
      7      12.0284      0.00000
      8      13.5505      0.00000

 k-point  82 :      -0.4286    0.3571    0.0714
  band No.  band energies     occupation 
      1      -2.9250      2.00000
      2      -1.0866      2.00000
      3       1.8137      2.00000
      4       2.9907      2.00000
      5       7.2681      0.00000
      6       9.2112      0.00000
      7      11.7696      0.00000
      8      13.5032      0.00000

 k-point  83 :      -0.3571    0.3571    0.0714
  band No.  band energies     occupation 
      1      -2.7228      2.00000
      2      -1.2901      2.00000
      3       1.4645      2.00000
      4       3.1445      2.00000
      5       7.4613      0.00000
      6      10.4980      0.00000
      7      11.5586      0.00000
      8      12.8379      0.00000

 k-point  84 :      -0.2857    0.3571    0.0714
  band No.  band energies     occupation 
      1      -3.0707      2.00000
      2      -0.9311      2.00000
      3       1.4029      2.00000
      4       3.4051      2.00000
      5       7.7582      0.00000
      6      10.9717      0.00000
      7      11.7631      0.00000
      8      12.1249      0.00000

 k-point  85 :       0.5000    0.4286    0.0714
  band No.  band energies     occupation 
      1      -3.0628      2.00000
      2      -0.9774      2.00000
      3       2.6417      2.00000
      4       2.7656      2.00000
      5       6.7499      0.00000
      6       7.2062      0.00000
      7      13.4634      0.00000
      8      14.5468      0.00000

 k-point  86 :      -0.4286    0.4286    0.0714
  band No.  band energies     occupation 
      1      -2.5313      2.00000
      2      -1.5161      2.00000
      3       2.1199      2.00000
      4       2.7444      2.00000
      5       6.9993      0.00000
      6       7.8787      0.00000
      7      13.2196      0.00000
      8      14.4417      0.00000

 k-point  87 :      -0.3571    0.4286    0.0714
  band No.  band energies     occupation 
      1      -2.3179      2.00000
      2      -1.6839      2.00000
      3       1.6345      2.00000
      4       2.8890      2.00000
      5       7.1756      0.00000
      6       9.0985      0.00000
      7      12.8121      0.00000
      8      13.1687      0.00000

 k-point  88 :      -0.4286    0.5000    0.0714
  band No.  band energies     occupation 
      1      -2.0628      2.00000
      2      -2.0628      2.00000
      3       2.6124      2.00000
      4       2.6124      2.00000
      5       6.8648      0.00000
      6       6.8648      0.00000
      7      14.7101      0.00000
      8      14.7101      0.00000

 k-point  89 :       0.4286    0.2857    0.1429
  band No.  band energies     occupation 
      1      -4.4664      2.00000
      2       0.7755      2.00000
      3       2.5910      2.00000
      4       3.8725      2.00000
      5       8.2281      0.00000
      6       9.4762      0.00000
      7       9.7502      0.00000
      8      11.7013      0.00000

 k-point  90 :       0.5000    0.2857    0.1429
  band No.  band energies     occupation 
      1      -3.9594      2.00000
      2       0.0045      2.00000
      3       2.2038      2.00000
      4       3.5769      2.00000
      5       8.5704      0.00000
      6       9.4199      0.00000
      7       9.9988      0.00000
      8      12.0794      0.00000

 k-point  91 :      -0.4286    0.2857    0.1429
  band No.  band energies     occupation 
      1      -3.4493      2.00000
      2      -0.7192      2.00000
      3       2.0270      2.00000
      4       3.3551      2.00000
      5       8.7108      0.00000
      6       9.1128      0.00000
      7      11.0712      0.00000
      8      12.1558      0.00000

 k-point  92 :      -0.3571    0.2857    0.1429
  band No.  band energies     occupation 
      1      -3.1882      2.00000
      2      -1.0597      2.00000
      3       1.9777      2.00000
      4       3.2738      2.00000
      5       8.8613      0.00000
      6       8.8846      0.00000
      7      12.1520      0.00000
      8      12.2503      0.00000

 k-point  93 :       0.5000    0.3571    0.1429
  band No.  band energies     occupation 
      1      -3.7509      2.00000
      2      -0.1145      2.00000
      3       2.2593      2.00000
      4       3.0962      2.00000
      5       7.9706      0.00000
      6       8.7538      0.00000
      7      10.6541      0.00000
      8      13.1331      0.00000

 k-point  94 :      -0.4286    0.3571    0.1429
  band No.  band energies     occupation 
      1      -3.2248      2.00000
      2      -0.7373      2.00000
      3       1.9012      2.00000
      4       2.8512      2.00000
      5       8.3016      0.00000
      6       9.4592      0.00000
      7      10.3727      0.00000
      8      13.5194      0.00000

 k-point  95 :      -0.3571    0.3571    0.1429
  band No.  band energies     occupation 
      1      -2.8340      2.00000
      2      -1.1756      2.00000
      3       1.6602      2.00000
      4       2.8009      2.00000
      5       8.4737      0.00000
      6       9.9713      0.00000
      7      10.8254      0.00000
      8      12.5259      0.00000

 k-point  96 :      -0.2857    0.3571    0.1429
  band No.  band energies     occupation 
      1      -2.9625      2.00000
      2      -1.0301      2.00000
      3       1.5767      2.00000
      4       2.9393      2.00000
      5       8.7176      0.00000
      6       9.7870      0.00000
      7      11.0909      0.00000
      8      12.2916      0.00000

 k-point  97 :      -0.2143    0.3571    0.1429
  band No.  band energies     occupation 
      1      -3.4465      2.00000
      2      -0.5037      2.00000
      3       1.7309      2.00000
      4       3.2208      2.00000
      5       9.0451      0.00000
      6       9.4078      0.00000
      7      10.1587      0.00000
      8      13.0119      0.00000

 k-point  98 :      -0.4286    0.4286    0.1429
  band No.  band energies     occupation 
      1      -2.9167      2.00000
      2      -1.0475      2.00000
      3       2.1205      2.00000
      4       2.5217      2.00000
      5       7.8706      0.00000
      6       8.2430      0.00000
      7      11.7270      0.00000
      8      14.2062      0.00000

 k-point  99 :      -0.3571    0.4286    0.1429
  band No.  band energies     occupation 
      1      -2.4387      2.00000
      2      -1.5054      2.00000
      3       1.7596      2.00000
      4       2.4304      2.00000
      5       8.1580      0.00000
      6       9.2305      0.00000
      7      11.4434      0.00000
      8      12.6890      0.00000

 k-point 100 :      -0.2857    0.4286    0.1429
  band No.  band energies     occupation 
      1      -2.4931      2.00000
      2      -1.4347      2.00000
      3       1.5031      2.00000
      4       2.6107      2.00000
      5       8.3909      0.00000
      6      10.4568      0.00000
      7      11.2325      0.00000
      8      11.3782      0.00000

 k-point 101 :      -0.3571    0.5000    0.1429
  band No.  band energies     occupation 
      1      -1.9990      2.00000
      2      -1.9990      2.00000
      3       2.1996      2.00000
      4       2.1996      2.00000
      5       7.9544      0.00000
      6       7.9544      0.00000
      7      12.9328      0.00000
      8      12.9328      0.00000

 k-point 102 :      -0.3571    0.4286    0.2143
  band No.  band energies     occupation 
      1      -2.7092      2.00000
      2      -1.2037      2.00000
      3       1.6883      2.00000
      4       2.4479      2.00000
      5       9.3105      0.00000
      6       9.5137      0.00000
      7      10.1519      0.00000
      8      12.4415      0.00000

 k-point 103 :      -0.2857    0.4286    0.2143
  band No.  band energies     occupation 
      1      -2.3926      2.00000
      2      -1.5051      2.00000
      3       1.6358      2.00000
      4       2.2845      2.00000
      5       9.4756      0.00000
      6       9.7860      0.00000
      7      10.7492      0.00000
      8      11.1548      0.00000

 k-point 104 :      -0.2857    0.5000    0.2143
  band No.  band energies     occupation 
      1      -1.9442      2.00000
      2      -1.9442      2.00000
      3       1.9203      2.00000
      4       1.9204      2.00000
      5       9.3633      0.00000
      6       9.3633      0.00000
      7      11.1725      0.00000
      8      11.1725      0.00000


--------------------------------------------------------------------------------------------------------


 soft charge-density along one line, spin component           1
         0         1         2         3         4         5         6         7         8         9
 total charge-density along one line
 
 pseudopotential strength for first ion, spin component:           1
 18.530  25.848   0.000   0.000   0.000   0.000   0.000   0.000
 25.848  36.061   0.000   0.000   0.000   0.000   0.000   0.000
  0.000   0.000   4.199   0.000   0.000   7.816   0.000   0.000
  0.000   0.000   0.000   4.199   0.000   0.000   7.816   0.000
  0.000   0.000   0.000   0.000   4.199   0.000   0.000   7.816
  0.000   0.000   7.816   0.000   0.000  14.561   0.000   0.000
  0.000   0.000   0.000   7.816   0.000   0.000  14.561   0.000
  0.000   0.000   0.000   0.000   7.816   0.000   0.000  14.561
 total augmentation occupancy for first ion, spin component:           1
  3.252  -0.964   0.000   0.000   0.000   0.000   0.000   0.000
 -0.964   0.489   0.000   0.000   0.000   0.000   0.000   0.000
  0.000   0.000   2.261   0.000   0.000  -0.407   0.000   0.000
  0.000   0.000   0.000   2.261   0.000   0.000  -0.407   0.000
  0.000   0.000   0.000   0.000   2.261   0.000   0.000  -0.407
  0.000   0.000  -0.407   0.000   0.000   0.084   0.000   0.000
  0.000   0.000   0.000  -0.407   0.000   0.000   0.084   0.000
  0.000   0.000   0.000   0.000  -0.407   0.000   0.000   0.084


------------------------ aborting loop because EDIFF is reached ----------------------------------------


    CHARGE:  cpu time    0.04: real time    0.04
    FORLOC:  cpu time    0.00: real time    0.00
    FORNL :  cpu time    0.05: real time    0.05
    STRESS:  cpu time    0.31: real time    0.31
    FORCOR:  cpu time    1.19: real time    1.19
    FORHAR:  cpu time    0.01: real time    0.01
    MIXING:  cpu time    0.00: real time    0.00

  FORCE on cell =-STRESS in cart. coord.  units (eV):
  Direction    XX          YY          ZZ          XY          YZ          ZX
  --------------------------------------------------------------------------------------
  Alpha Z     3.29318     3.29318     3.29318
  Ewald     -75.64832   -75.64835   -75.64832    -0.00001     0.00001     0.00001
  Hartree     5.12419     5.12419     5.12419     0.00000     0.00000     0.00000
  E(xc)     -25.38041   -25.38041   -25.38041     0.00000     0.00000     0.00000
  Local     -29.55367   -29.55368   -29.55368     0.00001     0.00000     0.00000
  n-local    74.22206    77.62328    81.73862    -0.89762    -0.94300    -0.02206
  augment   -11.98044   -11.98044   -11.98045     0.00000     0.00000     0.00000
  Kinetic    53.36964    55.38390    61.03885     0.85008     1.22484    -0.55598
  Fock        0.00000     0.00000     0.00000     0.00000     0.00000     0.00000
  -------------------------------------------------------------------------------------
  Total       0.31329     0.31329     0.31329     0.00000     0.00000     0.00000
  in kB      12.27601    12.27601    12.27601     0.00000     0.00000     0.00000
  external pressure =       12.28 kB  Pullay stress =        0.00 kB


 VOLUME and BASIS-vectors are now :
 -----------------------------------------------------------------------------
  energy-cutoff  :      550.00
  volume of cell :       40.89
      direct lattice vectors                 reciprocal lattice vectors
     3.348898000  0.000000000  1.933487000     0.298605691 -0.105573000  0.000000000
     1.116299000  3.157372000  1.933487000     0.000000000  0.316719094  0.000000000
     0.000000000  0.000000000  3.866975000    -0.149302807 -0.105573020  0.258600069

  length of vectors
     3.866974243  3.866974707  3.866975000     0.316719145  0.316719094  0.316719096


 FORCES acting on ions
    electron-ion (+dipol)            ewald-force                    non-local-force                 convergence-correction
 -----------------------------------------------------------------------------------------------
   -.378E-05 0.692E-05 0.844E-05   0.634E-05 -.116E-04 -.142E-04   0.919E-16 -.132E-15 0.347E-16   0.847E-12 0.275E-11 0.482E-11
   0.378E-05 -.692E-05 -.844E-05   -.634E-05 0.116E-04 0.142E-04   -.520E-17 0.160E-15 0.416E-16   -.846E-12 -.275E-11 -.482E-11
 -----------------------------------------------------------------------------------------------
   0.173E-12 -.515E-13 -.415E-14   -.469E-16 0.276E-16 -.294E-16   0.867E-16 0.278E-16 0.763E-16   0.684E-15 -.310E-15 -.180E-14
 
 
 POSITION                                       TOTAL-FORCE (eV/Angst)
 -----------------------------------------------------------------------------------
      3.90705      2.76270      6.76721         0.000000      0.000000      0.000000
      0.55815      0.39467      0.96674         0.000000      0.000000      0.000000
 -----------------------------------------------------------------------------------
    total drift:                                0.000000      0.000000      0.000000


--------------------------------------------------------------------------------------------------------



  FREE ENERGIE OF THE ION-ELECTRON SYSTEM (eV)
  ---------------------------------------------------
  free  energy   TOTEN  =        -8.34033794 eV

  energy  without entropy=       -8.34030247  energy(sigma->0) =       -8.34032020
 


--------------------------------------------------------------------------------------------------------


    POTLOK:  cpu time    1.64: real time    1.73


--------------------------------------------------------------------------------------------------------




--------------------------------------------------------------------------------------------------------


  
 reached required accuracy - stopping structural energy minimisation
     LOOP+:  cpu time   33.77: real time   68.96
    4ORBIT:  cpu time    0.00: real time    0.00

 total amount of memory used by VASP on root node    34892. kBytes
========================================================================

   base      :      30000. kBytes
   nonl-proj :       2113. kBytes
   fftplans  :        700. kBytes
   grid      :        998. kBytes
   one-center:          3. kBytes
   wavefun   :       1078. kBytes
 
  
  
 General timing and accounting informations for this job:
 ========================================================
  
                  Total CPU time used (sec):       34.594
                            User time (sec):       34.258
                          System time (sec):        0.336
                         Elapsed time (sec):       77.179
  
                   Maximum memory used (kb):      106312.
                   Average memory used (kb):           0.
  
                          Minor page faults:        63898
                          Major page faults:            5
                 Voluntary context switches:          769
