 running on   16 total cores
 distrk:  each k-point on   16 cores,    1 groups
 distr:  one band on    4 cores,    4 groups
 using from now: INCAR     
 vasp.5.3.3 18Dez12 (build Jan 30 2013 10:57:47) complex                        
  
 POSCAR found type information on POSCAR  Si
 POSCAR found :  1 types and       2 ions

 ----------------------------------------------------------------------------- 
|                                                                             |
|  ADVICE TO THIS USER RUNNING 'VASP/VAMP'   (HEAR YOUR MASTER'S VOICE ...):  |
|                                                                             |
|      You have switched on vdW-DFT.                                          |
|      This routine was written and supplied by Jiri Klimes.                  |
|      We recommed that you carefully read and cite the following             |
|      publication                                                            |
|      J. Klimes, D.R. Bowler, A. Michelides                                  |
|        J. Phys.: Cond Matt. 22 022201 (2010)                                |
|      J. Klimes, D.R. Bowler, A. Michelides                                  |
|        Phys. Rev. B. 83, 195131 (2011)                                      |
|      and references therein.                                                |
|                                                                             |
 ----------------------------------------------------------------------------- 


 ----------------------------------------------------------------------------- 
|                                                                             |
|  ADVICE TO THIS USER RUNNING 'VASP/VAMP'   (HEAR YOUR MASTER'S VOICE ...):  |
|                                                                             |
|      You enforced a specific xc-type in the INCAR file,                     |
|      a different type was found on the POTCAR file                          |
|          I HOPE YOU KNOW, WHAT YOU ARE  DOING                               |
|                                                                             |
 ----------------------------------------------------------------------------- 

 LDA part: xc-table for Pade appr. of Perdew
 POSCAR, INCAR and KPOINTS ok, starting setup
 FFT: planning ...
 WAVECAR not read
 entering main loop
       N       E                     dE             d eps       ncg     rms          rms(c)
Total vdW correction in eV:      1.0792472
DAV:   1     0.843883268797E+01    0.84388E+01   -0.33506E+03  1664   0.838E+02
DAV:   2    -0.818989055410E+01   -0.16629E+02   -0.16080E+02  2544   0.790E+01
DAV:   3    -0.841368535740E+01   -0.22379E+00   -0.22379E+00  2136   0.117E+01
DAV:   4    -0.841476086635E+01   -0.10755E-02   -0.10755E-02  2680   0.893E-01
DAV:   5    -0.841476361959E+01   -0.27532E-05   -0.27532E-05  2256   0.270E-02    0.374E+00
Total vdW correction in eV:      1.1274147
DAV:   6    -0.836148007182E+01    0.53284E-01   -0.88843E-02  2016   0.176E+00    0.229E+00
Total vdW correction in eV:      1.2190024
DAV:   7    -0.835617834143E+01    0.53017E-02   -0.20259E-01  2240   0.263E+00    0.186E-01
Total vdW correction in eV:      1.2141328
DAV:   8    -0.833944757032E+01    0.16731E-01   -0.61118E-03  2016   0.540E-01    0.982E-02
Total vdW correction in eV:      1.2197217
DAV:   9    -0.834110010501E+01   -0.16525E-02   -0.60644E-04  2336   0.165E-01    0.731E-02
Total vdW correction in eV:      1.2197172
DAV:  10    -0.834037609751E+01    0.72401E-03   -0.40857E-05  2144   0.536E-02    0.291E-02
Total vdW correction in eV:      1.2197241
DAV:  11    -0.834034372395E+01    0.32374E-04   -0.84661E-07  2344   0.829E-03    0.275E-03
Total vdW correction in eV:      1.2197550
DAV:  12    -0.834034199393E+01    0.17300E-05   -0.69834E-08  2112   0.265E-03    0.948E-04
Total vdW correction in eV:      1.2197550
DAV:  13    -0.834033826069E+01    0.37332E-05   -0.23611E-09  1176   0.434E-04    0.763E-05
Total vdW correction in eV:      1.2197562
DAV:  14    -0.834033806006E+01    0.20063E-06   -0.25367E-10  1160   0.172E-04    0.223E-05
Total vdW correction in eV:      1.2197559
DAV:  15    -0.834033789220E+01    0.16785E-06   -0.23179E-11  1008   0.438E-05    0.116E-05
Total vdW correction in eV:      1.2197560
DAV:  16    -0.834033794129E+01   -0.49081E-07   -0.51652E-12   984   0.198E-05
Total vdW correction in eV:      1.2197559
Total vdW correction in eV:      1.2197559
   1 F= -.83403379E+01 E0= -.83403202E+01  d E =-.834034E+01
 curvature:   0.00 expect dE= 0.000E+00 dE for cont linesearch  0.000E+00
 trial: gam= 0.00000 g(F)=  0.597E-44 g(S)=  0.000E+00 ort = 0.000E+00 (trialstep = 0.100E+01)
 search vector abs. value=  0.100E-09
 reached required accuracy - stopping structural energy minimisation
