<?xml version="1.0" encoding="ISO-8859-1"?>
<modeling>
 <generator>
  <i name="program" type="string">vasp </i>
  <i name="version" type="string">5.3.3  </i>
  <i name="subversion" type="string">18Dez12 (build Jan 30 2013 10:57:47) complex                          parallel </i>
  <i name="platform" type="string">LinuxIFC </i>
  <i name="date" type="string">2016 06 21 </i>
  <i name="time" type="string">06:31:01 </i>
 </generator>
 <incar>
  <i type="string" name="PREC">accurate</i>
  <i type="int" name="NELM">   400</i>
  <i type="int" name="IBRION">     2</i>
  <i name="EDIFF">      0.00000010</i>
  <i type="int" name="NSW">     1</i>
  <i name="ENCUT">    550.00000000</i>
  <i type="int" name="ISMEAR">     0</i>
  <i type="logical" name="LWAVE"> F  </i>
  <i type="logical" name="LCHARG"> F  </i>
  <i type="int" name="NELM">   400</i>
  <i type="string" name="GGA"> BO</i>
  <i name="PARAM1">      0.18333333</i>
  <i name="PARAM2">      0.22000000</i>
  <i type="logical" name="LUSE_VDW"> T  </i>
  <i name="AGGAC">      0.00000000</i>
 </incar>
 <kpoints>
  <generation param="Gamma">
   <v type="int" name="divisions">      14       14       14 </v>
   <v name="usershift">      0.00000000       0.00000000       0.00000000 </v>
   <v name="genvec1">      0.07142857       0.00000000       0.00000000 </v>
   <v name="genvec2">      0.00000000       0.07142857       0.00000000 </v>
   <v name="genvec3">      0.00000000       0.00000000       0.07142857 </v>
   <v name="shift">      0.00000000       0.00000000       0.00000000 </v>
  </generation>
  <varray name="kpointlist" >
   <v>       0.00000000       0.00000000       0.00000000 </v>
   <v>       0.07142857       0.00000000       0.00000000 </v>
   <v>       0.14285714       0.00000000       0.00000000 </v>
   <v>       0.21428571       0.00000000       0.00000000 </v>
   <v>       0.28571429       0.00000000       0.00000000 </v>
   <v>       0.35714286       0.00000000       0.00000000 </v>
   <v>       0.42857143       0.00000000       0.00000000 </v>
   <v>       0.50000000       0.00000000       0.00000000 </v>
   <v>       0.07142857       0.07142857       0.00000000 </v>
   <v>       0.14285714       0.07142857       0.00000000 </v>
   <v>       0.21428571       0.07142857       0.00000000 </v>
   <v>       0.28571429       0.07142857       0.00000000 </v>
   <v>       0.35714286       0.07142857       0.00000000 </v>
   <v>       0.42857143       0.07142857       0.00000000 </v>
   <v>       0.50000000       0.07142857       0.00000000 </v>
   <v>      -0.42857143       0.07142857       0.00000000 </v>
   <v>      -0.35714286       0.07142857       0.00000000 </v>
   <v>      -0.28571429       0.07142857       0.00000000 </v>
   <v>      -0.21428571       0.07142857       0.00000000 </v>
   <v>      -0.14285714       0.07142857       0.00000000 </v>
   <v>      -0.07142857       0.07142857       0.00000000 </v>
   <v>       0.14285714       0.14285714       0.00000000 </v>
   <v>       0.21428571       0.14285714       0.00000000 </v>
   <v>       0.28571429       0.14285714       0.00000000 </v>
   <v>       0.35714286       0.14285714       0.00000000 </v>
   <v>       0.42857143       0.14285714       0.00000000 </v>
   <v>       0.50000000       0.14285714       0.00000000 </v>
   <v>      -0.42857143       0.14285714       0.00000000 </v>
   <v>      -0.35714286       0.14285714       0.00000000 </v>
   <v>      -0.28571429       0.14285714       0.00000000 </v>
   <v>      -0.21428571       0.14285714       0.00000000 </v>
   <v>      -0.14285714       0.14285714       0.00000000 </v>
   <v>       0.21428571       0.21428571       0.00000000 </v>
   <v>       0.28571429       0.21428571       0.00000000 </v>
   <v>       0.35714286       0.21428571       0.00000000 </v>
   <v>       0.42857143       0.21428571       0.00000000 </v>
   <v>       0.50000000       0.21428571       0.00000000 </v>
   <v>      -0.42857143       0.21428571       0.00000000 </v>
   <v>      -0.35714286       0.21428571       0.00000000 </v>
   <v>      -0.28571429       0.21428571       0.00000000 </v>
   <v>      -0.21428571       0.21428571       0.00000000 </v>
   <v>       0.28571429       0.28571429       0.00000000 </v>
   <v>       0.35714286       0.28571429       0.00000000 </v>
   <v>       0.42857143       0.28571429       0.00000000 </v>
   <v>       0.50000000       0.28571429       0.00000000 </v>
   <v>      -0.42857143       0.28571429       0.00000000 </v>
   <v>      -0.35714286       0.28571429       0.00000000 </v>
   <v>      -0.28571429       0.28571429       0.00000000 </v>
   <v>       0.35714286       0.35714286       0.00000000 </v>
   <v>       0.42857143       0.35714286       0.00000000 </v>
   <v>       0.50000000       0.35714286       0.00000000 </v>
   <v>      -0.42857143       0.35714286       0.00000000 </v>
   <v>      -0.35714286       0.35714286       0.00000000 </v>
   <v>       0.42857143       0.42857143       0.00000000 </v>
   <v>       0.50000000       0.42857143       0.00000000 </v>
   <v>      -0.42857143       0.42857143       0.00000000 </v>
   <v>       0.50000000       0.50000000       0.00000000 </v>
   <v>       0.21428571       0.14285714       0.07142857 </v>
   <v>       0.28571429       0.14285714       0.07142857 </v>
   <v>       0.35714286       0.14285714       0.07142857 </v>
   <v>       0.42857143       0.14285714       0.07142857 </v>
   <v>       0.50000000       0.14285714       0.07142857 </v>
   <v>      -0.42857143       0.14285714       0.07142857 </v>
   <v>       0.28571429       0.21428571       0.07142857 </v>
   <v>       0.35714286       0.21428571       0.07142857 </v>
   <v>       0.42857143       0.21428571       0.07142857 </v>
   <v>       0.50000000       0.21428571       0.07142857 </v>
   <v>      -0.42857143       0.21428571       0.07142857 </v>
   <v>      -0.35714286       0.21428571       0.07142857 </v>
   <v>      -0.28571429       0.21428571       0.07142857 </v>
   <v>      -0.21428571       0.21428571       0.07142857 </v>
   <v>      -0.14285714       0.21428571       0.07142857 </v>
   <v>       0.35714286       0.28571429       0.07142857 </v>
   <v>       0.42857143       0.28571429       0.07142857 </v>
   <v>       0.50000000       0.28571429       0.07142857 </v>
   <v>      -0.42857143       0.28571429       0.07142857 </v>
   <v>      -0.35714286       0.28571429       0.07142857 </v>
   <v>      -0.28571429       0.28571429       0.07142857 </v>
   <v>      -0.21428571       0.28571429       0.07142857 </v>
   <v>       0.42857143       0.35714286       0.07142857 </v>
   <v>       0.50000000       0.35714286       0.07142857 </v>
   <v>      -0.42857143       0.35714286       0.07142857 </v>
   <v>      -0.35714286       0.35714286       0.07142857 </v>
   <v>      -0.28571429       0.35714286       0.07142857 </v>
   <v>       0.50000000       0.42857143       0.07142857 </v>
   <v>      -0.42857143       0.42857143       0.07142857 </v>
   <v>      -0.35714286       0.42857143       0.07142857 </v>
   <v>      -0.42857143       0.50000000       0.07142857 </v>
   <v>       0.42857143       0.28571429       0.14285714 </v>
   <v>       0.50000000       0.28571429       0.14285714 </v>
   <v>      -0.42857143       0.28571429       0.14285714 </v>
   <v>      -0.35714286       0.28571429       0.14285714 </v>
   <v>       0.50000000       0.35714286       0.14285714 </v>
   <v>      -0.42857143       0.35714286       0.14285714 </v>
   <v>      -0.35714286       0.35714286       0.14285714 </v>
   <v>      -0.28571429       0.35714286       0.14285714 </v>
   <v>      -0.21428571       0.35714286       0.14285714 </v>
   <v>      -0.42857143       0.42857143       0.14285714 </v>
   <v>      -0.35714286       0.42857143       0.14285714 </v>
   <v>      -0.28571429       0.42857143       0.14285714 </v>
   <v>      -0.35714286       0.50000000       0.14285714 </v>
   <v>      -0.35714286       0.42857143       0.21428571 </v>
   <v>      -0.28571429       0.42857143       0.21428571 </v>
   <v>      -0.28571429       0.50000000       0.21428571 </v>
  </varray>
  <varray name="weights" >
   <v>       0.00036443 </v>
   <v>       0.00291545 </v>
   <v>       0.00291545 </v>
   <v>       0.00291545 </v>
   <v>       0.00291545 </v>
   <v>       0.00291545 </v>
   <v>       0.00291545 </v>
   <v>       0.00145773 </v>
   <v>       0.00218659 </v>
   <v>       0.00874636 </v>
   <v>       0.00874636 </v>
   <v>       0.00874636 </v>
   <v>       0.00874636 </v>
   <v>       0.00874636 </v>
   <v>       0.00874636 </v>
   <v>       0.00874636 </v>
   <v>       0.00874636 </v>
   <v>       0.00874636 </v>
   <v>       0.00874636 </v>
   <v>       0.00874636 </v>
   <v>       0.00437318 </v>
   <v>       0.00218659 </v>
   <v>       0.00874636 </v>
   <v>       0.00874636 </v>
   <v>       0.00874636 </v>
   <v>       0.00874636 </v>
   <v>       0.00874636 </v>
   <v>       0.00874636 </v>
   <v>       0.00874636 </v>
   <v>       0.00874636 </v>
   <v>       0.00874636 </v>
   <v>       0.00437318 </v>
   <v>       0.00218659 </v>
   <v>       0.00874636 </v>
   <v>       0.00874636 </v>
   <v>       0.00874636 </v>
   <v>       0.00874636 </v>
   <v>       0.00874636 </v>
   <v>       0.00874636 </v>
   <v>       0.00874636 </v>
   <v>       0.00437318 </v>
   <v>       0.00218659 </v>
   <v>       0.00874636 </v>
   <v>       0.00874636 </v>
   <v>       0.00874636 </v>
   <v>       0.00874636 </v>
   <v>       0.00874636 </v>
   <v>       0.00437318 </v>
   <v>       0.00218659 </v>
   <v>       0.00874636 </v>
   <v>       0.00874636 </v>
   <v>       0.00874636 </v>
   <v>       0.00437318 </v>
   <v>       0.00218659 </v>
   <v>       0.00874636 </v>
   <v>       0.00437318 </v>
   <v>       0.00109329 </v>
   <v>       0.00874636 </v>
   <v>       0.01749271 </v>
   <v>       0.01749271 </v>
   <v>       0.01749271 </v>
   <v>       0.01749271 </v>
   <v>       0.00874636 </v>
   <v>       0.00874636 </v>
   <v>       0.01749271 </v>
   <v>       0.01749271 </v>
   <v>       0.01749271 </v>
   <v>       0.01749271 </v>
   <v>       0.01749271 </v>
   <v>       0.01749271 </v>
   <v>       0.01749271 </v>
   <v>       0.00874636 </v>
   <v>       0.00874636 </v>
   <v>       0.01749271 </v>
   <v>       0.01749271 </v>
   <v>       0.01749271 </v>
   <v>       0.01749271 </v>
   <v>       0.01749271 </v>
   <v>       0.00874636 </v>
   <v>       0.00874636 </v>
   <v>       0.01749271 </v>
   <v>       0.01749271 </v>
   <v>       0.01749271 </v>
   <v>       0.00874636 </v>
   <v>       0.00874636 </v>
   <v>       0.01749271 </v>
   <v>       0.00874636 </v>
   <v>       0.00437318 </v>
   <v>       0.00874636 </v>
   <v>       0.01749271 </v>
   <v>       0.01749271 </v>
   <v>       0.00874636 </v>
   <v>       0.00874636 </v>
   <v>       0.01749271 </v>
   <v>       0.01749271 </v>
   <v>       0.01749271 </v>
   <v>       0.00874636 </v>
   <v>       0.00874636 </v>
   <v>       0.01749271 </v>
   <v>       0.00874636 </v>
   <v>       0.00437318 </v>
   <v>       0.00874636 </v>
   <v>       0.00874636 </v>
   <v>       0.00437318 </v>
  </varray>
 </kpoints>
 <parameters>
  <separator name="general" >
   <i type="string" name="SYSTEM">unknown system</i>
   <i type="logical" name="LCOMPAT"> F  </i>
  </separator>
  <separator name="electronic" >
   <i type="string" name="PREC">accura</i>
   <i name="ENMAX">    550.00000000</i>
   <i name="ENAUG">    322.06900000</i>
   <i name="EDIFF">      0.00000010</i>
   <i type="int" name="IALGO">    38</i>
   <i type="int" name="IWAVPR">    11</i>
   <i type="int" name="NBANDS">     8</i>
   <i name="NELECT">      8.00000000</i>
   <i type="int" name="TURBO">     0</i>
   <i type="int" name="IRESTART">     0</i>
   <i type="int" name="NREBOOT">     0</i>
   <i type="int" name="NMIN">     0</i>
   <i name="EREF">      0.00000000</i>
   <separator name="electronic smearing" >
    <i type="int" name="ISMEAR">     0</i>
    <i name="SIGMA">      0.20000000</i>
    <i name="KSPACING">      0.50000000</i>
    <i type="logical" name="KGAMMA"> T  </i>
   </separator>
   <separator name="electronic projectors" >
    <i type="logical" name="LREAL"> F  </i>
    <v name="ROPT">      0.00000000</v>
    <i type="int" name="LMAXPAW">  -100</i>
    <i type="int" name="LMAXMIX">     2</i>
    <i type="logical" name="NLSPLINE"> F  </i>
   </separator>
   <separator name="electronic startup" >
    <i type="int" name="ISTART">     0</i>
    <i type="int" name="ICHARG">     2</i>
    <i type="int" name="INIWAV">     1</i>
   </separator>
   <separator name="electronic spin" >
    <i type="int" name="ISPIN">     1</i>
    <i type="logical" name="LNONCOLLINEAR"> F  </i>
    <v name="MAGMOM">      1.00000000      1.00000000</v>
    <i name="NUPDOWN">     -1.00000000</i>
    <i type="logical" name="LSORBIT"> F  </i>
    <v name="SAXIS">      0.00000000      0.00000000      1.00000000</v>
    <i type="logical" name="LSPIRAL"> F  </i>
    <v name="QSPIRAL">      0.00000000      0.00000000      0.00000000</v>
    <i type="logical" name="LZEROZ"> F  </i>
   </separator>
   <separator name="electronic exchange-correlation" >
    <i type="logical" name="LASPH"> F  </i>
    <i type="logical" name="LMETAGGA"> F  </i>
   </separator>
   <separator name="electronic convergence" >
    <i type="int" name="NELM">   400</i>
    <i type="int" name="NELMDL">    -5</i>
    <i type="int" name="NELMIN">     2</i>
    <i name="ENINI">    550.00000000</i>
    <separator name="electronic convergence detail" >
     <i type="logical" name="LDIAG"> T  </i>
     <i type="logical" name="LSUBROT"> T  </i>
     <i name="WEIMIN">      0.00100000</i>
     <i name="EBREAK">      0.00000000</i>
     <i name="DEPER">      0.30000000</i>
     <i type="int" name="NRMM">     4</i>
     <i name="TIME">      0.40000000</i>
    </separator>
   </separator>
   <separator name="electronic mixer" >
    <i name="AMIX">      0.40000000</i>
    <i name="BMIX">      1.00000000</i>
    <i name="AMIN">      0.10000000</i>
    <i name="AMIX_MAG">      1.60000000</i>
    <i name="BMIX_MAG">      1.00000000</i>
    <separator name="electronic mixer details" >
     <i type="int" name="IMIX">     4</i>
     <i type="int" name="MAXMIX">   -45</i>
     <i name="WC">    100.00000000</i>
     <i type="int" name="INIMIX">     1</i>
     <i type="int" name="MIXPRE">     1</i>
     <i type="int" name="MREMOVE">     5</i>
    </separator>
   </separator>
   <separator name="electronic dipolcorrection" >
    <i type="logical" name="LDIPOL"> F  </i>
    <i type="logical" name="LMONO"> F  </i>
    <i type="int" name="IDIPOL">     0</i>
    <i name="EPSILON">      1.00000000</i>
    <v name="DIPOL">   -100.00000000   -100.00000000   -100.00000000</v>
    <i name="EFIELD">      0.00000000</i>
   </separator>
  </separator>
  <separator name="grids" >
   <i type="int" name="NGX">    30</i>
   <i type="int" name="NGY">    30</i>
   <i type="int" name="NGZ">    30</i>
   <i type="int" name="NGXF">    60</i>
   <i type="int" name="NGYF">    60</i>
   <i type="int" name="NGZF">    60</i>
   <i type="logical" name="ADDGRID"> F  </i>
  </separator>
  <separator name="ionic" >
   <i type="int" name="NSW">     1</i>
   <i type="int" name="IBRION">     2</i>
   <i type="int" name="ISIF">     2</i>
   <i name="PSTRESS">      0.00000000</i>
   <i name="EDIFFG">      0.00000100</i>
   <i type="int" name="NFREE">     1</i>
   <i name="POTIM">      0.50000000</i>
   <i name="SMASS">     -3.00000000</i>
   <i name="SCALEE">      1.00000000</i>
  </separator>
  <separator name="ionic md" >
   <i name="TEBEG">      0.00010000</i>
   <i name="TEEND">      0.00010000</i>
   <i type="int" name="NBLOCK">     1</i>
   <i type="int" name="KBLOCK">     1</i>
   <i type="int" name="NPACO">   256</i>
   <i name="APACO">     16.00000000</i>
  </separator>
  <separator name="symmetry" >
   <i type="int" name="ISYM">     2</i>
   <i name="SYMPREC">      0.00001000</i>
  </separator>
  <separator name="dos" >
   <i type="logical" name="LORBIT"> F  </i>
   <v name="RWIGS">     -1.00000000</v>
   <i type="int" name="NEDOS">   301</i>
   <i name="EMIN">     10.00000000</i>
   <i name="EMAX">    -10.00000000</i>
   <i name="EFERMI">      0.00000000</i>
  </separator>
  <separator name="writing" >
   <i type="int" name="NWRITE">     2</i>
   <i type="logical" name="LWAVE"> F  </i>
   <i type="logical" name="LCHARG"> F  </i>
   <i type="logical" name="LPARD"> F  </i>
   <i type="logical" name="LVTOT"> F  </i>
   <i type="logical" name="LVHAR"> F  </i>
   <i type="logical" name="LELF"> F  </i>
   <i type="logical" name="LOPTICS"> F  </i>
   <v name="STM">      0.00000000      0.00000000      0.00000000      0.00000000      0.00000000      0.00000000      0.00000000</v>
  </separator>
  <separator name="performance" >
   <i type="int" name="NPAR">     4</i>
   <i type="int" name="NSIM">     4</i>
   <i type="int" name="NBLK">    -1</i>
   <i type="logical" name="LPLANE"> T  </i>
   <i type="logical" name="LSCALAPACK"> F  </i>
   <i type="logical" name="LSCAAWARE"> F  </i>
   <i type="logical" name="LSCALU"> F  </i>
   <i type="logical" name="LASYNC"> F  </i>
   <i type="logical" name="LORBITALREAL"> F  </i>
  </separator>
  <separator name="miscellaneous" >
   <i type="int" name="IDIOT">     3</i>
   <i type="logical" name="LMUSIC"> F  </i>
   <v name="POMASS">     28.08500000</v>
   <v name="DARWINR">      0.00000000</v>
   <v name="DARWINV">      1.00000000</v>
   <i type="logical" name="LCORR"> T  </i>
  </separator>
  <i type="logical" name="GGA_COMPAT"> T  </i>
  <i type="logical" name="LBERRY"> F  </i>
  <i type="int" name="ICORELEVEL">     0</i>
  <i type="logical" name="LDAU"> F  </i>
  <i type="int" name="I_CONSTRAINED_M">     0</i>
  <separator name="electronic exchange-correlation" >
   <i type="string" name="GGA">BO</i>
   <i type="int" name="VOSKOWN">     0</i>
   <i type="logical" name="LHFCALC"> F  </i>
   <i type="string" name="PRECFOCK"></i>
   <i type="logical" name="LSYMGRAD"> F  </i>
   <i type="logical" name="LHFONE"> F  </i>
   <i type="logical" name="LRHFCALC"> F  </i>
   <i type="logical" name="LTHOMAS"> F  </i>
   <i type="logical" name="LMODELHF"> F  </i>
   <i name="ENCUT4O">     -1.00000000</i>
   <i type="int" name="EXXOEP">     0</i>
   <i type="int" name="FOURORBIT">     0</i>
   <i name="AEXX">      0.00000000</i>
   <i name="HFALPHA">      0.00000000</i>
   <i name="MCALPHA">      0.00000000</i>
   <i name="ALDAX">      1.00000000</i>
   <i name="AGGAX">      1.00000000</i>
   <i name="ALDAC">      1.00000000</i>
   <i name="AGGAC">      0.00000000</i>
   <i type="int" name="NKREDX">     1</i>
   <i type="int" name="NKREDY">     1</i>
   <i type="int" name="NKREDZ">     1</i>
   <i type="logical" name="SHIFTRED"> F  </i>
   <i type="logical" name="ODDONLY"> F  </i>
   <i type="logical" name="EVENONLY"> F  </i>
   <i type="int" name="LMAXFOCK">     0</i>
   <i type="int" name="NMAXFOCKAE">     0</i>
   <i type="logical" name="LFOCKAEDFT"> F  </i>
   <i name="HFSCREEN">      0.00000000</i>
   <i name="HFSCREENC">      0.00000000</i>
   <i type="int" name="NBANDSGWLOW">     0</i>
  </separator>
  <separator name="vdW DFT" >
   <i type="logical" name="LUSE_VDW"> T  </i>
   <i name="Zab_VDW">     -0.84910000</i>
   <i name="PARAM1">      0.18333333</i>
   <i name="PARAM2">      0.22000000</i>
   <i name="PARAM3">      0.00000000</i>
  </separator>
  <separator name="model GW" >
   <i type="int" name="MODEL_GW">     0</i>
   <i name="MODEL_EPS0">     12.26648953</i>
   <i name="MODEL_ALPHA">      1.00000000</i>
  </separator>
  <separator name="linear response parameters" >
   <i type="logical" name="LEPSILON"> F  </i>
   <i type="logical" name="LRPA"> F  </i>
   <i type="logical" name="LNABLA"> F  </i>
   <i type="logical" name="LVEL"> F  </i>
   <i type="int" name="KINTER">     0</i>
   <i name="CSHIFT">      0.10000000</i>
   <i name="OMEGAMAX">     -1.00000000</i>
   <i name="DEG_THRESHOLD">      0.00200000</i>
  </separator>
  <separator name="orbital magnetization" >
   <i type="logical" name="NUCIND"> F  </i>
   <v name="MAGPOS">      0.00000000      0.00000000      0.00000000</v>
   <i type="logical" name="LNICSALL"> T  </i>
   <i type="logical" name="ORBITALMAG"> F  </i>
   <i type="logical" name="LMAGBLOCH"> F  </i>
   <i type="logical" name="LCHIMAG"> F  </i>
   <i type="logical" name="LGAUGE"> T  </i>
   <i type="int" name="MAGATOM">     0</i>
   <v name="MAGDIPOL">      0.00000000      0.00000000      0.00000000</v>
   <v name="AVECCONST">      0.00000000      0.00000000      0.00000000</v>
  </separator>
  <separator name="response functions" >
   <i type="logical" name="LADDER"> F  </i>
   <i type="logical" name="LFXC"> F  </i>
   <i type="logical" name="LHARTREE"> T  </i>
   <i type="int" name="IBSE">     0</i>
   <i type="logical" name="LTCTE"> F  </i>
   <i type="logical" name="LTETE"> F  </i>
   <i type="logical" name="LTRIPLET"> F  </i>
   <i type="logical" name="LFXCEPS"> F  </i>
   <i type="logical" name="L2ORDER"> F  </i>
   <i type="logical" name="LUSEW"> F  </i>
   <i name="ENCUTGW">     -2.00000000</i>
   <i name="ENCUTGWSOFT">     -2.00000000</i>
   <i name="ENCUTLF">     -1.00000000</i>
   <i type="int" name="LMAXMP2">    -1</i>
   <i name="SCISSOR">      0.00000000</i>
   <i type="int" name="NOMEGA">     0</i>
   <i type="int" name="NOMEGAR">     0</i>
   <i type="int" name="NBANDSGW">    -1</i>
   <i type="int" name="NBANDSO">    -1</i>
   <i type="int" name="NBANDSV">    -1</i>
   <i type="int" name="NELM">   400</i>
   <i type="int" name="DIM">     3</i>
   <i type="int" name="ANTIRES">     0</i>
   <i name="OMEGAMAX">    -30.00000000</i>
   <i name="OMEGATL">   -200.00000000</i>
   <i type="int" name="OMEGAGRID">     0</i>
   <i name="CSHIFT">     -0.10000000</i>
   <i type="logical" name="SELFENERGY"> F  </i>
   <i type="logical" name="LSPECTRAL"> F  </i>
   <i type="logical" name="ODDONLYGW"> F  </i>
   <i type="logical" name="EVENONLYGW"> F  </i>
   <i type="int" name="NKREDLFX">     1</i>
   <i type="int" name="NKREDLFY">     1</i>
   <i type="int" name="NKREDLFZ">     1</i>
   <i type="int" name="MAXMEM">  1800</i>
   <i type="int" name="TELESCOPE">     0</i>
  </separator>
 </parameters>
 <atominfo>
  <atoms>       2 </atoms>
  <types>       1 </types>
  <array name="atoms" >
   <dimension dim="1">ion</dimension>
   <field type="string">element</field>
   <field type="int">atomtype</field>
   <set>
    <rc><c>Si</c><c>   1</c></rc>
    <rc><c>Si</c><c>   1</c></rc>
   </set>
  </array>
  <array name="atomtypes" >
   <dimension dim="1">type</dimension>
   <field type="int">atomspertype</field>
   <field type="string">element</field>
   <field>mass</field>
   <field>valence</field>
   <field type="string">pseudopotential</field>
   <set>
    <rc><c>   2</c><c>Si</c><c>     28.08500000</c><c>      4.00000000</c><c>  PAW_PBE Si 05Jan2001                  </c></rc>
   </set>
  </array>
 </atominfo>
 <structure name="initialpos" >
  <crystal>
   <varray name="basis" >
    <v>       3.34889800       0.00000000       1.93348700 </v>
    <v>       1.11629900       3.15737200       1.93348700 </v>
    <v>       0.00000000       0.00000000       3.86697500 </v>
   </varray>
   <i name="volume">     40.88829843 </i>
   <varray name="rec_basis" >
    <v>       0.29860569      -0.10557300       0.00000000 </v>
    <v>       0.00000000       0.31671909       0.00000000 </v>
    <v>      -0.14930281      -0.10557302       0.25860007 </v>
   </varray>
  </crystal>
  <varray name="positions" >
   <v>       0.87500000       0.87500000       0.87500000 </v>
   <v>       0.12500000       0.12500000       0.12500000 </v>
  </varray>
 </structure>
 <calculation>
  <scstep>
   <time name="dav">    0.77    0.78</time>
   <time name="total">    3.28    3.53</time>
   <energy>
    <i name="alphaZ">      3.29317992 </i>
    <i name="ewald">   -226.94489173 </i>
    <i name="hartreedc">    -11.32339116 </i>
    <i name="XCdc">    -20.24410379 </i>
    <i name="pawpsdc">    189.40224250 </i>
    <i name="pawaedc">   -152.61488262 </i>
    <i name="eentropy">     -0.00902090 </i>
    <i name="bandstr">     18.28553732 </i>
    <i name="atom">    208.59416316 </i>
    <i name="e_fr_energy">      8.43883269 </i>
    <i name="e_wo_entrp">      8.44785358 </i>
    <i name="e_0_energy">      8.44334314 </i>
   </energy>
  </scstep>
  <scstep>
   <time name="dav">    1.15    1.20</time>
   <time name="total">    1.15    6.57</time>
   <energy>
    <i name="e_fr_energy">     -8.18989055 </i>
    <i name="e_wo_entrp">     -8.18988942 </i>
    <i name="e_0_energy">     -8.18988999 </i>
   </energy>
  </scstep>
  <scstep>
   <time name="dav">    0.96    0.98</time>
   <time name="total">    0.96    1.38</time>
   <energy>
    <i name="e_fr_energy">     -8.41368536 </i>
    <i name="e_wo_entrp">     -8.41368386 </i>
    <i name="e_0_energy">     -8.41368461 </i>
   </energy>
  </scstep>
  <scstep>
   <time name="dav">    1.05    1.06</time>
   <time name="total">    1.06    5.42</time>
   <energy>
    <i name="e_fr_energy">     -8.41476087 </i>
    <i name="e_wo_entrp">     -8.41475937 </i>
    <i name="e_0_energy">     -8.41476012 </i>
   </energy>
  </scstep>
  <scstep>
   <time name="dav">    0.94    0.95</time>
   <time name="total">    1.00    3.69</time>
   <energy>
    <i name="e_fr_energy">     -8.41476362 </i>
    <i name="e_wo_entrp">     -8.41476212 </i>
    <i name="e_0_energy">     -8.41476287 </i>
   </energy>
  </scstep>
  <scstep>
   <time name="dav">    0.83    0.83</time>
   <time name="total">    1.98    2.73</time>
   <energy>
    <i name="e_fr_energy">     -8.36148007 </i>
    <i name="e_wo_entrp">     -8.36147349 </i>
    <i name="e_0_energy">     -8.36147678 </i>
   </energy>
  </scstep>
  <scstep>
   <time name="dav">    0.91    0.92</time>
   <time name="total">    2.11    6.47</time>
   <energy>
    <i name="e_fr_energy">     -8.35617834 </i>
    <i name="e_wo_entrp">     -8.35613080 </i>
    <i name="e_0_energy">     -8.35615457 </i>
   </energy>
  </scstep>
  <scstep>
   <time name="dav">    0.86    0.86</time>
   <time name="total">    2.08    2.49</time>
   <energy>
    <i name="e_fr_energy">     -8.33944757 </i>
    <i name="e_wo_entrp">     -8.33941438 </i>
    <i name="e_0_energy">     -8.33943098 </i>
   </energy>
  </scstep>
  <scstep>
   <time name="dav">    1.00    1.00</time>
   <time name="total">    2.20    2.78</time>
   <energy>
    <i name="e_fr_energy">     -8.34110011 </i>
    <i name="e_wo_entrp">     -8.34106374 </i>
    <i name="e_0_energy">     -8.34108192 </i>
   </energy>
  </scstep>
  <scstep>
   <time name="dav">    1.06    1.07</time>
   <time name="total">    2.36    2.72</time>
   <energy>
    <i name="e_fr_energy">     -8.34037610 </i>
    <i name="e_wo_entrp">     -8.34034068 </i>
    <i name="e_0_energy">     -8.34035839 </i>
   </energy>
  </scstep>
  <scstep>
   <time name="dav">    1.10    1.10</time>
   <time name="total">    2.37    3.22</time>
   <energy>
    <i name="e_fr_energy">     -8.34034372 </i>
    <i name="e_wo_entrp">     -8.34030822 </i>
    <i name="e_0_energy">     -8.34032597 </i>
   </energy>
  </scstep>
  <scstep>
   <time name="dav">    1.09    1.09</time>
   <time name="total">    2.47    5.15</time>
   <energy>
    <i name="e_fr_energy">     -8.34034199 </i>
    <i name="e_wo_entrp">     -8.34030651 </i>
    <i name="e_0_energy">     -8.34032425 </i>
   </energy>
  </scstep>
  <scstep>
   <time name="dav">    0.66    0.66</time>
   <time name="total">    1.92    5.25</time>
   <energy>
    <i name="e_fr_energy">     -8.34033826 </i>
    <i name="e_wo_entrp">     -8.34030279 </i>
    <i name="e_0_energy">     -8.34032052 </i>
   </energy>
  </scstep>
  <scstep>
   <time name="dav">    0.66    0.66</time>
   <time name="total">    1.92    2.74</time>
   <energy>
    <i name="e_fr_energy">     -8.34033806 </i>
    <i name="e_wo_entrp">     -8.34030259 </i>
    <i name="e_0_energy">     -8.34032032 </i>
   </energy>
  </scstep>
  <scstep>
   <time name="dav">    0.57    0.57</time>
   <time name="total">    1.81    4.55</time>
   <energy>
    <i name="e_fr_energy">     -8.34033789 </i>
    <i name="e_wo_entrp">     -8.34030242 </i>
    <i name="e_0_energy">     -8.34032016 </i>
   </energy>
  </scstep>
  <scstep>
   <time name="dav">    0.62    0.62</time>
   <time name="total">    1.83    4.51</time>
   <energy>
    <i name="alphaZ">      3.29317992 </i>
    <i name="ewald">   -226.94489173 </i>
    <i name="hartreedc">    -15.37257218 </i>
    <i name="XCdc">    -19.57622808 </i>
    <i name="pawpsdc">    538.68684344 </i>
    <i name="pawaedc">   -502.15021978 </i>
    <i name="eentropy">     -0.00003547 </i>
    <i name="bandstr">      5.12942278 </i>
    <i name="atom">    208.59416316 </i>
    <i name="e_fr_energy">     -8.34033794 </i>
    <i name="e_wo_entrp">     -8.34030247 </i>
    <i name="e_0_energy">     -8.34032020 </i>
   </energy>
  </scstep>
  <structure>
   <crystal>
    <varray name="basis" >
     <v>       3.34889800       0.00000000       1.93348700 </v>
     <v>       1.11629900       3.15737200       1.93348700 </v>
     <v>       0.00000000       0.00000000       3.86697500 </v>
    </varray>
    <i name="volume">     40.88829843 </i>
    <varray name="rec_basis" >
     <v>       0.29860569      -0.10557300       0.00000000 </v>
     <v>       0.00000000       0.31671909       0.00000000 </v>
     <v>      -0.14930281      -0.10557302       0.25860007 </v>
    </varray>
   </crystal>
   <varray name="positions" >
    <v>       0.87500000       0.87500000       0.87500000 </v>
    <v>       0.12500000       0.12500000       0.12500000 </v>
   </varray>
  </structure>
  <varray name="forces" >
   <v>       0.00000000       0.00000000       0.00000000 </v>
   <v>       0.00000000       0.00000000       0.00000000 </v>
  </varray>
  <varray name="stress" >
   <v>      12.27600579      -0.00000130      -0.00000183 </v>
   <v>      -0.00000130      12.27601113      -0.00000130 </v>
   <v>      -0.00000183      -0.00000130      12.27601009 </v>
  </varray>
  <energy>
   <i name="e_fr_energy">     -8.34033794 </i>
   <i name="e_wo_entrp">     -8.34032020 </i>
   <i name="e_0_energy">     -0.00003547 </i>
  </energy>
  <time name="totalsc">   33.77   68.96</time>
  <eigenvalues>
   <array>
    <dimension dim="1">band</dimension>
    <dimension dim="2">kpoint</dimension>
    <dimension dim="3">spin</dimension>
    <field>eigene</field>
    <field>occ</field>
    <set>
     <set comment="spin 1">
      <set comment="kpoint 1">
       <r>   -6.1471    1.0000 </r>
       <r>    5.5936    0.9917 </r>
       <r>    5.5936    0.9917 </r>
       <r>    5.5936    0.9917 </r>
       <r>    8.2163    0.0000 </r>
       <r>    8.2163    0.0000 </r>
       <r>    8.2163    0.0000 </r>
       <r>    8.8215    0.0000 </r>
      </set>
      <set comment="kpoint 2">
       <r>   -6.0816    1.0000 </r>
       <r>    4.9448    1.0000 </r>
       <r>    5.4910    0.9991 </r>
       <r>    5.4910    0.9991 </r>
       <r>    8.2469    0.0000 </r>
       <r>    8.3689    0.0000 </r>
       <r>    8.3690    0.0000 </r>
       <r>    9.3295    0.0000 </r>
      </set>
      <set comment="kpoint 3">
       <r>   -5.8864    1.0000 </r>
       <r>    3.7077    1.0000 </r>
       <r>    5.2530    1.0000 </r>
       <r>    5.2530    1.0000 </r>
       <r>    8.0436    0.0000 </r>
       <r>    8.7199    0.0000 </r>
       <r>    8.7199    0.0000 </r>
       <r>   10.4986    0.0000 </r>
      </set>
      <set comment="kpoint 4">
       <r>   -5.5669    1.0000 </r>
       <r>    2.3938    1.0000 </r>
       <r>    4.9867    1.0000 </r>
       <r>    4.9867    1.0000 </r>
       <r>    7.7629    0.0000 </r>
       <r>    9.0480    0.0000 </r>
       <r>    9.0480    0.0000 </r>
       <r>   11.7712    0.0000 </r>
      </set>
      <set comment="kpoint 5">
       <r>   -5.1358    1.0000 </r>
       <r>    1.1425    1.0000 </r>
       <r>    4.7528    1.0000 </r>
       <r>    4.7528    1.0000 </r>
       <r>    7.5025    0.0000 </r>
       <r>    9.1774    0.0000 </r>
       <r>    9.1774    0.0000 </r>
       <r>   12.9478    0.0000 </r>
      </set>
      <set comment="kpoint 6">
       <r>   -4.6243    1.0000 </r>
       <r>    0.0275    1.0000 </r>
       <r>    4.5774    1.0000 </r>
       <r>    4.5774    1.0000 </r>
       <r>    7.3019    0.0000 </r>
       <r>    9.1312    0.0000 </r>
       <r>    9.1312    0.0000 </r>
       <r>   13.4999    0.0000 </r>
      </set>
      <set comment="kpoint 7">
       <r>   -4.1212    1.0000 </r>
       <r>   -0.8432    1.0000 </r>
       <r>    4.4701    1.0000 </r>
       <r>    4.4701    1.0000 </r>
       <r>    7.1774    0.0000 </r>
       <r>    9.0443    0.0000 </r>
       <r>    9.0443    0.0000 </r>
       <r>   13.4287    0.0000 </r>
      </set>
      <set comment="kpoint 8">
       <r>   -3.8742    1.0000 </r>
       <r>   -1.2135    1.0000 </r>
       <r>    4.4342    1.0000 </r>
       <r>    4.4342    1.0000 </r>
       <r>    7.1353    0.0000 </r>
       <r>    9.0065    0.0000 </r>
       <r>    9.0065    0.0000 </r>
       <r>   13.3725    0.0000 </r>
      </set>
      <set comment="kpoint 9">
       <r>   -6.0596    1.0000 </r>
       <r>    5.0624    1.0000 </r>
       <r>    5.2805    1.0000 </r>
       <r>    5.2805    1.0000 </r>
       <r>    8.0142    0.0000 </r>
       <r>    8.6368    0.0000 </r>
       <r>    8.6368    0.0000 </r>
       <r>    9.3247    0.0000 </r>
      </set>
      <set comment="kpoint 10">
       <r>   -5.9074    1.0000 </r>
       <r>    4.0697    1.0000 </r>
       <r>    4.9886    1.0000 </r>
       <r>    5.1580    1.0000 </r>
       <r>    8.0122    0.0000 </r>
       <r>    8.7026    0.0000 </r>
       <r>    9.0648    0.0000 </r>
       <r>   10.1640    0.0000 </r>
      </set>
      <set comment="kpoint 11">
       <r>   -5.6286    1.0000 </r>
       <r>    2.8079    1.0000 </r>
       <r>    4.7083    1.0000 </r>
       <r>    4.9191    1.0000 </r>
       <r>    8.0904    0.0000 </r>
       <r>    8.7075    0.0000 </r>
       <r>    9.4567    0.0000 </r>
       <r>   10.9836    0.0000 </r>
      </set>
      <set comment="kpoint 12">
       <r>   -5.2329    1.0000 </r>
       <r>    1.5525    1.0000 </r>
       <r>    4.4863    1.0000 </r>
       <r>    4.6294    1.0000 </r>
       <r>    7.9418    0.0000 </r>
       <r>    8.8817    0.0000 </r>
       <r>    9.6296    0.0000 </r>
       <r>   11.4336    0.0000 </r>
      </set>
      <set comment="kpoint 13">
       <r>   -4.7428    1.0000 </r>
       <r>    0.3975    1.0000 </r>
       <r>    4.3425    1.0000 </r>
       <r>    4.3607    1.0000 </r>
       <r>    7.7527    0.0000 </r>
       <r>    8.9365    0.0000 </r>
       <r>    9.5671    0.0000 </r>
       <r>   12.1170    0.0000 </r>
      </set>
      <set comment="kpoint 14">
       <r>   -4.2196    1.0000 </r>
       <r>   -0.5659    1.0000 </r>
       <r>    4.1447    1.0000 </r>
       <r>    4.2830    1.0000 </r>
       <r>    7.6132    0.0000 </r>
       <r>    8.9138    0.0000 </r>
       <r>    9.4060    0.0000 </r>
       <r>   13.0169    0.0000 </r>
      </set>
      <set comment="kpoint 15">
       <r>   -3.8468    1.0000 </r>
       <r>   -1.1408    1.0000 </r>
       <r>    3.9969    1.0000 </r>
       <r>    4.3073    1.0000 </r>
       <r>    7.5470    0.0000 </r>
       <r>    8.9267    0.0000 </r>
       <r>    9.2609    0.0000 </r>
       <r>   13.5422    0.0000 </r>
      </set>
      <set comment="kpoint 16">
       <r>   -3.9345    1.0000 </r>
       <r>   -1.0121    1.0000 </r>
       <r>    3.9268    1.0000 </r>
       <r>    4.4101    1.0000 </r>
       <r>    7.5610    0.0000 </r>
       <r>    9.0188    0.0000 </r>
       <r>    9.1810    0.0000 </r>
       <r>   13.5971    0.0000 </r>
      </set>
      <set comment="kpoint 17">
       <r>   -4.3912    1.0000 </r>
       <r>   -0.2724    1.0000 </r>
       <r>    3.9414    1.0000 </r>
       <r>    4.5832    1.0000 </r>
       <r>    7.6549    0.0000 </r>
       <r>    9.1612    0.0000 </r>
       <r>    9.1777    0.0000 </r>
       <r>   13.3174    0.0000 </r>
      </set>
      <set comment="kpoint 18">
       <r>   -4.9150    1.0000 </r>
       <r>    0.7684    1.0000 </r>
       <r>    4.0456    1.0000 </r>
       <r>    4.8138    1.0000 </r>
       <r>    7.8235    0.0000 </r>
       <r>    9.1362    0.0000 </r>
       <r>    9.3294    0.0000 </r>
       <r>   12.5451    0.0000 </r>
      </set>
      <set comment="kpoint 19">
       <r>   -5.3775    1.0000 </r>
       <r>    1.9622    1.0000 </r>
       <r>    4.2420    1.0000 </r>
       <r>    5.0805    1.0000 </r>
       <r>    8.0524    0.0000 </r>
       <r>    8.9844    0.0000 </r>
       <r>    9.3107    0.0000 </r>
       <r>   11.7547    0.0000 </r>
      </set>
      <set comment="kpoint 20">
       <r>   -5.7356    1.0000 </r>
       <r>    3.2160    1.0000 </r>
       <r>    4.5342    1.0000 </r>
       <r>    5.3405    1.0000 </r>
       <r>    8.3074    0.0000 </r>
       <r>    8.6755    0.0000 </r>
       <r>    8.9833    0.0000 </r>
       <r>   10.9596    0.0000 </r>
      </set>
      <set comment="kpoint 21">
       <r>   -5.9727    1.0000 </r>
       <r>    4.3415    1.0000 </r>
       <r>    4.9641    1.0000 </r>
       <r>    5.5111    0.9986 </r>
       <r>    8.3966    0.0000 </r>
       <r>    8.4944    0.0000 </r>
       <r>    8.4997    0.0000 </r>
       <r>   10.0043    0.0000 </r>
      </set>
      <set comment="kpoint 22">
       <r>   -5.7981    1.0000 </r>
       <r>    3.9755    1.0000 </r>
       <r>    4.6645    1.0000 </r>
       <r>    4.6645    1.0000 </r>
       <r>    7.5500    0.0000 </r>
       <r>    9.5716    0.0000 </r>
       <r>    9.5716    0.0000 </r>
       <r>    9.9537    0.0000 </r>
      </set>
      <set comment="kpoint 23">
       <r>   -5.5611    1.0000 </r>
       <r>    3.0518    1.0000 </r>
       <r>    4.3662    1.0000 </r>
       <r>    4.4170    1.0000 </r>
       <r>    7.5248    0.0000 </r>
       <r>    9.5411    0.0000 </r>
       <r>   10.0649    0.0000 </r>
       <r>   10.2158    0.0000 </r>
      </set>
      <set comment="kpoint 24">
       <r>   -5.2034    1.0000 </r>
       <r>    1.9072    1.0000 </r>
       <r>    4.0926    1.0000 </r>
       <r>    4.1369    1.0000 </r>
       <r>    7.7304    0.0000 </r>
       <r>    9.4869    0.0000 </r>
       <r>   10.2039    0.0000 </r>
       <r>   10.3483    0.0000 </r>
      </set>
      <set comment="kpoint 25">
       <r>   -4.7414    1.0000 </r>
       <r>    0.7778    1.0000 </r>
       <r>    3.7374    1.0000 </r>
       <r>    3.9958    1.0000 </r>
       <r>    7.8130    0.0000 </r>
       <r>    9.5204    0.0000 </r>
       <r>   10.3396    0.0000 </r>
       <r>   10.5052    0.0000 </r>
      </set>
      <set comment="kpoint 26">
       <r>   -4.2174    1.0000 </r>
       <r>   -0.2265    1.0000 </r>
       <r>    3.4209    1.0000 </r>
       <r>    3.9502    1.0000 </r>
       <r>    7.7912    0.0000 </r>
       <r>    9.4257    0.0000 </r>
       <r>   10.1594    0.0000 </r>
       <r>   11.3902    0.0000 </r>
      </set>
      <set comment="kpoint 27">
       <r>   -3.7594    1.0000 </r>
       <r>   -0.9481    1.0000 </r>
       <r>    3.1753    1.0000 </r>
       <r>    4.0000    1.0000 </r>
       <r>    7.7970    0.0000 </r>
       <r>    9.3477    0.0000 </r>
       <r>    9.9493    0.0000 </r>
       <r>   12.5555    0.0000 </r>
      </set>
      <set comment="kpoint 28">
       <r>   -3.6750    1.0000 </r>
       <r>   -1.0677    1.0000 </r>
       <r>    3.0186    1.0000 </r>
       <r>    4.1398    1.0000 </r>
       <r>    7.8805    0.0000 </r>
       <r>    9.3454    0.0000 </r>
       <r>    9.7802    0.0000 </r>
       <r>   13.7483    0.0000 </r>
      </set>
      <set comment="kpoint 29">
       <r>   -4.0534    1.0000 </r>
       <r>   -0.4955    1.0000 </r>
       <r>    2.9645    1.0000 </r>
       <r>    4.3584    1.0000 </r>
       <r>    8.0432    0.0000 </r>
       <r>    9.4257    0.0000 </r>
       <r>    9.6624    0.0000 </r>
       <r>   13.2284    0.0000 </r>
      </set>
      <set comment="kpoint 30">
       <r>   -4.5772    1.0000 </r>
       <r>    0.4376    1.0000 </r>
       <r>    3.0284    1.0000 </r>
       <r>    4.6365    1.0000 </r>
       <r>    8.2638    0.0000 </r>
       <r>    9.5418    0.0000 </r>
       <r>    9.5442    0.0000 </r>
       <r>   12.2136    0.0000 </r>
      </set>
      <set comment="kpoint 31">
       <r>   -5.0655    1.0000 </r>
       <r>    1.5067    1.0000 </r>
       <r>    3.2425    1.0000 </r>
       <r>    4.9405    1.0000 </r>
       <r>    8.5047    0.0000 </r>
       <r>    9.3012    0.0000 </r>
       <r>    9.5198    0.0000 </r>
       <r>   11.4597    0.0000 </r>
      </set>
      <set comment="kpoint 32">
       <r>   -5.4589    1.0000 </r>
       <r>    2.5129    1.0000 </r>
       <r>    3.7088    1.0000 </r>
       <r>    5.2086    1.0000 </r>
       <r>    8.6569    0.0000 </r>
       <r>    8.9362    0.0000 </r>
       <r>    9.1514    0.0000 </r>
       <r>   11.1920    0.0000 </r>
      </set>
      <set comment="kpoint 33">
       <r>   -5.3657    1.0000 </r>
       <r>    2.7480    1.0000 </r>
       <r>    4.0487    1.0000 </r>
       <r>    4.0487    1.0000 </r>
       <r>    7.0424    0.0000 </r>
       <r>    9.3208    0.0000 </r>
       <r>   10.7083    0.0000 </r>
       <r>   10.7083    0.0000 </r>
      </set>
      <set comment="kpoint 34">
       <r>   -5.0474    1.0000 </r>
       <r>    1.9470    1.0000 </r>
       <r>    3.7049    1.0000 </r>
       <r>    3.8014    1.0000 </r>
       <r>    7.0534    0.0000 </r>
       <r>    8.9521    0.0000 </r>
       <r>   10.9773    0.0000 </r>
       <r>   11.1812    0.0000 </r>
      </set>
      <set comment="kpoint 35">
       <r>   -4.6180    1.0000 </r>
       <r>    0.9918    1.0000 </r>
       <r>    3.2465    1.0000 </r>
       <r>    3.6458    1.0000 </r>
       <r>    7.2759    0.0000 </r>
       <r>    9.0603    0.0000 </r>
       <r>   10.8773    0.0000 </r>
       <r>   11.3127    0.0000 </r>
      </set>
      <set comment="kpoint 36">
       <r>   -4.1068    1.0000 </r>
       <r>    0.0498    1.0000 </r>
       <r>    2.7977    1.0000 </r>
       <r>    3.5909    1.0000 </r>
       <r>    7.3682    0.0000 </r>
       <r>    9.7785    0.0000 </r>
       <r>   10.7095    0.0000 </r>
       <r>   11.1737    0.0000 </r>
      </set>
      <set comment="kpoint 37">
       <r>   -3.6003    1.0000 </r>
       <r>   -0.7296    1.0000 </r>
       <r>    2.4316    1.0000 </r>
       <r>    3.6384    1.0000 </r>
       <r>    7.4259    0.0000 </r>
       <r>   10.5122    0.0000 </r>
       <r>   10.9405    0.0000 </r>
       <r>   10.9461    0.0000 </r>
      </set>
      <set comment="kpoint 38">
       <r>   -3.3575    1.0000 </r>
       <r>   -1.0578    1.0000 </r>
       <r>    2.1790    1.0000 </r>
       <r>    3.7841    1.0000 </r>
       <r>    7.5601    0.0000 </r>
       <r>   10.4406    0.0000 </r>
       <r>   10.7141    0.0000 </r>
       <r>   12.2527    0.0000 </r>
      </set>
      <set comment="kpoint 39">
       <r>   -3.6272    1.0000 </r>
       <r>   -0.6830    1.0000 </r>
       <r>    2.0633    1.0000 </r>
       <r>    4.0177    1.0000 </r>
       <r>    7.7934    0.0000 </r>
       <r>   10.4092    0.0000 </r>
       <r>   10.5143    0.0000 </r>
       <r>   13.1422    0.0000 </r>
      </set>
      <set comment="kpoint 40">
       <r>   -4.1365    1.0000 </r>
       <r>    0.0882    1.0000 </r>
       <r>    2.1272    1.0000 </r>
       <r>    4.3190    1.0000 </r>
       <r>    8.1039    0.0000 </r>
       <r>   10.2677    0.0000 </r>
       <r>   10.3895    0.0000 </r>
       <r>   12.0347    0.0000 </r>
      </set>
      <set comment="kpoint 41">
       <r>   -4.6426    1.0000 </r>
       <r>    0.8979    1.0000 </r>
       <r>    2.4782    1.0000 </r>
       <r>    4.6500    1.0000 </r>
       <r>    8.4192    0.0000 </r>
       <r>    9.8293    0.0000 </r>
       <r>   10.1030    0.0000 </r>
       <r>   11.3896    0.0000 </r>
      </set>
      <set comment="kpoint 42">
       <r>   -4.7680    1.0000 </r>
       <r>    1.4901    1.0000 </r>
       <r>    3.5319    1.0000 </r>
       <r>    3.5319    1.0000 </r>
       <r>    6.6220    0.0000 </r>
       <r>    8.2938    0.0000 </r>
       <r>   11.9398    0.0000 </r>
       <r>   11.9398    0.0000 </r>
      </set>
      <set comment="kpoint 43">
       <r>   -4.3736    1.0000 </r>
       <r>    0.7838    1.0000 </r>
       <r>    3.1525    1.0000 </r>
       <r>    3.3535    1.0000 </r>
       <r>    6.6951    0.0000 </r>
       <r>    8.0203    0.0000 </r>
       <r>   12.2294    0.0000 </r>
       <r>   12.3549    0.0000 </r>
      </set>
      <set comment="kpoint 44">
       <r>   -3.8844    1.0000 </r>
       <r>    0.0190    1.0000 </r>
       <r>    2.5861    1.0000 </r>
       <r>    3.2775    1.0000 </r>
       <r>    6.9030    0.0000 </r>
       <r>    8.3661    0.0000 </r>
       <r>   12.1535    0.0000 </r>
       <r>   12.3501    0.0000 </r>
      </set>
      <set comment="kpoint 45">
       <r>   -3.3574    1.0000 </r>
       <r>   -0.6919    1.0000 </r>
       <r>    2.0510    1.0000 </r>
       <r>    3.3073    1.0000 </r>
       <r>    6.9997    0.0000 </r>
       <r>    9.3169    0.0000 </r>
       <r>   12.0052    0.0000 </r>
       <r>   12.1375    0.0000 </r>
      </set>
      <set comment="kpoint 46">
       <r>   -2.9912    1.0000 </r>
       <r>   -1.1286    1.0000 </r>
       <r>    1.6592    1.0000 </r>
       <r>    3.4406    1.0000 </r>
       <r>    7.1424    0.0000 </r>
       <r>   10.5568    0.0000 </r>
       <r>   11.8745    0.0000 </r>
       <r>   11.8967    0.0000 </r>
      </set>
      <set comment="kpoint 47">
       <r>   -3.1421    1.0000 </r>
       <r>   -0.9435    1.0000 </r>
       <r>    1.4743    1.0000 </r>
       <r>    3.6687    1.0000 </r>
       <r>    7.3900    0.0000 </r>
       <r>   11.5384    0.0000 </r>
       <r>   11.5761    0.0000 </r>
       <r>   12.2343    0.0000 </r>
      </set>
      <set comment="kpoint 48">
       <r>   -3.6255    1.0000 </r>
       <r>   -0.3948    1.0000 </r>
       <r>    1.5895    1.0000 </r>
       <r>    3.9734    1.0000 </r>
       <r>    7.7322    0.0000 </r>
       <r>   11.0632    0.0000 </r>
       <r>   11.3473    0.0000 </r>
       <r>   12.1665    0.0000 </r>
      </set>
      <set comment="kpoint 49">
       <r>   -4.0136    1.0000 </r>
       <r>    0.2431    1.0000 </r>
       <r>    3.1490    1.0000 </r>
       <r>    3.1490    1.0000 </r>
       <r>    6.3548    0.0014 </r>
       <r>    7.4232    0.0000 </r>
       <r>   13.2284    0.0000 </r>
       <r>   13.2284    0.0000 </r>
      </set>
      <set comment="kpoint 50">
       <r>   -3.5512    1.0000 </r>
       <r>   -0.3919    1.0000 </r>
       <r>    2.7838    1.0000 </r>
       <r>    3.0464    1.0000 </r>
       <r>    6.4942    0.0000 </r>
       <r>    7.3110    0.0000 </r>
       <r>   13.5447    0.0000 </r>
       <r>   13.5745    0.0000 </r>
      </set>
      <set comment="kpoint 51">
       <r>   -3.0232    1.0000 </r>
       <r>   -1.0049    1.0000 </r>
       <r>    2.1874    1.0000 </r>
       <r>    3.0509    1.0000 </r>
       <r>    6.6621    0.0000 </r>
       <r>    7.9431    0.0000 </r>
       <r>   13.4664    0.0000 </r>
       <r>   13.4899    0.0000 </r>
      </set>
      <set comment="kpoint 52">
       <r>   -2.5787    1.0000 </r>
       <r>   -1.4516    1.0000 </r>
       <r>    1.6489    1.0000 </r>
       <r>    3.1621    1.0000 </r>
       <r>    6.8007    0.0000 </r>
       <r>    9.0913    0.0000 </r>
       <r>   13.1718    0.0000 </r>
       <r>   13.3507    0.0000 </r>
      </set>
      <set comment="kpoint 53">
       <r>   -2.6776    1.0000 </r>
       <r>   -1.3324    1.0000 </r>
       <r>    1.3566    1.0000 </r>
       <r>    3.3731    1.0000 </r>
       <r>    7.0418    0.0000 </r>
       <r>   10.4676    0.0000 </r>
       <r>   12.6068    0.0000 </r>
       <r>   13.0890    0.0000 </r>
      </set>
      <set comment="kpoint 54">
       <r>   -3.1150    1.0000 </r>
       <r>   -0.9608    1.0000 </r>
       <r>    2.9149    1.0000 </r>
       <r>    2.9149    1.0000 </r>
       <r>    6.2784    0.0072 </r>
       <r>    6.7956    0.0000 </r>
       <r>   14.5511    0.0000 </r>
       <r>   14.5511    0.0000 </r>
      </set>
      <set comment="kpoint 55">
       <r>   -2.5972    1.0000 </r>
       <r>   -1.5315    1.0000 </r>
       <r>    2.6000    1.0000 </r>
       <r>    2.8906    1.0000 </r>
       <r>    6.4529    0.0001 </r>
       <r>    6.8893    0.0000 </r>
       <r>   14.8023    0.0000 </r>
       <r>   14.8746    0.0000 </r>
      </set>
      <set comment="kpoint 56">
       <r>   -2.1880    1.0000 </r>
       <r>   -1.8998    1.0000 </r>
       <r>    2.0564    1.0000 </r>
       <r>    2.9746    1.0000 </r>
       <r>    6.5788    0.0000 </r>
       <r>    7.8030    0.0000 </r>
       <r>   14.3588    0.0000 </r>
       <r>   14.7673    0.0000 </r>
      </set>
      <set comment="kpoint 57">
       <r>   -2.0897    1.0000 </r>
       <r>   -2.0897    1.0000 </r>
       <r>    2.8362    1.0000 </r>
       <r>    2.8362    1.0000 </r>
       <r>    6.4185    0.0003 </r>
       <r>    6.4185    0.0003 </r>
       <r>   15.5831    0.0000 </r>
       <r>   15.5831    0.0000 </r>
      </set>
      <set comment="kpoint 58">
       <r>   -5.7129    1.0000 </r>
       <r>    3.3801    1.0000 </r>
       <r>    4.3415    1.0000 </r>
       <r>    5.0751    1.0000 </r>
       <r>    8.0056    0.0000 </r>
       <r>    8.9795    0.0000 </r>
       <r>    9.4207    0.0000 </r>
       <r>   10.5741    0.0000 </r>
      </set>
      <set comment="kpoint 59">
       <r>   -5.3947    1.0000 </r>
       <r>    2.3133    1.0000 </r>
       <r>    3.8813    1.0000 </r>
       <r>    4.8755    1.0000 </r>
       <r>    8.2103    0.0000 </r>
       <r>    8.9736    0.0000 </r>
       <r>    9.8233    0.0000 </r>
       <r>   10.6943    0.0000 </r>
      </set>
      <set comment="kpoint 60">
       <r>   -4.9649    1.0000 </r>
       <r>    1.1564    1.0000 </r>
       <r>    3.6068    1.0000 </r>
       <r>    4.6047    1.0000 </r>
       <r>    8.2410    0.0000 </r>
       <r>    9.0024    0.0000 </r>
       <r>    9.9802    0.0000 </r>
       <r>   11.0013    0.0000 </r>
      </set>
      <set comment="kpoint 61">
       <r>   -4.4540    1.0000 </r>
       <r>    0.0845    1.0000 </r>
       <r>    3.4425    1.0000 </r>
       <r>    4.3548    1.0000 </r>
       <r>    8.1397    0.0000 </r>
       <r>    8.9495    0.0000 </r>
       <r>    9.9308    0.0000 </r>
       <r>   11.7744    0.0000 </r>
      </set>
      <set comment="kpoint 62">
       <r>   -3.9493    1.0000 </r>
       <r>   -0.7682    1.0000 </r>
       <r>    3.3593    1.0000 </r>
       <r>    4.1805    1.0000 </r>
       <r>    8.0533    0.0000 </r>
       <r>    8.8550    0.0000 </r>
       <r>    9.8400    0.0000 </r>
       <r>   12.8345    0.0000 </r>
      </set>
      <set comment="kpoint 63">
       <r>   -3.6997    1.0000 </r>
       <r>   -1.1354    1.0000 </r>
       <r>    3.3351    1.0000 </r>
       <r>    4.1176    1.0000 </r>
       <r>    8.0224    0.0000 </r>
       <r>    8.8141    0.0000 </r>
       <r>    9.8008    0.0000 </r>
       <r>   13.7202    0.0000 </r>
      </set>
      <set comment="kpoint 64">
       <r>   -5.2839    1.0000 </r>
       <r>    2.3562    1.0000 </r>
       <r>    3.7228    1.0000 </r>
       <r>    4.3351    1.0000 </r>
       <r>    7.5198    0.0000 </r>
       <r>    9.4841    0.0000 </r>
       <r>   10.1890    0.0000 </r>
       <r>   10.5995    0.0000 </r>
      </set>
      <set comment="kpoint 65">
       <r>   -4.8902    1.0000 </r>
       <r>    1.4117    1.0000 </r>
       <r>    3.2617    1.0000 </r>
       <r>    4.1132    1.0000 </r>
       <r>    7.7807    0.0000 </r>
       <r>    9.5125    0.0000 </r>
       <r>   10.0118    0.0000 </r>
       <r>   10.9760    0.0000 </r>
      </set>
      <set comment="kpoint 66">
       <r>   -4.4017    1.0000 </r>
       <r>    0.4091    1.0000 </r>
       <r>    2.9524    1.0000 </r>
       <r>    3.8800    1.0000 </r>
       <r>    7.9235    0.0000 </r>
       <r>    9.7080    0.0000 </r>
       <r>   10.1410    0.0000 </r>
       <r>   11.0398    0.0000 </r>
      </set>
      <set comment="kpoint 67">
       <r>   -3.8771    1.0000 </r>
       <r>   -0.4810    1.0000 </r>
       <r>    2.7253    1.0000 </r>
       <r>    3.7429    1.0000 </r>
       <r>    7.9697    0.0000 </r>
       <r>    9.4706    0.0000 </r>
       <r>   10.9344    0.0000 </r>
       <r>   11.1736    0.0000 </r>
      </set>
      <set comment="kpoint 68">
       <r>   -3.5002    1.0000 </r>
       <r>   -1.0285    1.0000 </r>
       <r>    2.5605    1.0000 </r>
       <r>    3.7406    1.0000 </r>
       <r>    8.0575    0.0000 </r>
       <r>    9.2751    0.0000 </r>
       <r>   10.8468    0.0000 </r>
       <r>   12.4248    0.0000 </r>
      </set>
      <set comment="kpoint 69">
       <r>   -3.5955    1.0000 </r>
       <r>   -0.8939    1.0000 </r>
       <r>    2.4724    1.0000 </r>
       <r>    3.8674    1.0000 </r>
       <r>    8.2279    0.0000 </r>
       <r>    9.1532    0.0000 </r>
       <r>   10.7900    0.0000 </r>
       <r>   12.7505    0.0000 </r>
      </set>
      <set comment="kpoint 70">
       <r>   -4.0593    1.0000 </r>
       <r>   -0.1880    1.0000 </r>
       <r>    2.4901    1.0000 </r>
       <r>    4.0976    1.0000 </r>
       <r>    8.4679    0.0000 </r>
       <r>    9.0964    0.0000 </r>
       <r>   10.7505    0.0000 </r>
       <r>   11.5916    0.0000 </r>
      </set>
      <set comment="kpoint 71">
       <r>   -4.5820    1.0000 </r>
       <r>    0.7386    1.0000 </r>
       <r>    2.6606    1.0000 </r>
       <r>    4.3925    1.0000 </r>
       <r>    8.7179    0.0000 </r>
       <r>    9.0128    0.0000 </r>
       <r>   10.5797    0.0000 </r>
       <r>   10.8115    0.0000 </r>
      </set>
      <set comment="kpoint 72">
       <r>   -5.0405    1.0000 </r>
       <r>    1.6414    1.0000 </r>
       <r>    3.0887    1.0000 </r>
       <r>    4.6884    1.0000 </r>
       <r>    8.6027    0.0000 </r>
       <r>    8.9891    0.0000 </r>
       <r>   10.3238    0.0000 </r>
       <r>   10.4584    0.0000 </r>
      </set>
      <set comment="kpoint 73">
       <r>   -4.6917    1.0000 </r>
       <r>    1.2760    1.0000 </r>
       <r>    3.2115    1.0000 </r>
       <r>    3.6408    1.0000 </r>
       <r>    7.1093    0.0000 </r>
       <r>    8.6099    0.0000 </r>
       <r>   11.1180    0.0000 </r>
       <r>   11.8758    0.0000 </r>
      </set>
      <set comment="kpoint 74">
       <r>   -4.2320    1.0000 </r>
       <r>    0.4800    1.0000 </r>
       <r>    2.7326    1.0000 </r>
       <r>    3.4265    1.0000 </r>
       <r>    7.3993    0.0000 </r>
       <r>    8.7601    0.0000 </r>
       <r>   10.9293    0.0000 </r>
       <r>   12.2317    0.0000 </r>
      </set>
      <set comment="kpoint 75">
       <r>   -3.7077    1.0000 </r>
       <r>   -0.3213    1.0000 </r>
       <r>    2.3053    1.0000 </r>
       <r>    3.3107    1.0000 </r>
       <r>    7.5335    0.0000 </r>
       <r>    9.5551    0.0000 </r>
       <r>   10.6806    0.0000 </r>
       <r>   12.2361    0.0000 </r>
      </set>
      <set comment="kpoint 76">
       <r>   -3.2451    1.0000 </r>
       <r>   -0.9417    1.0000 </r>
       <r>    1.9701    1.0000 </r>
       <r>    3.3353    1.0000 </r>
       <r>    7.6455    0.0000 </r>
       <r>   10.3297    0.0000 </r>
       <r>   10.8498    0.0000 </r>
       <r>   12.1301    0.0000 </r>
      </set>
      <set comment="kpoint 77">
       <r>   -3.1781    1.0000 </r>
       <r>   -1.0201    1.0000 </r>
       <r>    1.7676    1.0000 </r>
       <r>    3.4870    1.0000 </r>
       <r>    7.8425    0.0000 </r>
       <r>   10.1869    0.0000 </r>
       <r>   11.9581    0.0000 </r>
       <r>   12.1927    0.0000 </r>
      </set>
      <set comment="kpoint 78">
       <r>   -3.5804    1.0000 </r>
       <r>   -0.4987    1.0000 </r>
       <r>    1.7478    1.0000 </r>
       <r>    3.7422    1.0000 </r>
       <r>    8.1347    0.0000 </r>
       <r>   10.0165    0.0000 </r>
       <r>   11.4824    0.0000 </r>
       <r>   11.8946    0.0000 </r>
      </set>
      <set comment="kpoint 79">
       <r>   -4.1035    1.0000 </r>
       <r>    0.1849    1.0000 </r>
       <r>    2.0079    1.0000 </r>
       <r>    4.0655    1.0000 </r>
       <r>    8.4866    0.0000 </r>
       <r>    9.6328    0.0000 </r>
       <r>   10.7617    0.0000 </r>
       <r>   11.4658    0.0000 </r>
      </set>
      <set comment="kpoint 80">
       <r>   -3.9464    1.0000 </r>
       <r>    0.1517    1.0000 </r>
       <r>    2.8451    1.0000 </r>
       <r>    3.1084    1.0000 </r>
       <r>    6.8401    0.0000 </r>
       <r>    7.7896    0.0000 </r>
       <r>   12.2539    0.0000 </r>
       <r>   13.2045    0.0000 </r>
      </set>
      <set comment="kpoint 81">
       <r>   -3.4360    1.0000 </r>
       <r>   -0.5064    1.0000 </r>
       <r>    2.3345    1.0000 </r>
       <r>    2.9651    1.0000 </r>
       <r>    7.1328    0.0000 </r>
       <r>    8.1768    0.0000 </r>
       <r>   12.0284    0.0000 </r>
       <r>   13.5505    0.0000 </r>
      </set>
      <set comment="kpoint 82">
       <r>   -2.9250    1.0000 </r>
       <r>   -1.0866    1.0000 </r>
       <r>    1.8137    1.0000 </r>
       <r>    2.9907    1.0000 </r>
       <r>    7.2681    0.0000 </r>
       <r>    9.2112    0.0000 </r>
       <r>   11.7696    0.0000 </r>
       <r>   13.5032    0.0000 </r>
      </set>
      <set comment="kpoint 83">
       <r>   -2.7228    1.0000 </r>
       <r>   -1.2901    1.0000 </r>
       <r>    1.4645    1.0000 </r>
       <r>    3.1445    1.0000 </r>
       <r>    7.4613    0.0000 </r>
       <r>   10.4980    0.0000 </r>
       <r>   11.5586    0.0000 </r>
       <r>   12.8379    0.0000 </r>
      </set>
      <set comment="kpoint 84">
       <r>   -3.0707    1.0000 </r>
       <r>   -0.9311    1.0000 </r>
       <r>    1.4029    1.0000 </r>
       <r>    3.4051    1.0000 </r>
       <r>    7.7582    0.0000 </r>
       <r>   10.9717    0.0000 </r>
       <r>   11.7631    0.0000 </r>
       <r>   12.1249    0.0000 </r>
      </set>
      <set comment="kpoint 85">
       <r>   -3.0628    1.0000 </r>
       <r>   -0.9774    1.0000 </r>
       <r>    2.6417    1.0000 </r>
       <r>    2.7656    1.0000 </r>
       <r>    6.7499    0.0000 </r>
       <r>    7.2062    0.0000 </r>
       <r>   13.4634    0.0000 </r>
       <r>   14.5468    0.0000 </r>
      </set>
      <set comment="kpoint 86">
       <r>   -2.5313    1.0000 </r>
       <r>   -1.5161    1.0000 </r>
       <r>    2.1199    1.0000 </r>
       <r>    2.7444    1.0000 </r>
       <r>    6.9993    0.0000 </r>
       <r>    7.8787    0.0000 </r>
       <r>   13.2196    0.0000 </r>
       <r>   14.4417    0.0000 </r>
      </set>
      <set comment="kpoint 87">
       <r>   -2.3179    1.0000 </r>
       <r>   -1.6839    1.0000 </r>
       <r>    1.6345    1.0000 </r>
       <r>    2.8890    1.0000 </r>
       <r>    7.1756    0.0000 </r>
       <r>    9.0985    0.0000 </r>
       <r>   12.8121    0.0000 </r>
       <r>   13.1687    0.0000 </r>
      </set>
      <set comment="kpoint 88">
       <r>   -2.0628    1.0000 </r>
       <r>   -2.0628    1.0000 </r>
       <r>    2.6124    1.0000 </r>
       <r>    2.6124    1.0000 </r>
       <r>    6.8648    0.0000 </r>
       <r>    6.8648    0.0000 </r>
       <r>   14.7101    0.0000 </r>
       <r>   14.7101    0.0000 </r>
      </set>
      <set comment="kpoint 89">
       <r>   -4.4664    1.0000 </r>
       <r>    0.7755    1.0000 </r>
       <r>    2.5910    1.0000 </r>
       <r>    3.8725    1.0000 </r>
       <r>    8.2281    0.0000 </r>
       <r>    9.4762    0.0000 </r>
       <r>    9.7502    0.0000 </r>
       <r>   11.7013    0.0000 </r>
      </set>
      <set comment="kpoint 90">
       <r>   -3.9594    1.0000 </r>
       <r>    0.0045    1.0000 </r>
       <r>    2.2038    1.0000 </r>
       <r>    3.5769    1.0000 </r>
       <r>    8.5704    0.0000 </r>
       <r>    9.4199    0.0000 </r>
       <r>    9.9988    0.0000 </r>
       <r>   12.0794    0.0000 </r>
      </set>
      <set comment="kpoint 91">
       <r>   -3.4493    1.0000 </r>
       <r>   -0.7192    1.0000 </r>
       <r>    2.0270    1.0000 </r>
       <r>    3.3551    1.0000 </r>
       <r>    8.7108    0.0000 </r>
       <r>    9.1128    0.0000 </r>
       <r>   11.0712    0.0000 </r>
       <r>   12.1558    0.0000 </r>
      </set>
      <set comment="kpoint 92">
       <r>   -3.1882    1.0000 </r>
       <r>   -1.0597    1.0000 </r>
       <r>    1.9777    1.0000 </r>
       <r>    3.2738    1.0000 </r>
       <r>    8.8613    0.0000 </r>
       <r>    8.8846    0.0000 </r>
       <r>   12.1520    0.0000 </r>
       <r>   12.2503    0.0000 </r>
      </set>
      <set comment="kpoint 93">
       <r>   -3.7509    1.0000 </r>
       <r>   -0.1145    1.0000 </r>
       <r>    2.2593    1.0000 </r>
       <r>    3.0962    1.0000 </r>
       <r>    7.9706    0.0000 </r>
       <r>    8.7538    0.0000 </r>
       <r>   10.6541    0.0000 </r>
       <r>   13.1331    0.0000 </r>
      </set>
      <set comment="kpoint 94">
       <r>   -3.2248    1.0000 </r>
       <r>   -0.7373    1.0000 </r>
       <r>    1.9012    1.0000 </r>
       <r>    2.8512    1.0000 </r>
       <r>    8.3016    0.0000 </r>
       <r>    9.4592    0.0000 </r>
       <r>   10.3727    0.0000 </r>
       <r>   13.5194    0.0000 </r>
      </set>
      <set comment="kpoint 95">
       <r>   -2.8340    1.0000 </r>
       <r>   -1.1756    1.0000 </r>
       <r>    1.6602    1.0000 </r>
       <r>    2.8009    1.0000 </r>
       <r>    8.4737    0.0000 </r>
       <r>    9.9713    0.0000 </r>
       <r>   10.8254    0.0000 </r>
       <r>   12.5259    0.0000 </r>
      </set>
      <set comment="kpoint 96">
       <r>   -2.9625    1.0000 </r>
       <r>   -1.0301    1.0000 </r>
       <r>    1.5767    1.0000 </r>
       <r>    2.9393    1.0000 </r>
       <r>    8.7176    0.0000 </r>
       <r>    9.7870    0.0000 </r>
       <r>   11.0909    0.0000 </r>
       <r>   12.2916    0.0000 </r>
      </set>
      <set comment="kpoint 97">
       <r>   -3.4465    1.0000 </r>
       <r>   -0.5037    1.0000 </r>
       <r>    1.7309    1.0000 </r>
       <r>    3.2208    1.0000 </r>
       <r>    9.0451    0.0000 </r>
       <r>    9.4078    0.0000 </r>
       <r>   10.1587    0.0000 </r>
       <r>   13.0119    0.0000 </r>
      </set>
      <set comment="kpoint 98">
       <r>   -2.9167    1.0000 </r>
       <r>   -1.0475    1.0000 </r>
       <r>    2.1205    1.0000 </r>
       <r>    2.5217    1.0000 </r>
       <r>    7.8706    0.0000 </r>
       <r>    8.2430    0.0000 </r>
       <r>   11.7270    0.0000 </r>
       <r>   14.2062    0.0000 </r>
      </set>
      <set comment="kpoint 99">
       <r>   -2.4387    1.0000 </r>
       <r>   -1.5054    1.0000 </r>
       <r>    1.7596    1.0000 </r>
       <r>    2.4304    1.0000 </r>
       <r>    8.1580    0.0000 </r>
       <r>    9.2305    0.0000 </r>
       <r>   11.4434    0.0000 </r>
       <r>   12.6890    0.0000 </r>
      </set>
      <set comment="kpoint 100">
       <r>   -2.4931    1.0000 </r>
       <r>   -1.4347    1.0000 </r>
       <r>    1.5031    1.0000 </r>
       <r>    2.6107    1.0000 </r>
       <r>    8.3909    0.0000 </r>
       <r>   10.4568    0.0000 </r>
       <r>   11.2325    0.0000 </r>
       <r>   11.3782    0.0000 </r>
      </set>
      <set comment="kpoint 101">
       <r>   -1.9990    1.0000 </r>
       <r>   -1.9990    1.0000 </r>
       <r>    2.1996    1.0000 </r>
       <r>    2.1996    1.0000 </r>
       <r>    7.9544    0.0000 </r>
       <r>    7.9544    0.0000 </r>
       <r>   12.9328    0.0000 </r>
       <r>   12.9328    0.0000 </r>
      </set>
      <set comment="kpoint 102">
       <r>   -2.7092    1.0000 </r>
       <r>   -1.2037    1.0000 </r>
       <r>    1.6883    1.0000 </r>
       <r>    2.4479    1.0000 </r>
       <r>    9.3105    0.0000 </r>
       <r>    9.5137    0.0000 </r>
       <r>   10.1519    0.0000 </r>
       <r>   12.4415    0.0000 </r>
      </set>
      <set comment="kpoint 103">
       <r>   -2.3926    1.0000 </r>
       <r>   -1.5051    1.0000 </r>
       <r>    1.6358    1.0000 </r>
       <r>    2.2845    1.0000 </r>
       <r>    9.4756    0.0000 </r>
       <r>    9.7860    0.0000 </r>
       <r>   10.7492    0.0000 </r>
       <r>   11.1548    0.0000 </r>
      </set>
      <set comment="kpoint 104">
       <r>   -1.9442    1.0000 </r>
       <r>   -1.9442    1.0000 </r>
       <r>    1.9203    1.0000 </r>
       <r>    1.9204    1.0000 </r>
       <r>    9.3633    0.0000 </r>
       <r>    9.3633    0.0000 </r>
       <r>   11.1725    0.0000 </r>
       <r>   11.1725    0.0000 </r>
      </set>
     </set>
    </set>
   </array>
  </eigenvalues>
  <separator name="orbital magnetization" >
   <v name="MAGDIPOLOUT">      0.00000000      0.00000000      0.00000000</v>
  </separator>
  <dos>
   <i name="efermi">      5.93233184 </i>
   <total>
    <array>
     <dimension dim="1">gridpoints</dimension>
     <dimension dim="2">spin</dimension>
     <field>energy</field>
     <field>total</field>
     <field>integrated</field>
     <set>
      <set comment="spin 1">
       <r>    -8.1471     0.0000     0.0000 </r>
       <r>    -8.0614     0.0000     0.0000 </r>
       <r>    -7.9756     0.0000     0.0000 </r>
       <r>    -7.8898     0.0000     0.0000 </r>
       <r>    -7.8041     0.0000     0.0000 </r>
       <r>    -7.7183     0.0000     0.0000 </r>
       <r>    -7.6325     0.0000     0.0000 </r>
       <r>    -7.5468     0.0000     0.0000 </r>
       <r>    -7.4610     0.0000     0.0000 </r>
       <r>    -7.3752     0.0000     0.0000 </r>
       <r>    -7.2895     0.0000     0.0000 </r>
       <r>    -7.2037     0.0000     0.0000 </r>
       <r>    -7.1179     0.0000     0.0000 </r>
       <r>    -7.0322     0.0000     0.0000 </r>
       <r>    -6.9464     0.0000     0.0000 </r>
       <r>    -6.8606     0.0000     0.0000 </r>
       <r>    -6.7749     0.0000     0.0000 </r>
       <r>    -6.6891     0.0000     0.0000 </r>
       <r>    -6.6033     0.0000     0.0000 </r>
       <r>    -6.5176     0.0001     0.0000 </r>
       <r>    -6.4318     0.0008     0.0001 </r>
       <r>    -6.3460     0.0036     0.0004 </r>
       <r>    -6.2603     0.0120     0.0014 </r>
       <r>    -6.1745     0.0308     0.0041 </r>
       <r>    -6.0887     0.0620     0.0094 </r>
       <r>    -6.0030     0.1017     0.0181 </r>
       <r>    -5.9172     0.1423     0.0303 </r>
       <r>    -5.8314     0.1792     0.0457 </r>
       <r>    -5.7457     0.2121     0.0639 </r>
       <r>    -5.6599     0.2393     0.0844 </r>
       <r>    -5.5741     0.2609     0.1068 </r>
       <r>    -5.4884     0.2842     0.1311 </r>
       <r>    -5.4026     0.3126     0.1579 </r>
       <r>    -5.3168     0.3349     0.1867 </r>
       <r>    -5.2311     0.3448     0.2162 </r>
       <r>    -5.1453     0.3579     0.2469 </r>
       <r>    -5.0595     0.3892     0.2803 </r>
       <r>    -4.9738     0.4246     0.3167 </r>
       <r>    -4.8880     0.4386     0.3544 </r>
       <r>    -4.8022     0.4356     0.3917 </r>
       <r>    -4.7165     0.4468     0.4300 </r>
       <r>    -4.6307     0.4848     0.4716 </r>
       <r>    -4.5449     0.5300     0.5171 </r>
       <r>    -4.4591     0.5577     0.5649 </r>
       <r>    -4.3734     0.5609     0.6130 </r>
       <r>    -4.2876     0.5589     0.6610 </r>
       <r>    -4.2018     0.5855     0.7112 </r>
       <r>    -4.1161     0.6531     0.7672 </r>
       <r>    -4.0303     0.7361     0.8303 </r>
       <r>    -3.9445     0.7922     0.8983 </r>
       <r>    -3.8588     0.8018     0.9670 </r>
       <r>    -3.7730     0.7934     1.0351 </r>
       <r>    -3.6872     0.8116     1.1047 </r>
       <r>    -3.6015     0.8510     1.1777 </r>
       <r>    -3.5157     0.8605     1.2515 </r>
       <r>    -3.4299     0.8121     1.3211 </r>
       <r>    -3.3442     0.7373     1.3844 </r>
       <r>    -3.2584     0.6874     1.4433 </r>
       <r>    -3.1726     0.6745     1.5012 </r>
       <r>    -3.0869     0.6721     1.5588 </r>
       <r>    -3.0011     0.6572     1.6152 </r>
       <r>    -2.9153     0.6196     1.6683 </r>
       <r>    -2.8296     0.5604     1.7164 </r>
       <r>    -2.7438     0.5023     1.7595 </r>
       <r>    -2.6580     0.4716     1.7999 </r>
       <r>    -2.5723     0.4660     1.8399 </r>
       <r>    -2.4865     0.4533     1.8788 </r>
       <r>    -2.4007     0.4016     1.9132 </r>
       <r>    -2.3150     0.3139     1.9401 </r>
       <r>    -2.2292     0.2293     1.9598 </r>
       <r>    -2.1434     0.1860     1.9758 </r>
       <r>    -2.0577     0.1841     1.9916 </r>
       <r>    -1.9719     0.1898     2.0078 </r>
       <r>    -1.8861     0.1759     2.0229 </r>
       <r>    -1.8004     0.1563     2.0363 </r>
       <r>    -1.7146     0.1751     2.0514 </r>
       <r>    -1.6288     0.2596     2.0736 </r>
       <r>    -1.5431     0.3811     2.1063 </r>
       <r>    -1.4573     0.4728     2.1469 </r>
       <r>    -1.3715     0.5142     2.1910 </r>
       <r>    -1.2858     0.5787     2.2406 </r>
       <r>    -1.2000     0.7525     2.3051 </r>
       <r>    -1.1142     1.0156     2.3922 </r>
       <r>    -1.0285     1.2273     2.4975 </r>
       <r>    -0.9427     1.2527     2.6049 </r>
       <r>    -0.8569     1.1057     2.6998 </r>
       <r>    -0.7711     0.9204     2.7787 </r>
       <r>    -0.6854     0.7952     2.8469 </r>
       <r>    -0.5996     0.7385     2.9103 </r>
       <r>    -0.5138     0.7163     2.9717 </r>
       <r>    -0.4281     0.6821     3.0302 </r>
       <r>    -0.3423     0.6115     3.0826 </r>
       <r>    -0.2565     0.5280     3.1279 </r>
       <r>    -0.1708     0.4698     3.1682 </r>
       <r>    -0.0850     0.4575     3.2075 </r>
       <r>     0.0008     0.4820     3.2488 </r>
       <r>     0.0865     0.4958     3.2913 </r>
       <r>     0.1723     0.4551     3.3304 </r>
       <r>     0.2581     0.3842     3.3633 </r>
       <r>     0.3438     0.3442     3.3928 </r>
       <r>     0.4296     0.3416     3.4221 </r>
       <r>     0.5154     0.3328     3.4507 </r>
       <r>     0.6011     0.3127     3.4775 </r>
       <r>     0.6869     0.3186     3.5048 </r>
       <r>     0.7727     0.3432     3.5343 </r>
       <r>     0.8584     0.3326     3.5628 </r>
       <r>     0.9442     0.2765     3.5865 </r>
       <r>     1.0300     0.2245     3.6057 </r>
       <r>     1.1157     0.2150     3.6242 </r>
       <r>     1.2015     0.2504     3.6457 </r>
       <r>     1.2873     0.3327     3.6742 </r>
       <r>     1.3730     0.4748     3.7149 </r>
       <r>     1.4588     0.6667     3.7721 </r>
       <r>     1.5446     0.8645     3.8462 </r>
       <r>     1.6303     1.0189     3.9336 </r>
       <r>     1.7161     1.0967     4.0277 </r>
       <r>     1.8019     1.1006     4.1221 </r>
       <r>     1.8876     1.0777     4.2145 </r>
       <r>     1.9734     1.0711     4.3064 </r>
       <r>     2.0592     1.0761     4.3987 </r>
       <r>     2.1449     1.0740     4.4908 </r>
       <r>     2.2307     1.0720     4.5827 </r>
       <r>     2.3165     1.0858     4.6759 </r>
       <r>     2.4022     1.1179     4.7717 </r>
       <r>     2.4880     1.1606     4.8713 </r>
       <r>     2.5738     1.2073     4.9748 </r>
       <r>     2.6595     1.2604     5.0829 </r>
       <r>     2.7453     1.3234     5.1964 </r>
       <r>     2.8311     1.3846     5.3152 </r>
       <r>     2.9169     1.4256     5.4375 </r>
       <r>     3.0026     1.4408     5.5610 </r>
       <r>     3.0884     1.4488     5.6853 </r>
       <r>     3.1742     1.4867     5.8128 </r>
       <r>     3.2599     1.5590     5.9465 </r>
       <r>     3.3457     1.5960     6.0834 </r>
       <r>     3.4315     1.5236     6.2141 </r>
       <r>     3.5172     1.3762     6.3321 </r>
       <r>     3.6030     1.2711     6.4411 </r>
       <r>     3.6888     1.2615     6.5493 </r>
       <r>     3.7745     1.2922     6.6601 </r>
       <r>     3.8603     1.3048     6.7721 </r>
       <r>     3.9461     1.3028     6.8838 </r>
       <r>     4.0318     1.2994     6.9952 </r>
       <r>     4.1176     1.2768     7.1048 </r>
       <r>     4.2034     1.2299     7.2102 </r>
       <r>     4.2891     1.1873     7.3121 </r>
       <r>     4.3749     1.1430     7.4101 </r>
       <r>     4.4607     1.0498     7.5001 </r>
       <r>     4.5464     0.9095     7.5781 </r>
       <r>     4.6322     0.7711     7.6443 </r>
       <r>     4.7180     0.6576     7.7007 </r>
       <r>     4.8037     0.5737     7.7499 </r>
       <r>     4.8895     0.5267     7.7951 </r>
       <r>     4.9753     0.4982     7.8378 </r>
       <r>     5.0610     0.4531     7.8766 </r>
       <r>     5.1468     0.3827     7.9095 </r>
       <r>     5.2326     0.3057     7.9357 </r>
       <r>     5.3183     0.2380     7.9561 </r>
       <r>     5.4041     0.1824     7.9717 </r>
       <r>     5.4899     0.1361     7.9834 </r>
       <r>     5.5756     0.0948     7.9915 </r>
       <r>     5.6614     0.0572     7.9965 </r>
       <r>     5.7472     0.0277     7.9988 </r>
       <r>     5.8329     0.0103     7.9997 </r>
       <r>     5.9187     0.0031     8.0000 </r>
       <r>     6.0045     0.0022     8.0002 </r>
       <r>     6.0902     0.0064     8.0007 </r>
       <r>     6.1760     0.0191     8.0023 </r>
       <r>     6.2618     0.0461     8.0063 </r>
       <r>     6.3475     0.0901     8.0140 </r>
       <r>     6.4333     0.1451     8.0265 </r>
       <r>     6.5191     0.2004     8.0437 </r>
       <r>     6.6049     0.2554     8.0656 </r>
       <r>     6.6906     0.3196     8.0930 </r>
       <r>     6.7764     0.3958     8.1269 </r>
       <r>     6.8622     0.4743     8.1676 </r>
       <r>     6.9479     0.5473     8.2145 </r>
       <r>     7.0337     0.6145     8.2672 </r>
       <r>     7.1195     0.6727     8.3249 </r>
       <r>     7.2052     0.7171     8.3864 </r>
       <r>     7.2910     0.7583     8.4515 </r>
       <r>     7.3768     0.8167     8.5215 </r>
       <r>     7.4625     0.8919     8.5980 </r>
       <r>     7.5483     0.9646     8.6807 </r>
       <r>     7.6341     1.0425     8.7702 </r>
       <r>     7.7198     1.1677     8.8703 </r>
       <r>     7.8056     1.3476     8.9859 </r>
       <r>     7.8914     1.5257     9.1168 </r>
       <r>     7.9771     1.6479     9.2581 </r>
       <r>     8.0629     1.6993     9.4038 </r>
       <r>     8.1487     1.6708     9.5471 </r>
       <r>     8.2344     1.5481     9.6799 </r>
       <r>     8.3202     1.3523     9.7959 </r>
       <r>     8.4060     1.1593     9.8953 </r>
       <r>     8.4917     1.0487     9.9853 </r>
       <r>     8.5775     1.0468    10.0750 </r>
       <r>     8.6633     1.1301    10.1720 </r>
       <r>     8.7490     1.2590    10.2799 </r>
       <r>     8.8348     1.4200    10.4017 </r>
       <r>     8.9206     1.6211    10.5408 </r>
       <r>     9.0063     1.8161    10.6965 </r>
       <r>     9.0921     1.9094    10.8603 </r>
       <r>     9.1779     1.8792    11.0215 </r>
       <r>     9.2636     1.8171    11.1773 </r>
       <r>     9.3494     1.8160    11.3331 </r>
       <r>     9.4352     1.8509    11.4918 </r>
       <r>     9.5209     1.7972    11.6460 </r>
       <r>     9.6067     1.5964    11.7829 </r>
       <r>     9.6925     1.3547    11.8991 </r>
       <r>     9.7782     1.2135    12.0032 </r>
       <r>     9.8640     1.1945    12.1056 </r>
       <r>     9.9498     1.2276    12.2109 </r>
       <r>    10.0355     1.2467    12.3178 </r>
       <r>    10.1213     1.2251    12.4229 </r>
       <r>    10.2071     1.1764    12.5238 </r>
       <r>    10.2929     1.1364    12.6213 </r>
       <r>    10.3786     1.1322    12.7184 </r>
       <r>    10.4644     1.1579    12.8177 </r>
       <r>    10.5502     1.1952    12.9202 </r>
       <r>    10.6359     1.2541    13.0277 </r>
       <r>    10.7217     1.3562    13.1440 </r>
       <r>    10.8075     1.4821    13.2712 </r>
       <r>    10.8932     1.5725    13.4060 </r>
       <r>    10.9790     1.5706    13.5407 </r>
       <r>    11.0648     1.4503    13.6651 </r>
       <r>    11.1505     1.2350    13.7710 </r>
       <r>    11.2363     1.0015    13.8569 </r>
       <r>    11.3221     0.8456    13.9295 </r>
       <r>    11.4078     0.8077    13.9987 </r>
       <r>    11.4936     0.8303    14.0699 </r>
       <r>    11.5794     0.8336    14.1414 </r>
       <r>    11.6651     0.8137    14.2112 </r>
       <r>    11.7509     0.8167    14.2813 </r>
       <r>    11.8367     0.8589    14.3549 </r>
       <r>    11.9224     0.9363    14.4352 </r>
       <r>    12.0082     1.0673    14.5268 </r>
       <r>    12.0940     1.2496    14.6339 </r>
       <r>    12.1797     1.3913    14.7533 </r>
       <r>    12.2655     1.3638    14.8702 </r>
       <r>    12.3513     1.1499    14.9689 </r>
       <r>    12.4370     0.8739    15.0438 </r>
       <r>    12.5228     0.6645    15.1008 </r>
       <r>    12.6086     0.5576    15.1486 </r>
       <r>    12.6943     0.5299    15.1941 </r>
       <r>    12.7801     0.5397    15.2404 </r>
       <r>    12.8659     0.5409    15.2868 </r>
       <r>    12.9516     0.5206    15.3314 </r>
       <r>    13.0374     0.5153    15.3756 </r>
       <r>    13.1232     0.5511    15.4229 </r>
       <r>    13.2089     0.5984    15.4742 </r>
       <r>    13.2947     0.6256    15.5279 </r>
       <r>    13.3805     0.6612    15.5846 </r>
       <r>    13.4662     0.7278    15.6470 </r>
       <r>    13.5520     0.7556    15.7118 </r>
       <r>    13.6378     0.6587    15.7683 </r>
       <r>    13.7235     0.4616    15.8079 </r>
       <r>    13.8093     0.2634    15.8305 </r>
       <r>    13.8951     0.1270    15.8413 </r>
       <r>    13.9809     0.0578    15.8463 </r>
       <r>    14.0666     0.0399    15.8497 </r>
       <r>    14.1524     0.0551    15.8544 </r>
       <r>    14.2382     0.0877    15.8620 </r>
       <r>    14.3239     0.1291    15.8730 </r>
       <r>    14.4097     0.1718    15.8878 </r>
       <r>    14.4955     0.2012    15.9050 </r>
       <r>    14.5812     0.2074    15.9228 </r>
       <r>    14.6670     0.2004    15.9400 </r>
       <r>    14.7528     0.1927    15.9565 </r>
       <r>    14.8385     0.1763    15.9717 </r>
       <r>    14.9243     0.1377    15.9835 </r>
       <r>    15.0101     0.0848    15.9907 </r>
       <r>    15.0958     0.0394    15.9941 </r>
       <r>    15.1816     0.0136    15.9953 </r>
       <r>    15.2674     0.0039    15.9956 </r>
       <r>    15.3531     0.0026    15.9958 </r>
       <r>    15.4389     0.0053    15.9963 </r>
       <r>    15.5247     0.0095    15.9971 </r>
       <r>    15.6104     0.0121    15.9981 </r>
       <r>    15.6962     0.0108    15.9991 </r>
       <r>    15.7820     0.0067    15.9997 </r>
       <r>    15.8677     0.0029    15.9999 </r>
       <r>    15.9535     0.0009    16.0000 </r>
       <r>    16.0393     0.0002    16.0000 </r>
       <r>    16.1250     0.0000    16.0000 </r>
       <r>    16.2108     0.0000    16.0000 </r>
       <r>    16.2966     0.0000    16.0000 </r>
       <r>    16.3823     0.0000    16.0000 </r>
       <r>    16.4681     0.0000    16.0000 </r>
       <r>    16.5539     0.0000    16.0000 </r>
       <r>    16.6396     0.0000    16.0000 </r>
       <r>    16.7254     0.0000    16.0000 </r>
       <r>    16.8112     0.0000    16.0000 </r>
       <r>    16.8969     0.0000    16.0000 </r>
       <r>    16.9827     0.0000    16.0000 </r>
       <r>    17.0685     0.0000    16.0000 </r>
       <r>    17.1542     0.0000    16.0000 </r>
       <r>    17.2400     0.0000    16.0000 </r>
       <r>    17.3258     0.0000    16.0000 </r>
       <r>    17.4115     0.0000    16.0000 </r>
       <r>    17.4973     0.0000    16.0000 </r>
       <r>    17.5831     0.0000    16.0000 </r>
      </set>
     </set>
    </array>
   </total>
  </dos>
 </calculation>
 <structure name="finalpos" >
  <crystal>
   <varray name="basis" >
    <v>       3.34889800       0.00000000       1.93348700 </v>
    <v>       1.11629900       3.15737200       1.93348700 </v>
    <v>       0.00000000       0.00000000       3.86697500 </v>
   </varray>
   <i name="volume">     40.88829843 </i>
   <varray name="rec_basis" >
    <v>       0.29860569      -0.10557300       0.00000000 </v>
    <v>       0.00000000       0.31671909       0.00000000 </v>
    <v>      -0.14930281      -0.10557302       0.25860007 </v>
   </varray>
  </crystal>
  <varray name="positions" >
   <v>       0.87500000       0.87500000       0.87500000 </v>
   <v>       0.12500000       0.12500000       0.12500000 </v>
  </varray>
 </structure>
</modeling>
