LAMMPS data file via write_data, version 19 Oct 2016, timestep = 40

31 atoms
1 atom types

1.5836214998505037e-02 8.1474737850014893e+00 xlo xhi
1.5836214998479863e-02 8.1474737850015195e+00 ylo yhi
1.5836214998576497e-02 8.1474737850014272e+00 zlo zhi
0.0000000000000000e+00 0.0000000000000000e+00 0.0000000000000000e+00 xy xz yz

Masses

1 26.982

Atoms # charge

1 1 0.0000000000000000e+00 8.1423320482061357e+00 8.1403802197807025e+00 8.1384282338789404e+00 -1 -1 -1
2 1 0.0000000000000000e+00 8.1423320482054962e+00 8.1403802197807007e+00 4.0765132632040073e+00 -1 -1 0
3 1 0.0000000000000000e+00 4.7931017601741253e-02 4.0745614347791568e+00 8.1011916944802902e+00 0 0 -1
4 1 0.0000000000000000e+00 4.7931017601538554e-02 4.0745614347791559e+00 4.1137498026030315e+00 0 0 0
5 1 0.0000000000000000e+00 4.0726094488768725e+00 8.1403802197807043e+00 8.1384282338783009e+00 0 -1 -1
6 1 0.0000000000000000e+00 4.0726094488775129e+00 8.1403802197807025e+00 4.0765132632046459e+00 0 -1 0
7 1 0.0000000000000000e+00 4.0353729094786539e+00 4.0745614347791568e+00 8.1011916944800841e+00 0 0 -1
8 1 0.0000000000000000e+00 4.0353729094788591e+00 4.0745614347791568e+00 4.1137498026032349e+00 0 0 0
9 1 0.0000000000000000e+00 8.1423320482061357e+00 2.0436039494417280e+00 2.0416519635401085e+00 -1 0 0
10 1 0.0000000000000000e+00 4.7931017601734981e-02 2.0808404888403764e+00 6.1074707485415587e+00 0 0 0
11 1 0.0000000000000000e+00 8.1423320482054979e+00 6.1055189201167561e+00 2.0416519635401085e+00 -1 0 0
12 1 0.0000000000000000e+00 4.7931017601532837e-02 6.0682823807177337e+00 6.1074707485415596e+00 0 0 0
13 1 0.0000000000000000e+00 4.0726094488768716e+00 2.0436039494423688e+00 2.0416519635401076e+00 0 0 0
14 1 0.0000000000000000e+00 4.0353729094786610e+00 2.0808404888405807e+00 6.1074707485415587e+00 0 0 0
15 1 0.0000000000000000e+00 4.0726094488775120e+00 6.1055189201161166e+00 2.0416519635401080e+00 0 0 0
16 1 0.0000000000000000e+00 4.0353729094788662e+00 6.0682823807175321e+00 6.1074707485415587e+00 0 0 0
17 1 0.0000000000000000e+00 2.0416519635405606e+00 8.1403802197803969e+00 2.0416519635404113e+00 0 -1 0
18 1 0.0000000000000000e+00 2.0416519635397812e+00 8.1403802197803685e+00 6.1074707485412425e+00 0 -1 0
19 1 0.0000000000000000e+00 2.0416519635397812e+00 4.0745614347794730e+00 2.0416519635404407e+00 0 0 0
20 1 0.0000000000000000e+00 6.1074707485406412e+00 8.1403802197816262e+00 2.0416519635391848e+00 0 -1 0
21 1 0.0000000000000000e+00 6.1074707485418704e+00 8.1403802197803969e+00 6.1074707485420214e+00 0 -1 0
22 1 0.0000000000000000e+00 6.1074707485418696e+00 4.0745614347786940e+00 2.0416519635404122e+00 0 0 0
23 1 0.0000000000000000e+00 6.1074707485418980e+00 4.0745614347794739e+00 6.1074707485412425e+00 0 0 0
24 1 0.0000000000000000e+00 2.0416519635400969e+00 2.0808404888405856e+00 8.1011916944800877e+00 0 0 -1
25 1 0.0000000000000000e+00 2.0416519635400974e+00 2.0808404888403822e+00 4.1137498026032331e+00 0 0 0
26 1 0.0000000000000000e+00 2.0416519635400978e+00 6.0682823807175286e+00 8.1011916944802920e+00 0 0 -1
27 1 0.0000000000000000e+00 2.0416519635400987e+00 6.0682823807177284e+00 4.1137498026030297e+00 0 0 0
28 1 0.0000000000000000e+00 6.1074707485415640e+00 2.0436039494423679e+00 8.1384282338783009e+00 0 0 -1
29 1 0.0000000000000000e+00 6.1074707485415649e+00 2.0436039494417271e+00 4.0765132632046468e+00 0 0 0
30 1 0.0000000000000000e+00 6.1074707485415658e+00 6.1055189201161175e+00 8.1384282338789404e+00 0 0 -1
31 1 0.0000000000000000e+00 6.1074707485415649e+00 6.1055189201167561e+00 4.0765132632040073e+00 0 0 0

Velocities

1 0.0000000000000000e+00 0.0000000000000000e+00 0.0000000000000000e+00
2 0.0000000000000000e+00 0.0000000000000000e+00 0.0000000000000000e+00
3 0.0000000000000000e+00 0.0000000000000000e+00 0.0000000000000000e+00
4 0.0000000000000000e+00 0.0000000000000000e+00 0.0000000000000000e+00
5 0.0000000000000000e+00 0.0000000000000000e+00 0.0000000000000000e+00
6 0.0000000000000000e+00 0.0000000000000000e+00 0.0000000000000000e+00
7 0.0000000000000000e+00 0.0000000000000000e+00 0.0000000000000000e+00
8 0.0000000000000000e+00 0.0000000000000000e+00 0.0000000000000000e+00
9 0.0000000000000000e+00 0.0000000000000000e+00 0.0000000000000000e+00
10 0.0000000000000000e+00 0.0000000000000000e+00 0.0000000000000000e+00
11 0.0000000000000000e+00 0.0000000000000000e+00 0.0000000000000000e+00
12 0.0000000000000000e+00 0.0000000000000000e+00 0.0000000000000000e+00
13 0.0000000000000000e+00 0.0000000000000000e+00 0.0000000000000000e+00
14 0.0000000000000000e+00 0.0000000000000000e+00 0.0000000000000000e+00
15 0.0000000000000000e+00 0.0000000000000000e+00 0.0000000000000000e+00
16 0.0000000000000000e+00 0.0000000000000000e+00 0.0000000000000000e+00
17 0.0000000000000000e+00 0.0000000000000000e+00 0.0000000000000000e+00
18 0.0000000000000000e+00 0.0000000000000000e+00 0.0000000000000000e+00
19 0.0000000000000000e+00 0.0000000000000000e+00 0.0000000000000000e+00
20 0.0000000000000000e+00 0.0000000000000000e+00 0.0000000000000000e+00
21 0.0000000000000000e+00 0.0000000000000000e+00 0.0000000000000000e+00
22 0.0000000000000000e+00 0.0000000000000000e+00 0.0000000000000000e+00
23 0.0000000000000000e+00 0.0000000000000000e+00 0.0000000000000000e+00
24 0.0000000000000000e+00 0.0000000000000000e+00 0.0000000000000000e+00
25 0.0000000000000000e+00 0.0000000000000000e+00 0.0000000000000000e+00
26 0.0000000000000000e+00 0.0000000000000000e+00 0.0000000000000000e+00
27 0.0000000000000000e+00 0.0000000000000000e+00 0.0000000000000000e+00
28 0.0000000000000000e+00 0.0000000000000000e+00 0.0000000000000000e+00
29 0.0000000000000000e+00 0.0000000000000000e+00 0.0000000000000000e+00
30 0.0000000000000000e+00 0.0000000000000000e+00 0.0000000000000000e+00
31 0.0000000000000000e+00 0.0000000000000000e+00 0.0000000000000000e+00
