datafile (written by JARVIS-FF) 

1008 	 atoms 
1  atom types
0.0 27.168225709  xlo xhi
0.0 26.619316081  ylo yhi
0.0 49.602166893  zlo zhi
5.433645141 0E-9 0E-9  xy xz yz


Atoms 

     1   1 0.000000 28.866239816 23.569186114 16.740731327
     2   1 0.000000 25.243809721 5.822975393 16.740731327
     3   1 0.000000 27.055024768 14.696080753 16.740731327
     4   1 0.000000 10.754089343 23.569186114 16.740731327
     5   1 0.000000 7.131659249 5.822975393 16.740731327
     6   1 0.000000 8.942874296 14.696080753 16.740731327
     7   1 0.000000 19.810164579 23.569186114 16.740731327
     8   1 0.000000 16.187734485 5.822975393 16.740731327
     9   1 0.000000 17.998949532 14.696080753 16.740731327
    10   1 0.000000 25.243809721 20.611484327 13.433920200
    11   1 0.000000 21.621379627 2.865273606 13.433920200
    12   1 0.000000 23.432594674 11.738378966 13.433920200
    13   1 0.000000 7.131659249 20.611484327 13.433920200
    14   1 0.000000 3.509229154 2.865273606 13.433920200
    15   1 0.000000 5.320444201 11.738378966 13.433920200
    16   1 0.000000 16.187734485 20.611484327 13.433920200
    17   1 0.000000 12.565304390 2.865273606 13.433920200
    18   1 0.000000 14.376519438 11.738378966 13.433920200
    19   1 0.000000 25.243809721 24.308611560 15.087325764
    20   1 0.000000 21.621379627 6.562400840 15.087325764
    21   1 0.000000 23.432594674 15.435506200 15.087325764
    22   1 0.000000 7.131659249 24.308611560 15.087325764
    23   1 0.000000 3.509229154 6.562400840 15.087325764
    24   1 0.000000 5.320444201 15.435506200 15.087325764
    25   1 0.000000 16.187734485 24.308611560 15.087325764
    26   1 0.000000 12.565304390 6.562400840 15.087325764
    27   1 0.000000 14.376519438 15.435506200 15.087325764
    28   1 0.000000 28.866239816 19.872058880 15.087325764
    29   1 0.000000 25.243809721 2.125848159 15.087325764
    30   1 0.000000 27.055024768 10.998953520 15.087325764
    31   1 0.000000 10.754089343 19.872058880 15.087325764
    32   1 0.000000 7.131659249 2.125848159 15.087325764
    33   1 0.000000 8.942874296 10.998953520 15.087325764
    34   1 0.000000 19.810164579 19.872058880 15.087325764
    35   1 0.000000 16.187734485 2.125848159 15.087325764
    36   1 0.000000 17.998949532 10.998953520 15.087325764
    37   1 0.000000 32.488669910 26.526887901 15.087325764
    38   1 0.000000 28.866239816 8.780677180 15.087325764
    39   1 0.000000 30.677454863 17.653782540 15.087325764
    40   1 0.000000 14.376519438 26.526887901 15.087325764
    41   1 0.000000 10.754089343 8.780677180 15.087325764
    42   1 0.000000 12.565304390 17.653782540 15.087325764
    43   1 0.000000 23.432594674 26.526887901 15.087325764
    44   1 0.000000 19.810164579 8.780677180 15.087325764
    45   1 0.000000 21.621379627 17.653782540 15.087325764
    46   1 0.000000 27.055024768 22.090335220 15.087325764
    47   1 0.000000 23.432594674 4.344124499 15.087325764
    48   1 0.000000 25.243809721 13.217229860 15.087325764
    49   1 0.000000 8.942874296 22.090335220 15.087325764
    50   1 0.000000 5.320444201 4.344124499 15.087325764
    51   1 0.000000 7.131659249 13.217229860 15.087325764
    52   1 0.000000 17.998949532 22.090335220 15.087325764
    53   1 0.000000 14.376519438 4.344124499 15.087325764
    54   1 0.000000 16.187734485 13.217229860 15.087325764
    55   1 0.000000 23.432594674 0.646997266 13.433920200
    56   1 0.000000 25.243809721 9.520102626 13.433920200
    57   1 0.000000 27.055024768 18.393207987 13.433920200
    58   1 0.000000 5.320444201 0.646997266 13.433920200
    59   1 0.000000 7.131659249 9.520102626 13.433920200
    60   1 0.000000 8.942874296 18.393207987 13.433920200
    61   1 0.000000 14.376519438 0.646997266 13.433920200
    62   1 0.000000 16.187734485 9.520102626 13.433920200
    63   1 0.000000 17.998949532 18.393207987 13.433920200
    64   1 0.000000 5.320444201 22.829760667 13.433920200
    65   1 0.000000 1.698014107 5.083549946 13.433920200
    66   1 0.000000 3.509229154 13.956655307 13.433920200
    67   1 0.000000 14.376519438 22.829760667 13.433920200
    68   1 0.000000 10.754089343 5.083549946 13.433920200
    69   1 0.000000 12.565304390 13.956655307 13.433920200
    70   1 0.000000 23.432594674 22.829760667 13.433920200
    71   1 0.000000 19.810164579 5.083549946 13.433920200
    72   1 0.000000 21.621379627 13.956655307 13.433920200
    73   1 0.000000 29.771847339 26.157175177 15.914028545
    74   1 0.000000 26.149417245 8.410964456 15.914028545
    75   1 0.000000 27.960632292 17.284069817 15.914028545
    76   1 0.000000 11.659696867 26.157175177 15.914028545
    77   1 0.000000 8.037266772 8.410964456 15.914028545
    78   1 0.000000 9.848481819 17.284069817 15.914028545
    79   1 0.000000 20.715772103 26.157175177 15.914028545
    80   1 0.000000 17.093342008 8.410964456 15.914028545
    81   1 0.000000 18.904557056 17.284069817 15.914028545
    82   1 0.000000 24.338202197 21.720622497 15.914028545
    83   1 0.000000 20.715772103 3.974411776 15.914028545
    84   1 0.000000 22.526987150 12.847517136 15.914028545
    85   1 0.000000 6.226051725 21.720622497 15.914028545
    86   1 0.000000 2.603621630 3.974411776 15.914028545
    87   1 0.000000 4.414836678 12.847517136 15.914028545
    88   1 0.000000 15.282126961 21.720622497 15.914028545
    89   1 0.000000 11.659696867 3.974411776 15.914028545
    90   1 0.000000 13.470911914 12.847517136 15.914028545
    91   1 0.000000 20.715772103 0.277284543 14.260622982
    92   1 0.000000 22.526987150 9.150389903 14.260622982
    93   1 0.000000 24.338202197 18.023495263 14.260622982
    94   1 0.000000 2.603621630 0.277284543 14.260622982
    95   1 0.000000 4.414836678 9.150389903 14.260622982
    96   1 0.000000 6.226051725 18.023495263 14.260622982
    97   1 0.000000 11.659696867 0.277284543 14.260622982
    98   1 0.000000 13.470911914 9.150389903 14.260622982
    99   1 0.000000 15.282126961 18.023495263 14.260622982
   100   1 0.000000 29.771847339 22.460047944 14.260622982
   101   1 0.000000 26.149417245 4.713837223 14.260622982
   102   1 0.000000 27.960632292 13.586942583 14.260622982
   103   1 0.000000 11.659696867 22.460047944 14.260622982
   104   1 0.000000 8.037266772 4.713837223 14.260622982
   105   1 0.000000 9.848481819 13.586942583 14.260622982
   106   1 0.000000 20.715772103 22.460047944 14.260622982
   107   1 0.000000 17.093342008 4.713837223 14.260622982
   108   1 0.000000 18.904557056 13.586942583 14.260622982
   109   1 0.000000 31.583062387 23.938898837 15.914028545
   110   1 0.000000 27.960632292 6.192688116 15.914028545
   111   1 0.000000 29.771847339 15.065793477 15.914028545
   112   1 0.000000 13.470911914 23.938898837 15.914028545
   113   1 0.000000 9.848481819 6.192688116 15.914028545
   114   1 0.000000 11.659696867 15.065793477 15.914028545
   115   1 0.000000 22.526987150 23.938898837 15.914028545
   116   1 0.000000 18.904557056 6.192688116 15.914028545
   117   1 0.000000 20.715772103 15.065793477 15.914028545
   118   1 0.000000 26.149417245 19.502346157 15.914028545
   119   1 0.000000 22.526987150 1.756135436 15.914028545
   120   1 0.000000 24.338202197 10.629240796 15.914028545
   121   1 0.000000 8.037266772 19.502346157 15.914028545
   122   1 0.000000 4.414836678 1.756135436 15.914028545
   123   1 0.000000 6.226051725 10.629240796 15.914028545
   124   1 0.000000 17.093342008 19.502346157 15.914028545
   125   1 0.000000 13.470911914 1.756135436 15.914028545
   126   1 0.000000 15.282126961 10.629240796 15.914028545
   127   1 0.000000 27.960632292 24.678324284 14.260622982
   128   1 0.000000 24.338202197 6.932113563 14.260622982
   129   1 0.000000 26.149417245 15.805218923 14.260622982
   130   1 0.000000 9.848481819 24.678324284 14.260622982
   131   1 0.000000 6.226051725 6.932113563 14.260622982
   132   1 0.000000 8.037266772 15.805218923 14.260622982
   133   1 0.000000 18.904557056 24.678324284 14.260622982
   134   1 0.000000 15.282126961 6.932113563 14.260622982
   135   1 0.000000 17.093342008 15.805218923 14.260622982
   136   1 0.000000 4.414836678 20.241771604 14.260622982
   137   1 0.000000 0.792406583 2.495560883 14.260622982
   138   1 0.000000 2.603621630 11.368666243 14.260622982
   139   1 0.000000 13.470911914 20.241771604 14.260622982
   140   1 0.000000 9.848481819 2.495560883 14.260622982
   141   1 0.000000 11.659696867 11.368666243 14.260622982
   142   1 0.000000 22.526987150 20.241771604 14.260622982
   143   1 0.000000 18.904557056 2.495560883 14.260622982
   144   1 0.000000 20.715772103 11.368666243 14.260622982
   145   1 0.000000 27.055024768 22.090335220 20.047542453
   146   1 0.000000 23.432594674 4.344124499 20.047542453
   147   1 0.000000 25.243809721 13.217229860 20.047542453
   148   1 0.000000 8.942874296 22.090335220 20.047542453
   149   1 0.000000 5.320444201 4.344124499 20.047542453
   150   1 0.000000 7.131659249 13.217229860 20.047542453
   151   1 0.000000 17.998949532 22.090335220 20.047542453
   152   1 0.000000 14.376519438 4.344124499 20.047542453
   153   1 0.000000 16.187734485 13.217229860 20.047542453
   154   1 0.000000 23.432594674 19.132633433 16.740731327
   155   1 0.000000 19.810164579 1.386422713 16.740731327
   156   1 0.000000 21.621379627 10.259528073 16.740731327
   157   1 0.000000 5.320444201 19.132633433 16.740731327
   158   1 0.000000 1.698014107 1.386422713 16.740731327
   159   1 0.000000 3.509229154 10.259528073 16.740731327
   160   1 0.000000 14.376519438 19.132633433 16.740731327
   161   1 0.000000 10.754089343 1.386422713 16.740731327
   162   1 0.000000 12.565304390 10.259528073 16.740731327
   163   1 0.000000 23.432594674 22.829760667 18.394136890
   164   1 0.000000 19.810164579 5.083549946 18.394136890
   165   1 0.000000 21.621379627 13.956655307 18.394136890
   166   1 0.000000 5.320444201 22.829760667 18.394136890
   167   1 0.000000 1.698014107 5.083549946 18.394136890
   168   1 0.000000 3.509229154 13.956655307 18.394136890
   169   1 0.000000 14.376519438 22.829760667 18.394136890
   170   1 0.000000 10.754089343 5.083549946 18.394136890
   171   1 0.000000 12.565304390 13.956655307 18.394136890
   172   1 0.000000 27.055024768 18.393207987 18.394136890
   173   1 0.000000 23.432594674 0.646997266 18.394136890
   174   1 0.000000 25.243809721 9.520102626 18.394136890
   175   1 0.000000 8.942874296 18.393207987 18.394136890
   176   1 0.000000 5.320444201 0.646997266 18.394136890
   177   1 0.000000 7.131659249 9.520102626 18.394136890
   178   1 0.000000 17.998949532 18.393207987 18.394136890
   179   1 0.000000 14.376519438 0.646997266 18.394136890
   180   1 0.000000 16.187734485 9.520102626 18.394136890
   181   1 0.000000 30.677454863 25.048037007 18.394136890
   182   1 0.000000 27.055024768 7.301826286 18.394136890
   183   1 0.000000 28.866239816 16.174931647 18.394136890
   184   1 0.000000 12.565304390 25.048037007 18.394136890
   185   1 0.000000 8.942874296 7.301826286 18.394136890
   186   1 0.000000 10.754089343 16.174931647 18.394136890
   187   1 0.000000 21.621379627 25.048037007 18.394136890
   188   1 0.000000 17.998949532 7.301826286 18.394136890
   189   1 0.000000 19.810164579 16.174931647 18.394136890
   190   1 0.000000 25.243809721 20.611484327 18.394136890
   191   1 0.000000 21.621379627 2.865273606 18.394136890
   192   1 0.000000 23.432594674 11.738378966 18.394136890
   193   1 0.000000 7.131659249 20.611484327 18.394136890
   194   1 0.000000 3.509229154 2.865273606 18.394136890
   195   1 0.000000 5.320444201 11.738378966 18.394136890
   196   1 0.000000 16.187734485 20.611484327 18.394136890
   197   1 0.000000 12.565304390 2.865273606 18.394136890
   198   1 0.000000 14.376519438 11.738378966 18.394136890
   199   1 0.000000 27.055024768 25.787462454 16.740731327
   200   1 0.000000 23.432594674 8.041251733 16.740731327
   201   1 0.000000 25.243809721 16.914357093 16.740731327
   202   1 0.000000 8.942874296 25.787462454 16.740731327
   203   1 0.000000 5.320444201 8.041251733 16.740731327
   204   1 0.000000 7.131659249 16.914357093 16.740731327
   205   1 0.000000 17.998949532 25.787462454 16.740731327
   206   1 0.000000 14.376519438 8.041251733 16.740731327
   207   1 0.000000 16.187734485 16.914357093 16.740731327
   208   1 0.000000 30.677454863 21.350909774 16.740731327
   209   1 0.000000 27.055024768 3.604699053 16.740731327
   210   1 0.000000 28.866239816 12.477804413 16.740731327
   211   1 0.000000 12.565304390 21.350909774 16.740731327
   212   1 0.000000 8.942874296 3.604699053 16.740731327
   213   1 0.000000 10.754089343 12.477804413 16.740731327
   214   1 0.000000 21.621379627 21.350909774 16.740731327
   215   1 0.000000 17.998949532 3.604699053 16.740731327
   216   1 0.000000 19.810164579 12.477804413 16.740731327
   217   1 0.000000 27.960632292 24.678324284 19.220839671
   218   1 0.000000 24.338202197 6.932113563 19.220839671
   219   1 0.000000 26.149417245 15.805218923 19.220839671
   220   1 0.000000 9.848481819 24.678324284 19.220839671
   221   1 0.000000 6.226051725 6.932113563 19.220839671
   222   1 0.000000 8.037266772 15.805218923 19.220839671
   223   1 0.000000 18.904557056 24.678324284 19.220839671
   224   1 0.000000 15.282126961 6.932113563 19.220839671
   225   1 0.000000 17.093342008 15.805218923 19.220839671
   226   1 0.000000 22.526987150 20.241771604 19.220839671
   227   1 0.000000 18.904557056 2.495560883 19.220839671
   228   1 0.000000 20.715772103 11.368666243 19.220839671
   229   1 0.000000 4.414836678 20.241771604 19.220839671
   230   1 0.000000 0.792406583 2.495560883 19.220839671
   231   1 0.000000 2.603621630 11.368666243 19.220839671
   232   1 0.000000 13.470911914 20.241771604 19.220839671
   233   1 0.000000 9.848481819 2.495560883 19.220839671
   234   1 0.000000 11.659696867 11.368666243 19.220839671
   235   1 0.000000 24.338202197 25.417749730 17.567434108
   236   1 0.000000 20.715772103 7.671539010 17.567434108
   237   1 0.000000 22.526987150 16.544644370 17.567434108
   238   1 0.000000 6.226051725 25.417749730 17.567434108
   239   1 0.000000 2.603621630 7.671539010 17.567434108
   240   1 0.000000 4.414836678 16.544644370 17.567434108
   241   1 0.000000 15.282126961 25.417749730 17.567434108
   242   1 0.000000 11.659696867 7.671539010 17.567434108
   243   1 0.000000 13.470911914 16.544644370 17.567434108
   244   1 0.000000 27.960632292 20.981197050 17.567434108
   245   1 0.000000 24.338202197 3.234986329 17.567434108
   246   1 0.000000 26.149417245 12.108091690 17.567434108
   247   1 0.000000 9.848481819 20.981197050 17.567434108
   248   1 0.000000 6.226051725 3.234986329 17.567434108
   249   1 0.000000 8.037266772 12.108091690 17.567434108
   250   1 0.000000 18.904557056 20.981197050 17.567434108
   251   1 0.000000 15.282126961 3.234986329 17.567434108
   252   1 0.000000 17.093342008 12.108091690 17.567434108
   253   1 0.000000 29.771847339 22.460047944 19.220839671
   254   1 0.000000 26.149417245 4.713837223 19.220839671
   255   1 0.000000 27.960632292 13.586942583 19.220839671
   256   1 0.000000 11.659696867 22.460047944 19.220839671
   257   1 0.000000 8.037266772 4.713837223 19.220839671
   258   1 0.000000 9.848481819 13.586942583 19.220839671
   259   1 0.000000 20.715772103 22.460047944 19.220839671
   260   1 0.000000 17.093342008 4.713837223 19.220839671
   261   1 0.000000 18.904557056 13.586942583 19.220839671
   262   1 0.000000 24.338202197 18.023495263 19.220839671
   263   1 0.000000 20.715772103 0.277284543 19.220839671
   264   1 0.000000 22.526987150 9.150389903 19.220839671
   265   1 0.000000 6.226051725 18.023495263 19.220839671
   266   1 0.000000 2.603621630 0.277284543 19.220839671
   267   1 0.000000 4.414836678 9.150389903 19.220839671
   268   1 0.000000 15.282126961 18.023495263 19.220839671
   269   1 0.000000 11.659696867 0.277284543 19.220839671
   270   1 0.000000 13.470911914 9.150389903 19.220839671
   271   1 0.000000 26.149417245 23.199473390 17.567434108
   272   1 0.000000 22.526987150 5.453262669 17.567434108
   273   1 0.000000 24.338202197 14.326368030 17.567434108
   274   1 0.000000 8.037266772 23.199473390 17.567434108
   275   1 0.000000 4.414836678 5.453262669 17.567434108
   276   1 0.000000 6.226051725 14.326368030 17.567434108
   277   1 0.000000 17.093342008 23.199473390 17.567434108
   278   1 0.000000 13.470911914 5.453262669 17.567434108
   279   1 0.000000 15.282126961 14.326368030 17.567434108
   280   1 0.000000 29.771847339 18.762920710 17.567434108
   281   1 0.000000 26.149417245 1.016709989 17.567434108
   282   1 0.000000 27.960632292 9.889815350 17.567434108
   283   1 0.000000 11.659696867 18.762920710 17.567434108
   284   1 0.000000 8.037266772 1.016709989 17.567434108
   285   1 0.000000 9.848481819 9.889815350 17.567434108
   286   1 0.000000 20.715772103 18.762920710 17.567434108
   287   1 0.000000 17.093342008 1.016709989 17.567434108
   288   1 0.000000 18.904557056 9.889815350 17.567434108
   289   1 0.000000 25.243809721 20.611484327 23.354353579
   290   1 0.000000 21.621379627 2.865273606 23.354353579
   291   1 0.000000 23.432594674 11.738378966 23.354353579
   292   1 0.000000 7.131659249 20.611484327 23.354353579
   293   1 0.000000 3.509229154 2.865273606 23.354353579
   294   1 0.000000 5.320444201 11.738378966 23.354353579
   295   1 0.000000 16.187734485 20.611484327 23.354353579
   296   1 0.000000 12.565304390 2.865273606 23.354353579
   297   1 0.000000 14.376519438 11.738378966 23.354353579
   298   1 0.000000 21.621379627 17.653782540 20.047542453
   299   1 0.000000 23.432594674 26.526887901 20.047542453
   300   1 0.000000 19.810164579 8.780677180 20.047542453
   301   1 0.000000 30.677454863 17.653782540 20.047542453
   302   1 0.000000 32.488669910 26.526887901 20.047542453
   303   1 0.000000 28.866239816 8.780677180 20.047542453
   304   1 0.000000 12.565304390 17.653782540 20.047542453
   305   1 0.000000 14.376519438 26.526887901 20.047542453
   306   1 0.000000 10.754089343 8.780677180 20.047542453
   307   1 0.000000 21.621379627 21.350909774 21.700948016
   308   1 0.000000 17.998949532 3.604699053 21.700948016
   309   1 0.000000 19.810164579 12.477804413 21.700948016
   310   1 0.000000 30.677454863 21.350909774 21.700948016
   311   1 0.000000 27.055024768 3.604699053 21.700948016
   312   1 0.000000 28.866239816 12.477804413 21.700948016
   313   1 0.000000 12.565304390 21.350909774 21.700948016
   314   1 0.000000 8.942874296 3.604699053 21.700948016
   315   1 0.000000 10.754089343 12.477804413 21.700948016
   316   1 0.000000 25.243809721 16.914357093 21.700948016
   317   1 0.000000 27.055024768 25.787462454 21.700948016
   318   1 0.000000 23.432594674 8.041251733 21.700948016
   319   1 0.000000 7.131659249 16.914357093 21.700948016
   320   1 0.000000 8.942874296 25.787462454 21.700948016
   321   1 0.000000 5.320444201 8.041251733 21.700948016
   322   1 0.000000 16.187734485 16.914357093 21.700948016
   323   1 0.000000 17.998949532 25.787462454 21.700948016
   324   1 0.000000 14.376519438 8.041251733 21.700948016
   325   1 0.000000 28.866239816 23.569186114 21.700948016
   326   1 0.000000 25.243809721 5.822975393 21.700948016
   327   1 0.000000 27.055024768 14.696080753 21.700948016
   328   1 0.000000 10.754089343 23.569186114 21.700948016
   329   1 0.000000 7.131659249 5.822975393 21.700948016
   330   1 0.000000 8.942874296 14.696080753 21.700948016
   331   1 0.000000 19.810164579 23.569186114 21.700948016
   332   1 0.000000 16.187734485 5.822975393 21.700948016
   333   1 0.000000 17.998949532 14.696080753 21.700948016
   334   1 0.000000 23.432594674 19.132633433 21.700948016
   335   1 0.000000 19.810164579 1.386422713 21.700948016
   336   1 0.000000 21.621379627 10.259528073 21.700948016
   337   1 0.000000 5.320444201 19.132633433 21.700948016
   338   1 0.000000 1.698014107 1.386422713 21.700948016
   339   1 0.000000 3.509229154 10.259528073 21.700948016
   340   1 0.000000 14.376519438 19.132633433 21.700948016
   341   1 0.000000 10.754089343 1.386422713 21.700948016
   342   1 0.000000 12.565304390 10.259528073 21.700948016
   343   1 0.000000 25.243809721 24.308611560 20.047542453
   344   1 0.000000 21.621379627 6.562400840 20.047542453
   345   1 0.000000 23.432594674 15.435506200 20.047542453
   346   1 0.000000 7.131659249 24.308611560 20.047542453
   347   1 0.000000 3.509229154 6.562400840 20.047542453
   348   1 0.000000 5.320444201 15.435506200 20.047542453
   349   1 0.000000 16.187734485 24.308611560 20.047542453
   350   1 0.000000 12.565304390 6.562400840 20.047542453
   351   1 0.000000 14.376519438 15.435506200 20.047542453
   352   1 0.000000 28.866239816 19.872058880 20.047542453
   353   1 0.000000 25.243809721 2.125848159 20.047542453
   354   1 0.000000 27.055024768 10.998953520 20.047542453
   355   1 0.000000 10.754089343 19.872058880 20.047542453
   356   1 0.000000 7.131659249 2.125848159 20.047542453
   357   1 0.000000 8.942874296 10.998953520 20.047542453
   358   1 0.000000 19.810164579 19.872058880 20.047542453
   359   1 0.000000 16.187734485 2.125848159 20.047542453
   360   1 0.000000 17.998949532 10.998953520 20.047542453
   361   1 0.000000 26.149417245 23.199473390 22.527650798
   362   1 0.000000 22.526987150 5.453262669 22.527650798
   363   1 0.000000 24.338202197 14.326368030 22.527650798
   364   1 0.000000 8.037266772 23.199473390 22.527650798
   365   1 0.000000 4.414836678 5.453262669 22.527650798
   366   1 0.000000 6.226051725 14.326368030 22.527650798
   367   1 0.000000 17.093342008 23.199473390 22.527650798
   368   1 0.000000 13.470911914 5.453262669 22.527650798
   369   1 0.000000 15.282126961 14.326368030 22.527650798
   370   1 0.000000 20.715772103 18.762920710 22.527650798
   371   1 0.000000 17.093342008 1.016709989 22.527650798
   372   1 0.000000 18.904557056 9.889815350 22.527650798
   373   1 0.000000 29.771847339 18.762920710 22.527650798
   374   1 0.000000 26.149417245 1.016709989 22.527650798
   375   1 0.000000 27.960632292 9.889815350 22.527650798
   376   1 0.000000 11.659696867 18.762920710 22.527650798
   377   1 0.000000 8.037266772 1.016709989 22.527650798
   378   1 0.000000 9.848481819 9.889815350 22.527650798
   379   1 0.000000 22.526987150 23.938898837 20.874245234
   380   1 0.000000 18.904557056 6.192688116 20.874245234
   381   1 0.000000 20.715772103 15.065793477 20.874245234
   382   1 0.000000 31.583062387 23.938898837 20.874245234
   383   1 0.000000 27.960632292 6.192688116 20.874245234
   384   1 0.000000 29.771847339 15.065793477 20.874245234
   385   1 0.000000 13.470911914 23.938898837 20.874245234
   386   1 0.000000 9.848481819 6.192688116 20.874245234
   387   1 0.000000 11.659696867 15.065793477 20.874245234
   388   1 0.000000 26.149417245 19.502346157 20.874245234
   389   1 0.000000 22.526987150 1.756135436 20.874245234
   390   1 0.000000 24.338202197 10.629240796 20.874245234
   391   1 0.000000 8.037266772 19.502346157 20.874245234
   392   1 0.000000 4.414836678 1.756135436 20.874245234
   393   1 0.000000 6.226051725 10.629240796 20.874245234
   394   1 0.000000 17.093342008 19.502346157 20.874245234
   395   1 0.000000 13.470911914 1.756135436 20.874245234
   396   1 0.000000 15.282126961 10.629240796 20.874245234
   397   1 0.000000 27.960632292 20.981197050 22.527650798
   398   1 0.000000 24.338202197 3.234986329 22.527650798
   399   1 0.000000 26.149417245 12.108091690 22.527650798
   400   1 0.000000 9.848481819 20.981197050 22.527650798
   401   1 0.000000 6.226051725 3.234986329 22.527650798
   402   1 0.000000 8.037266772 12.108091690 22.527650798
   403   1 0.000000 18.904557056 20.981197050 22.527650798
   404   1 0.000000 15.282126961 3.234986329 22.527650798
   405   1 0.000000 17.093342008 12.108091690 22.527650798
   406   1 0.000000 22.526987150 16.544644370 22.527650798
   407   1 0.000000 24.338202197 25.417749730 22.527650798
   408   1 0.000000 20.715772103 7.671539010 22.527650798
   409   1 0.000000 4.414836678 16.544644370 22.527650798
   410   1 0.000000 6.226051725 25.417749730 22.527650798
   411   1 0.000000 2.603621630 7.671539010 22.527650798
   412   1 0.000000 13.470911914 16.544644370 22.527650798
   413   1 0.000000 15.282126961 25.417749730 22.527650798
   414   1 0.000000 11.659696867 7.671539010 22.527650798
   415   1 0.000000 24.338202197 21.720622497 20.874245234
   416   1 0.000000 20.715772103 3.974411776 20.874245234
   417   1 0.000000 22.526987150 12.847517136 20.874245234
   418   1 0.000000 6.226051725 21.720622497 20.874245234
   419   1 0.000000 2.603621630 3.974411776 20.874245234
   420   1 0.000000 4.414836678 12.847517136 20.874245234
   421   1 0.000000 15.282126961 21.720622497 20.874245234
   422   1 0.000000 11.659696867 3.974411776 20.874245234
   423   1 0.000000 13.470911914 12.847517136 20.874245234
   424   1 0.000000 27.960632292 17.284069817 20.874245234
   425   1 0.000000 29.771847339 26.157175177 20.874245234
   426   1 0.000000 26.149417245 8.410964456 20.874245234
   427   1 0.000000 9.848481819 17.284069817 20.874245234
   428   1 0.000000 11.659696867 26.157175177 20.874245234
   429   1 0.000000 8.037266772 8.410964456 20.874245234
   430   1 0.000000 18.904557056 17.284069817 20.874245234
   431   1 0.000000 20.715772103 26.157175177 20.874245234
   432   1 0.000000 17.093342008 8.410964456 20.874245234
   433   1 0.000000 23.432594674 19.132633433 26.661164705
   434   1 0.000000 19.810164579 1.386422713 26.661164705
   435   1 0.000000 21.621379627 10.259528073 26.661164705
   436   1 0.000000 5.320444201 19.132633433 26.661164705
   437   1 0.000000 1.698014107 1.386422713 26.661164705
   438   1 0.000000 3.509229154 10.259528073 26.661164705
   439   1 0.000000 14.376519438 19.132633433 26.661164705
   440   1 0.000000 10.754089343 1.386422713 26.661164705
   441   1 0.000000 12.565304390 10.259528073 26.661164705
   442   1 0.000000 19.810164579 16.174931647 23.354353579
   443   1 0.000000 21.621379627 25.048037007 23.354353579
   444   1 0.000000 17.998949532 7.301826286 23.354353579
   445   1 0.000000 28.866239816 16.174931647 23.354353579
   446   1 0.000000 30.677454863 25.048037007 23.354353579
   447   1 0.000000 27.055024768 7.301826286 23.354353579
   448   1 0.000000 10.754089343 16.174931647 23.354353579
   449   1 0.000000 12.565304390 25.048037007 23.354353579
   450   1 0.000000 8.942874296 7.301826286 23.354353579
   451   1 0.000000 19.810164579 19.872058880 25.007759142
   452   1 0.000000 16.187734485 2.125848159 25.007759142
   453   1 0.000000 17.998949532 10.998953520 25.007759142
   454   1 0.000000 28.866239816 19.872058880 25.007759142
   455   1 0.000000 25.243809721 2.125848159 25.007759142
   456   1 0.000000 27.055024768 10.998953520 25.007759142
   457   1 0.000000 10.754089343 19.872058880 25.007759142
   458   1 0.000000 7.131659249 2.125848159 25.007759142
   459   1 0.000000 8.942874296 10.998953520 25.007759142
   460   1 0.000000 23.432594674 15.435506200 25.007759142
   461   1 0.000000 25.243809721 24.308611560 25.007759142
   462   1 0.000000 21.621379627 6.562400840 25.007759142
   463   1 0.000000 5.320444201 15.435506200 25.007759142
   464   1 0.000000 7.131659249 24.308611560 25.007759142
   465   1 0.000000 3.509229154 6.562400840 25.007759142
   466   1 0.000000 14.376519438 15.435506200 25.007759142
   467   1 0.000000 16.187734485 24.308611560 25.007759142
   468   1 0.000000 12.565304390 6.562400840 25.007759142
   469   1 0.000000 27.055024768 22.090335220 25.007759142
   470   1 0.000000 23.432594674 4.344124499 25.007759142
   471   1 0.000000 25.243809721 13.217229860 25.007759142
   472   1 0.000000 8.942874296 22.090335220 25.007759142
   473   1 0.000000 5.320444201 4.344124499 25.007759142
   474   1 0.000000 7.131659249 13.217229860 25.007759142
   475   1 0.000000 17.998949532 22.090335220 25.007759142
   476   1 0.000000 14.376519438 4.344124499 25.007759142
   477   1 0.000000 16.187734485 13.217229860 25.007759142
   478   1 0.000000 21.621379627 17.653782540 25.007759142
   479   1 0.000000 23.432594674 26.526887901 25.007759142
   480   1 0.000000 19.810164579 8.780677180 25.007759142
   481   1 0.000000 30.677454863 17.653782540 25.007759142
   482   1 0.000000 32.488669910 26.526887901 25.007759142
   483   1 0.000000 28.866239816 8.780677180 25.007759142
   484   1 0.000000 12.565304390 17.653782540 25.007759142
   485   1 0.000000 14.376519438 26.526887901 25.007759142
   486   1 0.000000 10.754089343 8.780677180 25.007759142
   487   1 0.000000 23.432594674 22.829760667 23.354353579
   488   1 0.000000 19.810164579 5.083549946 23.354353579
   489   1 0.000000 21.621379627 13.956655307 23.354353579
   490   1 0.000000 5.320444201 22.829760667 23.354353579
   491   1 0.000000 1.698014107 5.083549946 23.354353579
   492   1 0.000000 3.509229154 13.956655307 23.354353579
   493   1 0.000000 14.376519438 22.829760667 23.354353579
   494   1 0.000000 10.754089343 5.083549946 23.354353579
   495   1 0.000000 12.565304390 13.956655307 23.354353579
   496   1 0.000000 27.055024768 18.393207987 23.354353579
   497   1 0.000000 23.432594674 0.646997266 23.354353579
   498   1 0.000000 25.243809721 9.520102626 23.354353579
   499   1 0.000000 8.942874296 18.393207987 23.354353579
   500   1 0.000000 5.320444201 0.646997266 23.354353579
   501   1 0.000000 7.131659249 9.520102626 23.354353579
   502   1 0.000000 17.998949532 18.393207987 23.354353579
   503   1 0.000000 14.376519438 0.646997266 23.354353579
   504   1 0.000000 16.187734485 9.520102626 23.354353579
   505   1 0.000000 24.338202197 21.720622497 25.834461924
   506   1 0.000000 20.715772103 3.974411776 25.834461924
   507   1 0.000000 22.526987150 12.847517136 25.834461924
   508   1 0.000000 6.226051725 21.720622497 25.834461924
   509   1 0.000000 2.603621630 3.974411776 25.834461924
   510   1 0.000000 4.414836678 12.847517136 25.834461924
   511   1 0.000000 15.282126961 21.720622497 25.834461924