datafile (written by JARVIS-FF) 

575 	 atoms 
1  atom types
0.0 16.199999870  xlo xhi
0.0 24.299999805  ylo yhi
0.0 24.299999804  zlo zhi
0E-9 0E-9 0E-9  xy xz yz


Atoms 

     1   1 0.000000 0E-9 0E-9 4.049999968
     2   1 0.000000 0E-9 0E-9 8.099999935
     3   1 0.000000 0E-9 0E-9 12.149999903
     4   1 0.000000 0E-9 0E-9 16.199999870
     5   1 0.000000 0E-9 0E-9 20.249999838
     6   1 0.000000 0E-9 4.049999968 -0E-9
     7   1 0.000000 0E-9 4.049999968 4.049999968
     8   1 0.000000 0E-9 4.049999968 8.099999935
     9   1 0.000000 0E-9 4.049999968 12.149999903
    10   1 0.000000 0E-9 4.049999968 16.199999870
    11   1 0.000000 0E-9 4.049999968 20.249999838
    12   1 0.000000 0E-9 8.099999935 -0E-9
    13   1 0.000000 0E-9 8.099999935 4.049999968
    14   1 0.000000 0E-9 8.099999935 8.099999935
    15   1 0.000000 0E-9 8.099999935 12.149999903
    16   1 0.000000 0E-9 8.099999935 16.199999870
    17   1 0.000000 0E-9 8.099999935 20.249999838
    18   1 0.000000 0E-9 12.149999903 24.299999805
    19   1 0.000000 0E-9 12.149999903 4.049999968
    20   1 0.000000 0E-9 12.149999903 8.099999935
    21   1 0.000000 0E-9 12.149999903 12.149999903
    22   1 0.000000 0E-9 12.149999903 16.199999870
    23   1 0.000000 0E-9 12.149999903 20.249999838
    24   1 0.000000 0E-9 16.199999870 -0E-9
    25   1 0.000000 0E-9 16.199999870 4.049999968
    26   1 0.000000 0E-9 16.199999870 8.099999935
    27   1 0.000000 0E-9 16.199999870 12.149999903
    28   1 0.000000 0E-9 16.199999870 16.199999870
    29   1 0.000000 0E-9 16.199999870 20.249999838
    30   1 0.000000 16.199999870 20.249999838 24.299999805
    31   1 0.000000 16.199999870 20.249999838 4.049999968
    32   1 0.000000 16.199999870 20.249999838 8.099999935
    33   1 0.000000 16.199999870 20.249999838 12.149999903
    34   1 0.000000 16.199999870 20.249999838 16.199999870
    35   1 0.000000 16.199999870 20.249999838 20.249999838
    36   1 0.000000 4.049999968 0E-9 0E-9
    37   1 0.000000 4.049999968 0E-9 4.049999968
    38   1 0.000000 4.049999968 0E-9 8.099999935
    39   1 0.000000 4.049999968 0E-9 12.149999903
    40   1 0.000000 4.049999968 0E-9 16.199999870
    41   1 0.000000 4.049999968 0E-9 20.249999838
    42   1 0.000000 4.049999968 4.049999968 24.299999805
    43   1 0.000000 4.049999968 4.049999968 4.049999968
    44   1 0.000000 4.049999968 4.049999968 8.099999935
    45   1 0.000000 4.049999968 4.049999968 12.149999903
    46   1 0.000000 4.049999968 4.049999968 16.199999870
    47   1 0.000000 4.049999968 4.049999968 20.249999838
    48   1 0.000000 4.049999968 8.099999935 0E-9
    49   1 0.000000 4.049999968 8.099999935 4.049999968
    50   1 0.000000 4.049999968 8.099999935 8.099999935
    51   1 0.000000 4.049999968 8.099999935 12.149999903
    52   1 0.000000 4.049999968 8.099999935 16.199999870
    53   1 0.000000 4.049999968 8.099999935 20.249999838
    54   1 0.000000 4.049999968 12.149999903 24.299999805
    55   1 0.000000 4.049999968 12.149999903 4.049999968
    56   1 0.000000 4.049999968 12.149999903 8.099999935
    57   1 0.000000 4.049999968 12.149999903 12.149999903
    58   1 0.000000 4.049999968 12.149999903 16.199999870
    59   1 0.000000 4.049999968 12.149999903 20.249999838
    60   1 0.000000 4.049999968 16.199999870 24.299999805
    61   1 0.000000 4.049999968 16.199999870 4.049999968
    62   1 0.000000 4.049999968 16.199999870 8.099999935
    63   1 0.000000 4.049999968 16.199999870 12.149999903
    64   1 0.000000 4.049999968 16.199999870 16.199999870
    65   1 0.000000 4.049999968 16.199999870 20.249999838
    66   1 0.000000 4.049999968 20.249999838 -0E-9
    67   1 0.000000 4.049999968 20.249999838 4.049999968
    68   1 0.000000 4.049999968 20.249999838 8.099999935
    69   1 0.000000 4.049999968 20.249999838 12.149999903
    70   1 0.000000 4.049999968 20.249999838 16.199999870
    71   1 0.000000 4.049999968 20.249999838 20.249999838
    72   1 0.000000 8.099999935 0E-9 0E-9
    73   1 0.000000 8.099999935 0E-9 4.049999968
    74   1 0.000000 8.099999935 0E-9 8.099999935
    75   1 0.000000 8.099999935 0E-9 12.149999903
    76   1 0.000000 8.099999935 0E-9 16.199999870
    77   1 0.000000 8.099999935 0E-9 20.249999838
    78   1 0.000000 8.099999935 4.049999968 0E-9
    79   1 0.000000 8.099999935 4.049999968 4.049999968
    80   1 0.000000 8.099999935 4.049999968 8.099999935
    81   1 0.000000 8.099999935 4.049999968 12.149999903
    82   1 0.000000 8.099999935 4.049999968 16.199999870
    83   1 0.000000 8.099999935 4.049999968 20.249999838
    84   1 0.000000 8.099999935 8.099999935 24.299999805
    85   1 0.000000 8.099999935 8.099999935 4.049999968
    86   1 0.000000 8.099999935 8.099999935 8.099999935
    87   1 0.000000 8.099999935 8.099999935 12.149999903
    88   1 0.000000 8.099999935 8.099999935 16.199999870
    89   1 0.000000 8.099999935 8.099999935 20.249999838
    90   1 0.000000 8.099999935 12.149999903 24.299999805
    91   1 0.000000 8.099999935 12.149999903 4.049999968
    92   1 0.000000 8.099999935 12.149999903 8.099999935
    93   1 0.000000 8.099999935 12.149999903 12.149999903
    94   1 0.000000 8.099999935 12.149999903 16.199999870
    95   1 0.000000 8.099999935 12.149999903 20.249999838
    96   1 0.000000 8.099999935 16.199999870 0E-9
    97   1 0.000000 8.099999935 16.199999870 4.049999968
    98   1 0.000000 8.099999935 16.199999870 8.099999935
    99   1 0.000000 8.099999935 16.199999870 12.149999903
   100   1 0.000000 8.099999935 16.199999870 16.199999870
   101   1 0.000000 8.099999935 16.199999870 20.249999838
   102   1 0.000000 8.099999935 20.249999838 -0E-9
   103   1 0.000000 8.099999935 20.249999838 4.049999968
   104   1 0.000000 8.099999935 20.249999838 8.099999935
   105   1 0.000000 8.099999935 20.249999838 12.149999903
   106   1 0.000000 8.099999935 20.249999838 16.199999870
   107   1 0.000000 8.099999935 20.249999838 20.249999838
   108   1 0.000000 12.149999903 0E-9 0E-9
   109   1 0.000000 12.149999903 0E-9 4.049999968
   110   1 0.000000 12.149999903 0E-9 8.099999935
   111   1 0.000000 12.149999903 0E-9 12.149999903
   112   1 0.000000 12.149999903 0E-9 16.199999870
   113   1 0.000000 12.149999903 0E-9 20.249999838
   114   1 0.000000 12.149999903 4.049999968 0E-9
   115   1 0.000000 12.149999903 4.049999968 4.049999968
   116   1 0.000000 12.149999903 4.049999968 8.099999935
   117   1 0.000000 12.149999903 4.049999968 12.149999903
   118   1 0.000000 12.149999903 4.049999968 16.199999870
   119   1 0.000000 12.149999903 4.049999968 20.249999838
   120   1 0.000000 12.149999903 8.099999935 0E-9
   121   1 0.000000 12.149999903 8.099999935 4.049999968
   122   1 0.000000 12.149999903 8.099999935 8.099999935
   123   1 0.000000 12.149999903 8.099999935 12.149999903
   124   1 0.000000 12.149999903 8.099999935 16.199999870
   125   1 0.000000 12.149999903 8.099999935 20.249999838
   126   1 0.000000 12.149999903 12.149999903 0E-9
   127   1 0.000000 12.149999903 12.149999903 4.049999968
   128   1 0.000000 12.149999903 12.149999903 8.099999935
   129   1 0.000000 12.149999903 12.149999903 12.149999903
   130   1 0.000000 12.149999903 12.149999903 16.199999870
   131   1 0.000000 12.149999903 12.149999903 20.249999838
   132   1 0.000000 12.149999903 16.199999870 0E-9
   133   1 0.000000 12.149999903 16.199999870 4.049999968
   134   1 0.000000 12.149999903 16.199999870 8.099999935
   135   1 0.000000 12.149999903 16.199999870 12.149999903
   136   1 0.000000 12.149999903 16.199999870 16.199999870
   137   1 0.000000 12.149999903 16.199999870 20.249999838
   138   1 0.000000 12.149999903 20.249999838 24.299999805
   139   1 0.000000 12.149999903 20.249999838 4.049999968
   140   1 0.000000 12.149999903 20.249999838 8.099999935
   141   1 0.000000 12.149999903 20.249999838 12.149999903
   142   1 0.000000 12.149999903 20.249999838 16.199999870
   143   1 0.000000 12.149999903 20.249999838 20.249999838
   144   1 0.000000 16.199999870 2.024999984 2.024999984
   145   1 0.000000 16.199999870 2.024999984 6.074999951
   146   1 0.000000 16.199999870 2.024999984 10.124999919
   147   1 0.000000 16.199999870 2.024999984 14.174999886
   148   1 0.000000 16.199999870 2.024999984 18.224999854
   149   1 0.000000 16.199999870 2.024999984 22.274999821
   150   1 0.000000 0E-9 6.074999951 2.024999984
   151   1 0.000000 0E-9 6.074999951 6.074999951
   152   1 0.000000 0E-9 6.074999951 10.124999919
   153   1 0.000000 0E-9 6.074999951 14.174999886
   154   1 0.000000 0E-9 6.074999951 18.224999854
   155   1 0.000000 0E-9 6.074999951 22.274999821
   156   1 0.000000 0E-9 10.124999919 2.024999984
   157   1 0.000000 0E-9 10.124999919 6.074999951
   158   1 0.000000 0E-9 10.124999919 10.124999919
   159   1 0.000000 0E-9 10.124999919 14.174999886
   160   1 0.000000 0E-9 10.124999919 18.224999854
   161   1 0.000000 0E-9 10.124999919 22.274999821
   162   1 0.000000 0E-9 14.174999886 2.024999984
   163   1 0.000000 0E-9 14.174999886 6.074999951
   164   1 0.000000 0E-9 14.174999886 10.124999919
   165   1 0.000000 0E-9 14.174999886 14.174999886
   166   1 0.000000 0E-9 14.174999886 18.224999854
   167   1 0.000000 0E-9 14.174999886 22.274999821
   168   1 0.000000 0E-9 18.224999854 2.024999984
   169   1 0.000000 0E-9 18.224999854 6.074999951
   170   1 0.000000 0E-9 18.224999854 10.124999919
   171   1 0.000000 0E-9 18.224999854 14.174999886
   172   1 0.000000 0E-9 18.224999854 18.224999854
   173   1 0.000000 0E-9 18.224999854 22.274999821
   174   1 0.000000 16.199999870 22.274999821 2.024999984
   175   1 0.000000 16.199999870 22.274999821 6.074999951
   176   1 0.000000 16.199999870 22.274999821 10.124999919
   177   1 0.000000 16.199999870 22.274999821 14.174999886
   178   1 0.000000 16.199999870 22.274999821 18.224999854
   179   1 0.000000 16.199999870 22.274999821 22.274999821
   180   1 0.000000 4.049999968 2.024999984 2.024999984
   181   1 0.000000 4.049999968 2.024999984 6.074999951
   182   1 0.000000 4.049999968 2.024999984 10.124999919
   183   1 0.000000 4.049999968 2.024999984 14.174999886
   184   1 0.000000 4.049999968 2.024999984 18.224999854
   185   1 0.000000 4.049999968 2.024999984 22.274999821
   186   1 0.000000 4.049999968 6.074999951 2.024999984
   187   1 0.000000 4.049999968 6.074999951 6.074999951
   188   1 0.000000 4.049999968 6.074999951 10.124999919
   189   1 0.000000 4.049999968 6.074999951 14.174999886
   190   1 0.000000 4.049999968 6.074999951 18.224999854
   191   1 0.000000 4.049999968 6.074999951 22.274999821
   192   1 0.000000 4.049999968 10.124999919 2.024999984
   193   1 0.000000 4.049999968 10.124999919 6.074999951
   194   1 0.000000 4.049999968 10.124999919 10.124999919
   195   1 0.000000 4.049999968 10.124999919 14.174999886
   196   1 0.000000 4.049999968 10.124999919 18.224999854
   197   1 0.000000 4.049999968 10.124999919 22.274999821
   198   1 0.000000 4.049999968 14.174999886 2.024999984
   199   1 0.000000 4.049999968 14.174999886 6.074999951
   200   1 0.000000 4.049999968 14.174999886 10.124999919
   201   1 0.000000 4.049999968 14.174999886 14.174999886
   202   1 0.000000 4.049999968 14.174999886 18.224999854
   203   1 0.000000 4.049999968 14.174999886 22.274999821
   204   1 0.000000 4.049999968 18.224999854 2.024999984
   205   1 0.000000 4.049999968 18.224999854 6.074999951
   206   1 0.000000 4.049999968 18.224999854 10.124999919
   207   1 0.000000 4.049999968 18.224999854 14.174999886
   208   1 0.000000 4.049999968 18.224999854 18.224999854
   209   1 0.000000 4.049999968 18.224999854 22.274999821
   210   1 0.000000 4.049999968 22.274999821 2.024999984
   211   1 0.000000 4.049999968 22.274999821 6.074999951
   212   1 0.000000 4.049999968 22.274999821 10.124999919
   213   1 0.000000 4.049999968 22.274999821 14.174999886
   214   1 0.000000 4.049999968 22.274999821 18.224999854
   215   1 0.000000 4.049999968 22.274999821 22.274999821
   216   1 0.000000 8.099999935 2.024999984 2.024999984
   217   1 0.000000 8.099999935 2.024999984 6.074999951
   218   1 0.000000 8.099999935 2.024999984 10.124999919
   219   1 0.000000 8.099999935 2.024999984 14.174999886
   220   1 0.000000 8.099999935 2.024999984 18.224999854
   221   1 0.000000 8.099999935 2.024999984 22.274999821
   222   1 0.000000 8.099999935 6.074999951 2.024999984
   223   1 0.000000 8.099999935 6.074999951 6.074999951
   224   1 0.000000 8.099999935 6.074999951 10.124999919
   225   1 0.000000 8.099999935 6.074999951 14.174999886
   226   1 0.000000 8.099999935 6.074999951 18.224999854
   227   1 0.000000 8.099999935 6.074999951 22.274999821
   228   1 0.000000 8.099999935 10.124999919 2.024999984
   229   1 0.000000 8.099999935 10.124999919 6.074999951
   230   1 0.000000 8.099999935 10.124999919 10.124999919
   231   1 0.000000 8.099999935 10.124999919 14.174999886
   232   1 0.000000 8.099999935 10.124999919 18.224999854
   233   1 0.000000 8.099999935 10.124999919 22.274999821
   234   1 0.000000 8.099999935 14.174999886 2.024999984
   235   1 0.000000 8.099999935 14.174999886 6.074999951
   236   1 0.000000 8.099999935 14.174999886 10.124999919
   237   1 0.000000 8.099999935 14.174999886 14.174999886
   238   1 0.000000 8.099999935 14.174999886 18.224999854
   239   1 0.000000 8.099999935 14.174999886 22.274999821
   240   1 0.000000 8.099999935 18.224999854 2.024999984
   241   1 0.000000 8.099999935 18.224999854 6.074999951
   242   1 0.000000 8.099999935 18.224999854 10.124999919
   243   1 0.000000 8.099999935 18.224999854 14.174999886
   244   1 0.000000 8.099999935 18.224999854 18.224999854
   245   1 0.000000 8.099999935 18.224999854 22.274999821
   246   1 0.000000 8.099999935 22.274999821 2.024999984
   247   1 0.000000 8.099999935 22.274999821 6.074999951
   248   1 0.000000 8.099999935 22.274999821 10.124999919
   249   1 0.000000 8.099999935 22.274999821 14.174999886
   250   1 0.000000 8.099999935 22.274999821 18.224999854
   251   1 0.000000 8.099999935 22.274999821 22.274999821
   252   1 0.000000 12.149999903 2.024999984 2.024999984
   253   1 0.000000 12.149999903 2.024999984 6.074999951
   254   1 0.000000 12.149999903 2.024999984 10.124999919
   255   1 0.000000 12.149999903 2.024999984 14.174999886
   256   1 0.000000 12.149999903 2.024999984 18.224999854
   257   1 0.000000 12.149999903 2.024999984 22.274999821
   258   1 0.000000 12.149999903 6.074999951 2.024999984
   259   1 0.000000 12.149999903 6.074999951 6.074999951
   260   1 0.000000 12.149999903 6.074999951 10.124999919
   261   1 0.000000 12.149999903 6.074999951 14.174999886
   262   1 0.000000 12.149999903 6.074999951 18.224999854
   263   1 0.000000 12.149999903 6.074999951 22.274999821
   264   1 0.000000 12.149999903 10.124999919 2.024999984
   265   1 0.000000 12.149999903 10.124999919 6.074999951
   266   1 0.000000 12.149999903 10.124999919 10.124999919
   267   1 0.000000 12.149999903 10.124999919 14.174999886
   268   1 0.000000 12.149999903 10.124999919 18.224999854
   269   1 0.000000 12.149999903 10.124999919 22.274999821
   270   1 0.000000 12.149999903 14.174999886 2.024999984
   271   1 0.000000 12.149999903 14.174999886 6.074999951
   272   1 0.000000 12.149999903 14.174999886 10.124999919
   273   1 0.000000 12.149999903 14.174999886 14.174999886
   274   1 0.000000 12.149999903 14.174999886 18.224999854
   275   1 0.000000 12.149999903 14.174999886 22.274999821
   276   1 0.000000 12.149999903 18.224999854 2.024999984
   277   1 0.000000 12.149999903 18.224999854 6.074999951
   278   1 0.000000 12.149999903 18.224999854 10.124999919
   279   1 0.000000 12.149999903 18.224999854 14.174999886
   280   1 0.000000 12.149999903 18.224999854 18.224999854
   281   1 0.000000 12.149999903 18.224999854 22.274999821
   282   1 0.000000 12.149999903 22.274999821 2.024999984
   283   1 0.000000 12.149999903 22.274999821 6.074999951
   284   1 0.000000 12.149999903 22.274999821 10.124999919
   285   1 0.000000 12.149999903 22.274999821 14.174999886
   286   1 0.000000 12.149999903 22.274999821 18.224999854
   287   1 0.000000 12.149999903 22.274999821 22.274999821
   288   1 0.000000 2.024999984 0E-9 2.024999984
   289   1 0.000000 2.024999984 0E-9 6.074999951
   290   1 0.000000 2.024999984 0E-9 10.124999919
   291   1 0.000000 2.024999984 0E-9 14.174999886
   292   1 0.000000 2.024999984 0E-9 18.224999854
   293   1 0.000000 2.024999984 0E-9 22.274999821
   294   1 0.000000 2.024999984 4.049999968 2.024999984
   295   1 0.000000 2.024999984 4.049999968 6.074999951
   296   1 0.000000 2.024999984 4.049999968 10.124999919
   297   1 0.000000 2.024999984 4.049999968 14.174999886
   298   1 0.000000 2.024999984 4.049999968 18.224999854
   299   1 0.000000 2.024999984 4.049999968 22.274999821
   300   1 0.000000 2.024999984 8.099999935 2.024999984
   301   1 0.000000 2.024999984 8.099999935 6.074999951
   302   1 0.000000 2.024999984 8.099999935 10.124999919
   303   1 0.000000 2.024999984 8.099999935 14.174999886
   304   1 0.000000 2.024999984 8.099999935 18.224999854
   305   1 0.000000 2.024999984 8.099999935 22.274999821
   306   1 0.000000 2.024999984 12.149999903 2.024999984
   307   1 0.000000 2.024999984 12.149999903 6.074999951
   308   1 0.000000 2.024999984 12.149999903 10.124999919
   309   1 0.000000 2.024999984 12.149999903 14.174999886
   310   1 0.000000 2.024999984 12.149999903 18.224999854
   311   1 0.000000 2.024999984 12.149999903 22.274999821
   312   1 0.000000 2.024999984 16.199999870 2.024999984
   313   1 0.000000 2.024999984 16.199999870 6.074999951
   314   1 0.000000 2.024999984 16.199999870 10.124999919
   315   1 0.000000 2.024999984 16.199999870 14.174999886
   316   1 0.000000 2.024999984 16.199999870 18.224999854
   317   1 0.000000 2.024999984 16.199999870 22.274999821
   318   1 0.000000 2.024999984 20.249999838 2.024999984
   319   1 0.000000 2.024999984 20.249999838 6.074999951
   320   1 0.000000 2.024999984 20.249999838 10.124999919
   321   1 0.000000 2.024999984 20.249999838 14.174999886
   322   1 0.000000 2.024999984 20.249999838 18.224999854
   323   1 0.000000 2.024999984 20.249999838 22.274999821
   324   1 0.000000 6.074999951 0E-9 2.024999984
   325   1 0.000000 6.074999951 0E-9 6.074999951
   326   1 0.000000 6.074999951 0E-9 10.124999919
   327   1 0.000000 6.074999951 0E-9 14.174999886
   328   1 0.000000 6.074999951 0E-9 18.224999854
   329   1 0.000000 6.074999951 0E-9 22.274999821
   330   1 0.000000 6.074999951 4.049999968 2.024999984
   331   1 0.000000 6.074999951 4.049999968 6.074999951
   332   1 0.000000 6.074999951 4.049999968 10.124999919
   333   1 0.000000 6.074999951 4.049999968 14.174999886
   334   1 0.000000 6.074999951 4.049999968 18.224999854
   335   1 0.000000 6.074999951 4.049999968 22.274999821
   336   1 0.000000 6.074999951 8.099999935 2.024999984
   337   1 0.000000 6.074999951 8.099999935 6.074999951
   338   1 0.000000 6.074999951 8.099999935 10.124999919
   339   1 0.000000 6.074999951 8.099999935 14.174999886
   340   1 0.000000 6.074999951 8.099999935 18.224999854
   341   1 0.000000 6.074999951 8.099999935 22.274999821
   342   1 0.000000 6.074999951 12.149999903 2.024999984
   343   1 0.000000 6.074999951 12.149999903 6.074999951
   344   1 0.000000 6.074999951 12.149999903 10.124999919
   345   1 0.000000 6.074999951 12.149999903 14.174999886
   346   1 0.000000 6.074999951 12.149999903 18.224999854
   347   1 0.000000 6.074999951 12.149999903 22.274999821
   348   1 0.000000 6.074999951 16.199999870 2.024999984
   349   1 0.000000 6.074999951 16.199999870 6.074999951
   350   1 0.000000 6.074999951 16.199999870 10.124999919
   351   1 0.000000 6.074999951 16.199999870 14.174999886
   352   1 0.000000 6.074999951 16.199999870 18.224999854
   353   1 0.000000 6.074999951 16.199999870 22.274999821
   354   1 0.000000 6.074999951 20.249999838 2.024999984
   355   1 0.000000 6.074999951 20.249999838 6.074999951
   356   1 0.000000 6.074999951 20.249999838 10.124999919
   357   1 0.000000 6.074999951 20.249999838 14.174999886
   358   1 0.000000 6.074999951 20.249999838 18.224999854
   359   1 0.000000 6.074999951 20.249999838 22.274999821
   360   1 0.000000 10.124999919 0E-9 2.024999984
   361   1 0.000000 10.124999919 0E-9 6.074999951
   362   1 0.000000 10.124999919 0E-9 10.124999919
   363   1 0.000000 10.124999919 0E-9 14.174999886
   364   1 0.000000 10.124999919 0E-9 18.224999854
   365   1 0.000000 10.124999919 0E-9 22.274999821
   366   1 0.000000 10.124999919 4.049999968 2.024999984
   367   1 0.000000 10.124999919 4.049999968 6.074999951
   368   1 0.000000 10.124999919 4.049999968 10.124999919
   369   1 0.000000 10.124999919 4.049999968 14.174999886
   370   1 0.000000 10.124999919 4.049999968 18.224999854
   371   1 0.000000 10.124999919 4.049999968 22.274999821
   372   1 0.000000 10.124999919 8.099999935 2.024999984
   373   1 0.000000 10.124999919 8.099999935 6.074999951
   374   1 0.000000 10.124999919 8.099999935 10.124999919
   375   1 0.000000 10.124999919 8.099999935 14.174999886
   376   1 0.000000 10.124999919 8.099999935 18.224999854
   377   1 0.000000 10.124999919 8.099999935 22.274999821
   378   1 0.000000 10.124999919 12.149999903 2.024999984
   379   1 0.000000 10.124999919 12.149999903 6.074999951
   380   1 0.000000 10.124999919 12.149999903 10.124999919
   381   1 0.000000 10.124999919 12.149999903 14.174999886
   382   1 0.000000 10.124999919 12.149999903 18.224999854
   383   1 0.000000 10.124999919 12.149999903 22.274999821
   384   1 0.000000 10.124999919 16.199999870 2.024999984
   385   1 0.000000 10.124999919 16.199999870 6.074999951
   386   1 0.000000 10.124999919 16.199999870 10.124999919
   387   1 0.000000 10.124999919 16.199999870 14.174999886
   388   1 0.000000 10.124999919 16.199999870 18.224999854
   389   1 0.000000 10.124999919 16.199999870 22.274999821
   390   1 0.000000 10.124999919 20.249999838 2.024999984
   391   1 0.000000 10.124999919 20.249999838 6.074999951
   392   1 0.000000 10.124999919 20.249999838 10.124999919
   393   1 0.000000 10.124999919 20.249999838 14.174999886
   394   1 0.000000 10.124999919 20.249999838 18.224999854
   395   1 0.000000 10.124999919 20.249999838 22.274999821
   396   1 0.000000 14.174999886 0E-9 2.024999984
   397   1 0.000000 14.174999886 0E-9 6.074999951
   398   1 0.000000 14.174999886 0E-9 10.124999919
   399   1 0.000000 14.174999886 0E-9 14.174999886
   400   1 0.000000 14.174999886 0E-9 18.224999854
   401   1 0.000000 14.174999886 0E-9 22.274999821
   402   1 0.000000 14.174999886 4.049999968 2.024999984
   403   1 0.000000 14.174999886 4.049999968 6.074999951
   404   1 0.000000 14.174999886 4.049999968 10.124999919
   405   1 0.000000 14.174999886 4.049999968 14.174999886
   406   1 0.000000 14.174999886 4.049999968 18.224999854
   407   1 0.000000 14.174999886 4.049999968 22.274999821
   408   1 0.000000 14.174999886 8.099999935 2.024999984
   409   1 0.000000 14.174999886 8.099999935 6.074999951
   410   1 0.000000 14.174999886 8.099999935 10.124999919
   411   1 0.000000 14.174999886 8.099999935 14.174999886
   412   1 0.000000 14.174999886 8.099999935 18.224999854
   413   1 0.000000 14.174999886 8.099999935 22.274999821
   414   1 0.000000 14.174999886 12.149999903 2.024999984
   415   1 0.000000 14.174999886 12.149999903 6.074999951
   416   1 0.000000 14.174999886 12.149999903 10.124999919
   417   1 0.000000 14.174999886 12.149999903 14.174999886
   418   1 0.000000 14.174999886 12.149999903 18.224999854
   419   1 0.000000 14.174999886 12.149999903 22.274999821
   420   1 0.000000 14.174999886 16.199999870 2.024999984
   421   1 0.000000 14.174999886 16.199999870 6.074999951
   422   1 0.000000 14.174999886 16.199999870 10.124999919
   423   1 0.000000 14.174999886 16.199999870 14.174999886
   424   1 0.000000 14.174999886 16.199999870 18.224999854
   425   1 0.000000 14.174999886 16.199999870 22.274999821
   426   1 0.000000 14.174999886 20.249999838 2.024999984
   427   1 0.000000 14.174999886 20.249999838 6.074999951
   428   1 0.000000 14.174999886 20.249999838 10.124999919
   429   1 0.000000 14.174999886 20.249999838 14.174999886
   430   1 0.000000 14.174999886 20.249999838 18.224999854
   431   1 0.000000 14.174999886 20.249999838 22.274999821
   432   1 0.000000 2.024999984 2.024999984 24.299999805
   433   1 0.000000 2.024999984 2.024999984 4.049999968
   434   1 0.000000 2.024999984 2.024999984 8.099999935
   435   1 0.000000 2.024999984 2.024999984 12.149999903
   436   1 0.000000 2.024999984 2.024999984 16.199999870
   437   1 0.000000 2.024999984 2.024999984 20.249999838
   438   1 0.000000 2.024999984 6.074999951 24.299999805
   439   1 0.000000 2.024999984 6.074999951 4.049999968
   440   1 0.000000 2.024999984 6.074999951 8.099999935
   441   1 0.000000 2.024999984 6.074999951 12.149999903
   442   1 0.000000 2.024999984 6.074999951 16.199999870
   443   1 0.000000 2.024999984 6.074999951 20.249999838
   444   1 0.000000 2.024999984 10.124999919 -0E-9
   445   1 0.000000 2.024999984 10.124999919 4.049999968
   446   1 0.000000 2.024999984 10.124999919 8.099999935
   447   1 0.000000 2.024999984 10.124999919 12.149999903
   448   1 0.000000 2.024999984 10.124999919 16.199999870
   449   1 0.000000 2.024999984 10.124999919 20.249999838
   450   1 0.000000 2.024999984 14.174999886 24.299999805
   451   1 0.000000 2.024999984 14.174999886 4.049999968
   452   1 0.000000 2.024999984 14.174999886 8.099999935
   453   1 0.000000 2.024999984 14.174999886 12.149999903
   454   1 0.000000 2.024999984 14.174999886 16.199999870
   455   1 0.000000 2.024999984 14.174999886 20.249999838
   456   1 0.000000 2.024999984 18.224999854 24.299999805
   457   1 0.000000 2.024999984 18.224999854 4.049999968
   458   1 0.000000 2.024999984 18.224999854 8.099999935
   459   1 0.000000 2.024999984 18.224999854 12.149999903
   460   1 0.000000 2.024999984 18.224999854 16.199999870
   461   1 0.000000 2.024999984 18.224999854 20.249999838
   462   1 0.000000 2.024999984 22.274999821 -0E-9
   463   1 0.000000 2.024999984 22.274999821 4.049999968
   464   1 0.000000 2.024999984 22.274999821 8.099999935
   465   1 0.000000 2.024999984 22.274999821 12.149999903
   466   1 0.000000 2.024999984 22.274999821 16.199999870
   467   1 0.000000 2.024999984 22.274999821 20.249999838
   468   1 0.000000 6.074999951 2.024999984 0E-9
   469   1 0.000000 6.074999951 2.024999984 4.049999968
   470   1 0.000000 6.074999951 2.024999984 8.099999935
   471   1 0.000000 6.074999951 2.024999984 12.149999903
   472   1 0.000000 6.074999951 2.024999984 16.199999870
   473   1 0.000000 6.074999951 2.024999984 20.249999838
   474   1 0.000000 6.074999951 6.074999951 24.299999805
   475   1 0.000000 6.074999951 6.074999951 4.049999968
   476   1 0.000000 6.074999951 6.074999951 8.099999935
   477   1 0.000000 6.074999951 6.074999951 12.149999903
   478   1 0.000000 6.074999951 6.074999951 16.199999870
   479   1 0.000000 6.074999951 6.074999951 20.249999838
   480   1 0.000000 6.074999951 10.124999919 24.299999805
   481   1 0.000000 6.074999951 10.124999919 4.049999968
   482   1 0.000000 6.074999951 10.124999919 8.099999935
   483   1 0.000000 6.074999951 10.124999919 12.149999903
   484   1 0.000000 6.074999951 10.124999919 16.199999870
   485   1 0.000000 6.074999951 10.124999919 20.249999838
   486   1 0.000000 6.074999951 14.174999886 24.299999805
   487   1 0.000000 6.074999951 14.174999886 4.049999968
   488   1 0.000000 6.074999951 14.174999886 8.099999935
   489   1 0.000000 6.074999951 14.174999886 12.149999903
   490   1 0.000000 6.074999951 14.174999886 16.199999870
   491   1 0.000000 6.074999951 14.174999886 20.249999838
   492   1 0.000000 6.074999951 18.224999854 -0E-9
   493   1 0.000000 6.074999951 18.224999854 4.049999968
   494   1 0.000000 6.074999951 18.224999854 8.099999935
   495   1 0.000000 6.074999951 18.224999854 12.149999903
   496   1 0.000000 6.074999951 18.224999854 16.199999870
   497   1 0.000000 6.074999951 18.224999854 20.249999838
   498   1 0.000000 6.074999951 22.274999821 -0E-9
   499   1 0.000000 6.074999951 22.274999821 4.049999968
   500   1 0.000000 6.074999951 22.274999821 8.099999935
   501   1 0.000000 6.074999951 22.274999821 12.149999903
   502   1 0.000000 6.074999951 22.274999821 16.199999870
   503   1 0.000000 6.074999951 22.274999821 20.249999838
   504   1 0.000000 10.124999919 2.024999984 0E-9
   505   1 0.000000 10.124999919 2.024999984 4.049999968
   506   1 0.000000 10.124999919 2.024999984 8.099999935
   507   1 0.000000 10.124999919 2.024999984 12.149999903
   508   1 0.000000 10.124999919 2.024999984 16.199999870
   509   1 0.000000 10.124999919 2.024999984 20.249999838
   510   1 0.000000 10.124999919 6.074999951 24.299999805
   511   1 0.000000 10.124999919 6.074999951 4.049999968
   512   1 0.000000 10.124999919 6.074999951 8.099999935
   513   1 0.000000 10.124999919 6.074999951 12.149999903
   514   1 0.000000 10.124999919 6.074999951 16.199999870
   515   1 0.000000 10.124999919 6.074999951 20.249999838
   516   1 0.000000 10.124999919 10.124999919 24.299999805
   517   1 0.000000 10.124999919 10.124999919 4.049999968
   518   1 0.000000 10.124999919 10.124999919 8.099999935
   519   1 0.000000 10.124999919 10.124999919 12.149999903
   520   1 0.000000 10.124999919 10.124999919 16.199999870
   521   1 0.000000 10.124999919 10.124999919 20.249999838
   522   1 0.000000 10.124999919 14.174999886 24.299999805
   523   1 0.000000 10.124999919 14.174999886 4.049999968
   524   1 0.000000 10.124999919 14.174999886 8.099999935
   525   1 0.000000 10.124999919 14.174999886 12.149999903
   526   1 0.000000 10.124999919 14.174999886 16.199999870
   527   1 0.000000 10.124999919 14.174999886 20.249999838
   528   1 0.000000 10.124999919 18.224999854 -0E-9
   529   1 0.000000 10.124999919 18.224999854 4.049999968
   530   1 0.000000 10.124999919 18.224999854 8.099999935
   531   1 0.000000 10.124999919 18.224999854 12.149999903
   532   1 0.000000 10.124999919 18.224999854 16.199999870