LAMMPS data file via write_data, version 13 Jan 2016, timestep = 1039

575 atoms
1 atom types

1.9255111941611398e-03 1.6198074358805819e+01 xlo xhi
2.9175996961445672e-03 2.4297082205303838e+01 ylo yhi
2.8810601980376557e-03 2.4297118743801953e+01 zlo zhi
0.0000000000000000e+00 0.0000000000000000e+00 0.0000000000000000e+00 xy xz yz

Masses

1 26.982

Atoms # charge

1 1 0.0000000000000000e+00 1.9255113193229988e-03 2.9175998214421017e-03 4.0512518297882334e+00 0 0 0
2 1 0.0000000000000000e+00 1.9255113192978499e-03 2.9175998214126691e-03 8.0974746913195190e+00 0 0 0
3 1 0.0000000000000000e+00 1.9255113192921643e-03 2.9175998213977843e-03 1.2149999902619125e+01 0 0 0
4 1 0.0000000000000000e+00 1.9255113192974294e-03 2.9175998214030167e-03 1.6202525113918682e+01 0 0 0
5 1 0.0000000000000000e+00 1.9255113193212122e-03 2.9175998214355887e-03 2.0248747975450062e+01 0 0 0
6 1 0.0000000000000000e+00 1.9255113193231935e-03 4.0512756124575695e+00 2.8810608170974192e-03 0 0 0
7 1 0.0000000000000000e+00 1.9255113193072080e-03 4.0356083658332826e+00 4.0355840290707992e+00 0 0 0
8 1 0.0000000000000000e+00 1.9255113192932262e-03 4.0500384167429786e+00 8.0985264773303332e+00 0 0 0
9 1 0.0000000000000000e+00 1.9255113192780152e-03 4.0510281129086465e+00 1.2149999902619015e+01 0 0 0
10 1 0.0000000000000000e+00 1.9255113192932619e-03 4.0500384167429679e+00 1.6201473327907749e+01 0 0 0
11 1 0.0000000000000000e+00 1.9255113193076604e-03 4.0356083658332871e+00 2.0264415776167208e+01 0 0 0
12 1 0.0000000000000000e+00 1.9255113192973503e-03 8.0974866501636686e+00 2.8810608169412707e-03 0 0 0
13 1 0.0000000000000000e+00 1.9255113192938988e-03 8.0985386036802325e+00 4.0500138815998934e+00 0 0 0
14 1 0.0000000000000000e+00 1.9255113192695526e-03 8.0982710107398077e+00 8.0982587441756806e+00 0 0 0
15 1 0.0000000000000000e+00 1.9255113192639492e-03 8.0999797406642475e+00 1.2149999902618923e+01 0 0 0
16 1 0.0000000000000000e+00 1.9255113192692499e-03 8.0982710107398024e+00 1.6201741061062119e+01 0 0 0
17 1 0.0000000000000000e+00 1.9255113192926702e-03 8.0985386036802218e+00 2.0249985923637958e+01 0 0 0
18 1 0.0000000000000000e+00 1.9255113192911566e-03 1.2149999902625282e+01 2.8810608169401440e-03 0 0 1
19 1 0.0000000000000000e+00 1.9255113192785636e-03 1.2149999902625277e+01 4.0510036227866344e+00 0 0 0
20 1 0.0000000000000000e+00 1.9255113192643868e-03 1.2149999902625261e+01 8.0999674417256387e+00 0 0 0
21 1 0.0000000000000000e+00 1.9255113192495753e-03 1.2149999902625241e+01 1.2149999902618873e+01 0 0 0
22 1 0.0000000000000000e+00 1.9255113192638252e-03 1.2149999902625250e+01 1.6200032363512157e+01 0 0 0
23 1 0.0000000000000000e+00 1.9255113192793902e-03 1.2149999902625266e+01 2.0248996182451116e+01 0 0 0
24 1 0.0000000000000000e+00 1.9255113192973004e-03 1.6202513155086894e+01 2.8810608170048244e-03 0 0 0
25 1 0.0000000000000000e+00 1.9255113192936288e-03 1.6201461201570329e+01 4.0500138815999520e+00 0 0 0
26 1 0.0000000000000000e+00 1.9255113192696890e-03 1.6201728794510704e+01 8.0982587441757445e+00 0 0 0
27 1 0.0000000000000000e+00 1.9255113192650289e-03 1.6200020064586244e+01 1.2149999902618985e+01 0 0 0
28 1 0.0000000000000000e+00 1.9255113192695897e-03 1.6201728794510693e+01 1.6201741061062176e+01 0 0 0
29 1 0.0000000000000000e+00 1.9255113192935542e-03 1.6201461201570321e+01 2.0249985923638022e+01 0 0 0
30 1 0.0000000000000000e+00 1.9255113193228509e-03 2.0248724192793023e+01 2.8810608171591511e-03 1 0 1
31 1 0.0000000000000000e+00 1.9255113193073188e-03 2.0264391439417260e+01 4.0355840290708755e+00 1 0 0
32 1 0.0000000000000000e+00 1.9255113192928382e-03 2.0249961388507536e+01 8.0985264773303953e+00 1 0 0
33 1 0.0000000000000000e+00 1.9255113192785422e-03 2.0248971692341840e+01 1.2149999902619074e+01 1 0 0
34 1 0.0000000000000000e+00 1.9255113192922200e-03 2.0249961388507536e+01 1.6201473327907809e+01 1 0 0
35 1 0.0000000000000000e+00 1.9255113193064506e-03 2.0264391439417238e+01 2.0264415776167258e+01 1 0 0
36 1 0.0000000000000000e+00 4.0511137366189667e+00 2.9175998214497063e-03 2.8810608171877276e-03 0 0 0
37 1 0.0000000000000000e+00 4.0356784214078081e+00 2.9175998214301265e-03 4.0354310778149847e+00 0 0 0
38 1 0.0000000000000000e+00 4.0500392893688737e+00 2.9175998214126578e-03 8.0982707558297147e+00 0 0 0
39 1 0.0000000000000000e+00 4.0511923864584336e+00 2.9175998213979313e-03 1.2149999902619102e+01 0 0 0
40 1 0.0000000000000000e+00 4.0500392893688701e+00 2.9175998214062112e-03 1.6201729049408542e+01 0 0 0
41 1 0.0000000000000000e+00 4.0356784214078250e+00 2.9175998214182233e-03 2.0264568727423200e+01 0 0 0
42 1 0.0000000000000000e+00 4.0356774063163119e+00 4.0354543666459435e+00 2.8810608170512049e-03 0 0 1
43 1 0.0000000000000000e+00 4.0495888823052324e+00 4.0494514434588327e+00 4.0494270527712430e+00 0 0 0
44 1 0.0000000000000000e+00 4.0500248177649008e+00 4.0499913251014164e+00 8.0979238947652217e+00 0 0 0
45 1 0.0000000000000000e+00 4.0508435852642997e+00 4.0510996410957620e+00 1.2149999902619037e+01 0 0 0
46 1 0.0000000000000000e+00 4.0500248177649025e+00 4.0499913251014128e+00 1.6202075910472804e+01 0 0 0
47 1 0.0000000000000000e+00 4.0495888823052262e+00 4.0494514434588176e+00 2.0250572752466848e+01 0 0 0
48 1 0.0000000000000000e+00 4.0500391760424046e+00 8.0982827981047265e+00 2.8810608169694760e-03 0 0 0
49 1 0.0000000000000000e+00 4.0500247705224357e+00 8.0979359979117813e+00 4.0499668220913874e+00 0 0 0
50 1 0.0000000000000000e+00 4.0506933324491898e+00 8.0998293680146745e+00 8.0998171114701325e+00 0 0 0
51 1 0.0000000000000000e+00 4.0507241405078940e+00 8.1000433053791348e+00 1.2149999902618900e+01 0 0 0
52 1 0.0000000000000000e+00 4.0506933324491881e+00 8.0998293680146602e+00 1.6200182693767719e+01 0 0 0
53 1 0.0000000000000000e+00 4.0500247705224366e+00 8.0979359979117795e+00 2.0250032983146411e+01 0 0 0
54 1 0.0000000000000000e+00 4.0511923920786987e+00 1.2149999902625282e+01 2.8810608169176819e-03 0 0 1
55 1 0.0000000000000000e+00 4.0508435683292783e+00 1.2149999902625277e+01 4.0510751610472058e+00 0 0 0
56 1 0.0000000000000000e+00 4.0507241331689210e+00 1.2149999902625256e+01 8.1000310190973526e+00 0 0 0
57 1 0.0000000000000000e+00 4.0507772279418157e+00 1.2149999902625245e+01 1.2149999902618900e+01 0 0 0
58 1 0.0000000000000000e+00 4.0507241331689210e+00 1.2149999902625250e+01 1.6199968786140392e+01 0 0 0
59 1 0.0000000000000000e+00 4.0508435683292774e+00 1.2149999902625266e+01 2.0248924644190588e+01 0 0 0
60 1 0.0000000000000000e+00 4.0500391760424028e+00 1.6201717007145845e+01 2.8810608170281001e-03 0 0 1
61 1 0.0000000000000000e+00 4.0500247705224375e+00 1.6202063807338767e+01 4.0499668220914522e+00 0 0 0
62 1 0.0000000000000000e+00 4.0506933324491898e+00 1.6200170437235844e+01 8.0998171114701929e+00 0 0 0
63 1 0.0000000000000000e+00 4.0507241405078922e+00 1.6199956499871352e+01 1.2149999902618958e+01 0 0 0
64 1 0.0000000000000000e+00 4.0506933324491872e+00 1.6200170437235840e+01 1.6200182693767783e+01 0 0 0
65 1 0.0000000000000000e+00 4.0500247705224393e+00 1.6202063807338757e+01 2.0250032983146468e+01 0 0 0
66 1 0.0000000000000000e+00 4.0356774063163243e+00 2.0264545438604607e+01 2.8810608171138809e-03 0 0 0
67 1 0.0000000000000000e+00 4.0495888823052271e+00 2.0250548361791729e+01 4.0494270527712990e+00 0 0 0
68 1 0.0000000000000000e+00 4.0500248177649008e+00 2.0250008480149098e+01 8.0979238947652838e+00 0 0 0
69 1 0.0000000000000000e+00 4.0508435852643006e+00 2.0248900164154730e+01 1.2149999902619099e+01 0 0 0
70 1 0.0000000000000000e+00 4.0500248177649043e+00 2.0250008480149081e+01 1.6202075910472860e+01 0 0 0
71 1 0.0000000000000000e+00 4.0495888823052200e+00 2.0250548361791729e+01 2.0250572752466915e+01 0 0 0
72 1 0.0000000000000000e+00 8.0999999351251546e+00 2.9175998214363260e-03 2.8810608171446470e-03 0 0 0
73 1 0.0000000000000000e+00 8.0999999351251510e+00 2.9175998214350332e-03 4.0485749872718735e+00 0 0 0
74 1 0.0000000000000000e+00 8.0999999351251279e+00 2.9175998214111057e-03 8.0960406816715089e+00 0 0 0
75 1 0.0000000000000000e+00 8.0999999351251208e+00 2.9175998213982965e-03 1.2149999902619125e+01 0 0 0
76 1 0.0000000000000000e+00 8.0999999351251262e+00 2.9175998214018267e-03 1.6203959123566690e+01 0 0 0
77 1 0.0000000000000000e+00 8.0999999351251510e+00 2.9175998214274212e-03 2.0251424817966392e+01 0 0 0
78 1 0.0000000000000000e+00 8.0999999351251510e+00 4.0485992942206357e+00 2.8810608170872073e-03 0 0 0
79 1 0.0000000000000000e+00 8.0999999351251351e+00 4.0487461628071166e+00 4.0487217585502897e+00 0 0 0
80 1 0.0000000000000000e+00 8.0999999351251226e+00 4.0507764562384594e+00 8.0992708972377070e+00 0 0 0
81 1 0.0000000000000000e+00 8.0999999351251084e+00 4.0510120384289037e+00 1.2149999902619014e+01 0 0 0
82 1 0.0000000000000000e+00 8.0999999351251208e+00 4.0507764562384461e+00 1.6200728908000375e+01 0 0 0
83 1 0.0000000000000000e+00 8.0999999351251351e+00 4.0487461628071140e+00 2.0251278046687734e+01 0 0 0
84 1 0.0000000000000000e+00 8.0999999351251262e+00 8.0960525288515317e+00 2.8810608169424039e-03 0 0 1
85 1 0.0000000000000000e+00 8.0999999351251208e+00 8.0992830842601435e+00 4.0507519922804445e+00 0 0 0
86 1 0.0000000000000000e+00 8.0999999351250977e+00 8.0999011717090283e+00 8.0998889198868671e+00 0 0 0
87 1 0.0000000000000000e+00 8.0999999351250924e+00 8.1002554137459342e+00 1.2149999902618926e+01 0 0 0
88 1 0.0000000000000000e+00 8.0999999351250977e+00 8.0999011717090266e+00 1.6200110885350931e+01 0 0 0
89 1 0.0000000000000000e+00 8.0999999351251226e+00 8.0992830842601311e+00 2.0249247812957407e+01 0 0 0
90 1 0.0000000000000000e+00 8.0999999351251208e+00 1.2149999902625282e+01 2.8810608169383806e-03 0 0 1
91 1 0.0000000000000000e+00 8.0999999351251066e+00 1.2149999902625272e+01 4.0509875497352112e+00 0 0 0
92 1 0.0000000000000000e+00 8.0999999351250924e+00 1.2149999902625261e+01 8.1002431480870527e+00 0 0 0
93 1 0.0000000000000000e+00 8.0999999351250782e+00 1.2149999902625241e+01 1.2149999902618873e+01 0 0 0
94 1 0.0000000000000000e+00 8.0999999351250942e+00 1.2149999902625250e+01 1.6199756657150747e+01 0 0 0
95 1 0.0000000000000000e+00 8.0999999351251066e+00 1.2149999902625266e+01 2.0249012255502535e+01 0 0 0
96 1 0.0000000000000000e+00 8.0999999351251262e+00 1.6203947276399028e+01 2.8810608170027991e-03 0 0 0
97 1 0.0000000000000000e+00 8.0999999351251208e+00 1.6200716720990410e+01 4.0507519922805022e+00 0 0 0
98 1 0.0000000000000000e+00 8.0999999351250977e+00 1.6200098633541483e+01 8.0998889198869293e+00 0 0 0
99 1 0.0000000000000000e+00 8.0999999351250924e+00 1.6199744391504559e+01 1.2149999902618985e+01 0 0 0
100 1 0.0000000000000000e+00 8.0999999351250977e+00 1.6200098633541472e+01 1.6200110885350988e+01 0 0 0
101 1 0.0000000000000000e+00 8.0999999351251208e+00 1.6200716720990410e+01 2.0249247812957471e+01 0 0 0
102 1 0.0000000000000000e+00 8.0999999351251510e+00 2.0251400511029939e+01 2.8810608171469655e-03 0 0 0
103 1 0.0000000000000000e+00 8.0999999351251368e+00 2.0251253642443437e+01 4.0487217585503537e+00 0 0 0
104 1 0.0000000000000000e+00 8.0999999351251208e+00 2.0249223349012063e+01 8.0992708972377638e+00 0 0 0
105 1 0.0000000000000000e+00 8.0999999351251066e+00 2.0248987766821582e+01 1.2149999902619072e+01 0 0 0
106 1 0.0000000000000000e+00 8.0999999351251208e+00 2.0249223349012063e+01 1.6200728908000439e+01 0 0 0
107 1 0.0000000000000000e+00 8.0999999351251368e+00 2.0251253642443416e+01 2.0251278046687791e+01 0 0 0
108 1 0.0000000000000000e+00 1.2148886133631356e+01 2.9175998214510603e-03 2.8810608171897767e-03 0 0 0
109 1 0.0000000000000000e+00 1.2164321448842486e+01 2.9175998214293719e-03 4.0354310778149829e+00 0 0 0
110 1 0.0000000000000000e+00 1.2149960580881388e+01 2.9175998214129172e-03 8.0982707558297129e+00 0 0 0
111 1 0.0000000000000000e+00 1.2148807483791801e+01 2.9175998213990129e-03 1.2149999902619102e+01 0 0 0
112 1 0.0000000000000000e+00 1.2149960580881391e+01 2.9175998214061262e-03 1.6201729049408542e+01 0 0 0
113 1 0.0000000000000000e+00 1.2164321448842466e+01 2.9175998214193088e-03 2.0264568727423203e+01 0 0 0
114 1 0.0000000000000000e+00 1.2164322463933980e+01 4.0354543666459417e+00 2.8810608170508935e-03 0 0 0
115 1 0.0000000000000000e+00 1.2150410987945055e+01 4.0494514434588327e+00 4.0494270527712439e+00 0 0 0
116 1 0.0000000000000000e+00 1.2149975052485335e+01 4.0499913251014155e+00 8.0979238947652217e+00 0 0 0
117 1 0.0000000000000000e+00 1.2149156284985926e+01 4.0510996410957620e+00 1.2149999902619037e+01 0 0 0
118 1 0.0000000000000000e+00 1.2149975052485331e+01 4.0499913251014137e+00 1.6202075910472804e+01 0 0 0
119 1 0.0000000000000000e+00 1.2150410987945060e+01 4.0494514434588167e+00 2.0250572752466848e+01 0 0 0
120 1 0.0000000000000000e+00 1.2149960694207856e+01 8.0982827981047247e+00 2.8810608169693775e-03 0 0 0
121 1 0.0000000000000000e+00 1.2149975099727799e+01 8.0979359979117813e+00 4.0499668220913883e+00 0 0 0
122 1 0.0000000000000000e+00 1.2149306537801021e+01 8.0998293680146762e+00 8.0998171114701343e+00 0 0 0
123 1 0.0000000000000000e+00 1.2149275729742282e+01 8.1000433053791348e+00 1.2149999902618900e+01 0 0 0
124 1 0.0000000000000000e+00 1.2149306537801021e+01 8.0998293680146638e+00 1.6200182693767719e+01 0 0 0
125 1 0.0000000000000000e+00 1.2149975099727795e+01 8.0979359979117795e+00 2.0250032983146411e+01 0 0 0
126 1 0.0000000000000000e+00 1.2148807478171536e+01 1.2149999902625282e+01 2.8810608169169754e-03 0 0 0
127 1 0.0000000000000000e+00 1.2149156301920945e+01 1.2149999902625277e+01 4.0510751610472058e+00 0 0 0
128 1 0.0000000000000000e+00 1.2149275737081258e+01 1.2149999902625256e+01 8.1000310190973543e+00 0 0 0
129 1 0.0000000000000000e+00 1.2149222642308350e+01 1.2149999902625245e+01 1.2149999902618900e+01 0 0 0
130 1 0.0000000000000000e+00 1.2149275737081258e+01 1.2149999902625245e+01 1.6199968786140392e+01 0 0 0
131 1 0.0000000000000000e+00 1.2149156301920945e+01 1.2149999902625266e+01 2.0248924644190588e+01 0 0 0
132 1 0.0000000000000000e+00 1.2149960694207858e+01 1.6201717007145845e+01 2.8810608170288482e-03 0 0 0
133 1 0.0000000000000000e+00 1.2149975099727797e+01 1.6202063807338767e+01 4.0499668220914522e+00 0 0 0
134 1 0.0000000000000000e+00 1.2149306537801019e+01 1.6200170437235844e+01 8.0998171114701911e+00 0 0 0
135 1 0.0000000000000000e+00 1.2149275729742284e+01 1.6199956499871352e+01 1.2149999902618958e+01 0 0 0
136 1 0.0000000000000000e+00 1.2149306537801019e+01 1.6200170437235840e+01 1.6200182693767783e+01 0 0 0
137 1 0.0000000000000000e+00 1.2149975099727794e+01 1.6202063807338757e+01 2.0250032983146468e+01 0 0 0
138 1 0.0000000000000000e+00 1.2164322463933967e+01 2.0264545438604610e+01 2.8810608171147673e-03 0 0 1
139 1 0.0000000000000000e+00 1.2150410987945058e+01 2.0250548361791729e+01 4.0494270527712999e+00 0 0 0
140 1 0.0000000000000000e+00 1.2149975052485333e+01 2.0250008480149098e+01 8.0979238947652838e+00 0 0 0
141 1 0.0000000000000000e+00 1.2149156284985926e+01 2.0248900164154730e+01 1.2149999902619099e+01 0 0 0
142 1 0.0000000000000000e+00 1.2149975052485329e+01 2.0250008480149088e+01 1.6202075910472860e+01 0 0 0
143 1 0.0000000000000000e+00 1.2150410987945065e+01 2.0250548361791729e+01 2.0250572752466915e+01 0 0 0
144 1 0.0000000000000000e+00 1.9255113193255434e-03 2.0106135198660615e+00 2.0105840530683547e+00 1 0 0
145 1 0.0000000000000000e+00 1.9255113193076690e-03 2.0255920235859874e+00 6.0710699983525149e+00 1 0 0
146 1 0.0000000000000000e+00 1.9255113192913839e-03 2.0267221211402968e+00 1.0124287061355982e+01 1 0 0
147 1 0.0000000000000000e+00 1.9255113192909812e-03 2.0267221211402764e+00 1.4175712743881920e+01 1 0 0
148 1 0.0000000000000000e+00 1.9255113193067353e-03 2.0255920235860376e+00 1.8228929806885386e+01 1 0 0
149 1 0.0000000000000000e+00 1.9255113193261590e-03 2.0106135198659847e+00 2.2289415752169557e+01 1 0 0
150 1 0.0000000000000000e+00 1.9255113193064831e-03 6.0710879441877497e+00 2.0255614113391527e+00 0 0 0
151 1 0.0000000000000000e+00 1.9255113192921741e-03 6.0699831964614948e+00 6.0699648349785997e+00 0 0 0
152 1 0.0000000000000000e+00 1.9255113192731957e-03 6.0751280815891802e+00 1.0124449245213704e+01 0 0 0
153 1 0.0000000000000000e+00 1.9255113192738072e-03 6.0751280815892104e+00 1.4175550560024327e+01 0 0 0
154 1 0.0000000000000000e+00 1.9255113192908990e-03 6.0699831964614770e+00 1.8230034970259439e+01 0 0 0
155 1 0.0000000000000000e+00 1.9255113193060423e-03 6.0710879441877914e+00 2.2274438393898880e+01 0 0 0
156 1 0.0000000000000000e+00 1.9255113192910194e-03 1.0124293089006903e+01 2.0266915812084916e+00 0 0 0
157 1 0.0000000000000000e+00 1.9255113192743550e-03 1.0124455339934224e+01 6.0751096641216620e+00 0 0 0
158 1 0.0000000000000000e+00 1.9255113192568167e-03 1.0124488394657703e+01 1.0124482245771079e+01 0 0 0
159 1 0.0000000000000000e+00 1.9255113192587136e-03 1.0124488394657686e+01 1.4175517559467051e+01 0 0 0
160 1 0.0000000000000000e+00 1.9255113192743175e-03 1.0124455339934258e+01 1.8224890141116468e+01 0 0 0
161 1 0.0000000000000000e+00 1.9255113192903016e-03 1.0124293089006885e+01 2.2273308224029641e+01 0 0 0
162 1 0.0000000000000000e+00 1.9255113192906397e-03 1.4175706716243365e+01 2.0266915812084729e+00 0 0 0
163 1 0.0000000000000000e+00 1.9255113192740835e-03 1.4175544465316078e+01 6.0751096641216478e+00 0 0 0
164 1 0.0000000000000000e+00 1.9255113192577699e-03 1.4175511410592639e+01 1.0124482245771059e+01 0 0 0
165 1 0.0000000000000000e+00 1.9255113192578805e-03 1.4175511410592669e+01 1.4175517559467041e+01 0 0 0
166 1 0.0000000000000000e+00 1.9255113192735774e-03 1.4175544465316067e+01 1.8224890141116454e+01 0 0 0
167 1 0.0000000000000000e+00 1.9255113192905200e-03 1.4175706716243392e+01 2.2273308224029627e+01 0 0 0
168 1 0.0000000000000000e+00 1.9255113193071497e-03 1.8228911861062514e+01 2.0255614113391269e+00 0 0 0
169 1 0.0000000000000000e+00 1.9255113192919616e-03 1.8230016608788809e+01 6.0699648349785598e+00 0 0 0
170 1 0.0000000000000000e+00 1.9255113192738307e-03 1.8224871723661163e+01 1.0124449245213672e+01 0 0 0
171 1 0.0000000000000000e+00 1.9255113192736169e-03 1.8224871723661142e+01 1.4175550560024298e+01 0 0 0
172 1 0.0000000000000000e+00 1.9255113192905681e-03 1.8230016608788855e+01 1.8230034970259414e+01 0 0 0
173 1 0.0000000000000000e+00 1.9255113193069938e-03 1.8228911861062489e+01 2.2274438393898837e+01 0 0 0
174 1 0.0000000000000000e+00 1.9255113193250072e-03 2.2289386285384225e+01 2.0105840530682881e+00 1 0 0
175 1 0.0000000000000000e+00 1.9255113193073039e-03 2.2274407781664305e+01 6.0710699983525007e+00 1 0 0
176 1 0.0000000000000000e+00 1.9255113192901301e-03 2.2273277684110045e+01 1.0124287061355966e+01 1 0 0
177 1 0.0000000000000000e+00 1.9255113192904682e-03 2.2273277684110077e+01 1.4175712743881908e+01 1 0 0
178 1 0.0000000000000000e+00 1.9255113193065642e-03 2.2274407781664280e+01 1.8228929806885361e+01 1 0 0
179 1 0.0000000000000000e+00 1.9255113193248818e-03 2.2289386285384325e+01 2.2289415752169603e+01 1 0 0
180 1 0.0000000000000000e+00 4.0473373097223968e+00 2.0253748253390249e+00 2.0253443878557897e+00 0 0 0
181 1 0.0000000000000000e+00 4.0487985095519212e+00 2.0247141903426500e+00 6.0712271588451143e+00 0 0 0
182 1 0.0000000000000000e+00 4.0507538276280322e+00 2.0268149354210352e+00 1.0124160560275500e+01 0 0 0
183 1 0.0000000000000000e+00 4.0507538276280322e+00 2.0268149354210645e+00 1.4175839244962402e+01 0 0 0
184 1 0.0000000000000000e+00 4.0487985095519194e+00 2.0247141903426260e+00 1.8228772646392795e+01 0 0 0
185 1 0.0000000000000000e+00 4.0473373097224066e+00 2.0253748253390809e+00 2.2274655417382107e+01 0 0 0
186 1 0.0000000000000000e+00 4.0487983462703827e+00 6.0712451721004603e+00 2.0246836044915462e+00 0 0 0
187 1 0.0000000000000000e+00 4.0501455462784239e+00 6.0743285669089984e+00 6.0743102263744477e+00 0 0 0
188 1 0.0000000000000000e+00 4.0506583835119230e+00 6.0751903459628789e+00 1.0124364851349059e+01 0 0 0
189 1 0.0000000000000000e+00 4.0506583835119221e+00 6.0751903459628593e+00 1.4175634953888979e+01 0 0 0
190 1 0.0000000000000000e+00 4.0501455462784266e+00 6.0743285669090383e+00 1.8225689578863580e+01 0 0 0
191 1 0.0000000000000000e+00 4.0487983462703774e+00 6.0712451721004319e+00 2.2275316200746492e+01 0 0 0
192 1 0.0000000000000000e+00 4.0507537912385692e+00 1.0124166582432375e+01 2.0267844060050475e+00 0 0 0
193 1 0.0000000000000000e+00 4.0506583687274063e+00 1.0124370940581041e+01 6.0751719454156135e+00 0 0 0
194 1 0.0000000000000000e+00 4.0507574422089974e+00 1.0124991665359980e+01 1.0124985522069144e+01 0 0 0
195 1 0.0000000000000000e+00 4.0507574422089965e+00 1.0124991665360014e+01 1.4175014283168988e+01 0 0 0
196 1 0.0000000000000000e+00 4.0506583687274063e+00 1.0124370940581029e+01 1.8224827859822522e+01 0 0 0
197 1 0.0000000000000000e+00 4.0507537912385700e+00 1.0124166582432403e+01 2.2273215399233084e+01 0 0 0
198 1 0.0000000000000000e+00 4.0507537912385692e+00 1.4175833222817893e+01 2.0267844060050342e+00 0 0 0
199 1 0.0000000000000000e+00 4.0506583687274054e+00 1.4175628864669259e+01 6.0751719454155930e+00 0 0 0
200 1 0.0000000000000000e+00 4.0507574422089974e+00 1.4175008139890361e+01 1.0124985522069130e+01 0 0 0
201 1 0.0000000000000000e+00 4.0507574422089974e+00 1.4175008139890341e+01 1.4175014283168968e+01 0 0 0
202 1 0.0000000000000000e+00 4.0506583687274045e+00 1.4175628864669296e+01 1.8224827859822508e+01 0 0 0
203 1 0.0000000000000000e+00 4.0507537912385700e+00 1.4175833222817877e+01 2.2273215399233067e+01 0 0 0
204 1 0.0000000000000000e+00 4.0487983462703809e+00 1.8228754633149808e+01 2.0246836044915022e+00 0 0 0
205 1 0.0000000000000000e+00 4.0501455462784248e+00 1.8225671238341299e+01 6.0743102263744193e+00 0 0 0
206 1 0.0000000000000000e+00 4.0506583835119230e+00 1.8224809459287464e+01 1.0124364851349025e+01 0 0 0
207 1 0.0000000000000000e+00 4.0506583835119212e+00 1.8224809459287499e+01 1.4175634953888951e+01 0 0 0
208 1 0.0000000000000000e+00 4.0501455462784293e+00 1.8225671238341278e+01 1.8225689578863545e+01 0 0 0
209 1 0.0000000000000000e+00 4.0487983462703747e+00 1.8228754633149851e+01 2.2275316200746470e+01 0 0 0
210 1 0.0000000000000000e+00 4.0473373097224048e+00 2.2274624979911234e+01 2.0253443878557875e+00 0 0 0
211 1 0.0000000000000000e+00 4.0487985095519177e+00 2.2275285614907649e+01 6.0712271588450930e+00 0 0 0
212 1 0.0000000000000000e+00 4.0507538276280330e+00 2.2273184869829308e+01 1.0124160560275484e+01 0 0 0
213 1 0.0000000000000000e+00 4.0507538276280339e+00 2.2273184869829286e+01 1.4175839244962386e+01 0 0 0
214 1 0.0000000000000000e+00 4.0487985095519141e+00 2.2275285614907691e+01 1.8228772646392784e+01 0 0 0
215 1 0.0000000000000000e+00 4.0473373097224155e+00 2.2274624979911188e+01 2.2274655417382071e+01 0 0 0
216 1 0.0000000000000000e+00 8.0999999351251528e+00 2.0252929815689171e+00 2.0252625432556615e+00 0 0 0
217 1 0.0000000000000000e+00 8.0999999351251351e+00 2.0258797711220180e+00 6.0730660974699662e+00 0 0 0
218 1 0.0000000000000000e+00 8.0999999351251191e+00 2.0267234876516391e+00 1.0123967540877333e+01 0 0 0
219 1 0.0000000000000000e+00 8.0999999351251191e+00 2.0267234876516196e+00 1.4176032264360577e+01 0 0 0
220 1 0.0000000000000000e+00 8.0999999351251351e+00 2.0258797711220580e+00 1.8226933707767934e+01 0 0 0
221 1 0.0000000000000000e+00 8.0999999351251528e+00 2.0252929815688900e+00 2.2274737261982242e+01 0 0 0
222 1 0.0000000000000000e+00 8.0999999351251351e+00 6.0730842978588395e+00 2.0258492331341675e+00 0 0 0
223 1 0.0000000000000000e+00 8.0999999351251208e+00 6.0746169417471299e+00 6.0745986073033995e+00 0 0 0
224 1 0.0000000000000000e+00 8.0999999351251031e+00 6.0754686980516714e+00 1.0124791483758731e+01 0 0 0
225 1 0.0000000000000000e+00 8.0999999351251013e+00 6.0754686980517025e+00 1.4175208321479301e+01 0 0 0
226 1 0.0000000000000000e+00 8.0999999351251191e+00 6.0746169417471103e+00 1.8225401197934641e+01 0 0 0
227 1 0.0000000000000000e+00 8.0999999351251351e+00 6.0730842978588777e+00 2.2274150572103864e+01 0 0 0
228 1 0.0000000000000000e+00 8.0999999351251191e+00 1.0123973546423509e+01 2.0266929464150980e+00 0 0 0
229 1 0.0000000000000000e+00 8.0999999351251013e+00 1.0124797603309897e+01 6.0754503156420876e+00 0 0 0
230 1 0.0000000000000000e+00 8.0999999351250853e+00 1.0125024338469929e+01 1.0125018205339426e+01 0 0 0
231 1 0.0000000000000000e+00 8.0999999351250871e+00 1.0125024338469908e+01 1.4174981599898706e+01 0 0 0
232 1 0.0000000000000000e+00 8.0999999351251013e+00 1.0124797603309933e+01 1.8224549489596040e+01 0 0 0
233 1 0.0000000000000000e+00 8.0999999351251191e+00 1.0123973546423493e+01 2.2273306858823037e+01 0 0 0
234 1 0.0000000000000000e+00 8.0999999351251191e+00 1.4176026258826763e+01 2.0266929464150794e+00 0 0 0
235 1 0.0000000000000000e+00 8.0999999351251031e+00 1.4175202201940401e+01 6.0754503156420760e+00 0 0 0
236 1 0.0000000000000000e+00 8.0999999351250871e+00 1.4174975466780410e+01 1.0125018205339407e+01 0 0 0
237 1 0.0000000000000000e+00 8.0999999351250853e+00 1.4174975466780447e+01 1.4174981599898693e+01 0 0 0
238 1 0.0000000000000000e+00 8.0999999351251013e+00 1.4175202201940385e+01 1.8224549489596022e+01 0 0 0
239 1 0.0000000000000000e+00 8.0999999351251191e+00 1.4176026258826790e+01 2.2273306858823027e+01 0 0 0
240 1 0.0000000000000000e+00 8.0999999351251351e+00 1.8226915507391425e+01 2.0258492331341413e+00 0 0 0
241 1 0.0000000000000000e+00 8.0999999351251208e+00 1.8225382863503174e+01 6.0745986073033604e+00 0 0 0
242 1 0.0000000000000000e+00 8.0999999351251031e+00 1.8224531107198672e+01 1.0124791483758701e+01 0 0 0
243 1 0.0000000000000000e+00 8.0999999351251013e+00 1.8224531107198647e+01 1.4175208321479268e+01 0 0 0
244 1 0.0000000000000000e+00 8.0999999351251191e+00 1.8225382863503210e+01 1.8225401197934616e+01 0 0 0
245 1 0.0000000000000000e+00 8.0999999351251368e+00 1.8226915507391404e+01 2.2274150572103824e+01 0 0 0
246 1 0.0000000000000000e+00 8.0999999351251528e+00 2.2274706823681353e+01 2.0252625432556384e+00 0 0 0
247 1 0.0000000000000000e+00 8.0999999351251351e+00 2.2274120034128281e+01 6.0730660974699537e+00 0 0 0
248 1 0.0000000000000000e+00 8.0999999351251191e+00 2.2273276317598700e+01 1.0123967540877317e+01 0 0 0
249 1 0.0000000000000000e+00 8.0999999351251191e+00 2.2273276317598732e+01 1.4176032264360559e+01 0 0 0
250 1 0.0000000000000000e+00 8.0999999351251368e+00 2.2274120034128259e+01 1.8226933707767909e+01 0 0 0
251 1 0.0000000000000000e+00 8.0999999351251528e+00 2.2274706823681388e+01 2.2274737261982231e+01 0 0 0
252 1 0.0000000000000000e+00 1.2152662560527913e+01 2.0253748253390236e+00 2.0253443878557884e+00 0 0 0
253 1 0.0000000000000000e+00 1.2151201360698350e+01 2.0247141903426500e+00 6.0712271588451152e+00 0 0 0
254 1 0.0000000000000000e+00 1.2149246042622206e+01 2.0268149354210352e+00 1.0124160560275500e+01 0 0 0
255 1 0.0000000000000000e+00 1.2149246042622204e+01 2.0268149354210645e+00 1.4175839244962402e+01 0 0 0
256 1 0.0000000000000000e+00 1.2151201360698357e+01 2.0247141903426260e+00 1.8228772646392791e+01 0 0 0
257 1 0.0000000000000000e+00 1.2152662560527903e+01 2.0253748253390804e+00 2.2274655417382107e+01 0 0 0
258 1 0.0000000000000000e+00 1.2151201523979889e+01 6.0712451721004621e+00 2.0246836044915462e+00 0 0 0
259 1 0.0000000000000000e+00 1.2149854323971814e+01 6.0743285669089966e+00 6.0743102263744468e+00 0 0 0
260 1 0.0000000000000000e+00 1.2149341486738283e+01 6.0751903459628789e+00 1.0124364851349059e+01 0 0 0
261 1 0.0000000000000000e+00 1.2149341486738283e+01 6.0751903459628585e+00 1.4175634953888979e+01 0 0 0
262 1 0.0000000000000000e+00 1.2149854323971811e+01 6.0743285669090383e+00 1.8225689578863580e+01 0 0 0
263 1 0.0000000000000000e+00 1.2151201523979895e+01 6.0712451721004319e+00 2.2275316200746492e+01 0 0 0
264 1 0.0000000000000000e+00 1.2149246079011672e+01 1.0124166582432375e+01 2.0267844060050479e+00 0 0 0
265 1 0.0000000000000000e+00 1.2149341501522800e+01 1.0124370940581045e+01 6.0751719454156135e+00 0 0 0
266 1 0.0000000000000000e+00 1.2149242428041175e+01 1.0124991665359980e+01 1.0124985522069142e+01 0 0 0
267 1 0.0000000000000000e+00 1.2149242428041173e+01 1.0124991665360012e+01 1.4175014283168990e+01 0 0 0
268 1 0.0000000000000000e+00 1.2149341501522800e+01 1.0124370940581029e+01 1.8224827859822522e+01 0 0 0
269 1 0.0000000000000000e+00 1.2149246079011670e+01 1.0124166582432403e+01 2.2273215399233084e+01 0 0 0
270 1 0.0000000000000000e+00 1.2149246079011673e+01 1.4175833222817896e+01 2.0267844060050342e+00 0 0 0
271 1 0.0000000000000000e+00 1.2149341501522800e+01 1.4175628864669259e+01 6.0751719454155930e+00 0 0 0
272 1 0.0000000000000000e+00 1.2149242428041173e+01 1.4175008139890361e+01 1.0124985522069130e+01 0 0 0
273 1 0.0000000000000000e+00 1.2149242428041175e+01 1.4175008139890339e+01 1.4175014283168968e+01 0 0 0
274 1 0.0000000000000000e+00 1.2149341501522800e+01 1.4175628864669296e+01 1.8224827859822508e+01 0 0 0
275 1 0.0000000000000000e+00 1.2149246079011672e+01 1.4175833222817877e+01 2.2273215399233067e+01 0 0 0
276 1 0.0000000000000000e+00 1.2151201523979891e+01 1.8228754633149808e+01 2.0246836044915031e+00 0 0 0
277 1 0.0000000000000000e+00 1.2149854323971812e+01 1.8225671238341299e+01 6.0743102263744193e+00 0 0 0
278 1 0.0000000000000000e+00 1.2149341486738283e+01 1.8224809459287464e+01 1.0124364851349023e+01 0 0 0
279 1 0.0000000000000000e+00 1.2149341486738283e+01 1.8224809459287496e+01 1.4175634953888951e+01 0 0 0
280 1 0.0000000000000000e+00 1.2149854323971809e+01 1.8225671238341278e+01 1.8225689578863541e+01 0 0 0
281 1 0.0000000000000000e+00 1.2151201523979896e+01 1.8228754633149851e+01 2.2275316200746467e+01 0 0 0
282 1 0.0000000000000000e+00 1.2152662560527904e+01 2.2274624979911234e+01 2.0253443878557857e+00 0 0 0
283 1 0.0000000000000000e+00 1.2151201360698357e+01 2.2275285614907649e+01 6.0712271588450921e+00 0 0 0
284 1 0.0000000000000000e+00 1.2149246042622206e+01 2.2273184869829308e+01 1.0124160560275484e+01 0 0 0
285 1 0.0000000000000000e+00 1.2149246042622204e+01 2.2273184869829286e+01 1.4175839244962386e+01 0 0 0