LAMMPS (13 Jan 2016)
include /users/knc6/inelast.mod
# Compute elastic constant tensor for a crystal
#
# Written by Aidan Thompson (Sandia, athomps@sandia.gov)
#
#  This script uses the following three include files.
#
#   init.mod      (must be modified for different crystal structures)
# 	       	  Define units, deformation parameters and initial
#		  configuration of the atoms and simulation cell.
#
#
#   potential.mod    (must be modified for different pair styles)
# 		     Define pair style and other attributes
#		     not stored in restart file
#
#
#   displace.mod    (displace.mod should not need to be modified)
# 		    Perform positive and negative box displacements
# 		    in direction ${dir} and size ${up}.
# 		    It uses the resultant changes
#		    in stress to compute one
# 		    row of the elastic stiffness tensor
#
#		    Inputs variables:
#		    	   dir = the Voigt deformation component
#		    		    (1,2,3,4,5,6)
#		    Global constants:
#       	    	   up = the deformation magnitude (strain units)
#       		   cfac = conversion from LAMMPS pressure units to
#               	   output units for elastic constants
#
#
#  To run this on a different system, it should only be necessary to
#  modify the files init.mod and potential.mod. In order to calculate
#  the elastic constants correctly, care must be taken to specify
#  the correct units in init.mod (units, cfac and cunits). It is also
#  important to verify that the minimization of energy w.r.t atom
#  positions in the deformed cell is fully converged.
#  One indication of this is that the elastic constants are insensitive
#  to the choice of the variable ${up} in init.mod. Another is to check
#  the final max and two-norm forces reported in the log file. If you know
#  that minimization is not required, you can set maxiter = 0.0 in
#  init.mod.
#
#  There are two alternate versions of displace.mod provided.
#  They are displace_restart.mod and displace_reverse.mod.
#  The former resets the box using a restart file while
#  the latter reverses the deformation. Copy whichever
#  one you like best to displace.mod.
#

include init.mod
variable dump_file string "None"
variable up  equal 1.0e-6
variable cfac  equal 1.0e-4
variable cunits  string GPa
variable etol  equal 0
variable ftol  equal 1.0e-10
variable maxiter equal 1000
variable maxeval equal 10000
variable dmax equal 1.0e-2
variable data_file string "data"
units metal
atom_style charge
boundary p p p
atom_modify sort 0 0.0

read_data data
  triclinic box = (0 0 0) to (16.2 24.3 24.3) with tilt (0 0 0)
  1 by 1 by 1 MPI processor grid
  reading atoms ...
  575 atoms

### interactions
mass 1 26.98154
include potential.mod
pair_style eam/alloy
pair_coeff * * /users/knc6/Software/jarvis/jarvis/lammps/examples/Al03.eam.alloy  Al
neighbor 1.0 nsq
neigh_modify once no every 1 delay 0 check yes
min_style  cg
min_modify           dmax ${dmax} line quadratic
min_modify           dmax 0.01 line quadratic
thermo          1
thermo_style custom step temp press cpu pxx pyy pzz pxy pxz pyz ke pe etotal vol lx ly lz atoms
thermo_modify norm no
#fix 3 all nph aniso 0.0 0.0 1.0
#fix langevin all langevin 0.0 0.0 1.0 12233

#fix 3 all box/relax tri 0.0 vmax 0.001
fix            3 all box/relax aniso 0.0 vmax 0.001
#fix 3 all box/relax  aniso 0.0
#dump            2a all cfg 100 *.cfg mass type xs ys zs  vx vy vz fx fy fz
#dump_modify     2a element  Mo S

#fix 1a all qeq/comb 1 0.0001 file fq.out
#fix             2 all qeq/reax 1 0.0 10.0 1e-6 /scratch/lfs/kamal/JARVIS/All2/ReaxFF/param.qeq
minimize ${etol} ${ftol} ${maxiter} ${maxeval}
minimize 0 ${ftol} ${maxiter} ${maxeval}
minimize 0 1e-10 ${maxiter} ${maxeval}
minimize 0 1e-10 1000 ${maxeval}
minimize 0 1e-10 1000 10000
Neighbor list info ...
  1 neighbor list requests
  update every 1 steps, delay 0 steps, check yes
  max neighbors/atom: 2000, page size: 100000
  master list distance cutoff = 7.72488
  ghost atom cutoff = 7.72488
Memory usage per processor = 3.38875 Mbytes
Step Temp Press CPU Pxx Pyy Pzz Pxy Pxz Pyz KinEng PotEng TotEng Volume Lx Ly Lz Atoms 
       0            0   -517.60797            0   -517.60798   -517.60798   -517.60796 -6.9172899e-12 -5.7957592e-09 -1.2533839e-08            0   -1931.2738   -1931.2738    9565.9378         16.2         24.3         24.3      575 
       1            0  -0.14045535  0.004420042   -0.1404589  -0.14046234  -0.14044482  1.13503e-12 -5.9079798e-09 -1.2637489e-08            0   -1931.2748   -1931.2748    9559.6743    16.196463    24.294695    24.294695      575 
       2            0    385.69439  0.006675005    385.69765    385.69908    385.68646 -6.9627587e-12 6.6786521e-08 9.7798357e-08            0   -1931.2861   -1931.2861    9554.5634    16.193576    24.290364    24.290365      575 
       3            0   -14.192965  0.011137962   -14.190696   -14.189102   -14.199099 -6.1219164e-12 7.2639683e-08 1.0743383e-07            0   -1931.2867   -1931.2867     9559.366    16.196289    24.294434    24.294434      575 
       4            0   -2.3768517  0.015603065   -2.4038544   -2.4225828   -2.3041179 5.5265777e-12 8.2710278e-08 1.2322586e-07            0   -1931.2868   -1931.2868    9559.1826    16.196186     24.29428    24.294275      575 
       5            0    146.59907  0.020062923    146.97698    147.23736    145.58285 4.6342652e-12 8.0833347e-08 1.1923763e-07            0   -1931.2869   -1931.2869    9557.3844    16.195159    24.292728    24.292798      575 
       6            0   -23.203648  0.024534941   -12.409183   -4.9444238   -52.257336 -6.7545007e-12 1.5968049e-08 -2.0243515e-08            0   -1931.2898   -1931.2898    9559.4733    16.196042    24.293742    24.295769      575 
       7            0    14.856587  0.029004097     21.34059    25.824123   -2.5949529 -4.8381669e-13 1.5356788e-08 -2.1662911e-08            0   -1931.2898   -1931.2898    9559.0138    16.195906    24.293665    24.294883      575 
       8            0   -2.6160331  0.033473969   -5.1104903   -6.8361566    4.0985476 -3.5727212e-12 1.4838051e-08 -2.276982e-08            0   -1931.2899   -1931.2899    9559.2252    16.196281    24.294495    24.294027      575 
       9            0    73.129311  0.037950039    62.112593    54.498896    102.77644 2.3448227e-12 1.2461021e-08 -2.7202912e-08            0   -1931.2899   -1931.2899    9558.3102    16.196008    24.294337    24.292269      575 
      10            0   -23.277701   0.04243803   -56.451261   -79.366263    65.984423 2.809723e-12 1.9984201e-09 -4.6720771e-08            0     -1931.29     -1931.29    9559.4748    16.197299    24.296929    24.290701      575 
      11            0    31.892554  0.046926975     26.42688    22.638982    46.611799 -8.0017563e-13 -6.508275e-09 -6.3048312e-08            0   -1931.2901   -1931.2901    9558.8077    16.196131    24.294356     24.29333      575 
      12            0   -6.5697919  0.051397085   -8.7338729   -10.237829  -0.73767391 1.0290131e-11 -6.9790159e-09 -6.3901029e-08            0   -1931.2901   -1931.2901    9559.2723    16.196299    24.294511    24.294104      575 
      13            0    10.820224  0.055875063     21.05504    28.149313    -16.74368 5.0986581e-12 -7.6311838e-09 -6.4886344e-08            0   -1931.2901   -1931.2901    9559.0617    16.195826    24.293433    24.295356      575 
      14            0   -73.275302  0.060353994   -57.001521    -45.71265   -117.11173 -2.6420899e-12 -9.3739305e-09 -6.723507e-08            0   -1931.2902   -1931.2902    9560.0757    16.196226    24.293853    24.296913      575 
      15            0    18.377414    0.0648489    45.685927    64.687198   -55.240884 -1.0681258e-11 -2.6271726e-08 -9.0776567e-08            0   -1931.2905   -1931.2905    9558.9475    16.195275    24.292094    24.297232      575 
      16            0   -38.192329   0.06933403   -33.670522    -30.52506   -50.381404 -1.9351424e-11 -2.8267798e-08 -9.3569746e-08            0   -1931.2905   -1931.2905     9559.628     16.19631    24.294326    24.295177      575 
      17            0    4.1707027  0.073821068    2.4869249     1.314859    8.7103242 -6.9408348e-12 -2.8655376e-08 -9.4085967e-08            0   -1931.2905   -1931.2905    9559.1156    16.196198    24.294343    24.294026      575 
      18            0   -113.38819  0.078335047   -152.52199   -179.70492   -7.9376573 1.469828e-12 -3.2137548e-08 -9.0074802e-08            0   -1931.2908   -1931.2908    9560.5122    16.198057    24.298247    24.290883      575 
      19            0     55.19991  0.082837105    11.424212    -18.98633    173.16185 -1.300798e-11 -3.4261513e-08 -8.6693035e-08            0   -1931.2909   -1931.2909    9558.4592    16.197029    24.296841    24.288613      575 
      20            0   -7.8226023  0.087328911   -8.3931869   -8.8121961   -6.2624238 5.6940383e-12 -3.6629134e-08 -8.2041739e-08            0   -1931.2911   -1931.2911    9559.2018    16.196215    24.294335    24.294226      575 
      21            0    18.250082  0.091816902    19.443788    20.269422    15.037036 -5.7128349e-12 -3.6606394e-08 -8.1723859e-08            0   -1931.2911   -1931.2911    9558.8862    16.195986    24.293939    24.294163      575 
      22            0   -15.953092  0.096317053    5.6403299    20.955107   -74.454714 3.591305e-12 -3.6085135e-08 -7.6067032e-08            0   -1931.2911   -1931.2911    9559.2893    16.195631    24.292786    24.296874      575 
      23            0    61.106472   0.10081792    72.130835    79.974189    31.214393 -1.2282363e-11 -3.5139227e-08 -6.6802581e-08            0   -1931.2912   -1931.2912    9558.3424    16.195399    24.292757    24.294845      575 
      24            0   -4.8172628   0.10531497   -1.9698399  0.074914416   -12.556863 3.1819856e-12 -3.4719966e-08 -6.310732e-08            0   -1931.2912   -1931.2912    9559.1326    16.196078    24.294025    24.294566      575 
      25            0    13.352332   0.10981703    9.4859283    6.7274339    23.843632 -6.140816e-13 -3.4548733e-08 -6.2049112e-08            0   -1931.2912   -1931.2912    9558.9116    16.196145    24.294331    24.293598      575 
      26            0    -17.15527   0.11431694   -25.128578   -30.831867    4.4946358 -2.0468601e-13 -3.4218366e-08 -6.0731875e-08            0   -1931.2912   -1931.2912    9559.2783     16.19647    24.294944     24.29343      575 
      27            0    19.847177   0.11916208     9.807336    2.5641589    47.170036 -9.3043603e-14 -3.1335969e-08 -4.8663049e-08            0   -1931.2913   -1931.2913    9558.8154    16.196267    24.294706    24.292795      575 
      28            0   -15.419018   0.12525988   -20.836062   -24.751738  -0.66925241 6.1964293e-12 -3.0860898e-08 -4.6802982e-08            0   -1931.2913   -1931.2913     9559.239    16.196374    24.294725    24.293693      575 
      29            0    3.0106015   0.13127995    4.5415855    5.6385604   -1.1483416 1.3844599e-11 -3.04688e-08 -4.5444698e-08            0   -1931.2913   -1931.2913    9559.0146    16.196049    24.294022    24.294313      575 
      30            0   -40.163851    0.1372931   -33.976519   -29.468236   -57.046798 -1.1722615e-12 -2.9328102e-08  -4.2133e-08            0   -1931.2913   -1931.2913    9559.5324    16.196208    24.294115    24.295297      575 
      31            0    7.8231462   0.14334798     20.53469    29.848309   -26.913561 -1.9352812e-12 -2.6189845e-08 -3.3067069e-08            0   -1931.2913   -1931.2913    9558.9422    16.195688     24.29313    24.295562      575 
      32            0   -10.124127   0.14935589   -10.158794   -10.173227    -10.04036 3.2750188e-12 -2.4638171e-08 -2.8680751e-08            0   -1931.2914   -1931.2914     9559.154    16.196172    24.294255     24.29425      575 
      33            0    6.6548181   0.15537596    5.5667991    4.7770115    9.6206437 -8.9692761e-12 -2.450704e-08 -2.8308322e-08            0   -1931.2914   -1931.2914    9558.9509    16.196087    24.294162    24.293954      575 
      34            0    -18.92175   0.16072989    -29.70853   -37.817691    10.760969 -9.1550754e-12 -1.9956111e-08 -1.7889075e-08            0   -1931.2914   -1931.2914    9559.2488    16.196532    24.295143    24.293062      575 
      35            0    18.820238    0.1652441    11.637527    6.2302772    38.592911 9.4904726e-12 -1.8806023e-08 -1.5334924e-08            0   -1931.2914   -1931.2914    9558.7901     16.19617    24.294485    24.293098      575 
      36            0   -2.4282186   0.16975403   -1.6446732   -1.0641069   -4.5758758 -5.8429982e-12 -1.7786626e-08 -1.3094896e-08            0   -1931.2914   -1931.2914    9559.0444    16.196086    24.294102    24.294253      575 
      37            0    28.824301   0.17425489    32.851156    35.912923    17.708824 3.2937954e-12 -1.6815216e-08 -1.1235543e-08            0   -1931.2914   -1931.2914     9558.665    16.195779    24.293536    24.294316      575 
      38            0   -8.7719467   0.17876101    1.3918064    9.1730692   -36.880716 2.2646108e-11 -1.3468554e-08 -5.0249355e-09            0   -1931.2914   -1931.2914    9559.1128    16.195856    24.293451    24.295424      575 
      39            0    12.757339   0.18325806    14.289965     15.47594    8.5061129 -6.9410285e-12 -1.1341157e-08 -1.1917402e-09            0   -1931.2914   -1931.2914    9558.8488    16.195953    24.293879    24.294178      575 
      40            0   -4.5771735   0.18775606   -4.7133132   -4.8077311   -4.2104762 -2.0655156e-12 -1.1070866e-08 -7.2585893e-10            0   -1931.2914   -1931.2914    9559.0578    16.196119    24.294183    24.294157      575 
      41            0    12.512635   0.19225907    4.3072053   -2.0343423    35.265041 2.9773848e-13 -9.6599201e-09 1.4859848e-09            0   -1931.2914   -1931.2914    9558.8492    16.196231     24.29462    24.293022      575 
      42            0   -27.755189   0.19676089   -36.445346   -43.175154   -3.6450669 5.8614295e-12 -7.8585953e-09 4.2046244e-09            0   -1931.2915   -1931.2915    9559.3331    16.196518    24.295067    24.293374      575 
      43            0    3.3533341   0.20126891    1.4465536 -0.053450826    8.6668996 2.3707169e-11 -4.6480939e-09 8.9215577e-09            0   -1931.2915   -1931.2915    9558.9527    16.196109    24.294231    24.293857      575 
      44            0   -14.595432   0.20577502   -13.180274   -12.075184   -18.530839 5.321897e-12 -4.3929469e-09 9.2182816e-09            0   -1931.2915   -1931.2915    9559.1693    16.196136     24.29416    24.294437      575 
      45            0     6.527172   0.21027899    14.341292    20.469406   -15.229182 1.8199142e-11 -3.8554826e-09 9.8083441e-09            0   -1931.2915   -1931.2915    9558.9137    16.195809    24.293455    24.294984      575 
      46            0   -28.488144   0.21479297   -25.766475   -23.568108   -36.129849 -5.8800383e-12 3.357353e-09 1.7308316e-08            0   -1931.2915   -1931.2915    9559.3313    16.196189    24.294196    24.294734      575 
      47            0    2.6848728   0.21928787    4.3157292    5.6447955   -1.9059065 3.4239548e-12 3.817784e-09 1.7746351e-08            0   -1931.2915   -1931.2915    9558.9543    16.196007    24.293961    24.294284      575 
      48            0   -5.5328501   0.22378898   -12.913141   -18.900055    15.214646 5.8988173e-12 4.2619048e-09 1.8078726e-08            0   -1931.2916   -1931.2916    9559.0537     16.19632    24.294745    24.293283      575 
      49            0     55.35779    0.2282939     46.98262    40.165352    78.925397 -1.4459727e-11 5.596361e-09 1.8812247e-08            0   -1931.2916   -1931.2916    9558.3188    16.195933      24.2942     24.29254      575 
      50            0   -4.5839832   0.23280096   -7.1019368   -9.2132027    2.5631898 -5.3033579e-12 9.7708136e-09 2.1105983e-08            0   -1931.2916   -1931.2916     9559.045    16.196175    24.294364     24.29386      575 
      51            0    12.768106   0.23730707    13.449133     14.00572    10.849466 6.0292126e-12 9.9857346e-09 2.1215539e-08            0   -1931.2916   -1931.2916    9558.8357    16.195965    24.293936    24.294071      575 
      52            0   -6.9139092   0.24181104   -1.6478689    2.7427409     -21.8366 9.5274071e-12 1.0289153e-08 2.132284e-08            0   -1931.2916   -1931.2916     9559.074    16.195968    24.293777     24.29483      575 
      53            0    23.664018    0.2463181    28.673281    32.905687    9.4130857 -3.1635179e-12 1.1723997e-08 2.1623548e-08            0   -1931.2916   -1931.2916    9558.7083    16.195768    24.293485    24.294492      575 
      54            0   -6.0600151   0.25083303   -3.0163632  -0.42986926   -14.733813 2.7168013e-12 1.2057536e-08 2.1726667e-08            0   -1931.2917   -1931.2917    9559.0683    16.196028    24.293945    24.294558      575 
      55            0    5.7986233    0.2553339    3.2206768     1.047888    13.127305 -4.4660413e-12 1.2246518e-08 2.1714446e-08            0   -1931.2917   -1931.2917     9558.926    16.196108     24.29427    24.293752      575 
      56            0   -20.586936    0.2598331   -24.918761   -28.592745   -8.2493012 -3.0889085e-12 1.2328671e-08 2.1624618e-08            0   -1931.2917   -1931.2917    9559.2459    16.196338     24.29468    24.293809      575 
      57            0    6.5545606   0.26433992    1.3462138   -3.1453206    21.462789 -5.2103824e-13 1.2745489e-08 2.120688e-08            0   -1931.2917   -1931.2917    9558.9242    16.196181    24.294481    24.293426      575 
      58            0   -13.620741   0.26884007   -14.303581   -14.903231   -11.655413 4.2984554e-12 1.2788128e-08 2.1129274e-08            0   -1931.2917   -1931.2917     9559.169     16.19619    24.294328    24.294188      575 
      59            0    4.3266988   0.27334309    7.3460818    9.9369494   -4.3029347 9.4344854e-12 1.2762235e-08 2.1043117e-08            0   -1931.2917   -1931.2917    9558.9531    16.195962    24.293849    24.294459      575 
      60            0   -31.016276   0.27785206   -27.018726   -23.460462   -42.569638 -8.3362057e-12 1.1855089e-08 1.9929114e-08            0   -1931.2917   -1931.2917      9559.39     16.19618    24.294137    24.294955      575 
      61            0    3.4560241   0.28235292    6.3663616    8.9801862   -4.9784755 -2.7912612e-12 1.1612912e-08 1.9677745e-08            0   -1931.2917   -1931.2917     9558.976    16.195978    24.293873    24.294471      575 
      62            0   -6.2596051    0.2868619   -10.242553   -13.800923    5.2646608 4.3170968e-12 1.1378006e-08 1.947765e-08            0   -1931.2917   -1931.2917    9559.0951    16.196242    24.294534    24.293717      575 
      63            0    25.584909    0.2913599    20.178869    15.331395    41.244463 -9.7882923e-12 1.100794e-08 1.9191338e-08            0   -1931.2917   -1931.2917    9558.7126    16.196066    24.294326    24.293216      575 
      64            0   -6.7114121   0.29586101   -9.3072886   -11.716975   0.89002718 3.6471942e-12 8.5996187e-09 1.7582432e-08            0   -1931.2917   -1931.2917    9559.1168    16.196214    24.294444    24.293904      575 
      65            0    10.619454   0.30036497    10.024166    9.4589524    12.375242 -1.3398148e-12 8.4023696e-09 1.7463861e-08            0   -1931.2918   -1931.2918    9558.9085    16.196039    24.294103    24.293978      575 
      66            0    -5.557322   0.30486488  -0.85039958    3.4938301   -19.315397 -8.6527916e-12 7.8973006e-09 1.7186298e-08            0   -1931.2918   -1931.2918    9559.1064    16.195999    24.293833     24.29481      575 
      67            0    27.642945   0.30936503    32.308343    36.661525    13.958968 7.5924388e-12 6.1341323e-09 1.6366723e-08            0   -1931.2918   -1931.2918    9558.7136    16.195778    24.293502    24.294474      575 
      68            0   -4.7051371   0.31386995   -2.1200113   0.31983253   -12.315232 1.2281378e-12 5.1352536e-09 1.5944481e-08            0   -1931.2918   -1931.2918     9559.109    16.196061    24.294008    24.294549      575 
      69            0    8.2378437   0.31837296    6.4222836    4.7287839    13.562464 -9.732219e-12 4.6699206e-09 1.5726973e-08            0   -1931.2918   -1931.2918    9558.9547    16.196099    24.294243    24.293864      575 
      70            0   -11.368636   0.32287693   -15.109895   -18.622059  -0.37395436 7.7037057e-12 4.2497102e-09 1.5580484e-08            0   -1931.2918   -1931.2918    9559.1933    16.196289    24.294605    24.293823      575 
      71            0    10.264271   0.32737708    5.9579743     1.845334    22.989506 -1.0420745e-12 1.8500545e-09 1.4736613e-08            0   -1931.2918   -1931.2918    9558.9421    16.196163    24.294442    24.293537      575 
      72            0   -9.6031635   0.33187389   -11.635433   -13.586937   -3.5871201 4.5031368e-12 1.4167017e-09 1.4593566e-08            0   -1931.2918   -1931.2918    9559.1839    16.196235    24.294457    24.294029      575 
      73            0    3.6245631      0.33638    5.7721055    7.8088934   -2.7073095 -6.1965674e-12 9.404454e-10 1.4462177e-08            0   -1931.2918   -1931.2918     9559.026    16.196026    24.293974    24.294424      575 
      74            0   -26.452325   0.34087491   -22.592337   -18.869597   -37.895041 -4.4286071e-12 -3.8234882e-10 1.4109575e-08            0   -1931.2918   -1931.2918    9559.3946    16.196186     24.29414    24.294956      575 
      75            0    3.7554785   0.34537292    7.5024337    11.162669   -7.3986677 -3.2378423e-12 -2.2126931e-09 1.3616995e-08            0   -1931.2918   -1931.2918     9559.037    16.195987    24.293845     24.29464      575 
      76            0   -8.7236912   0.34987807   -9.9256439   -11.087145   -5.1582842 -1.306281e-11 -2.6965027e-09 1.3482807e-08            0   -1931.2918   -1931.2918    9559.1897    16.196215    24.294393    24.294139      575 
      77            0    7.5265086   0.35438204    4.6762642    1.9021782    16.001083 -1.8571155e-11 -2.9547862e-09 1.3445782e-08            0   -1931.2918   -1931.2918    9558.9944    16.196151    24.294367    24.293763      575 
      78            0   -14.057414   0.35888195      -17.188    -20.33812   -4.6461203 -4.4658818e-13 -6.0750134e-09 1.2830602e-08            0   -1931.2918   -1931.2918    9559.2673    16.196314    24.294626    24.293954      575 
      79            0    5.1901664   0.36337805    3.1773597    1.1410525    11.252087 5.8057868e-12 -6.412845e-09 1.2758489e-08            0   -1931.2918   -1931.2918    9559.0361    16.196151    24.294335    24.293902      575 
      80            0   -4.0847189   0.36787701   -1.2236011    1.6476102   -12.678166 7.4618358e-12 -6.8620791e-09 1.2685861e-08            0   -1931.2918   -1931.2918    9559.1499    16.196076    24.294012    24.294626      575 
      81            0    23.382573   0.37237692    27.295554    31.247695     11.60447 -5.0801777e-12 -7.6171216e-09 1.2595777e-08            0   -1931.2918   -1931.2918    9558.8211     16.19586    24.293642    24.294484      575 
      82            0   -4.9139476   0.37687588   -2.2622522   0.46916861   -12.948759 -2.7539881e-12 -9.681943e-09 1.2325544e-08            0   -1931.2918   -1931.2918    9559.1711    16.196094    24.294045     24.29462      575 
      83            0      8.61817   0.38137388    8.7855464    8.9688424    8.1001211 5.0986862e-12 -9.9694947e-09 1.2278788e-08            0   -1931.2918   -1931.2918    9559.0089    16.196074    24.294123     24.29416      575 
      84            0   -4.8432604   0.38587904   -7.2567283   -9.7287884    2.4557354 -7.6665063e-12 -1.024249e-08 1.226277e-08            0   -1931.2918   -1931.2918    9559.1727     16.19624    24.294486    24.293964      575 
      85            0    16.985134   0.39037991    12.911014    8.6822204    29.362169 7.1828921e-12 -1.141851e-08 1.2123449e-08            0   -1931.2919   -1931.2919    9558.9139    16.196141    24.294413    24.293527      575 
      86            0   -6.0567742   0.39487696   -9.0309299   -12.135478    2.9960856 5.9731621e-12 -1.2055106e-08 1.2052578e-08            0   -1931.2919   -1931.2919    9559.1949    16.196269    24.294556    24.293908      575 
      87            0    4.6770342   0.39937806    5.2491151    5.8307739    2.9512136 -5.9732422e-12 -1.2395948e-08 1.2004495e-08            0   -1931.2919   -1931.2919    9559.0668    16.196095    24.294138    24.294261      575 
      88            0   -9.3521222   0.40387201   -7.4939429   -5.5622851   -15.000139 -5.5451541e-12 -1.2571255e-08 1.2005612e-08            0   -1931.2919   -1931.2919    9559.2371    16.196155    24.294169    24.294573      575 
      89            0    7.5586273   0.40838408    12.205789    17.108541   -6.6384475 -5.9732608e-12 -1.3486618e-08 1.1879909e-08            0   -1931.2919   -1931.2919    9559.0371    16.195962    24.293752     24.29477      575 
      90            0   -11.172369     0.412884   -9.1401196   -6.9834513   -17.393537 9.2853146e-12 -1.3881489e-08 1.1827276e-08            0   -1931.2919   -1931.2919    9559.2652    16.196166    24.294175    24.294621      575 
      91            0    2.4478222   0.41738296    1.8767766    1.2868344    4.1798556 1.1034641e-11 -1.4095591e-08 1.1795575e-08            0   -1931.2919   -1931.2919    9559.1017    16.196148    24.294266    24.294142      575 
      92            0   -18.175595   0.42188501   -21.218344   -24.474671   -8.8337686 -7.5175005e-12 -1.4404275e-08 1.1716783e-08            0   -1931.2919   -1931.2919    9559.3527     16.19636    24.294699    24.294028      575 
      93            0    5.0660348   0.42638588   0.58012122   -4.2530206    18.871004 -5.3963827e-12 -1.4829334e-08 1.1608647e-08            0   -1931.2919   -1931.2919    9559.0744    16.196245    24.294592    24.293601      575 
      94            0   -6.2717158   0.43088698   -6.0794762   -5.8871953   -6.8484758 -5.0241456e-12 -1.5073032e-08 1.1530526e-08            0   -1931.2919   -1931.2919     9559.213     16.19619    24.294294    24.294335      575 
      95            0    5.3823277   0.43538189    6.4113952    7.5096036    2.2259844 4.056592e-12 -1.5115718e-08 1.1524638e-08            0   -1931.2919   -1931.2919    9559.0725    16.196086      24.2941    24.294326      575 
      96            0   -10.876112   0.43988204   -7.0343135   -2.7839267   -22.810097 7.2570546e-13 -1.5336036e-08 1.1258432e-08            0   -1931.2919   -1931.2919    9559.2717    16.196119    24.294013    24.294871      575 
      97            0     7.516597     0.444381    10.166716    13.107653  -0.72457744 -1.2467537e-11 -1.5375617e-08 1.117831e-08            0   -1931.2919   -1931.2919    9559.0501    16.196028    24.293932    24.294525      575 
      98            0   -2.7630405   0.44888091   -3.7608574   -4.8547788   0.32651477 2.5120828e-12 -1.539261e-08 1.1105497e-08            0   -1931.2919   -1931.2919    9559.1749    16.196203    24.294367    24.294145      575 
      99            0    15.323089   0.45337701    13.124024    10.675577    22.169665 9.5275239e-12 -1.533829e-08 1.0986205e-08            0   -1931.2919   -1931.2919    9558.9569    16.196114    24.294292    24.293799      575 
     100            0   -5.2445656   0.45788908   -8.6684413   -12.536294    5.4710385 -4.0937509e-13 -1.5133127e-08 1.0620393e-08            0   -1931.2919   -1931.2919    9559.2066    16.196291    24.294616    24.293845      575 
     101            0    8.1092122   0.46239209    7.4079281    6.6027886     10.31692 -3.1634063e-13 -1.5044974e-08 1.0456663e-08            0   -1931.2919   -1931.2919    9559.0457    16.196122    24.294232    24.294073      575 
     102            0   -3.6248246     0.466892   -2.6170133   -1.4906309   -6.7668295 1.3248893e-11 -1.4989113e-08 1.0413432e-08            0   -1931.2919   -1931.2919    9559.1876    16.196153    24.294196    24.294422      575 
     103            0    13.230031   0.47139311    16.869248    21.018846    1.8020002 -6.5129372e-13 -1.4618529e-08 1.0075698e-08            0   -1931.2919   -1931.2919    9558.9841    16.195964    24.293781    24.294604      575 
     104            0    -7.721855   0.47589207   -4.2374051  -0.24581786   -18.682342 1.3155785e-11 -1.430164e-08 9.7923185e-09            0   -1931.2919   -1931.2919    9559.2374    16.196111    24.294009    24.294799      575 
     105            0    4.0615352   0.48039293    4.2106285    4.3963829    3.5775941 -5.9546163e-12 -1.4002653e-08 9.5547983e-09            0   -1931.2919   -1931.2919    9559.0951    16.196126    24.294194    24.294229      575 
     106            0   -7.7809422   0.48488688   -8.7217593   -9.7937744    -4.827293 1.088562e-11 -1.3906035e-08 9.4408774e-09            0   -1931.2919   -1931.2919    9559.2381    16.196238    24.294416    24.294203      575 
     107            0    6.2602863   0.48938608    1.7711331   -3.4312581    20.440984 1.0383392e-11 -1.3276227e-08 8.9795753e-09            0   -1931.2919   -1931.2919     9559.068    16.196244      24.2946    24.293578      575 
     108            0    -13.65889   0.49388599    -15.82678   -18.357337   -6.7925544 1.4569877e-11 -1.262317e-08 8.4733745e-09            0   -1931.2919   -1931.2919     9559.308    16.196314     24.29459    24.294094      575 
     109            0    2.1902072    0.4983871    2.1422429    2.0666609    2.3617177 6.903618e-12 -1.2291008e-08 8.2219672e-09            0   -1931.2919   -1931.2919    9559.1162    16.196145    24.294231    24.294218      575 
     110            0   -14.757886   0.50288701   -11.934417   -8.6055736   -23.733668 9.0805759e-12 -1.1797101e-08 7.852656e-09            0   -1931.2919   -1931.2919    9559.3203    16.196179    24.294135    24.294783      575 
     111            0    6.7460668   0.50738597    11.651368    17.460792   -8.8739596 2.1380874e-11 -1.1012639e-08 7.2905361e-09            0   -1931.2919   -1931.2919    9559.0595    16.195972    24.293718    24.294846      575 
     112            0   -6.5825117   0.51188707   -6.3130763   -5.9737266   -7.4607322 2.0840887e-12 -9.8791015e-09 6.5040152e-09            0   -1931.2919   -1931.2919    9559.2189    16.196195    24.294285    24.294349      575 
     113            0    4.8892038   0.51638293    4.4654816    3.9761115    6.2260184 -2.3446338e-12 -9.7377482e-09 6.3822096e-09            0   -1931.2919   -1931.2919    9559.0801    16.196137    24.294233    24.294137      575 
     114            0   -9.8017348   0.52088594   -14.270863   -19.702121    4.5677801 -6.6988312e-13 -8.1740069e-09 5.274027e-09            0   -1931.2919   -1931.2919    9559.2551    16.196352    24.294766    24.293726      575 
     115            0    11.355468    0.5253849    8.0459205      4.01034    22.010142 1.410514e-11 -7.4284219e-09 4.7550256e-09            0   -1931.2919   -1931.2919    9558.9983    16.196174    24.294438    24.293667      575 
     116            0   -2.8505362    0.5298841   -2.5078067   -2.1082156   -3.9355862 1.447705e-11 -6.6646158e-09 4.2197017e-09            0   -1931.2919   -1931.2919    9559.1686    16.196166    24.294236    24.294314      575 
     117            0    13.100453   0.53438497    14.848986      16.9873     7.465072 4.540452e-12 -6.2029273e-09 3.8603076e-09            0   -1931.2919   -1931.2919    9558.9751    16.196017    24.293937    24.294345      575 
     118            0   -6.3991825   0.53888702   -2.2037675    2.9946213   -19.988401 2.3929832e-11 -4.5396158e-09 2.683179e-09            0   -1931.2919   -1931.2919    9559.2077     16.19608    24.293898    24.294882      575 
     119            0    9.7690128   0.54338503    11.037978    12.626808    5.6422529 -1.3956256e-12 -3.4350811e-09 1.8968087e-09            0    -1931.292    -1931.292    9559.0104    16.196052     24.29401    24.294309      575 
     120            0   -3.6281345   0.54788089   -3.9474508   -4.3284683   -2.6084843 -3.7216054e-14 -3.0568709e-09 1.6156699e-09            0    -1931.292    -1931.292    9559.1715    16.196189    24.294299    24.294225      575 
     121            0     11.14313   0.55238104     7.791703    3.5980792    22.039608 1.0364867e-11 -2.0394224e-09 9.1377372e-10            0    -1931.292    -1931.292    9558.9912    16.196174    24.294439    24.293649      575 
     122            0   -10.386453    0.5568819   -14.403804   -19.451388    2.6958339 1.9389407e-11 -8.6115391e-10 9.1848477e-11            0    -1931.292    -1931.292    9559.2491    16.196339    24.294722    24.293773      575 
     123            0    4.8843182   0.56138492    4.0183087    2.9053749     7.729271 1.7863911e-12 6.7627931e-10 -9.7086637e-10            0    -1931.292    -1931.292    9559.0617    16.196144    24.294259    24.294053      575 
     124            0   -7.4164315   0.56588101   -7.0445434   -6.5885774   -8.6161737 8.7271299e-12 9.7440545e-10 -1.2038601e-09            0    -1931.292    -1931.292    9559.2097    16.196193    24.294264    24.294351      575 
     125            0    5.6948797   0.57039189     9.692253    14.768157   -7.3757711 -1.1164959e-12 2.0407126e-09 -1.9148742e-09            0    -1931.292    -1931.292    9559.0493    16.195999    24.293775    24.294723      575 
     126            0   -18.165302   0.57490206   -15.426329   -11.918049   -27.151527 1.5165285e-11 4.0866071e-09 -3.2943628e-09            0    -1931.292    -1931.292    9559.3335    16.196196    24.294136    24.294789      575 
     127            0    2.4012503   0.57940006    3.2038139    4.2557583  -0.25582141 1.1704558e-11 5.2448886e-09 -4.0729186e-09            0    -1931.292    -1931.292    9559.0828    16.196111    24.294111    24.294304      575 
     128            0   -11.680841   0.58389902   -14.041775   -17.091077   -3.9096719 -3.4610641e-12 5.9108462e-09 -4.5146557e-09            0    -1931.292    -1931.292    9559.2515    16.196297    24.294565       24.294      575 
     129            0    8.3730833   0.58839798     3.630333   -2.5174298    24.006347 1.3342185e-11 6.8103571e-09 -5.1070258e-09            0    -1931.292    -1931.292    9559.0075    16.196227    24.294593    24.293456      575 
     130            0   -9.3289735   0.59290099   -10.450344   -11.945626   -5.5909511 1.112755e-11 1.0160942e-08 -7.2597915e-09            0    -1931.292    -1931.292    9559.2145    16.196243    24.294412     24.29414      575 
     131            0    4.2642641   0.59739304    3.9014769    3.4014425    5.4898729 7.4433057e-12 1.0461027e-08 -7.4326362e-09            0    -1931.292    -1931.292    9559.0497    16.196128    24.294198    24.294108      575 
     132            0   -7.3740598   0.60189509   -3.1217145    2.5251165   -21.525581 4.130975e-12 1.1705713e-08 -8.188081e-09            0    -1931.292    -1931.292    9559.1877    16.196075    24.293853    24.294883      575 
     133            0    18.543141   0.60639501     22.67048    28.170119    4.7888251 8.4297007e-12 1.3111311e-08 -9.0210754e-09            0    -1931.292    -1931.292    9558.8717    16.195901    24.293596    24.294598      575 
     134            0   -3.7167172   0.61089897   -3.0070968   -2.0320781   -6.1109767 -8.7458051e-13 1.5207169e-08 -1.0247181e-08            0    -1931.292    -1931.292    9559.1362    16.196149     24.29416    24.294334      575 
     135            0    9.1814737   0.61539292    8.3993766     7.358724    11.786321 4.2985406e-12 1.5634202e-08 -1.0439541e-08            0    -1931.292    -1931.292    9558.9795    16.196103    24.294177    24.293987      575 
     136            0   -6.4295023   0.61988997   -10.085092   -15.028998     5.825584 2.0133897e-11 1.6695951e-08 -1.1025658e-08            0    -1931.292    -1931.292    9559.1659    16.196291    24.294625    24.293731      575 
     137            0    13.078896   0.62439799    10.739458    7.5429295    20.954301 6.8107127e-12 1.8563249e-08 -1.1975971e-08            0    -1931.292    -1931.292    9558.9262     16.19612    24.294289    24.293715      575 
     138            0   -4.0195455   0.62889004   -4.8037887   -5.8947267    -1.360121 1.198362e-11 1.9265158e-08 -1.2363363e-08            0    -1931.292    -1931.292    9559.1313    16.196192    24.294306    24.294112      575 
     139            0    6.9680036   0.63338804    8.7482058    11.172988   0.98281685 6.1035442e-12 1.9858998e-08 -1.2600923e-08            0    -1931.292    -1931.292    9558.9972    16.196043    24.293932    24.294368      575 
     140            0   -10.374928   0.63788509    -7.290857     -3.06177   -20.772156 1.0476282e-11 2.0586937e-08 -1.2914309e-08            0    -1931.292    -1931.292    9559.2052    16.196124    24.293974    24.294733      575 
     141            0    6.5877344   0.64239407    8.6596893    11.542416  -0.43890159 -1.1165021e-12 2.2439069e-08 -1.3687295e-08            0    -1931.292    -1931.292    9558.9961    16.196036    24.293897     24.29441      575 
     142            0    -6.919268   0.64689398   -6.3447481   -5.5323744   -8.8806816 7.2385325e-12 2.2806495e-08 -1.3821348e-08            0    -1931.292    -1931.292    9559.1584    16.196171    24.294187    24.294331      575 
     143            0    3.9775662   0.65138602    1.9715821  -0.80252364     10.76364 5.9546596e-13 2.3287985e-08 -1.3963616e-08            0    -1931.292    -1931.292    9559.0256     16.19617    24.294339    24.293843      575 
     144            0      -17.835   0.65588593   -20.476583    -24.17618   -8.8522363 1.0401762e-11 2.4451957e-08 -1.4261016e-08            0    -1931.292    -1931.292    9559.2864    16.196336    24.294626    24.293969      575 
     145            0    3.0835121    0.6603899    1.3160397   -1.1948211    9.1293177 8.4667769e-12 2.557456e-08 -1.4541361e-08            0    -1931.292    -1931.292    9559.0309    16.196168     24.29432    24.293878      575 
     146            0   -8.0769364    0.6648829   -7.0110204   -5.5152871   -11.704502 8.6341307e-12 2.5938734e-08 -1.4610303e-08            0    -1931.292    -1931.292    9559.1648    16.196163     24.29414    24.294406      575 
     147            0    6.2959457     0.669379    8.9377794    12.669647   -2.7195895 1.1071986e-11 2.6206702e-08 -1.4603147e-08            0    -1931.292    -1931.292    9558.9905     16.19602    24.293829    24.294488      575 
     148            0   -11.361077   0.67388391   -9.5811083   -6.9986809   -17.503443 6.1964552e-12 2.7868008e-08 -1.4495404e-08            0    -1931.292    -1931.292    9559.1992    16.196164    24.294091    24.294541      575 
     149            0      3.84773   0.67838001    4.8479664    6.3128855   0.38233821 3.5355831e-13 2.8084533e-08 -1.4470705e-08            0    -1931.292    -1931.292    9559.0148    16.196083    24.294016     24.29427      575 
     150            0   -5.0311844   0.68288302   -7.5054059    -11.08664    3.4984925 3.5355438e-12 2.8388835e-08 -1.4368269e-08            0    -1931.292    -1931.292    9559.1211    16.196242     24.29447    24.293845      575 
     151            0    15.921912   0.68737388    12.818169    8.3035956     26.64397 3.1448569e-12 2.8707686e-08 -1.4125548e-08            0    -1931.292    -1931.292    9558.8668    16.196117    24.294321    24.293536      575 
     152            0   -4.3281539   0.69187188   -5.5916748   -7.4738635  0.081076533 1.730558e-12 2.9522965e-08 -1.3521119e-08            0   -1931.2921   -1931.2921    9559.1084    16.196203    24.294333     24.29401      575 
     153            0    7.2594313   0.69636989    7.2963366    7.3349923    7.1469649 -8.7831758e-12 2.9627662e-08 -1.3400007e-08            0   -1931.2921   -1931.2921     9558.968    16.196086    24.294076    24.294084      575 
     154            0   -4.8571675   0.70086288   -2.3840018    1.2723998     -13.4599 3.1261675e-12 2.9747084e-08 -1.314001e-08            0   -1931.2921   -1931.2921    9559.1137    16.196099     24.29394    24.294571      575 
     155            0     14.09109   0.70535898    16.577688    20.292252    5.4033286 1.898076e-12 3.0018817e-08 -1.2354054e-08            0   -1931.2921   -1931.2921    9558.8831     16.19597    24.293741    24.294379      575 
     156            0   -3.9760796   0.70985794   -2.7147989  -0.80746262   -8.4059774 -1.1350981e-12 3.0145954e-08 -1.1893083e-08            0   -1931.2921   -1931.2921    9559.1004    16.196128    24.294054     24.29438      575 
     157            0    5.8025496   0.71435499    4.9141774    3.5962466    8.8972248 1.717555e-11 3.0184364e-08 -1.1581126e-08            0   -1931.2921   -1931.2921    9558.9818    16.196123    24.294184    24.293957      575 
     158            0   -7.6609003   0.71885204   -9.7732198   -12.940333  -0.26914772 1.1257889e-11 3.0184633e-08 -1.1254686e-08            0   -1931.2921   -1931.2921    9559.1441     16.19625    24.294453     24.29391      575 
     159            0    7.6197731   0.72334909    5.2603025    1.6711265     15.92789 -1.1741927e-11 3.0092253e-08 -1.0004778e-08            0   -1931.2921   -1931.2921     9558.958    16.196153    24.294323    24.293712      575 
     160            0   -6.3416329   0.72784591    -7.415198   -9.0606583   -2.5490425 3.1447715e-12 3.0044067e-08 -9.6279179e-09            0   -1931.2921   -1931.2921    9559.1263    16.196211    24.294327    24.294048      575 
     161            0    3.3627011   0.73234606    4.4592031    6.1144246  -0.48552439 -2.4935181e-12 2.9987067e-08 -9.2454953e-09            0   -1931.2921   -1931.2921    9559.0088    16.196083    24.293993    24.294276      575 
     162            0   -13.881699   0.73683691   -11.737661   -8.4556301   -21.451807 -4.0565308e-12 2.9752309e-08 -8.5195985e-09            0   -1931.2921   -1931.2921    9559.2167    16.196171    24.294054    24.294611      575 
     163            0    3.9734795   0.74133801    6.2109154    9.6784905   -3.9689673 6.4571012e-12 2.9371679e-08 -7.1475295e-09            0   -1931.2921   -1931.2921    9559.0002    16.196047    24.293858    24.294443      575 
     164            0   -7.2950839   0.74583697   -7.4011817   -7.5493665   -6.9347037 1.8422015e-12 2.919227e-08 -6.6207234e-09            0   -1931.2921   -1931.2921    9559.1361    16.196191    24.294229    24.294202      575 
     165            0    4.0164186   0.75033092    2.5991604   0.41962319    9.0304722 -1.1425535e-11 2.9066709e-08 -6.2745258e-09            0   -1931.2921   -1931.2921    9558.9993    16.196151    24.294256    24.293887      575 
     166            0   -13.257562   0.75483394   -15.410013   -18.802597   -5.5600755 9.1737228e-12 2.8174698e-08 -4.2008044e-09            0   -1931.2921   -1931.2921    9559.2076    16.196291    24.294515    24.293948      575 
     167            0    3.6200536   0.75932503    2.1010035  -0.31028967    9.0694469 -5.3778144e-12 2.7867667e-08 -3.5208681e-09            0   -1931.2921   -1931.2921    9559.0036    16.196158    24.294273    24.293871      575 
     168            0   -4.5687462   0.76382208    -3.280476   -1.2529979   -9.1727646 -4.9125547e-12 2.7574932e-08 -2.915015e-09            0   -1931.2921   -1931.2921    9559.1025    16.196133    24.294046    24.294386      575 
     169            0     10.14356   0.76831698    12.239125    15.555354     2.636201 -1.7864167e-12 2.7309157e-08 -2.4332252e-09            0   -1931.2921   -1931.2921    9558.9247     16.19601    24.293806    24.294359      575 
     170            0   -6.0433497    0.7728169   -4.3383514   -1.5782679    -12.21343 -1.9575749e-11 2.5882657e-08 1.4913483e-10            0   -1931.2921   -1931.2921    9559.1204    16.196132    24.294012    24.294467      575 
     171            0    5.8988641   0.77730894    6.5697588    7.6685153    3.4583184 -5.2289625e-12 2.5657309e-08 5.3218184e-10            0   -1931.2921   -1931.2921    9558.9762     16.19608    24.294005    24.294185      575 
     172            0   -3.7951657   0.78180909   -5.4402999   -8.0828001    2.1376028 3.7588522e-12 2.5289558e-08 1.1661723e-09            0   -1931.2921   -1931.2921    9559.0934    16.196213    24.294364    24.293926      575 
     173            0      14.2795    0.7863071    11.892239    8.0202436    22.926018 -7.6109189e-12 2.4489965e-08 2.4312304e-09            0   -1931.2921   -1931.2921    9558.8754    16.196111    24.294263    24.293625      575 
     174            0   -4.3958879   0.79080796   -6.0642442   -8.8025323    1.6791128 -7.9270777e-12 2.3426897e-08 4.1124065e-09            0   -1931.2921   -1931.2921    9559.1014    16.196218    24.294375    24.293926      575 
     175            0    5.9866213   0.79530311    6.0980272    6.2667129    5.5951239 -6.847894e-12 2.3032612e-08 4.6807612e-09            0   -1931.2921   -1931.2921    9558.9761    16.196097    24.294068    24.294097      575 
     176            0   -5.1525323   0.79979706   -3.7199423   -1.3807206   -10.356934 -1.404915e-11 2.2705566e-08 5.1260207e-09            0   -1931.2921   -1931.2921    9559.1109    16.196135    24.294033    24.294417      575 
     177            0    10.110341   0.80430293    12.715013    17.023501   0.59250914 -1.1127885e-11 2.145566e-08 6.8431699e-09            0   -1931.2921   -1931.2921    9558.9272    16.195998    24.293743    24.294447      575 
     178            0   -6.3026794   0.80879593   -4.5775684   -1.7050979   -12.625372 -1.6821737e-11 2.0747901e-08 7.8092308e-09            0   -1931.2921   -1931.2921    9559.1259    16.196135     24.29401    24.294478      575 
     179            0    3.6834519   0.81329107    3.3383857    2.7864364    4.9255337 -2.2832446e-11 2.0219294e-08 8.501918e-09            0   -1931.2921   -1931.2921    9559.0056    16.196127    24.294144    24.294052      575 
     180            0    -8.968707   0.81778789   -10.366362   -12.679904   -3.8598555 -7.9084222e-12 1.9825893e-08 9.0085116e-09            0   -1931.2921   -1931.2921    9559.1587    16.196243    24.294394    24.294016      575 
     181            0    5.9260563   0.82228994    3.0544362   -1.7625378    16.486271 -1.559384e-11 1.8425182e-08 1.0652442e-08            0   -1931.2921   -1931.2921    9558.9797    16.196184    24.294413    24.293631      575 
     182            0   -8.8128915   0.82679105   -9.8335901   -11.561198    -5.043887 -2.1157356e-11 1.7621324e-08 1.1614407e-08            0   -1931.2921   -1931.2921    9559.1584    16.196232    24.294353    24.294074      575 
     183            0    2.7800889     0.831285    3.2541994    4.0353657    1.0507016 -2.3818656e-11 1.7202894e-08 1.2094402e-08            0   -1931.2921   -1931.2921    9559.0186     16.19611    24.294063    24.294191      575 
     184            0    -13.73712   0.83577609   -11.543716   -7.8108143    -21.85683 -3.3643146e-11 1.6162424e-08 1.3164825e-08            0   -1931.2921   -1931.2921     9559.219    16.196174    24.294033    24.294635      575 
     185            0    4.9799247   0.84028006    7.6997715    12.359188   -5.1191853 -1.2225701e-11 1.4994776e-08 1.4307559e-08            0   -1931.2921   -1931.2921    9558.9939    16.196031     24.29378    24.294529      575 
     186            0   -5.8795884   0.84477806    -6.020929   -6.2409456   -5.3768907 -6.4384082e-12 1.4121792e-08 1.5201261e-08            0   -1931.2921   -1931.2921    9559.1258    16.196187    24.294224    24.294187      575 
     187            0    5.1722762   0.84926701    4.2653746    2.7291879     8.522266 -3.0331652e-12 1.3883244e-08 1.5414167e-08            0   -1931.2921   -1931.2921    9558.9925    16.196133      24.2942    24.293952      575 
     188            0   -9.9879403   0.85377908   -12.528728   -16.963072  -0.47202103 -1.2895355e-11 1.1907809e-08 1.7086557e-08            0   -1931.2921   -1931.2921    9559.1774    16.196284    24.294552    24.293845      575 
     189            0    6.2659958   0.85827494      4.48002    1.3488465    12.969121 -2.7912595e-12 1.1263867e-08 1.7574724e-08            0   -1931.2921   -1931.2921    9558.9817    16.196151    24.294298      24.2938      575 
     190            0   -3.5535402    0.8627739   -2.7769755   -1.4327943   -6.4508507 -2.6907406e-11 1.0634585e-08 1.8064488e-08            0   -1931.2921   -1931.2921    9559.1009    16.196145    24.294098    24.294313      575 
     191            0    11.232957   0.86726594    12.884149    15.778567    5.0361554 -3.8519619e-12 1.0121393e-08 1.8386849e-08            0   -1931.2921   -1931.2921    9558.9228    16.196019    24.293843    24.294303      575 
     192            0   -6.0586491   0.87176609   -3.7121036    0.4692212   -14.933065 -1.6207656e-11 8.238346e-09 1.9537953e-08            0   -1931.2921   -1931.2921    9559.1336    16.196117    24.293938    24.294598      575 
     193            0    7.3900459   0.87626004    8.1948746    9.6465938    4.3286693 -6.7920719e-12 7.6440396e-09 1.9897989e-08            0   -1931.2921   -1931.2921    9558.9717    16.196069    24.293984    24.294212      575 
     194            0   -3.7683282   0.88075399   -4.6411459    -6.175651  -0.48818756 -4.7264708e-12 7.2019878e-09 2.0107184e-08            0   -1931.2921   -1931.2921     9559.107    16.196193    24.294299    24.294055      575 
     195            0    12.183914   0.88524699    9.8505384    5.6741284    21.027074 -2.0041382e-11 6.2367033e-09 2.0506019e-08            0   -1931.2921   -1931.2921    9558.9153    16.196126    24.294313    24.293655      575 
     196            0   -6.6134795   0.88975596   -9.0125265   -13.339461     2.511549 -4.7822769e-12 5.0363703e-09 2.0900543e-08            0   -1931.2921   -1931.2921    9559.1437    16.196256    24.294516    24.293837      575 
     197            0    5.4910478   0.89425588    5.1574338    4.5367795    6.7789299 -1.5631026e-11 4.2626366e-09 2.1164767e-08            0   -1931.2921   -1931.2921    9558.9984    16.196114    24.294146     24.29405      575 
     198            0   -5.7255898   0.89874792   -4.9919979   -3.6802165    -8.504555 -1.0048374e-11 3.9759555e-09 2.1224175e-08            0   -1931.2921   -1931.2921    9559.1342     16.19616    24.294133     24.29434      575 
     199            0    8.0275298   0.90324306    10.853248    15.995669   -2.7663268 -5.5453094e-12 2.9148789e-09 2.1351805e-08            0   -1931.2921   -1931.2921    9558.9693    16.196006     24.29374    24.294544      575 
     200            0   -10.499291   0.90773988   -8.3180716   -4.3234752   -18.856325 -2.2310971e-11 1.9203252e-09 2.1404132e-08            0   -1931.2921   -1931.2921    9559.1943     16.19615    24.294009    24.294631      575 
     201            0    3.2860209   0.91223693    3.5738982    4.1276632    2.1565014 -1.4961077e-11 1.1631493e-09 2.1399372e-08            0   -1931.2921   -1931.2921    9559.0287     16.19611    24.294097    24.294182      575 
     202            0   -9.4352333   0.91673088   -10.527439   -12.522119   -5.2561416 -8.1503063e-12 7.8322955e-10 2.1326914e-08            0   -1931.2921   -1931.2921    9559.1828    16.196236    24.294397    24.294085      575 
     203            0    5.9535371   0.92122602    2.8072666   -3.0036489    18.056994 -8.5784562e-12 -9.8159125e-11 2.1116154e-08            0   -1931.2922   -1931.2922    9558.9981    16.196189    24.294492     24.29359      575 
     204            0   -11.013807   0.92572594   -12.186237   -14.383017   -6.4721674 -1.2820886e-11 -1.4086414e-09 2.0675326e-08            0   -1931.2922   -1931.2922    9559.2047    16.196248    24.294429    24.294091      575 
     205            0    2.9241595   0.93022108    2.8049115    2.5577642    3.4098028 -1.4384208e-11 -1.789187e-09 2.0527858e-08            0   -1931.2922   -1931.2922    9559.0368    16.196122    24.294159    24.294122      575 
     206            0   -10.761894   0.93472099   -8.3966759   -3.9487474   -19.940258 -1.3490775e-11 -2.4786182e-09 2.0081907e-08            0   -1931.2922   -1931.2922    9559.2031    16.196144    24.293993    24.294678      575 
     207            0    8.3568918   0.93921304    11.520177    17.493528   -3.9430297 -2.240453e-11 -3.178224e-09 1.9568261e-08            0   -1931.2922   -1931.2922    9558.9731     16.19599      24.2937    24.294618      575 
     208            0   -5.6024571     0.943712   -5.2315082   -4.4989106   -7.0769525 -1.3565292e-11 -4.3183962e-09 1.8681468e-08            0   -1931.2922   -1931.2922    9559.1434    16.196165    24.294189      24.2943      575 
     209            0    5.4976093   0.94820499    5.1893304    4.6271159    6.6763815 -2.1715936e-11 -4.4955895e-09  1.85229e-08            0   -1931.2922   -1931.2922    9559.0095    16.196108    24.294161    24.294073      575 
     210            0   -7.7170873    0.9527061   -10.582985   -16.093869    3.5255923 2.9586766e-12 -5.397966e-09 1.7459839e-08            0   -1931.2922   -1931.2922    9559.1705     16.19627     24.29462    24.293779      575 
     211            0    10.718098   0.95720196    8.4741769    4.1373774     19.54274 -1.7510562e-11 -6.0351147e-09 1.6650909e-08            0   -1931.2922   -1931.2922    9558.9487    16.196126    24.294356    24.293696      575 
     212            0   -3.4475703   0.96169996   -3.5327543   -3.7228916   -3.0870652 -1.0420551e-12 -6.6318245e-09 1.5867747e-08            0   -1931.2922   -1931.2922    9559.1208     16.19616    24.294232    24.294205      575 
     213            0    8.6892538   0.96619201    9.7075678    11.672425    4.6877687 -1.2262943e-11 -6.8787479e-09 1.5445855e-08            0   -1931.2922   -1931.2922    9558.9745    16.196046    24.293969    24.294269      575 
     214            0   -6.6321816   0.97068906    -3.970518     1.236864   -17.162891 -8.9690793e-12 -7.5528765e-09 1.424996e-08            0   -1931.2922   -1931.2922    9559.1607    16.196103    24.293919    24.294707      575 
     215            0    8.8475778   0.97518396    10.201156    12.877031    3.4645457 -9.4530724e-12 -8.2013591e-09 1.3037971e-08            0   -1931.2922   -1931.2922    9558.9748    16.196033    24.293927     24.29433      575 
     216            0   -3.7569857   0.97967601   -3.6479878   -3.4092957   -4.2136737 -3.0312616e-11 -8.4745068e-09 1.2506555e-08            0   -1931.2922   -1931.2922    9559.1275    16.196155    24.294215    24.294249      575 
     217            0     7.331611   0.98417401    5.7687866     2.691833    13.534213 -2.0376168e-11 -8.7677628e-09 1.1806233e-08            0   -1931.2922   -1931.2922     9558.994    16.196126    24.294316    24.293851      575 
     218            0   -8.7103468   0.98866606   -11.095594   -15.826917    0.7914705 -6.066206e-12 -9.2144553e-09 1.0766536e-08            0   -1931.2922   -1931.2922    9559.1886    16.196258    24.294587    24.293875      575 
     219            0    5.5433116   0.99316311    4.4242306    2.1697749     10.03593 -5.3405899e-12 -9.8182372e-09 9.1726748e-09            0   -1931.2922   -1931.2922    9559.0175    16.196124    24.294283    24.293946      575 
     220            0   -5.4707671   0.99765611   -5.5397749   -5.6984158   -5.1741107 -1.8496419e-11 -9.9749849e-09 8.7237691e-09            0   -1931.2922   -1931.2922    9559.1508    16.196169    24.294262    24.294239      575 
     221            0    4.7379502    1.0021479    6.4581731    9.8955802   -2.1399026 1.8608307e-12 -1.02256e-08 7.9879948e-09            0   -1931.2922   -1931.2922    9559.0279    16.196048    24.293928    24.294443      575 
     222            0     -12.6392    1.0066509   -10.645637   -6.6216269   -20.650335 -1.8924231e-11 -1.0644126e-08 6.4853171e-09            0   -1931.2922   -1931.2922    9559.2387    16.196158     24.29407    24.294671      575 
     223            0    3.2086413     1.011143    4.2432595    6.3639458  -0.98128161 -9.1366594e-12 -1.1044472e-08 5.1054527e-09            0   -1931.2922   -1931.2922     9559.048    16.196076    24.294032    24.294347      575 
     224            0   -7.0109163     1.015635   -7.5693618   -8.6918202   -4.7715669 -1.2244082e-11 -1.1188411e-08 4.5335619e-09            0   -1931.2922   -1931.2922    9559.1718    16.196191    24.294345    24.294177      575 
     225            0    4.9213725    1.0201309    3.0094311  -0.88102165    12.635708 -1.1853491e-11 -1.1336757e-08 3.9311025e-09            0   -1931.2922   -1931.2922    9559.0279    16.196148      24.2944    24.293821      575 
     226            0   -10.913563     1.024636   -12.331241   -15.274039   -5.1354081 -1.9854664e-11 -1.1853737e-08 1.4207133e-09            0   -1931.2922   -1931.2922    9559.2204     16.19624    24.294503    24.294068      575 
     227            0    2.9836586    1.0291269    2.2505175   0.70773586    5.9927226 -3.8333012e-12 -1.1983997e-08 7.6724408e-10            0   -1931.2922   -1931.2922    9559.0528    16.196126    24.294272    24.294045      575 
     228            0   -5.5049884     1.033623   -4.1036538   -1.2013692   -11.209942 -1.2634871e-11 -1.2111557e-08 8.4775987e-11            0   -1931.2922   -1931.2922    9559.1557    16.196122    24.294078    24.294506      575 
     229            0    9.1494669    1.0381129    11.280503    15.716535   0.45136296 -1.5184456e-11 -1.2203316e-08 -6.24491e-10            0   -1931.2922   -1931.2922    9558.9789    16.196001    24.293831    24.294485      575 
     230            0    -5.427882     1.042625   -4.4003319   -2.2129789   -9.6703352 -5.9917945e-12 -1.2574283e-08 -3.0459785e-09            0   -1931.2922   -1931.2922     9559.156    16.196131    24.294126    24.294446      575 
     231            0    4.7382031     1.047122    5.0462505    5.7155512    3.4528075 -2.51212e-12 -1.2614564e-08 -3.4110542e-09            0   -1931.2922   -1931.2922    9559.0333    16.196082    24.294118    24.294215      575 
     232            0   -4.1939701    1.0516169   -5.7698484   -9.1062287    2.2941666 9.0435297e-12 -1.2709583e-08 -4.0842213e-09            0   -1931.2922   -1931.2922    9559.1415    16.196196    24.294463    24.293974      575 
     233            0    11.758187     1.056114    9.8332002    5.7250323    19.716329 -1.5389197e-11 -1.2816447e-08 -5.1795974e-09            0   -1931.2922   -1931.2922    9558.9491    16.196096    24.294348    24.293749      575 
     234            0   -3.7764511     1.060607   -4.7445274   -6.8455851   0.26075929 -1.4309624e-11 -1.294312e-08 -6.5762725e-09            0   -1931.2922   -1931.2922    9559.1373    16.196174    24.294382    24.294077      575 
     235            0    5.2582053     1.065099    5.4294563    5.7773438    4.5678158 -2.0599395e-11 -1.2994199e-08 -6.9849045e-09            0   -1931.2922   -1931.2922    9559.0283     16.19608    24.294136    24.294188      575 
     236            0   -4.7302978    1.0695939    -3.396971  -0.53424838   -10.259674 -8.2991996e-12 -1.3029315e-08 -7.4533046e-09            0   -1931.2922   -1931.2922    9559.1491    16.196115    24.294081    24.294497      575 
     237            0    8.8079415    1.0740941    10.593263    14.475494    1.3550675 -1.0309047e-11 -1.3121277e-08 -8.6785267e-09            0   -1931.2922   -1931.2922     9558.986    16.196009     24.29388    24.294442      575 
     238            0   -4.6314462    1.0785921   -3.6141729   -1.3821016   -8.8980641 -3.0889399e-12 -1.3163573e-08 -9.3820829e-09            0   -1931.2922   -1931.2922    9559.1486    16.196122    24.294122    24.294444      575 
     239            0    3.5955201    1.0830829    3.2423471    2.4871352    5.0570779 -7.2572234e-13 -1.3179713e-08 -9.8140735e-09            0   -1931.2922   -1931.2922    9559.0493    16.196105    24.294225    24.294115      575 
     240            0   -7.0253529    1.0875721   -8.1864609     -10.7232   -2.1663983 -2.493474e-12 -1.3199168e-08 -1.0164775e-08            0   -1931.2922   -1931.2922    9559.1777      16.1962    24.294445    24.294078      575 
     241            0    5.4229323    1.0920711    3.5792288  -0.50350245     13.19307 2.7540295e-12 -1.3230339e-08 -1.1178573e-08            0   -1931.2922   -1931.2922    9559.0276    16.196134    24.294413    24.293827      575 
     242            0    -6.353787    1.0965619   -7.0746118   -8.6903693   -3.2963799 -6.4011624e-12 -1.3236934e-08 -1.1673159e-08            0   -1931.2922   -1931.2922    9559.1701    16.196182    24.294381    24.294149      575 
     243            0    2.5736104     1.101053    2.9899851    3.8902154   0.84063076 -2.9028854e-12 -1.3236897e-08 -1.194472e-08            0   -1931.2922   -1931.2922    9559.0623    16.196089    24.294133    24.294263      575 
     244            0   -10.273904     1.105547   -8.8567392   -5.6919544   -16.273019 8.9690259e-12 -1.3236235e-08 -1.2384513e-08            0   -1931.2922   -1931.2922    9559.2176    16.196148    24.294125    24.294578      575 
     245            0    3.9802047     1.110045    5.7301955    9.6765905   -3.4661719 2.735416e-12 -1.3249834e-08 -1.3007717e-08            0   -1931.2922   -1931.2922    9559.0456    16.196041    24.293932    24.294495      575 
     246            0   -5.3655292    1.1145451   -5.3428386   -5.2749743   -5.4787745 2.7725998e-12 -1.3244263e-08 -1.3320235e-08            0   -1931.2922   -1931.2922    9559.1586    16.196154    24.294268    24.294276      575 
     247            0    3.5331541      1.11903    2.8965594    1.4729094    6.2299933 -1.1425473e-11 -1.326475e-08 -1.3422872e-08            0   -1931.2922   -1931.2922    9559.0511    16.196112    24.294269    24.294065      575 
     248            0   -9.0413088    1.1235299   -10.680396     -14.4537   -1.9898307 -2.7539789e-12 -1.3248983e-08 -1.3862418e-08            0   -1931.2922   -1931.2922    9559.2032    16.196226    24.294541    24.294007      575 
     249            0     4.258964     1.128022    3.0040455  0.095694935    9.6771515 -2.5865507e-12 -1.3247866e-08 -1.4048089e-08            0   -1931.2922   -1931.2922    9559.0425    16.196124    24.294352    24.293941      575 
     250            0   -3.3722402    1.1325121   -2.8896654   -1.7975298   -5.4295255 8.7458065e-12 -1.3229614e-08 -1.4154399e-08            0   -1931.2922   -1931.2922    9559.1347    16.196126    24.294184     24.29434      575 
     251            0    7.1291481    1.1370001     8.169993     10.56458    2.6528714 3.6286274e-12 -1.3229082e-08 -1.4186607e-08            0   -1931.2922   -1931.2922    9559.0079    16.196039    24.293997    24.294336      575 
     252            0   -5.5064305    1.1415081   -4.0157693  -0.50796502   -11.995557 1.9501235e-11 -1.3227513e-08 -1.4239342e-08            0   -1931.2922   -1931.2922    9559.1606    16.196112     24.29406    24.294552      575 
     253            0    5.2775522     1.145997      5.96554    7.5981367      2.26898 -1.7845362e-11 -1.3247064e-08 -1.4231764e-08            0   -1931.2922   -1931.2922    9559.0303    16.196061    24.294064    24.294292      575 
     254            0   -3.0083029     1.150496   -3.6397502   -5.1127906    -0.272368 1.0978783e-12 -1.3265999e-08 -1.4172181e-08            0   -1931.2922   -1931.2922    9559.1304    16.196156    24.294338    24.294131      575 
     255            0    9.2574751     1.154984    7.8552801    4.5357616    15.381383 4.3543646e-12 -1.3279938e-08 -1.4056115e-08            0   -1931.2922   -1931.2922    9558.9821    16.196094    24.294325     24.29386      575 
     256            0   -4.8478279    1.1594839   -6.3311614   -9.8847464    1.6724242 -8.5597096e-13 -1.3288484e-08 -1.3751983e-08            0   -1931.2922   -1931.2922    9559.1525    16.196193    24.294482    24.293987      575 
     257            0    4.8056001      1.16398    4.4845427     3.693727    6.2385305 1.5817048e-11 -1.3306026e-08 -1.3574556e-08            0   -1931.2922   -1931.2922    9559.0358    16.196094    24.294215    24.294106      575 
     258            0   -3.8142674    1.1684699   -3.2787773   -2.0161088    -6.147916 5.5824266e-13 -1.3326592e-08 -1.344824e-08            0   -1931.2922   -1931.2922    9559.1399    16.196128    24.294179    24.294356      575 
     259            0    7.2782832    1.1729629    8.9572143    13.000205  -0.12257014 9.0994831e-12 -1.33634e-08 -1.3055341e-08            0   -1931.2922   -1931.2922    9559.0058     16.19602    24.293897    24.294459      575 
     260            0   -6.6795093     1.177465   -5.1832242   -1.5526313   -13.302673 1.0234412e-12 -1.3413872e-08 -1.2582798e-08            0   -1931.2922   -1931.2922    9559.1743    16.196121    24.294065    24.294569      575 
     261            0    3.3020903     1.181957    3.5660362    4.2274389    2.1127956 1.6579957e-11 -1.3432724e-08 -1.2225864e-08            0   -1931.2922   -1931.2922    9559.0536    16.196088    24.294143    24.294233      575 
     262            0   -5.5932394      1.18646    -6.120744   -7.3927477   -3.2662263 1.0811276e-11 -1.3470645e-08 -1.201884e-08            0   -1931.2922   -1931.2922     9559.161    16.196171     24.29435    24.294174      575 
     263            0    5.0751417    1.1909511    3.2324093   -1.2804618    13.273478 -1.3714316e-11 -1.3543976e-08 -1.1440084e-08            0   -1931.2922   -1931.2922     9559.032    16.196136    24.294436    24.293813      575 
     264            0   -8.8676159     1.195446   -10.044389   -12.957288   -3.6011713 7.9456038e-12 -1.3643402e-08 -1.0589455e-08            0   -1931.2922   -1931.2922    9559.2002    16.196212    24.294481     24.29408      575 
     265            0    2.3990498    1.1999419    2.1455611    1.4919879    3.5596005 6.4570581e-12 -1.3695941e-08 -1.0181204e-08            0   -1931.2922   -1931.2922     9559.064    16.196109    24.294229    24.294141      575 
     266            0   -7.1822225    1.2044389   -6.2152593    -3.823688    -11.50772 1.4830585e-11 -1.374023e-08 -9.7391145e-09            0   -1931.2922   -1931.2922    9559.1796     16.19614    24.294144    24.294474      575 
     267            0     5.372506     1.208935    7.3203224     12.17618   -3.3789848 1.9334031e-11 -1.3836002e-08 -9.1000925e-09            0   -1931.2922   -1931.2922    9559.0278    16.196027    24.293868    24.294534      575 
     268            0   -6.8317263    1.2134421   -6.1556739   -4.4350358   -9.9044693 1.1927741e-11 -1.4031527e-08 -7.7753033e-09            0   -1931.2922   -1931.2922    9559.1748    16.196147    24.294181    24.294415      575 
     269            0    2.8739921    1.2179301    2.9949193    3.3231038    2.3039532 1.8943198e-11 -1.4064189e-08 -7.4578816e-09            0   -1931.2922   -1931.2922    9559.0575    16.196096    24.294165    24.294208      575 
     270            0   -6.2683519    1.2224319   -7.7835417   -11.629075   0.60756146 1.732408e-11 -1.4176959e-08 -6.7027908e-09            0   -1931.2923   -1931.2923    9559.1677    16.196206    24.294507    24.293982      575 
     271            0    7.9081018     1.226923    6.0656108    1.3656508    16.293044 3.8333239e-12 -1.4314692e-08 -5.9049819e-09            0   -1931.2923   -1931.2923    9558.9962    16.196119    24.294412    24.293772      575 
     272            0    -3.911595    1.2314169   -4.3203841   -5.3973749   -2.0170261 1.667285e-11 -1.451018e-08 -4.5455031e-09            0   -1931.2923   -1931.2923    9559.1386    16.196159    24.294315     24.29417      575 
     273            0     4.606573    1.2359121    4.7608539    5.1352797    3.9235855 2.0599379e-11 -1.4570962e-08 -4.2610081e-09            0   -1931.2923   -1931.2923    9559.0356    16.196085    24.294142    24.294193      575 
     274            0   -5.0325573     1.240401   -3.4307919   0.71695989    -12.38384 2.1175979e-11 -1.4724302e-08 -3.3633032e-09            0   -1931.2923   -1931.2923    9559.1518    16.196109    24.294016    24.294577      575 
     275            0    8.7150515    1.2449019    10.132878    13.832887    2.1793897 1.2783964e-11 -1.4906809e-08 -2.2599075e-09            0   -1931.2923   -1931.2923    9558.9853    16.196021    24.293902    24.294401      575 
     276            0   -3.1153892    1.2494011   -2.7588143   -1.8015243   -4.7858291 2.4041681e-11 -1.5053553e-08 -1.3371975e-09            0   -1931.2923   -1931.2923     9559.128    16.196132    24.294185    24.294313      575 
     277            0    5.1802001    1.2538919    4.6962688    3.4436693    7.4006623 5.1358928e-12 -1.5133132e-08 -9.1504491e-10            0   -1931.2923   -1931.2923    9559.0276      16.1961    24.294231    24.294061      575 
     278            0   -5.3902043     1.258393   -6.8271736   -10.608957    1.2655176 1.2299927e-11 -1.526674e-08 -1.535444e-10            0   -1931.2923   -1931.2923     9559.155      16.1962    24.294487    24.293979      575 
     279            0    6.7013323     1.262898    5.5481838    2.4756874    12.080126 2.3818681e-12 -1.5501588e-08 1.1827324e-09            0   -1931.2923   -1931.2923    9559.0085    16.196109     24.29432    24.293909      575 
     280            0    -3.691761    1.2673881    -4.068704   -5.0939609   -1.9126182 1.0457753e-11 -1.5625241e-08 1.7925486e-09            0   -1931.2923   -1931.2923    9559.1338    16.196158    24.294305    24.294169      575 
     281            0    3.9284879    1.2718849    4.5715628    6.2687875   0.94511343 2.0859882e-11 -1.5676304e-08 2.2619202e-09            0   -1931.2923   -1931.2923    9559.0415    16.196077    24.294067    24.294295      575 
     282            0   -7.2943448    1.2763729   -6.0129002   -2.5849127   -13.285221 2.9437883e-11 -1.5820313e-08 2.9551345e-09            0   -1931.2923   -1931.2923    9559.1768    16.196136    24.294079    24.294538      575 
     283            0    4.4341873    1.2808809     5.534414    8.5199265  -0.75177862 1.0811419e-11 -1.6054045e-08 4.2929752e-09            0   -1931.2923   -1931.2923    9559.0346    16.196061    24.293985    24.294382      575 
     284            0   -4.8120018     1.285377    -4.590067   -3.9688256   -5.8771129 1.8998846e-11 -1.6139194e-08 4.7813011e-09            0   -1931.2923   -1931.2923    9559.1461     16.19615    24.294218      24.2943      575 
     285            0    3.0482195    1.2898679    2.3420401   0.44651069    6.3561076 1.5854239e-11 -1.6220264e-08 5.1966851e-09            0   -1931.2923   -1931.2923    9559.0509    16.196123    24.294285    24.294032      575 
     286            0   -9.4896892    1.2943749   -10.724425   -14.099929   -3.6447132 1.272785e-11 -1.6391629e-08 6.2210391e-09            0   -1931.2923   -1931.2923    9559.2019    16.196223    24.294499    24.294051      575 
     287            0    3.0815047     1.298876    2.1042547  -0.60110027    7.7413598 1.2579187e-11 -1.6548199e-08 7.1749211e-09            0   -1931.2923   -1931.2923    9559.0496     16.19613     24.29433    24.293972      575 
     288            0   -4.7611877     1.303407   -4.5405359   -3.9498333    -5.793194 1.8756945e-11 -1.6631977e-08 7.6068275e-09            0   -1931.2923   -1931.2923    9559.1441     16.19615    24.294217    24.294296      575 
     289            0     3.865676    1.3079021    4.7390112    7.1376312   -0.2796143 9.1180591e-12 -1.6683145e-08 7.9429087e-09            0   -1931.2923   -1931.2923    9559.0397    16.196072    24.294023    24.294341      575 
     290            0   -7.9655944     1.312408   -6.8537243   -3.7240415   -13.319017 1.6077318e-11  -1.6866e-08 9.2362564e-09            0   -1931.2923   -1931.2923    9559.1819    16.196147    24.294101    24.294512      575 
     291            0    3.0823367    1.3168981    3.7744336    5.7423541   -0.2697777 1.8757134e-11 -1.6950196e-08 9.6919486e-09            0   -1931.2923   -1931.2923    9559.0481    16.196083    24.294056    24.294313      575 
     292            0   -3.6164974     1.321398   -4.2249854   -5.9234241  -0.70108269 -1.1350947e-12 -1.6997727e-08 1.0066632e-08            0   -1931.2923   -1931.2923    9559.1288    16.196166    24.294337    24.294113      575 
     293            0    6.6079606     1.325887     5.512123    2.4231853    11.888574 9.3041756e-12 -1.7037118e-08 1.0343957e-08            0   -1931.2923   -1931.2923    9559.0051     16.19611    24.294312    24.293907      575 
     294            0   -4.9025495    1.3303981   -5.8513026   -8.5853951  -0.27095073 7.7223541e-12 -1.7122338e-08 1.1386611e-08            0   -1931.2923   -1931.2923    9559.1433    16.196185    24.294407    24.294051      575 
     295            0    3.9754048    1.3348889    3.5906581    2.4668532     5.868703 4.5590314e-12 -1.7154854e-08 1.1641547e-08            0   -1931.2923   -1931.2923    9559.0358    16.196108    24.294223    24.294077      575 
     296            0    -3.136981    1.3393769   -2.4329431  -0.41881235   -6.5591875 1.3900269e-11 -1.7159333e-08 1.1870951e-08            0   -1931.2923   -1931.2923    9559.1215    16.196126    24.294114    24.294378      575 
     297            0    8.1858322     1.343874    9.3871775    12.862582    2.3077372 -1.8608392e-12 -1.7146479e-08 1.2185254e-08            0   -1931.2923   -1931.2923    9558.9844    16.196034    24.293914    24.294366      575 
     298            0   -4.0553456    1.3483779   -3.1102125   -0.3348506   -8.7209736 1.1406768e-11 -1.7122043e-08 1.2722078e-08            0   -1931.2923   -1931.2923    9559.1316    16.196125     24.29408    24.294439      575 
     299            0    3.9802159    1.3528669     4.138239    4.6221815    3.1802273 3.3253022e-11 -1.7107759e-08 1.2904145e-08            0   -1931.2923   -1931.2923    9559.0343    16.196092    24.294129    24.294191      575 
     300            0   -3.5440602     1.357362   -4.1361423   -5.8537449  -0.64229334 1.4793454e-11 -1.7075069e-08 1.2983356e-08            0   -1931.2923   -1931.2923     9559.125    16.196165    24.294332    24.294109      575 
     301            0    6.7854468     1.361855    5.4975554    1.7015985    13.157186 1.6059016e-11 -1.6982121e-08 1.3170838e-08            0   -1931.2923   -1931.2923    9558.9997    16.196114    24.294345    24.293854      575 
     302            0   -4.9853307     1.366364    -5.979727   -8.9378337 -0.038431528 1.6002954e-11 -1.6874743e-08 1.3341551e-08            0   -1931.2923   -1931.2923    9559.1415    16.196186    24.294416    24.294035      575 
     303            0    3.0383026    1.3708589    2.9298629    2.5874162    3.5976288 1.122079e-11 -1.6799793e-08 1.3431995e-08            0   -1931.2923   -1931.2923    9559.0442    16.196106    24.294184    24.294141      575 
     304            0   -4.6238527    1.3753469   -4.1064644   -2.5771872   -7.1879064 2.0766634e-11 -1.6720918e-08 1.343567e-08            0   -1931.2923   -1931.2923    9559.1366    16.196141    24.294155    24.294353      575 
     305            0    4.9836707    1.3798461    6.3554913     10.47046   -1.8749395 6.3454378e-12 -1.6556587e-08 1.3399343e-08            0   -1931.2923   -1931.2923    9559.0201     16.19605    24.293909    24.294438      575 
     306            0   -6.5033135     1.384342   -5.6356222   -3.0047654   -10.869553 -5.5824158e-13 -1.6335247e-08 1.3366178e-08            0   -1931.2923   -1931.2923    9559.1584    16.196143    24.294111    24.294448      575 
     307            0     2.280768     1.388834     2.401968    2.7938207    1.6465154 1.0271759e-11 -1.620063e-08 1.3275586e-08            0   -1931.2923   -1931.2923     9559.052    16.196104    24.294149    24.294198      575 
     308            0   -5.8973543    1.3933721   -6.5780079   -8.6328979   -2.4811571 9.2854259e-12 -1.6080739e-08 1.3164075e-08            0   -1931.2923   -1931.2923    9559.1506    16.196183    24.294372    24.294108      575 
     309            0    4.5361251    1.3978651    3.1105053   -1.2386777    11.736548 8.3551331e-12 -1.5811913e-08 1.2949154e-08            0   -1931.2923   -1931.2923    9559.0241    16.196133    24.294395    24.293839      575 
     310            0   -6.0527487    1.4023681   -6.6233244   -8.3949573   -3.1399645 1.3528064e-11 -1.5406549e-08 1.2504846e-08            0   -1931.2923   -1931.2923    9559.1514     16.19618    24.294356     24.29413      575 
     311            0    2.3668108     1.406857    2.2947057    2.0494226     2.756304 5.7127373e-12 -1.5265029e-08 1.2391499e-08            0   -1931.2923   -1931.2923    9559.0495    16.196108    24.294183    24.294152      575 
     312            0   -5.7910109    1.4113469   -4.7687258   -1.5987531   -11.005554 1.5333052e-11 -1.4993474e-08 1.2059543e-08            0   -1931.2923   -1931.2923    9559.1478    16.196133    24.294073    24.294476      575 
     313            0    5.8830171    1.4158449    7.2767767    11.624314    -1.252039 -1.1295268e-11 -1.4673185e-08 1.1632367e-08            0   -1931.2923   -1931.2923    9559.0064    16.196042    24.293887    24.294438      575 
     314            0   -4.0317802     1.420346   -3.6766512   -2.5351265   -5.8835629 2.9586905e-12 -1.4118183e-08 1.0918585e-08            0   -1931.2923   -1931.2923    9559.1256    16.196139    24.294169    24.294313      575 
     315            0    3.4270684     1.424834    3.3586799    3.1677437    3.7547815 2.549336e-12 -1.3975293e-08 1.0729304e-08            0   -1931.2923   -1931.2923    9559.0354      16.1961    24.294168    24.294143      575 
     316            0   -4.8347095    1.4293339    -6.014741   -9.7496006    1.2602131 6.5872669e-12 -1.3584452e-08 1.0137283e-08            0   -1931.2923   -1931.2923    9559.1348    16.196188    24.294452     24.29398      575 
     317            0    7.1526632    1.4338319    5.9606283    2.1595232    13.337838 -5.4522557e-12 -1.3073802e-08 9.4618548e-09            0   -1931.2923   -1931.2923    9558.9896    16.196106    24.294332    24.293854      575 
     318            0   -3.0859119     1.438333   -3.3719909   -4.3122765   -1.5734684 1.2467455e-12 -1.2532025e-08 8.685229e-09            0   -1931.2923   -1931.2923    9559.1129     16.19615    24.294276    24.294158      575 
     319            0    4.3173963    1.4428229    4.5916002    5.4526161    2.9079727 1.9352648e-12 -1.2323766e-08 8.3632819e-09            0   -1931.2923   -1931.2923    9559.0233    16.196083    24.294099    24.294208      575 
     320            0   -4.7685499     1.447315   -3.6385251 0.0059251766    -10.67305 -6.3267549e-12 -1.1874426e-08 7.6822644e-09            0   -1931.2923   -1931.2923    9559.1328     16.19612    24.294036    24.294493      575 
     321            0    6.5202784     1.451822    7.5150785    10.757803    1.2879535 8.5970664e-12 -1.1165989e-08 6.6074364e-09            0   -1931.2923   -1931.2923     9558.996    16.196047    24.293943    24.294349      575 
     322            0   -3.2587055    1.4563129   -2.9611775   -1.9657434   -4.8491955 -7.4432558e-14 -1.0717507e-08 5.9218403e-09            0   -1931.2923   -1931.2923    9559.1139    16.196133    24.294169    24.294293      575 
     323            0    3.9634631    1.4608049    3.5382217    2.1688402    6.1833273 -1.4235357e-11 -1.0438908e-08 5.4985624e-09            0   -1931.2923   -1931.2923    9559.0265    16.196104    24.294227    24.294055      575 
     324            0   -5.8451372    1.4653029   -6.8966712   -10.341703  -0.29703724 8.0014741e-13 -9.9246192e-09 4.7309251e-09            0   -1931.2923   -1931.2923    9559.1447    16.196189    24.294443    24.294013      575 
     325            0    5.0731625     1.469805    4.1244485   0.97291598    10.122123 -2.4321096e-11 -9.0458662e-09 3.3494914e-09            0   -1931.2923   -1931.2923    9559.0124    16.196111    24.294314    24.293923      575 
     326            0   -4.0874126    1.4743049    -4.352001   -5.2523929   -2.6578439 5.954599e-12 -8.6323078e-09 2.7191002e-09            0   -1931.2923   -1931.2923    9559.1229    16.196153    24.294282    24.294171      575 
     327            0     3.251293    1.4787979    3.7459922    5.3689064   0.63898041 -3.4425345e-12 -8.286497e-09 2.189652e-09            0   -1931.2923   -1931.2923    9559.0341    16.196081    24.294067    24.294269      575 
[...]

MPI task timing breakdown:
Section |  min time  |  avg time  |  max time  |%varavg| %total
---------------------------------------------------------------
Pair    | 0.12482    | 0.12482    | 0.12482    |   0.0 | 98.00
Neigh   | 0          | 0          | 0          |   0.0 |  0.00
Comm    | 0.00089097 | 0.00089097 | 0.00089097 |   0.0 |  0.70
Output  | 0.00072789 | 0.00072789 | 0.00072789 |   0.0 |  0.57
Modify  | 0          | 0          | 0          |   0.0 |  0.00
Other   |            | 0.0009291  |            |       |  0.73

Nlocal:    575 ave 575 max 575 min
Histogram: 1 0 0 0 0 0 0 0 0 0
Nghost:    2124 ave 2124 max 2124 min
Histogram: 1 0 0 0 0 0 0 0 0 0
Neighs:    38458 ave 38458 max 38458 min
Histogram: 1 0 0 0 0 0 0 0 0 0

Total # of neighbors = 38458
Ave neighs/atom = 66.8835
Neighbor list builds = 0
Dangerous builds = 0

# Obtain new stress tensor

variable tmp equal pxx
variable pxx1 equal ${tmp}
variable pxx1 equal -1.96868246886897
variable tmp equal pyy
variable pyy1 equal ${tmp}
variable pyy1 equal -0.76470308907928
variable tmp equal pzz
variable pzz1 equal ${tmp}
variable pzz1 equal -2.46420946811412
variable tmp equal pxy
variable pxy1 equal ${tmp}
variable pxy1 equal 0.315442126611938
variable tmp equal pxz
variable pxz1 equal ${tmp}
variable pxz1 equal -8.61558106235537e-12
variable tmp equal pyz
variable pyz1 equal ${tmp}
variable pyz1 equal 1.48446647786047e-11

# Compute elastic constant from pressure tensor

variable C1neg equal ${d1}
variable C1neg equal -8.64603009982998
variable C2neg equal ${d2}
variable C2neg equal -4.2399360883698
variable C3neg equal ${d3}
variable C3neg equal -3.62131586963499
variable C4neg equal ${d4}
variable C4neg equal 2.25754042664648e-07
variable C5neg equal ${d5}
variable C5neg equal -2.9945005764114e-07
variable C6neg equal ${d6}
variable C6neg equal 31.5442126607025

# Reset box and simulation parameters

clear
box tilt large
read_restart restart.equil
  triclinic box = (0.00192551 0.0029176 0.00288106) to (16.1981 24.2971 24.2971) with tilt (0 0 0)
  1 by 1 by 1 MPI processor grid
  575 atoms
include potential.mod
pair_style eam/alloy
pair_coeff * * /users/knc6/Software/jarvis/jarvis/lammps/examples/Al03.eam.alloy  Al
neighbor 1.0 nsq
neigh_modify once no every 1 delay 0 check yes
min_style  cg
min_modify           dmax ${dmax} line quadratic
min_modify           dmax 0.01 line quadratic
thermo          1
thermo_style custom step temp press cpu pxx pyy pzz pxy pxz pyz ke pe etotal vol lx ly lz atoms
thermo_modify norm no

# Positive deformation

variable delta equal ${up}*${len0}
variable delta equal 1e-06*${len0}
variable delta equal 1e-06*24.2941646056077
if "${dir} == 1" then    "change_box all x delta 0 ${delta} remap units box"
if "${dir} == 2" then    "change_box all y delta 0 ${delta} remap units box"
if "${dir} == 3" then    "change_box all z delta 0 ${delta} remap units box"
if "${dir} == 4" then    "change_box all yz delta ${delta} remap units box"
if "${dir} == 5" then    "change_box all xz delta ${delta} remap units box"
if "${dir} == 6" then    "change_box all xy delta ${delta} remap units box"
change_box all xy delta ${delta} remap units box
change_box all xy delta 2.42941646056077e-05 remap units box
  triclinic box = (0.00192551 0.0029176 0.00288106) to (16.1981 24.2971 24.2971) with tilt (2.42942e-05 0 0)

# Relax atoms positions

minimize ${etol} ${ftol} ${maxiter} ${maxeval}
minimize 0 ${ftol} ${maxiter} ${maxeval}
minimize 0 1e-10 ${maxiter} ${maxeval}
minimize 0 1e-10 1000 ${maxeval}
minimize 0 1e-10 1000 10000
Neighbor list info ...
  1 neighbor list requests
  update every 1 steps, delay 0 steps, check yes
  max neighbors/atom: 2000, page size: 100000
  master list distance cutoff = 7.72488
  ghost atom cutoff = 7.72488
Memory usage per processor = 3.38875 Mbytes
Step Temp Press CPU Pxx Pyy Pzz Pxy Pxz Pyz KinEng PotEng TotEng Volume Lx Ly Lz Atoms 
    1039            0   -1.7325317            0   -1.9686825  -0.76470309   -2.4642095  -0.31656607 2.059924e-11 -2.0887667e-12            0   -1931.2926   -1931.2926       9559.1    16.196149    24.294165    24.294238      575 
    1040            0   -1.7325317 0.0043201447   -1.9686825  -0.76470309   -2.4642095  -0.31589398 -1.0290316e-11 -1.673572e-11            0   -1931.2926   -1931.2926       9559.1    16.196149    24.294165    24.294238      575 
    1041            0   -1.7325317  0.008644104   -1.9686825  -0.76470309   -2.4642095   -0.3156301 -1.0271708e-11 1.1820838e-11            0   -1931.2926   -1931.2926       9559.1    16.196149    24.294165    24.294238      575 
    1042            0   -1.7325317  0.012968063   -1.9686825  -0.76470309   -2.4642095  -0.31552844 1.8198787e-11 -2.0980708e-12            0   -1931.2926   -1931.2926       9559.1    16.196149    24.294165    24.294238      575 
    1043            0   -1.7325317  0.017299175   -1.9686825  -0.76470309   -2.4642095  -0.31548848 1.5668076e-11 -2.125983e-12            0   -1931.2926   -1931.2926       9559.1    16.196149    24.294165    24.294238      575 
    1044            0   -1.7325317  0.021621227   -1.9686825  -0.76470309   -2.4642095  -0.31546867 -2.0282901e-12 -1.5935569e-11            0   -1931.2926   -1931.2926       9559.1    16.196149    24.294165    24.294238      575 
    1045            0   -1.7325317  0.025949001   -1.9686825  -0.76470309   -2.4642095   -0.3154573 8.0759442e-12 -1.903848e-11            0   -1931.2926   -1931.2926       9559.1    16.196149    24.294165    24.294238      575 
    1046            0   -1.7325317  0.030271053   -1.9686825  -0.76470309   -2.4642095  -0.31545075 4.3915273e-12 9.4459705e-12            0   -1931.2926   -1931.2926       9559.1    16.196149    24.294165    24.294238      575 
    1047            0   -1.7325317  0.034594059   -1.9686825  -0.76470309   -2.4642095  -0.31544746 -5.3591519e-12 2.6051433e-12            0   -1931.2926   -1931.2926       9559.1    16.196149    24.294165    24.294238      575 
    1048            0   -1.7325317  0.038920164   -1.9686825  -0.76470309   -2.4642095  -0.31544565 1.5258696e-12 -3.3787778e-11            0   -1931.2926   -1931.2926       9559.1    16.196149    24.294165    24.294238      575 
    1049            0   -1.7325317   0.04324317   -1.9686825  -0.76470309   -2.4642095   -0.3154443 2.5121025e-12 -2.0503873e-11            0   -1931.2926   -1931.2926       9559.1    16.196149    24.294165    24.294238      575 
    1050            0   -1.7325317  0.047566175   -1.9686825  -0.76470309   -2.4642095  -0.31544357 5.7127071e-12 4.7101921e-12            0   -1931.2926   -1931.2926       9559.1    16.196149    24.294165    24.294238      575 
    1051            0   -1.7325317  0.051892996   -1.9686825  -0.76470309   -2.4642095  -0.31544303 1.3956125e-12 1.1339351e-11            0   -1931.2926   -1931.2926       9559.1    16.196149    24.294165    24.294238      575 
    1052            0   -1.7325317  0.056216002   -1.9686825  -0.76470309   -2.4642095  -0.31544269 6.8664134e-12 1.0881125e-11            0   -1931.2926   -1931.2926       9559.1    16.196149    24.294165    24.294238      575 
    1053            0   -1.7325317  0.060538054   -1.9686825  -0.76470309   -2.4642095  -0.31544246 -5.3033274e-12 -1.5442452e-11            0   -1931.2926   -1931.2926       9559.1    16.196149    24.294165    24.294238      575 
    1054            0   -1.7325317  0.064863205   -1.9686825  -0.76470309   -2.4642095  -0.31544231 1.3583962e-12 -8.0712922e-12            0   -1931.2926   -1931.2926       9559.1    16.196149    24.294165    24.294238      575 
    1055            0   -1.7325317  0.069185019   -1.9686825  -0.76470309   -2.4642095  -0.31544222 -4.0379721e-12 1.0274034e-11            0   -1931.2926   -1931.2926       9559.1    16.196149    24.294165    24.294238      575 
    1056            0   -1.7325317  0.073515177   -1.9686825  -0.76470309   -2.4642095  -0.31544217 3.3308618e-12 -1.5705292e-11            0   -1931.2926   -1931.2926       9559.1    16.196149    24.294165    24.294238      575 
    1057            0   -1.7325317  0.077837229   -1.9686825  -0.76470309   -2.4642095  -0.31544215 -3.34947e-12 -1.4979574e-11            0   -1931.2926   -1931.2926       9559.1    16.196149    24.294165    24.294238      575 
    1058            0   -1.7325317  0.082158089   -1.9686825  -0.76470309   -2.4642095  -0.31544213 -1.3956125e-12 -5.1870264e-13            0   -1931.2926   -1931.2926       9559.1    16.196149    24.294165    24.294238      575 
    1059            0   -1.7325317  0.086486101   -1.9686825  -0.76470309   -2.4642095  -0.31544213 -6.1220868e-12 5.9871776e-12            0   -1931.2926   -1931.2926       9559.1    16.196149    24.294165    24.294238      575 
    1060            0   -1.7325317  0.090808153   -1.9686825  -0.76470309   -2.4642095  -0.31544213 7.7968217e-12 -9.9949114e-12            0   -1931.2926   -1931.2926       9559.1    16.196149    24.294165    24.294238      575 
    1061            0   -1.7325317  0.095131159   -1.9686825  -0.76470309   -2.4642095  -0.31544213 3.7216333e-12 -7.4595487e-12            0   -1931.2926   -1931.2926       9559.1    16.196149    24.294165    24.294238      575 
    1062            0   -1.7325317  0.099467039   -1.9686825  -0.76470309   -2.4642095  -0.31544213 -1.4328288e-12 1.4349222e-11            0   -1931.2926   -1931.2926       9559.1    16.196149    24.294165    24.294238      575 
    1063            0   -1.7325317     0.103791   -1.9686825  -0.76470309   -2.4642095  -0.31544213 1.0383357e-11 6.5012282e-12            0   -1931.2926   -1931.2926       9559.1    16.196149    24.294165    24.294238      575 
    1064            0   -1.7325317   0.10811305   -1.9686825  -0.76470309   -2.4642095  -0.31544213 1.2393039e-11 1.2206957e-11            0   -1931.2926   -1931.2926       9559.1    16.196149    24.294165    24.294238      575 
    1065            0   -1.7325317   0.11244607   -1.9686825  -0.76470309   -2.4642095  -0.31544213 -2.0841146e-12 -8.1480509e-12            0   -1931.2926   -1931.2926       9559.1    16.196149    24.294165    24.294238      575 
    1066            0   -1.7325317   0.11676717   -1.9686825  -0.76470309   -2.4642095  -0.31544213 8.8202709e-12 7.7363452e-12            0   -1931.2926   -1931.2926       9559.1    16.196149    24.294165    24.294238      575 
    1067            0   -1.7325317   0.12109017   -1.9686825  -0.76470309   -2.4642095  -0.31544213 -3.8704986e-12 9.273845e-12            0   -1931.2926   -1931.2926       9559.1    16.196149    24.294165    24.294238      575 
    1068            0   -1.7325317   0.12755203   -1.9686825  -0.76470309   -2.4642095  -0.31544213 -1.1499847e-11 8.0782703e-12            0   -1931.2926   -1931.2926       9559.1    16.196149    24.294165    24.294238      575 
Loop time of 0.12757 on 1 procs for 29 steps with 575 atoms

100.3% CPU use with 1 MPI tasks x no OpenMP threads

Minimization stats:
  Stopping criterion = force tolerance
  Energy initial, next-to-last, final = 
        -1931.29258353     -1931.29258353     -1931.29258353
  Force two-norm initial, final = 4.31467e-06 9.59545e-11
  Force max component initial, final = 1.45712e-06 9.63724e-12
  Final line search alpha, max atom move = 1 9.63724e-12
  Iterations, force evaluations = 29 58

MPI task timing breakdown:
Section |  min time  |  avg time  |  max time  |%varavg| %total
---------------------------------------------------------------
Pair    | 0.12501    | 0.12501    | 0.12501    |   0.0 | 97.99
Neigh   | 0          | 0          | 0          |   0.0 |  0.00
Comm    | 0.0008955  | 0.0008955  | 0.0008955  |   0.0 |  0.70
Output  | 0.00072694 | 0.00072694 | 0.00072694 |   0.0 |  0.57
Modify  | 0          | 0          | 0          |   0.0 |  0.00
Other   |            | 0.0009356  |            |       |  0.73

Nlocal:    575 ave 575 max 575 min
Histogram: 1 0 0 0 0 0 0 0 0 0
Nghost:    2124 ave 2124 max 2124 min
Histogram: 1 0 0 0 0 0 0 0 0 0
Neighs:    38458 ave 38458 max 38458 min
Histogram: 1 0 0 0 0 0 0 0 0 0

Total # of neighbors = 38458
Ave neighs/atom = 66.8835
Neighbor list builds = 0
Dangerous builds = 0

# Obtain new stress tensor

variable tmp equal pe
variable e1 equal ${tmp}
variable e1 equal -1931.29258353023
variable tmp equal press
variable p1 equal ${tmp}
variable p1 equal -1.73253167534599
variable tmp equal pxx
variable pxx1 equal ${tmp}
variable pxx1 equal -1.96868246884539
variable tmp equal pyy
variable pyy1 equal ${tmp}
variable pyy1 equal -0.764703089087866
variable tmp equal pzz
variable pzz1 equal ${tmp}
variable pzz1 equal -2.4642094681047
variable tmp equal pxy
variable pxy1 equal ${tmp}
variable pxy1 equal -0.315442126626099
variable tmp equal pxz
variable pxz1 equal ${tmp}
variable pxz1 equal -1.14998468607681e-11
variable tmp equal pyz
variable pyz1 equal ${tmp}
variable pyz1 equal 8.07827025636074e-12

# Compute elastic constant from pressure tensor

variable C1pos equal ${d1}
variable C1pos equal 8.646030097472
variable C2pos equal ${d2}
variable C2pos equal 4.2399360892284
variable C3pos equal ${d3}
variable C3pos equal 3.62131586869303
variable C4pos equal ${d4}
variable C4pos equal -2.25077403212424e-07
variable C5pos equal ${d5}
variable C5pos equal 2.99738484220981e-07
variable C6pos equal ${d6}
variable C6pos equal 31.5442126631012

# Combine positive and negative

variable C1${dir} equal 0.5*(${C1neg}+${C1pos})
variable C16 equal 0.5*(${C1neg}+${C1pos})
variable C16 equal 0.5*(-8.64603009982998+${C1pos})
variable C16 equal 0.5*(-8.64603009982998+8.646030097472)
variable C2${dir} equal 0.5*(${C2neg}+${C2pos})
variable C26 equal 0.5*(${C2neg}+${C2pos})
variable C26 equal 0.5*(-4.2399360883698+${C2pos})
variable C26 equal 0.5*(-4.2399360883698+4.2399360892284)
variable C3${dir} equal 0.5*(${C3neg}+${C3pos})
variable C36 equal 0.5*(${C3neg}+${C3pos})
variable C36 equal 0.5*(-3.62131586963499+${C3pos})
variable C36 equal 0.5*(-3.62131586963499+3.62131586869303)
variable C4${dir} equal 0.5*(${C4neg}+${C4pos})
variable C46 equal 0.5*(${C4neg}+${C4pos})
variable C46 equal 0.5*(2.25754042664648e-07+${C4pos})
variable C46 equal 0.5*(2.25754042664648e-07+-2.25077403212424e-07)
variable C5${dir} equal 0.5*(${C5neg}+${C5pos})
variable C56 equal 0.5*(${C5neg}+${C5pos})
variable C56 equal 0.5*(-2.9945005764114e-07+${C5pos})
variable C56 equal 0.5*(-2.9945005764114e-07+2.99738484220981e-07)
variable C6${dir} equal 0.5*(${C6neg}+${C6pos})
variable C66 equal 0.5*(${C6neg}+${C6pos})
variable C66 equal 0.5*(31.5442126607025+${C6pos})
variable C66 equal 0.5*(31.5442126607025+31.5442126631012)

# Delete dir to make sure it is not reused

variable dir delete

# Output final values

variable C11all equal ${C11}
variable C11all equal 116.727096211811
variable C22all equal ${C22}
variable C22all equal 116.72607548246
variable C33all equal ${C33}
variable C33all equal 116.724585187151

variable C12all equal 0.5*(${C12}+${C21})
variable C12all equal 0.5*(60.228323818476+${C21})
variable C12all equal 0.5*(60.228323818476+60.2284437452542)
variable C13all equal 0.5*(${C13}+${C31})
variable C13all equal 0.5*(60.2276720453515+${C31})
variable C13all equal 0.5*(60.2276720453515+60.227622532911)
variable C23all equal 0.5*(${C23}+${C32})
variable C23all equal 0.5*(60.2267084756972+${C32})
variable C23all equal 0.5*(60.2267084756972+60.2265390752745)

variable C44all equal ${C44}
variable C44all equal 31.5434812587364
variable C55all equal ${C55}
variable C55all equal 31.5437106544377
variable C66all equal ${C66}
variable C66all equal 31.5442126619018

variable C14all equal 0.5*(${C14}+${C41})
variable C14all equal 0.5*(8.32989677235219e-10+${C41})
variable C14all equal 0.5*(8.32989677235219e-10+8.3573846817001e-10)
variable C15all equal 0.5*(${C15}+${C51})
variable C15all equal 0.5*(-3.34896554932129e-11+${C51})
variable C15all equal 0.5*(-3.34896554932129e-11+5.57315080827511e-10)
variable C16all equal 0.5*(${C16}+${C61})
variable C16all equal 0.5*(-1.17899023877044e-09+${C61})
variable C16all equal 0.5*(-1.17899023877044e-09+5.28471770626904e-10)

variable C24all equal 0.5*(${C24}+${C42})
variable C24all equal 0.5*(1.30164989897708e-09+${C42})
variable C24all equal 0.5*(1.30164989897708e-09+-8.35737628476008e-10)
variable C25all equal 0.5*(${C25}+${C52})
variable C25all equal 0.5*(-1.18494503098532e-09+${C52})
variable C25all equal 0.5*(-1.18494503098532e-09+-2.33533634172007e-10)
variable C26all equal 0.5*(${C26}+${C62})
variable C26all equal 0.5*(4.29300150983636e-10+${C62})
variable C26all equal 0.5*(4.29300150983636e-10+-2.41906828049623e-10)

variable C34all equal 0.5*(${C34}+${C43})
variable C34all equal 0.5*(1.53350998566282e-09+${C43})
variable C34all equal 0.5*(1.53350998566282e-09+2.98544863733494e-10)
variable C35all equal 0.5*(${C35}+${C53})
variable C35all equal 0.5*(3.58510110487487e-10+${C53})
variable C35all equal 0.5*(3.58510110487487e-10+-6.36399389058007e-10)
variable C36all equal 0.5*(${C36}+${C63})
variable C36all equal 0.5*(-4.70979921729509e-10+${C63})
variable C36all equal 0.5*(-4.70979921729509e-10+-1.77707914152209e-10)

variable C45all equal 0.5*(${C45}+${C54})
variable C45all equal 0.5*(2.91915611049961e-11+${C54})
variable C45all equal 0.5*(2.91915611049961e-11+4.48456811237009e-10)
variable C46all equal 0.5*(${C46}+${C64})
variable C46all equal 0.5*(3.38319726111998e-10+${C64})
variable C46all equal 0.5*(3.38319726111998e-10+-2.3632371380543e-10)
variable C56all equal 0.5*(${C56}+${C65})
variable C56all equal 0.5*(1.44213289920514e-10+${C65})
variable C56all equal 0.5*(1.44213289920514e-10+-6.31747250684591e-10)

# For Stillinger-Weber silicon, the analytical results
# are known to be (E. R. Cowley, 1988):
#               C11 = 151.4 GPa
#               C12 = 76.4 GPa
#               C44 = 56.4 GPa

print "Elastic Constant C11all = ${C11all} ${cunits}"
Elastic Constant C11all = 116.727096211811 GPa
print "Elastic Constant C22all = ${C22all} ${cunits}"
Elastic Constant C22all = 116.72607548246 GPa
print "Elastic Constant C33all = ${C33all} ${cunits}"
Elastic Constant C33all = 116.724585187151 GPa

print "Elastic Constant C12all = ${C12all} ${cunits}"
Elastic Constant C12all = 60.2283837818651 GPa
print "Elastic Constant C13all = ${C13all} ${cunits}"
Elastic Constant C13all = 60.2276472891312 GPa
print "Elastic Constant C23all = ${C23all} ${cunits}"
Elastic Constant C23all = 60.2266237754858 GPa

print "Elastic Constant C44all = ${C44all} ${cunits}"
Elastic Constant C44all = 31.5434812587364 GPa
print "Elastic Constant C55all = ${C55all} ${cunits}"
Elastic Constant C55all = 31.5437106544377 GPa
print "Elastic Constant C66all = ${C66all} ${cunits}"
Elastic Constant C66all = 31.5442126619018 GPa

print "Elastic Constant C14all = ${C14all} ${cunits}"
Elastic Constant C14all = 8.34364072702614e-10 GPa
print "Elastic Constant C15all = ${C15all} ${cunits}"
Elastic Constant C15all = 2.61912712667149e-10 GPa
print "Elastic Constant C16all = ${C16all} ${cunits}"
Elastic Constant C16all = -3.25259234071768e-10 GPa

print "Elastic Constant C24all = ${C24all} ${cunits}"
Elastic Constant C24all = 2.32956135250536e-10 GPa
print "Elastic Constant C25all = ${C25all} ${cunits}"
Elastic Constant C25all = -7.09239332578664e-10 GPa
print "Elastic Constant C26all = ${C26all} ${cunits}"
Elastic Constant C26all = 9.36966614670065e-11 GPa

print "Elastic Constant C34all = ${C34all} ${cunits}"
Elastic Constant C34all = 9.16027424698157e-10 GPa
print "Elastic Constant C35all = ${C35all} ${cunits}"
Elastic Constant C35all = -1.3894463928526e-10 GPa
print "Elastic Constant C36all = ${C36all} ${cunits}"
Elastic Constant C36all = -3.24343917940859e-10 GPa

print "Elastic Constant C45all = ${C45all} ${cunits}"
Elastic Constant C45all = 2.38824186171003e-10 GPa
print "Elastic Constant C46all = ${C46all} ${cunits}"
Elastic Constant C46all = 5.0998006153284e-11 GPa
print "Elastic Constant C56all = ${C56all} ${cunits}"
Elastic Constant C56all = -2.43766980382039e-10 GPa

Total wall time: 0:00:06
