       N       E                     dE             d eps       ncg     rms          rms(c)
DAV:   1     0.811855064769E+01    0.81186E+01   -0.34090E+03  2640   0.840E+02
DAV:   2    -0.820714802013E+01   -0.16326E+02   -0.15763E+02  4048   0.792E+01
DAV:   3    -0.841389010316E+01   -0.20674E+00   -0.20674E+00  3568   0.113E+01
DAV:   4    -0.841478098945E+01   -0.89089E-03   -0.89089E-03  4232   0.805E-01
DAV:   5    -0.841478171198E+01   -0.72254E-06   -0.72217E-06  3600   0.202E-02    0.374E+00
DAV:   6    -0.836150194519E+01    0.53280E-01   -0.88838E-02  3128   0.176E+00    0.229E+00
DAV:   7    -0.835619512181E+01    0.53068E-02   -0.20254E-01  3504   0.263E+00    0.186E-01
DAV:   8    -0.833944457886E+01    0.16751E-01   -0.61616E-03  3216   0.544E-01    0.982E-02
DAV:   9    -0.834109954138E+01   -0.16550E-02   -0.59277E-04  3848   0.163E-01    0.731E-02
DAV:  10    -0.834040072838E+01    0.69881E-03   -0.39311E-05  3296   0.535E-02    0.302E-02
DAV:  11    -0.834036778305E+01    0.32945E-04   -0.85754E-07  3840   0.847E-03    0.309E-03
DAV:  12    -0.834036666478E+01    0.11183E-05   -0.70014E-08  3280   0.264E-03    0.929E-04
DAV:  13    -0.834036339028E+01    0.32745E-05   -0.23794E-09  1936   0.452E-04    0.611E-05
DAV:  14    -0.834036312605E+01    0.26423E-06   -0.25413E-10  1664   0.172E-04    0.223E-05
DAV:  15    -0.834036288508E+01    0.24097E-06   -0.24643E-11  1600   0.448E-05    0.101E-05
DAV:  16    -0.834036293450E+01   -0.49421E-07   -0.51073E-12  1512   0.205E-05
   1 F= -.83403629E+01 E0= -.83403482E+01  d E =-.834036E+01
