<?xml version="1.0" encoding="ISO-8859-1"?>
<modeling>
 <generator>
  <i name="program" type="string">vasp </i>
  <i name="version" type="string">5.3.3  </i>
  <i name="subversion" type="string">18Dez12 (build Jan 30 2013 10:57:47) complex                          parallel </i>
  <i name="platform" type="string">LinuxIFC </i>
  <i name="date" type="string">2016 06 21 </i>
  <i name="time" type="string">14:31:48 </i>
 </generator>
 <incar>
  <i type="string" name="PREC">accurate</i>
  <i type="int" name="NELM">   400</i>
  <i type="int" name="IBRION">     2</i>
  <i name="EDIFF">      0.00000010</i>
  <i type="int" name="NSW">     1</i>
  <i name="ENCUT">    550.00000000</i>
  <i type="int" name="ISMEAR">     0</i>
  <i type="logical" name="LWAVE"> F  </i>
  <i type="logical" name="LCHARG"> F  </i>
  <i type="int" name="NELM">   400</i>
  <i type="string" name="GGA"> BO</i>
  <i name="PARAM1">      0.18333333</i>
  <i name="PARAM2">      0.22000000</i>
  <i type="logical" name="LUSE_VDW"> T  </i>
  <i name="AGGAC">      0.00000000</i>
 </incar>
 <kpoints>
  <generation param="Gamma">
   <v type="int" name="divisions">      17       17       17 </v>
   <v name="usershift">      0.00000000       0.00000000       0.00000000 </v>
   <v name="genvec1">      0.05882353       0.00000000       0.00000000 </v>
   <v name="genvec2">      0.00000000       0.05882353       0.00000000 </v>
   <v name="genvec3">      0.00000000       0.00000000       0.05882353 </v>
   <v name="shift">      0.00000000       0.00000000       0.00000000 </v>
  </generation>
  <varray name="kpointlist" >
   <v>       0.00000000       0.00000000       0.00000000 </v>
   <v>       0.05882353       0.00000000       0.00000000 </v>
   <v>       0.11764706       0.00000000       0.00000000 </v>
   <v>       0.17647059       0.00000000       0.00000000 </v>
   <v>       0.23529412       0.00000000       0.00000000 </v>
   <v>       0.29411765       0.00000000       0.00000000 </v>
   <v>       0.35294118       0.00000000       0.00000000 </v>
   <v>       0.41176471       0.00000000       0.00000000 </v>
   <v>       0.47058824       0.00000000       0.00000000 </v>
   <v>       0.05882353       0.05882353       0.00000000 </v>
   <v>       0.11764706       0.05882353       0.00000000 </v>
   <v>       0.17647059       0.05882353       0.00000000 </v>
   <v>       0.23529412       0.05882353       0.00000000 </v>
   <v>       0.29411765       0.05882353       0.00000000 </v>
   <v>       0.35294118       0.05882353       0.00000000 </v>
   <v>       0.41176471       0.05882353       0.00000000 </v>
   <v>       0.47058824       0.05882353       0.00000000 </v>
   <v>      -0.47058824       0.05882353       0.00000000 </v>
   <v>      -0.41176471       0.05882353       0.00000000 </v>
   <v>      -0.35294118       0.05882353       0.00000000 </v>
   <v>      -0.29411765       0.05882353       0.00000000 </v>
   <v>      -0.23529412       0.05882353       0.00000000 </v>
   <v>      -0.17647059       0.05882353       0.00000000 </v>
   <v>      -0.11764706       0.05882353       0.00000000 </v>
   <v>      -0.05882353       0.05882353       0.00000000 </v>
   <v>       0.11764706       0.11764706       0.00000000 </v>
   <v>       0.17647059       0.11764706       0.00000000 </v>
   <v>       0.23529412       0.11764706       0.00000000 </v>
   <v>       0.29411765       0.11764706       0.00000000 </v>
   <v>       0.35294118       0.11764706       0.00000000 </v>
   <v>       0.41176471       0.11764706       0.00000000 </v>
   <v>       0.47058824       0.11764706       0.00000000 </v>
   <v>      -0.47058824       0.11764706       0.00000000 </v>
   <v>      -0.41176471       0.11764706       0.00000000 </v>
   <v>      -0.35294118       0.11764706       0.00000000 </v>
   <v>      -0.29411765       0.11764706       0.00000000 </v>
   <v>      -0.23529412       0.11764706       0.00000000 </v>
   <v>      -0.17647059       0.11764706       0.00000000 </v>
   <v>      -0.11764706       0.11764706       0.00000000 </v>
   <v>       0.17647059       0.17647059       0.00000000 </v>
   <v>       0.23529412       0.17647059       0.00000000 </v>
   <v>       0.29411765       0.17647059       0.00000000 </v>
   <v>       0.35294118       0.17647059       0.00000000 </v>
   <v>       0.41176471       0.17647059       0.00000000 </v>
   <v>       0.47058824       0.17647059       0.00000000 </v>
   <v>      -0.47058824       0.17647059       0.00000000 </v>
   <v>      -0.41176471       0.17647059       0.00000000 </v>
   <v>      -0.35294118       0.17647059       0.00000000 </v>
   <v>      -0.29411765       0.17647059       0.00000000 </v>
   <v>      -0.23529412       0.17647059       0.00000000 </v>
   <v>      -0.17647059       0.17647059       0.00000000 </v>
   <v>       0.23529412       0.23529412       0.00000000 </v>
   <v>       0.29411765       0.23529412       0.00000000 </v>
   <v>       0.35294118       0.23529412       0.00000000 </v>
   <v>       0.41176471       0.23529412       0.00000000 </v>
   <v>       0.47058824       0.23529412       0.00000000 </v>
   <v>      -0.47058824       0.23529412       0.00000000 </v>
   <v>      -0.41176471       0.23529412       0.00000000 </v>
   <v>      -0.35294118       0.23529412       0.00000000 </v>
   <v>      -0.29411765       0.23529412       0.00000000 </v>
   <v>      -0.23529412       0.23529412       0.00000000 </v>
   <v>       0.29411765       0.29411765       0.00000000 </v>
   <v>       0.35294118       0.29411765       0.00000000 </v>
   <v>       0.41176471       0.29411765       0.00000000 </v>
   <v>       0.47058824       0.29411765       0.00000000 </v>
   <v>      -0.47058824       0.29411765       0.00000000 </v>
   <v>      -0.41176471       0.29411765       0.00000000 </v>
   <v>      -0.35294118       0.29411765       0.00000000 </v>
   <v>      -0.29411765       0.29411765       0.00000000 </v>
   <v>       0.35294118       0.35294118       0.00000000 </v>
   <v>       0.41176471       0.35294118       0.00000000 </v>
   <v>       0.47058824       0.35294118       0.00000000 </v>
   <v>      -0.47058824       0.35294118       0.00000000 </v>
   <v>      -0.41176471       0.35294118       0.00000000 </v>
   <v>      -0.35294118       0.35294118       0.00000000 </v>
   <v>       0.41176471       0.41176471       0.00000000 </v>
   <v>       0.47058824       0.41176471       0.00000000 </v>
   <v>      -0.47058824       0.41176471       0.00000000 </v>
   <v>      -0.41176471       0.41176471       0.00000000 </v>
   <v>       0.47058824       0.47058824       0.00000000 </v>
   <v>      -0.47058824       0.47058824       0.00000000 </v>
   <v>       0.17647059       0.11764706       0.05882353 </v>
   <v>       0.23529412       0.11764706       0.05882353 </v>
   <v>       0.29411765       0.11764706       0.05882353 </v>
   <v>       0.35294118       0.11764706       0.05882353 </v>
   <v>       0.41176471       0.11764706       0.05882353 </v>
   <v>       0.47058824       0.11764706       0.05882353 </v>
   <v>      -0.47058824       0.11764706       0.05882353 </v>
   <v>       0.23529412       0.17647059       0.05882353 </v>
   <v>       0.29411765       0.17647059       0.05882353 </v>
   <v>       0.35294118       0.17647059       0.05882353 </v>
   <v>       0.41176471       0.17647059       0.05882353 </v>
   <v>       0.47058824       0.17647059       0.05882353 </v>
   <v>      -0.47058824       0.17647059       0.05882353 </v>
   <v>      -0.41176471       0.17647059       0.05882353 </v>
   <v>      -0.35294118       0.17647059       0.05882353 </v>
   <v>      -0.29411765       0.17647059       0.05882353 </v>
   <v>      -0.23529412       0.17647059       0.05882353 </v>
   <v>      -0.17647059       0.17647059       0.05882353 </v>
   <v>      -0.11764706       0.17647059       0.05882353 </v>
   <v>       0.29411765       0.23529412       0.05882353 </v>
   <v>       0.35294118       0.23529412       0.05882353 </v>
   <v>       0.41176471       0.23529412       0.05882353 </v>
   <v>       0.47058824       0.23529412       0.05882353 </v>
   <v>      -0.47058824       0.23529412       0.05882353 </v>
   <v>      -0.41176471       0.23529412       0.05882353 </v>
   <v>      -0.35294118       0.23529412       0.05882353 </v>
   <v>      -0.29411765       0.23529412       0.05882353 </v>
   <v>      -0.23529412       0.23529412       0.05882353 </v>
   <v>      -0.17647059       0.23529412       0.05882353 </v>
   <v>       0.35294118       0.29411765       0.05882353 </v>
   <v>       0.41176471       0.29411765       0.05882353 </v>
   <v>       0.47058824       0.29411765       0.05882353 </v>
   <v>      -0.47058824       0.29411765       0.05882353 </v>
   <v>      -0.41176471       0.29411765       0.05882353 </v>
   <v>      -0.35294118       0.29411765       0.05882353 </v>
   <v>      -0.29411765       0.29411765       0.05882353 </v>
   <v>      -0.23529412       0.29411765       0.05882353 </v>
   <v>       0.41176471       0.35294118       0.05882353 </v>
   <v>       0.47058824       0.35294118       0.05882353 </v>
   <v>      -0.47058824       0.35294118       0.05882353 </v>
   <v>      -0.41176471       0.35294118       0.05882353 </v>
   <v>      -0.35294118       0.35294118       0.05882353 </v>
   <v>      -0.29411765       0.35294118       0.05882353 </v>
   <v>       0.47058824       0.41176471       0.05882353 </v>
   <v>      -0.47058824       0.41176471       0.05882353 </v>
   <v>      -0.41176471       0.41176471       0.05882353 </v>
   <v>      -0.35294118       0.41176471       0.05882353 </v>
   <v>      -0.47058824       0.47058824       0.05882353 </v>
   <v>      -0.41176471       0.47058824       0.05882353 </v>
   <v>       0.35294118       0.23529412       0.11764706 </v>
   <v>       0.41176471       0.23529412       0.11764706 </v>
   <v>       0.47058824       0.23529412       0.11764706 </v>
   <v>      -0.47058824       0.23529412       0.11764706 </v>
   <v>      -0.41176471       0.23529412       0.11764706 </v>
   <v>       0.41176471       0.29411765       0.11764706 </v>
   <v>       0.47058824       0.29411765       0.11764706 </v>
   <v>      -0.47058824       0.29411765       0.11764706 </v>
   <v>      -0.41176471       0.29411765       0.11764706 </v>
   <v>      -0.35294118       0.29411765       0.11764706 </v>
   <v>      -0.29411765       0.29411765       0.11764706 </v>
   <v>      -0.23529412       0.29411765       0.11764706 </v>
   <v>      -0.17647059       0.29411765       0.11764706 </v>
   <v>       0.47058824       0.35294118       0.11764706 </v>
   <v>      -0.47058824       0.35294118       0.11764706 </v>
   <v>      -0.41176471       0.35294118       0.11764706 </v>
   <v>      -0.35294118       0.35294118       0.11764706 </v>
   <v>      -0.29411765       0.35294118       0.11764706 </v>
   <v>      -0.23529412       0.35294118       0.11764706 </v>
   <v>      -0.47058824       0.41176471       0.11764706 </v>
   <v>      -0.41176471       0.41176471       0.11764706 </v>
   <v>      -0.35294118       0.41176471       0.11764706 </v>
   <v>      -0.29411765       0.41176471       0.11764706 </v>
   <v>      -0.41176471       0.47058824       0.11764706 </v>
   <v>      -0.35294118       0.47058824       0.11764706 </v>
   <v>      -0.47058824       0.35294118       0.17647059 </v>
   <v>      -0.41176471       0.35294118       0.17647059 </v>
   <v>      -0.35294118       0.35294118       0.17647059 </v>
   <v>      -0.41176471       0.41176471       0.17647059 </v>
   <v>      -0.35294118       0.41176471       0.17647059 </v>
   <v>      -0.29411765       0.41176471       0.17647059 </v>
   <v>      -0.23529412       0.41176471       0.17647059 </v>
   <v>      -0.35294118       0.47058824       0.17647059 </v>
   <v>      -0.29411765       0.47058824       0.17647059 </v>
   <v>      -0.29411765       0.47058824       0.23529412 </v>
  </varray>
  <varray name="weights" >
   <v>       0.00020354 </v>
   <v>       0.00162833 </v>
   <v>       0.00162833 </v>
   <v>       0.00162833 </v>
   <v>       0.00162833 </v>
   <v>       0.00162833 </v>
   <v>       0.00162833 </v>
   <v>       0.00162833 </v>
   <v>       0.00162833 </v>
   <v>       0.00122125 </v>
   <v>       0.00488500 </v>
   <v>       0.00488500 </v>
   <v>       0.00488500 </v>
   <v>       0.00488500 </v>
   <v>       0.00488500 </v>
   <v>       0.00488500 </v>
   <v>       0.00488500 </v>
   <v>       0.00488500 </v>
   <v>       0.00488500 </v>
   <v>       0.00488500 </v>
   <v>       0.00488500 </v>
   <v>       0.00488500 </v>
   <v>       0.00488500 </v>
   <v>       0.00488500 </v>
   <v>       0.00244250 </v>
   <v>       0.00122125 </v>
   <v>       0.00488500 </v>
   <v>       0.00488500 </v>
   <v>       0.00488500 </v>
   <v>       0.00488500 </v>
   <v>       0.00488500 </v>
   <v>       0.00488500 </v>
   <v>       0.00488500 </v>
   <v>       0.00488500 </v>
   <v>       0.00488500 </v>
   <v>       0.00488500 </v>
   <v>       0.00488500 </v>
   <v>       0.00488500 </v>
   <v>       0.00244250 </v>
   <v>       0.00122125 </v>
   <v>       0.00488500 </v>
   <v>       0.00488500 </v>
   <v>       0.00488500 </v>
   <v>       0.00488500 </v>
   <v>       0.00488500 </v>
   <v>       0.00488500 </v>
   <v>       0.00488500 </v>
   <v>       0.00488500 </v>
   <v>       0.00488500 </v>
   <v>       0.00488500 </v>
   <v>       0.00244250 </v>
   <v>       0.00122125 </v>
   <v>       0.00488500 </v>
   <v>       0.00488500 </v>
   <v>       0.00488500 </v>
   <v>       0.00488500 </v>
   <v>       0.00488500 </v>
   <v>       0.00488500 </v>
   <v>       0.00488500 </v>
   <v>       0.00488500 </v>
   <v>       0.00244250 </v>
   <v>       0.00122125 </v>
   <v>       0.00488500 </v>
   <v>       0.00488500 </v>
   <v>       0.00488500 </v>
   <v>       0.00488500 </v>
   <v>       0.00488500 </v>
   <v>       0.00488500 </v>
   <v>       0.00244250 </v>
   <v>       0.00122125 </v>
   <v>       0.00488500 </v>
   <v>       0.00488500 </v>
   <v>       0.00488500 </v>
   <v>       0.00488500 </v>
   <v>       0.00244250 </v>
   <v>       0.00122125 </v>
   <v>       0.00488500 </v>
   <v>       0.00488500 </v>
   <v>       0.00244250 </v>
   <v>       0.00122125 </v>
   <v>       0.00244250 </v>
   <v>       0.00488500 </v>
   <v>       0.00977000 </v>
   <v>       0.00977000 </v>
   <v>       0.00977000 </v>
   <v>       0.00977000 </v>
   <v>       0.00977000 </v>
   <v>       0.00977000 </v>
   <v>       0.00488500 </v>
   <v>       0.00977000 </v>
   <v>       0.00977000 </v>
   <v>       0.00977000 </v>
   <v>       0.00977000 </v>
   <v>       0.00977000 </v>
   <v>       0.00977000 </v>
   <v>       0.00977000 </v>
   <v>       0.00977000 </v>
   <v>       0.00977000 </v>
   <v>       0.00977000 </v>
   <v>       0.00488500 </v>
   <v>       0.00488500 </v>
   <v>       0.00977000 </v>
   <v>       0.00977000 </v>
   <v>       0.00977000 </v>
   <v>       0.00977000 </v>
   <v>       0.00977000 </v>
   <v>       0.00977000 </v>
   <v>       0.00977000 </v>
   <v>       0.00977000 </v>
   <v>       0.00488500 </v>
   <v>       0.00488500 </v>
   <v>       0.00977000 </v>
   <v>       0.00977000 </v>
   <v>       0.00977000 </v>
   <v>       0.00977000 </v>
   <v>       0.00977000 </v>
   <v>       0.00977000 </v>
   <v>       0.00488500 </v>
   <v>       0.00488500 </v>
   <v>       0.00977000 </v>
   <v>       0.00977000 </v>
   <v>       0.00977000 </v>
   <v>       0.00977000 </v>
   <v>       0.00488500 </v>
   <v>       0.00488500 </v>
   <v>       0.00977000 </v>
   <v>       0.00977000 </v>
   <v>       0.00488500 </v>
   <v>       0.00488500 </v>
   <v>       0.00488500 </v>
   <v>       0.00488500 </v>
   <v>       0.00977000 </v>
   <v>       0.00977000 </v>
   <v>       0.00977000 </v>
   <v>       0.00977000 </v>
   <v>       0.00488500 </v>
   <v>       0.00977000 </v>
   <v>       0.00977000 </v>
   <v>       0.00977000 </v>
   <v>       0.00977000 </v>
   <v>       0.00977000 </v>
   <v>       0.00977000 </v>
   <v>       0.00488500 </v>
   <v>       0.00488500 </v>
   <v>       0.00977000 </v>
   <v>       0.00977000 </v>
   <v>       0.00977000 </v>
   <v>       0.00977000 </v>
   <v>       0.00488500 </v>
   <v>       0.00488500 </v>
   <v>       0.00977000 </v>
   <v>       0.00977000 </v>
   <v>       0.00488500 </v>
   <v>       0.00488500 </v>
   <v>       0.00488500 </v>
   <v>       0.00488500 </v>
   <v>       0.00977000 </v>
   <v>       0.00977000 </v>
   <v>       0.00488500 </v>
   <v>       0.00977000 </v>
   <v>       0.00977000 </v>
   <v>       0.00488500 </v>
   <v>       0.00488500 </v>
   <v>       0.00488500 </v>
   <v>       0.00488500 </v>
  </varray>
 </kpoints>
 <parameters>
  <separator name="general" >
   <i type="string" name="SYSTEM">unknown system</i>
   <i type="logical" name="LCOMPAT"> F  </i>
  </separator>
  <separator name="electronic" >
   <i type="string" name="PREC">accura</i>
   <i name="ENMAX">    550.00000000</i>
   <i name="ENAUG">    322.06900000</i>
   <i name="EDIFF">      0.00000010</i>
   <i type="int" name="IALGO">    38</i>
   <i type="int" name="IWAVPR">    11</i>
   <i type="int" name="NBANDS">     8</i>
   <i name="NELECT">      8.00000000</i>
   <i type="int" name="TURBO">     0</i>
   <i type="int" name="IRESTART">     0</i>
   <i type="int" name="NREBOOT">     0</i>
   <i type="int" name="NMIN">     0</i>
   <i name="EREF">      0.00000000</i>
   <separator name="electronic smearing" >
    <i type="int" name="ISMEAR">     0</i>
    <i name="SIGMA">      0.20000000</i>
    <i name="KSPACING">      0.50000000</i>
    <i type="logical" name="KGAMMA"> T  </i>
   </separator>
   <separator name="electronic projectors" >
    <i type="logical" name="LREAL"> F  </i>
    <v name="ROPT">      0.00000000</v>
    <i type="int" name="LMAXPAW">  -100</i>
    <i type="int" name="LMAXMIX">     2</i>
    <i type="logical" name="NLSPLINE"> F  </i>
   </separator>
   <separator name="electronic startup" >
    <i type="int" name="ISTART">     0</i>
    <i type="int" name="ICHARG">     2</i>
    <i type="int" name="INIWAV">     1</i>
   </separator>
   <separator name="electronic spin" >
    <i type="int" name="ISPIN">     1</i>
    <i type="logical" name="LNONCOLLINEAR"> F  </i>
    <v name="MAGMOM">      1.00000000      1.00000000</v>
    <i name="NUPDOWN">     -1.00000000</i>
    <i type="logical" name="LSORBIT"> F  </i>
    <v name="SAXIS">      0.00000000      0.00000000      1.00000000</v>
    <i type="logical" name="LSPIRAL"> F  </i>
    <v name="QSPIRAL">      0.00000000      0.00000000      0.00000000</v>
    <i type="logical" name="LZEROZ"> F  </i>
   </separator>
   <separator name="electronic exchange-correlation" >
    <i type="logical" name="LASPH"> F  </i>
    <i type="logical" name="LMETAGGA"> F  </i>
   </separator>
   <separator name="electronic convergence" >
    <i type="int" name="NELM">   400</i>
    <i type="int" name="NELMDL">    -5</i>
    <i type="int" name="NELMIN">     2</i>
    <i name="ENINI">    550.00000000</i>
    <separator name="electronic convergence detail" >
     <i type="logical" name="LDIAG"> T  </i>
     <i type="logical" name="LSUBROT"> T  </i>
     <i name="WEIMIN">      0.00100000</i>
     <i name="EBREAK">      0.00000000</i>
     <i name="DEPER">      0.30000000</i>
     <i type="int" name="NRMM">     4</i>
     <i name="TIME">      0.40000000</i>
    </separator>
   </separator>
   <separator name="electronic mixer" >
    <i name="AMIX">      0.40000000</i>
    <i name="BMIX">      1.00000000</i>
    <i name="AMIN">      0.10000000</i>
    <i name="AMIX_MAG">      1.60000000</i>
    <i name="BMIX_MAG">      1.00000000</i>
    <separator name="electronic mixer details" >
     <i type="int" name="IMIX">     4</i>
     <i type="int" name="MAXMIX">   -45</i>
     <i name="WC">    100.00000000</i>
     <i type="int" name="INIMIX">     1</i>
     <i type="int" name="MIXPRE">     1</i>
     <i type="int" name="MREMOVE">     5</i>
    </separator>
   </separator>
   <separator name="electronic dipolcorrection" >
    <i type="logical" name="LDIPOL"> F  </i>
    <i type="logical" name="LMONO"> F  </i>
    <i type="int" name="IDIPOL">     0</i>
    <i name="EPSILON">      1.00000000</i>
    <v name="DIPOL">   -100.00000000   -100.00000000   -100.00000000</v>
    <i name="EFIELD">      0.00000000</i>
   </separator>
  </separator>
  <separator name="grids" >
   <i type="int" name="NGX">    30</i>
   <i type="int" name="NGY">    30</i>
   <i type="int" name="NGZ">    30</i>
   <i type="int" name="NGXF">    60</i>
   <i type="int" name="NGYF">    60</i>
   <i type="int" name="NGZF">    60</i>
   <i type="logical" name="ADDGRID"> F  </i>
  </separator>
  <separator name="ionic" >
   <i type="int" name="NSW">     1</i>
   <i type="int" name="IBRION">     2</i>
   <i type="int" name="ISIF">     2</i>
   <i name="PSTRESS">      0.00000000</i>
   <i name="EDIFFG">      0.00000100</i>
   <i type="int" name="NFREE">     1</i>
   <i name="POTIM">      0.50000000</i>
   <i name="SMASS">     -3.00000000</i>
   <i name="SCALEE">      1.00000000</i>
  </separator>
  <separator name="ionic md" >
   <i name="TEBEG">      0.00010000</i>
   <i name="TEEND">      0.00010000</i>
   <i type="int" name="NBLOCK">     1</i>
   <i type="int" name="KBLOCK">     1</i>
   <i type="int" name="NPACO">   256</i>
   <i name="APACO">     16.00000000</i>
  </separator>
  <separator name="symmetry" >
   <i type="int" name="ISYM">     2</i>
   <i name="SYMPREC">      0.00001000</i>
  </separator>
  <separator name="dos" >
   <i type="logical" name="LORBIT"> F  </i>
   <v name="RWIGS">     -1.00000000</v>
   <i type="int" name="NEDOS">   301</i>
   <i name="EMIN">     10.00000000</i>
   <i name="EMAX">    -10.00000000</i>
   <i name="EFERMI">      0.00000000</i>
  </separator>
  <separator name="writing" >
   <i type="int" name="NWRITE">     2</i>
   <i type="logical" name="LWAVE"> F  </i>
   <i type="logical" name="LCHARG"> F  </i>
   <i type="logical" name="LPARD"> F  </i>
   <i type="logical" name="LVTOT"> F  </i>
   <i type="logical" name="LVHAR"> F  </i>
   <i type="logical" name="LELF"> F  </i>
   <i type="logical" name="LOPTICS"> F  </i>
   <v name="STM">      0.00000000      0.00000000      0.00000000      0.00000000      0.00000000      0.00000000      0.00000000</v>
  </separator>
  <separator name="performance" >
   <i type="int" name="NPAR">     4</i>
   <i type="int" name="NSIM">     4</i>
   <i type="int" name="NBLK">    -1</i>
   <i type="logical" name="LPLANE"> T  </i>
   <i type="logical" name="LSCALAPACK"> F  </i>
   <i type="logical" name="LSCAAWARE"> F  </i>
   <i type="logical" name="LSCALU"> F  </i>
   <i type="logical" name="LASYNC"> F  </i>
   <i type="logical" name="LORBITALREAL"> F  </i>
  </separator>
  <separator name="miscellaneous" >
   <i type="int" name="IDIOT">     3</i>
   <i type="logical" name="LMUSIC"> F  </i>
   <v name="POMASS">     28.08500000</v>
   <v name="DARWINR">      0.00000000</v>
   <v name="DARWINV">      1.00000000</v>
   <i type="logical" name="LCORR"> T  </i>
  </separator>
  <i type="logical" name="GGA_COMPAT"> T  </i>
  <i type="logical" name="LBERRY"> F  </i>
  <i type="int" name="ICORELEVEL">     0</i>
  <i type="logical" name="LDAU"> F  </i>
  <i type="int" name="I_CONSTRAINED_M">     0</i>
  <separator name="electronic exchange-correlation" >
   <i type="string" name="GGA">BO</i>
   <i type="int" name="VOSKOWN">     0</i>
   <i type="logical" name="LHFCALC"> F  </i>
   <i type="string" name="PRECFOCK"></i>
   <i type="logical" name="LSYMGRAD"> F  </i>
   <i type="logical" name="LHFONE"> F  </i>
   <i type="logical" name="LRHFCALC"> F  </i>
   <i type="logical" name="LTHOMAS"> F  </i>
   <i type="logical" name="LMODELHF"> F  </i>
   <i name="ENCUT4O">     -1.00000000</i>
   <i type="int" name="EXXOEP">     0</i>
   <i type="int" name="FOURORBIT">     0</i>
   <i name="AEXX">      0.00000000</i>
   <i name="HFALPHA">      0.00000000</i>
   <i name="MCALPHA">      0.00000000</i>
   <i name="ALDAX">      1.00000000</i>
   <i name="AGGAX">      1.00000000</i>
   <i name="ALDAC">      1.00000000</i>
   <i name="AGGAC">      0.00000000</i>
   <i type="int" name="NKREDX">     1</i>
   <i type="int" name="NKREDY">     1</i>
   <i type="int" name="NKREDZ">     1</i>
   <i type="logical" name="SHIFTRED"> F  </i>
   <i type="logical" name="ODDONLY"> F  </i>
   <i type="logical" name="EVENONLY"> F  </i>
   <i type="int" name="LMAXFOCK">     0</i>
   <i type="int" name="NMAXFOCKAE">     0</i>
   <i type="logical" name="LFOCKAEDFT"> F  </i>
   <i name="HFSCREEN">      0.00000000</i>
   <i name="HFSCREENC">      0.00000000</i>
   <i type="int" name="NBANDSGWLOW">     0</i>
  </separator>
  <separator name="vdW DFT" >
   <i type="logical" name="LUSE_VDW"> T  </i>
   <i name="Zab_VDW">     -0.84910000</i>
   <i name="PARAM1">      0.18333333</i>
   <i name="PARAM2">      0.22000000</i>
   <i name="PARAM3">      0.00000000</i>
  </separator>
  <separator name="model GW" >
   <i type="int" name="MODEL_GW">     0</i>
   <i name="MODEL_EPS0">     12.26648953</i>
   <i name="MODEL_ALPHA">      1.00000000</i>
  </separator>
  <separator name="linear response parameters" >
   <i type="logical" name="LEPSILON"> F  </i>
   <i type="logical" name="LRPA"> F  </i>
   <i type="logical" name="LNABLA"> F  </i>
   <i type="logical" name="LVEL"> F  </i>
   <i type="int" name="KINTER">     0</i>
   <i name="CSHIFT">      0.10000000</i>
   <i name="OMEGAMAX">     -1.00000000</i>
   <i name="DEG_THRESHOLD">      0.00200000</i>
  </separator>
  <separator name="orbital magnetization" >
   <i type="logical" name="NUCIND"> F  </i>
   <v name="MAGPOS">      0.00000000      0.00000000      0.00000000</v>
   <i type="logical" name="LNICSALL"> T  </i>
   <i type="logical" name="ORBITALMAG"> F  </i>
   <i type="logical" name="LMAGBLOCH"> F  </i>
   <i type="logical" name="LCHIMAG"> F  </i>
   <i type="logical" name="LGAUGE"> T  </i>
   <i type="int" name="MAGATOM">     0</i>
   <v name="MAGDIPOL">      0.00000000      0.00000000      0.00000000</v>
   <v name="AVECCONST">      0.00000000      0.00000000      0.00000000</v>
  </separator>
  <separator name="response functions" >
   <i type="logical" name="LADDER"> F  </i>
   <i type="logical" name="LFXC"> F  </i>
   <i type="logical" name="LHARTREE"> T  </i>
   <i type="int" name="IBSE">     0</i>
   <i type="logical" name="LTCTE"> F  </i>
   <i type="logical" name="LTETE"> F  </i>
   <i type="logical" name="LTRIPLET"> F  </i>
   <i type="logical" name="LFXCEPS"> F  </i>
   <i type="logical" name="L2ORDER"> F  </i>
   <i type="logical" name="LUSEW"> F  </i>
   <i name="ENCUTGW">     -2.00000000</i>
   <i name="ENCUTGWSOFT">     -2.00000000</i>
   <i name="ENCUTLF">     -1.00000000</i>
   <i type="int" name="LMAXMP2">    -1</i>
   <i name="SCISSOR">      0.00000000</i>
   <i type="int" name="NOMEGA">     0</i>
   <i type="int" name="NOMEGAR">     0</i>
   <i type="int" name="NBANDSGW">    -1</i>
   <i type="int" name="NBANDSO">    -1</i>
   <i type="int" name="NBANDSV">    -1</i>
   <i type="int" name="NELM">   400</i>
   <i type="int" name="DIM">     3</i>
   <i type="int" name="ANTIRES">     0</i>
   <i name="OMEGAMAX">    -30.00000000</i>
   <i name="OMEGATL">   -200.00000000</i>
   <i type="int" name="OMEGAGRID">     0</i>
   <i name="CSHIFT">     -0.10000000</i>
   <i type="logical" name="SELFENERGY"> F  </i>
   <i type="logical" name="LSPECTRAL"> F  </i>
   <i type="logical" name="ODDONLYGW"> F  </i>
   <i type="logical" name="EVENONLYGW"> F  </i>
   <i type="int" name="NKREDLFX">     1</i>
   <i type="int" name="NKREDLFY">     1</i>
   <i type="int" name="NKREDLFZ">     1</i>
   <i type="int" name="MAXMEM">  1800</i>
   <i type="int" name="TELESCOPE">     0</i>
  </separator>
 </parameters>
 <atominfo>
  <atoms>       2 </atoms>
  <types>       1 </types>
  <array name="atoms" >
   <dimension dim="1">ion</dimension>
   <field type="string">element</field>
   <field type="int">atomtype</field>
   <set>
    <rc><c>Si</c><c>   1</c></rc>
    <rc><c>Si</c><c>   1</c></rc>
   </set>
  </array>
  <array name="atomtypes" >
   <dimension dim="1">type</dimension>
   <field type="int">atomspertype</field>
   <field type="string">element</field>
   <field>mass</field>
   <field>valence</field>
   <field type="string">pseudopotential</field>
   <set>
    <rc><c>   2</c><c>Si</c><c>     28.08500000</c><c>      4.00000000</c><c>  PAW_PBE Si 05Jan2001                  </c></rc>
   </set>
  </array>
 </atominfo>
 <structure name="initialpos" >
  <crystal>
   <varray name="basis" >
    <v>       3.34889800       0.00000000       1.93348700 </v>
    <v>       1.11629900       3.15737200       1.93348700 </v>
    <v>       0.00000000       0.00000000       3.86697500 </v>
   </varray>
   <i name="volume">     40.88829843 </i>
   <varray name="rec_basis" >
    <v>       0.29860569      -0.10557300       0.00000000 </v>
    <v>       0.00000000       0.31671909       0.00000000 </v>
    <v>      -0.14930281      -0.10557302       0.25860007 </v>
   </varray>
  </crystal>
  <varray name="positions" >
   <v>       0.87500000       0.87500000       0.87500000 </v>
   <v>       0.12500000       0.12500000       0.12500000 </v>
  </varray>
 </structure>
 <calculation>
  <scstep>
   <time name="dav">    0.90    0.90</time>
   <time name="total">    3.08    4.43</time>
   <energy>
    <i name="alphaZ">      3.29317992 </i>
    <i name="ewald">   -226.94489173 </i>
    <i name="hartreedc">    -11.32339116 </i>
    <i name="XCdc">    -20.24410379 </i>
    <i name="pawpsdc">    189.40224250 </i>
    <i name="pawaedc">   -152.61488262 </i>
    <i name="eentropy">     -0.01210538 </i>
    <i name="bandstr">     17.96833977 </i>
    <i name="atom">    208.59416316 </i>
    <i name="e_fr_energy">      8.11855065 </i>
    <i name="e_wo_entrp">      8.13065603 </i>
    <i name="e_0_energy">      8.12460334 </i>
   </energy>
  </scstep>
  <scstep>
   <time name="dav">    1.43    1.43</time>
   <time name="total">    1.43    1.88</time>
   <energy>
    <i name="e_fr_energy">     -8.20714802 </i>
    <i name="e_wo_entrp">     -8.20714717 </i>
    <i name="e_0_energy">     -8.20714759 </i>
   </energy>
  </scstep>
  <scstep>
   <time name="dav">    1.29    1.29</time>
   <time name="total">    1.29    2.03</time>
   <energy>
    <i name="e_fr_energy">     -8.41389010 </i>
    <i name="e_wo_entrp">     -8.41388890 </i>
    <i name="e_0_energy">     -8.41388950 </i>
   </energy>
  </scstep>
  <scstep>
   <time name="dav">    1.61    1.62</time>
   <time name="total">    1.62    3.32</time>
   <energy>
    <i name="e_fr_energy">     -8.41478099 </i>
    <i name="e_wo_entrp">     -8.41477979 </i>
    <i name="e_0_energy">     -8.41478039 </i>
   </energy>
  </scstep>
  <scstep>
   <time name="dav">    1.36    1.37</time>
   <time name="total">    1.43    1.86</time>
   <energy>
    <i name="e_fr_energy">     -8.41478171 </i>
    <i name="e_wo_entrp">     -8.41478051 </i>
    <i name="e_0_energy">     -8.41478111 </i>
   </energy>
  </scstep>
  <scstep>
   <time name="dav">    1.22    1.23</time>
   <time name="total">    2.35    2.70</time>
   <energy>
    <i name="e_fr_energy">     -8.36150195 </i>
    <i name="e_wo_entrp">     -8.36149660 </i>
    <i name="e_0_energy">     -8.36149927 </i>
   </energy>
  </scstep>
  <scstep>
   <time name="dav">    1.34    1.34</time>
   <time name="total">    2.54    3.72</time>
   <energy>
    <i name="e_fr_energy">     -8.35619512 </i>
    <i name="e_wo_entrp">     -8.35615544 </i>
    <i name="e_0_energy">     -8.35617528 </i>
   </energy>
  </scstep>
  <scstep>
   <time name="dav">    1.19    1.19</time>
   <time name="total">    2.37    5.34</time>
   <energy>
    <i name="e_fr_energy">     -8.33944458 </i>
    <i name="e_wo_entrp">     -8.33941704 </i>
    <i name="e_0_energy">     -8.33943081 </i>
   </energy>
  </scstep>
  <scstep>
   <time name="dav">    2.01    2.02</time>
   <time name="total">    3.20    7.84</time>
   <energy>
    <i name="e_fr_energy">     -8.34109954 </i>
    <i name="e_wo_entrp">     -8.34106934 </i>
    <i name="e_0_energy">     -8.34108444 </i>
   </energy>
  </scstep>
  <scstep>
   <time name="dav">    1.38    1.38</time>
   <time name="total">    2.58    3.30</time>
   <energy>
    <i name="e_fr_energy">     -8.34040073 </i>
    <i name="e_wo_entrp">     -8.34037129 </i>
    <i name="e_0_energy">     -8.34038601 </i>
   </energy>
  </scstep>
  <scstep>
   <time name="dav">    1.35    1.37</time>
   <time name="total">    2.55    3.44</time>
   <energy>
    <i name="e_fr_energy">     -8.34036778 </i>
    <i name="e_wo_entrp">     -8.34033828 </i>
    <i name="e_0_energy">     -8.34035303 </i>
   </energy>
  </scstep>
  <scstep>
   <time name="dav">    1.19    1.22</time>
   <time name="total">    2.36    4.43</time>
   <energy>
    <i name="e_fr_energy">     -8.34036666 </i>
    <i name="e_wo_entrp">     -8.34033718 </i>
    <i name="e_0_energy">     -8.34035192 </i>
   </energy>
  </scstep>
  <scstep>
   <time name="dav">    0.82    0.83</time>
   <time name="total">    1.97    3.58</time>
   <energy>
    <i name="e_fr_energy">     -8.34036339 </i>
    <i name="e_wo_entrp">     -8.34033391 </i>
    <i name="e_0_energy">     -8.34034865 </i>
   </energy>
  </scstep>
  <scstep>
   <time name="dav">    0.72    0.72</time>
   <time name="total">    1.87    2.41</time>
   <energy>
    <i name="e_fr_energy">     -8.34036313 </i>
    <i name="e_wo_entrp">     -8.34033365 </i>
    <i name="e_0_energy">     -8.34034839 </i>
   </energy>
  </scstep>
  <scstep>
   <time name="dav">    0.67    0.67</time>
   <time name="total">    1.81    2.35</time>
   <energy>
    <i name="e_fr_energy">     -8.34036289 </i>
    <i name="e_wo_entrp">     -8.34033341 </i>
    <i name="e_0_energy">     -8.34034815 </i>
   </energy>
  </scstep>
  <scstep>
   <time name="dav">    1.30    1.67</time>
   <time name="total">    2.46    5.40</time>
   <energy>
    <i name="alphaZ">      3.29317992 </i>
    <i name="ewald">   -226.94489173 </i>
    <i name="hartreedc">    -15.37245867 </i>
    <i name="XCdc">    -19.57624575 </i>
    <i name="pawpsdc">    538.68752399 </i>
    <i name="pawaedc">   -502.15089990 </i>
    <i name="eentropy">     -0.00002948 </i>
    <i name="bandstr">      5.12929553 </i>
    <i name="atom">    208.59416316 </i>
    <i name="e_fr_energy">     -8.34036293 </i>
    <i name="e_wo_entrp">     -8.34033346 </i>
    <i name="e_0_energy">     -8.34034820 </i>
   </energy>
  </scstep>
  <structure>
   <crystal>
    <varray name="basis" >
     <v>       3.34889800       0.00000000       1.93348700 </v>
     <v>       1.11629900       3.15737200       1.93348700 </v>
     <v>       0.00000000       0.00000000       3.86697500 </v>
    </varray>
    <i name="volume">     40.88829843 </i>
    <varray name="rec_basis" >
     <v>       0.29860569      -0.10557300       0.00000000 </v>
     <v>       0.00000000       0.31671909       0.00000000 </v>
     <v>      -0.14930281      -0.10557302       0.25860007 </v>
    </varray>
   </crystal>
   <varray name="positions" >
    <v>       0.87500000       0.87500000       0.87500000 </v>
    <v>       0.12500000       0.12500000       0.12500000 </v>
   </varray>
  </structure>
  <varray name="forces" >
   <v>       0.00000000       0.00000000       0.00000000 </v>
   <v>       0.00000000       0.00000000       0.00000000 </v>
  </varray>
  <varray name="stress" >
   <v>      12.27792536      -0.00000130      -0.00000183 </v>
   <v>      -0.00000130      12.27793069      -0.00000130 </v>
   <v>      -0.00000183      -0.00000130      12.27792965 </v>
  </varray>
  <energy>
   <i name="e_fr_energy">     -8.34036293 </i>
   <i name="e_wo_entrp">     -8.34034820 </i>
   <i name="e_0_energy">     -0.00002948 </i>
  </energy>
  <time name="totalsc">   38.15   64.53</time>
  <eigenvalues>
   <array>
    <dimension dim="1">band</dimension>
    <dimension dim="2">kpoint</dimension>
    <dimension dim="3">spin</dimension>
    <field>eigene</field>
    <field>occ</field>
    <set>
     <set comment="spin 1">
      <set comment="kpoint 1">
       <r>   -6.1472    1.0000 </r>
       <r>    5.5936    0.9923 </r>
       <r>    5.5936    0.9923 </r>
       <r>    5.5936    0.9923 </r>
       <r>    8.2162    0.0000 </r>
       <r>    8.2162    0.0000 </r>
       <r>    8.2162    0.0000 </r>
       <r>    8.8215    0.0000 </r>
      </set>
      <set comment="kpoint 2">
       <r>   -6.1027    1.0000 </r>
       <r>    5.1288    1.0000 </r>
       <r>    5.5223    0.9983 </r>
       <r>    5.5223    0.9983 </r>
       <r>    8.2589    0.0000 </r>
       <r>    8.3221    0.0000 </r>
       <r>    8.3221    0.0000 </r>
       <r>    9.1676    0.0000 </r>
      </set>
      <set comment="kpoint 3">
       <r>   -5.9698    1.0000 </r>
       <r>    4.1658    1.0000 </r>
       <r>    5.3449    1.0000 </r>
       <r>    5.3449    1.0000 </r>
       <r>    8.1326    0.0000 </r>
       <r>    8.5866    0.0000 </r>
       <r>    8.5866    0.0000 </r>
       <r>   10.0586    0.0000 </r>
      </set>
      <set comment="kpoint 4">
       <r>   -5.7510    1.0000 </r>
       <r>    3.0873    1.0000 </r>
       <r>    5.1264    1.0000 </r>
       <r>    5.1264    1.0000 </r>
       <r>    7.9131    0.0000 </r>
       <r>    8.8911    0.0000 </r>
       <r>    8.8911    0.0000 </r>
       <r>   11.0984    0.0000 </r>
      </set>
      <set comment="kpoint 5">
       <r>   -5.4508    1.0000 </r>
       <r>    2.0157    1.0000 </r>
       <r>    4.9129    1.0000 </r>
       <r>    4.9129    1.0000 </r>
       <r>    7.6818    0.0000 </r>
       <r>    9.1100    0.0000 </r>
       <r>    9.1101    0.0000 </r>
       <r>   12.1371    0.0000 </r>
      </set>
      <set comment="kpoint 6">
       <r>   -5.0789    1.0000 </r>
       <r>    1.0028    1.0000 </r>
       <r>    4.7288    1.0000 </r>
       <r>    4.7288    1.0000 </r>
       <r>    7.4753    0.0000 </r>
       <r>    9.1785    0.0000 </r>
       <r>    9.1785    0.0000 </r>
       <r>   13.0633    0.0000 </r>
      </set>
      <set comment="kpoint 7">
       <r>   -4.6555    1.0000 </r>
       <r>    0.0878    1.0000 </r>
       <r>    4.5858    1.0000 </r>
       <r>    4.5858    1.0000 </r>
       <r>    7.3117    0.0000 </r>
       <r>    9.1363    0.0000 </r>
       <r>    9.1363    0.0000 </r>
       <r>   13.4948    0.0000 </r>
      </set>
      <set comment="kpoint 8">
       <r>   -4.2294    1.0000 </r>
       <r>   -0.6703    1.0000 </r>
       <r>    4.4890    1.0000 </r>
       <r>    4.4890    1.0000 </r>
       <r>    7.1994    0.0000 </r>
       <r>    9.0625    0.0000 </r>
       <r>    9.0625    0.0000 </r>
       <r>   13.4538    0.0000 </r>
      </set>
      <set comment="kpoint 9">
       <r>   -3.9211    1.0000 </r>
       <r>   -1.1458    1.0000 </r>
       <r>    4.4403    1.0000 </r>
       <r>    4.4403    1.0000 </r>
       <r>    7.1425    0.0000 </r>
       <r>    9.0132    0.0000 </r>
       <r>    9.0132    0.0000 </r>
       <r>   13.3827    0.0000 </r>
      </set>
      <set comment="kpoint 10">
       <r>   -6.0878    1.0000 </r>
       <r>    5.2169    1.0000 </r>
       <r>    5.3714    1.0000 </r>
       <r>    5.3714    1.0000 </r>
       <r>    8.0758    0.0000 </r>
       <r>    8.5114    0.0000 </r>
       <r>    8.5114    0.0000 </r>
       <r>    9.1833    0.0000 </r>
      </set>
      <set comment="kpoint 11">
       <r>   -5.9843    1.0000 </r>
       <r>    4.4486    1.0000 </r>
       <r>    5.1462    1.0000 </r>
       <r>    5.2924    1.0000 </r>
       <r>    8.0659    0.0000 </r>
       <r>    8.5898    0.0000 </r>
       <r>    8.8345    0.0000 </r>
       <r>    9.8352    0.0000 </r>
      </set>
      <set comment="kpoint 12">
       <r>   -5.7939    1.0000 </r>
       <r>    3.4235    1.0000 </r>
       <r>    4.9076    1.0000 </r>
       <r>    5.1259    1.0000 </r>
       <r>    8.1278    0.0000 </r>
       <r>    8.5881    0.0000 </r>
       <r>    9.1831    0.0000 </r>
       <r>   10.7041    0.0000 </r>
      </set>
      <set comment="kpoint 13">
       <r>   -5.5202    1.0000 </r>
       <r>    2.3624    1.0000 </r>
       <r>    4.6929    1.0000 </r>
       <r>    4.9009    1.0000 </r>
       <r>    8.0056    0.0000 </r>
       <r>    8.7724    0.0000 </r>
       <r>    9.4402    0.0000 </r>
       <r>   11.3255    0.0000 </r>
      </set>
      <set comment="kpoint 14">
       <r>   -5.1709    1.0000 </r>
       <r>    1.3374    1.0000 </r>
       <r>    4.5215    1.0000 </r>
       <r>    4.6707    1.0000 </r>
       <r>    7.8207    0.0000 </r>
       <r>    8.9251    0.0000 </r>
       <r>    9.5279    0.0000 </r>
       <r>   11.7674    0.0000 </r>
      </set>
      <set comment="kpoint 15">
       <r>   -4.7613    1.0000 </r>
       <r>    0.3921    1.0000 </r>
       <r>    4.4022    1.0000 </r>
       <r>    4.4631    1.0000 </r>
       <r>    7.6541    0.0000 </r>
       <r>    8.9583    0.0000 </r>
       <r>    9.4691    0.0000 </r>
       <r>   12.3659    0.0000 </r>
      </set>
      <set comment="kpoint 16">
       <r>   -4.3274    1.0000 </r>
       <r>   -0.4236    1.0000 </r>
       <r>    4.2925    1.0000 </r>
       <r>    4.3385    1.0000 </r>
       <r>    7.5293    0.0000 </r>
       <r>    8.9360    0.0000 </r>
       <r>    9.3462    0.0000 </r>
       <r>   13.0679    0.0000 </r>
      </set>
      <set comment="kpoint 17">
       <r>   -3.9593    1.0000 </r>
       <r>   -1.0119    1.0000 </r>
       <r>    4.1665    1.0000 </r>
       <r>    4.3303    1.0000 </r>
       <r>    7.4552    0.0000 </r>
       <r>    8.9275    0.0000 </r>
       <r>    9.2268    0.0000 </r>
       <r>   13.4656    0.0000 </r>
      </set>
      <set comment="kpoint 18">
       <r>   -3.8400    1.0000 </r>
       <r>   -1.1864    1.0000 </r>
       <r>    4.0903    1.0000 </r>
       <r>    4.3756    1.0000 </r>
       <r>    7.4354    0.0000 </r>
       <r>    8.9670    0.0000 </r>
       <r>    9.1468    0.0000 </r>
       <r>   13.5323    0.0000 </r>
      </set>
      <set comment="kpoint 19">
       <r>   -4.0655    1.0000 </r>
       <r>   -0.8502    1.0000 </r>
       <r>    4.0675    1.0000 </r>
       <r>    4.4713    1.0000 </r>
       <r>    7.4711    0.0000 </r>
       <r>    9.0604    0.0000 </r>
       <r>    9.1160    0.0000 </r>
       <r>   13.5297    0.0000 </r>
      </set>
      <set comment="kpoint 20">
       <r>   -4.4714    1.0000 </r>
       <r>   -0.1693    1.0000 </r>
       <r>    4.1011    1.0000 </r>
       <r>    4.6125    1.0000 </r>
       <r>    7.5613    0.0000 </r>
       <r>    9.1202    0.0000 </r>
       <r>    9.1899    0.0000 </r>
       <r>   13.3114    0.0000 </r>
      </set>
      <set comment="kpoint 21">
       <r>   -4.9034    1.0000 </r>
       <r>    0.6968    1.0000 </r>
       <r>    4.1930    1.0000 </r>
       <r>    4.7931    1.0000 </r>
       <r>    7.7025    0.0000 </r>
       <r>    9.1152    0.0000 </r>
       <r>    9.3068    0.0000 </r>
       <r>   12.7154    0.0000 </r>
      </set>
      <set comment="kpoint 22">
       <r>   -5.2954    1.0000 </r>
       <r>    1.6723    1.0000 </r>
       <r>    4.3434    1.0000 </r>
       <r>    5.0027    1.0000 </r>
       <r>    7.8876    0.0000 </r>
       <r>    9.0286    0.0000 </r>
       <r>    9.3226    0.0000 </r>
       <r>   12.0384    0.0000 </r>
      </set>
      <set comment="kpoint 23">
       <r>   -5.6206    1.0000 </r>
       <r>    2.7107    1.0000 </r>
       <r>    4.5502    1.0000 </r>
       <r>    5.2231    1.0000 </r>
       <r>    8.1009    0.0000 </r>
       <r>    8.8161    0.0000 </r>
       <r>    9.1478    0.0000 </r>
       <r>   11.3400    0.0000 </r>
      </set>
      <set comment="kpoint 24">
       <r>   -5.8670    1.0000 </r>
       <r>    3.7547    1.0000 </r>
       <r>    4.8112    1.0000 </r>
       <r>    5.4205    0.9999 </r>
       <r>    8.3098    0.0000 </r>
       <r>    8.5410    0.0000 </r>
       <r>    8.8034    0.0000 </r>
       <r>   10.5170    0.0000 </r>
      </set>
      <set comment="kpoint 25">
       <r>   -6.0287    1.0000 </r>
       <r>    4.6585    1.0000 </r>
       <r>    5.1477    1.0000 </r>
       <r>    5.5390    0.9975 </r>
       <r>    8.3386    0.0000 </r>
       <r>    8.4164    0.0000 </r>
       <r>    8.4531    0.0000 </r>
       <r>    9.6767    0.0000 </r>
      </set>
      <set comment="kpoint 26">
       <r>   -5.9102    1.0000 </r>
       <r>    4.3862    1.0000 </r>
       <r>    4.8911    1.0000 </r>
       <r>    4.8911    1.0000 </r>
       <r>    7.7285    0.0000 </r>
       <r>    9.2089    0.0000 </r>
       <r>    9.2089    0.0000 </r>
       <r>    9.8301    0.0000 </r>
      </set>
      <set comment="kpoint 27">
       <r>   -5.7485    1.0000 </r>
       <r>    3.6231    1.0000 </r>
       <r>    4.6357    1.0000 </r>
       <r>    4.7269    1.0000 </r>
       <r>    7.6800    0.0000 </r>
       <r>    9.2830    0.0000 </r>
       <r>    9.6130    0.0000 </r>
       <r>   10.2672    0.0000 </r>
      </set>
      <set comment="kpoint 28">
       <r>   -5.5024    1.0000 </r>
       <r>    2.6518    1.0000 </r>
       <r>    4.4133    1.0000 </r>
       <r>    4.5140    1.0000 </r>
       <r>    7.8268    0.0000 </r>
       <r>    9.1961    0.0000 </r>
       <r>    9.9363    0.0000 </r>
       <r>   10.4628    0.0000 </r>
      </set>
      <set comment="kpoint 29">
       <r>   -5.1775    1.0000 </r>
       <r>    1.6600    1.0000 </r>
       <r>    4.2414    1.0000 </r>
       <r>    4.2481    1.0000 </r>
       <r>    7.9364    0.0000 </r>
       <r>    9.1852    0.0000 </r>
       <r>   10.0823    0.0000 </r>
       <r>   10.5853    0.0000 </r>
      </set>
      <set comment="kpoint 30">
       <r>   -4.7858    1.0000 </r>
       <r>    0.7143    1.0000 </r>
       <r>    3.9815    1.0000 </r>
       <r>    4.1287    1.0000 </r>
       <r>    7.9214    0.0000 </r>
       <r>    9.1752    0.0000 </r>
       <r>   10.0453    0.0000 </r>
       <r>   11.0067    0.0000 </r>
      </set>
      <set comment="kpoint 31">
       <r>   -4.3537    1.0000 </r>
       <r>   -0.1334    1.0000 </r>
       <r>    3.7436    1.0000 </r>
       <r>    4.0787    1.0000 </r>
       <r>    7.8604    0.0000 </r>
       <r>    9.1209    0.0000 </r>
       <r>    9.9048    0.0000 </r>
       <r>   11.7370    0.0000 </r>
      </set>
      <set comment="kpoint 32">
       <r>   -3.9470    1.0000 </r>
       <r>   -0.8039    1.0000 </r>
       <r>    3.5498    1.0000 </r>
       <r>    4.0914    1.0000 </r>
       <r>    7.8200    0.0000 </r>
       <r>    9.0765    0.0000 </r>
       <r>    9.7406    0.0000 </r>
       <r>   12.6350    0.0000 </r>
      </set>
      <set comment="kpoint 33">
       <r>   -3.7215    1.0000 </r>
       <r>   -1.1350    1.0000 </r>
       <r>    3.4095    1.0000 </r>
       <r>    4.1646    1.0000 </r>
       <r>    7.8263    0.0000 </r>
       <r>    9.0798    0.0000 </r>
       <r>    9.5994    0.0000 </r>
       <r>   13.5164    0.0000 </r>
      </set>
      <set comment="kpoint 34">
       <r>   -3.8437    1.0000 </r>
       <r>   -0.9578    1.0000 </r>
       <r>    3.3296    1.0000 </r>
       <r>    4.2938    1.0000 </r>
       <r>    7.8852    0.0000 </r>
       <r>    9.1431    0.0000 </r>
       <r>    9.4994    0.0000 </r>
       <r>   13.7844    0.0000 </r>
      </set>
      <set comment="kpoint 35">
       <r>   -4.2140    1.0000 </r>
       <r>   -0.3736    1.0000 </r>
       <r>    3.3160    1.0000 </r>
       <r>    4.4719    1.0000 </r>
       <r>    7.9932    0.0000 </r>
       <r>    9.2593    0.0000 </r>
       <r>    9.4340    0.0000 </r>
       <r>   13.2018    0.0000 </r>
      </set>
      <set comment="kpoint 36">
       <r>   -4.6480    1.0000 </r>
       <r>    0.4265    1.0000 </r>
       <r>    3.3748    1.0000 </r>
       <r>    4.6885    1.0000 </r>
       <r>    8.1429    0.0000 </r>
       <r>    9.3665    0.0000 </r>
       <r>    9.3908    0.0000 </r>
       <r>   12.4218    0.0000 </r>
      </set>
      <set comment="kpoint 37">
       <r>   -5.0567    1.0000 </r>
       <r>    1.3374    1.0000 </r>
       <r>    3.5149    1.0000 </r>
       <r>    4.9273    1.0000 </r>
       <r>    8.3228    0.0000 </r>
       <r>    9.2292    0.0000 </r>
       <r>    9.4399    0.0000 </r>
       <r>   11.7437    0.0000 </r>
      </set>
      <set comment="kpoint 38">
       <r>   -5.4049    1.0000 </r>
       <r>    2.2846    1.0000 </r>
       <r>    3.7581    1.0000 </r>
       <r>    5.1613    1.0000 </r>
       <r>    8.5114    0.0000 </r>
       <r>    8.9825    0.0000 </r>
       <r>    9.2563    0.0000 </r>
       <r>   11.3134    0.0000 </r>
      </set>
      <set comment="kpoint 39">
       <r>   -5.6775    1.0000 </r>
       <r>    3.1455    1.0000 </r>
       <r>    4.1716    1.0000 </r>
       <r>    5.3459    1.0000 </r>
       <r>    8.6207    0.0000 </r>
       <r>    8.7049    0.0000 </r>
       <r>    8.8880    0.0000 </r>
       <r>   10.9963    0.0000 </r>
      </set>
      <set comment="kpoint 40">
       <r>   -5.6156    1.0000 </r>
       <r>    3.4056    1.0000 </r>
       <r>    4.3662    1.0000 </r>
       <r>    4.3662    1.0000 </r>
       <r>    7.3065    0.0000 </r>
       <r>    9.7919    0.0000 </r>
       <r>   10.0905    0.0000 </r>
       <r>   10.0905    0.0000 </r>
      </set>
      <set comment="kpoint 41">
       <r>   -5.3974    1.0000 </r>
       <r>    2.7177    1.0000 </r>
       <r>    4.1248    1.0000 </r>
       <r>    4.1320    1.0000 </r>
       <r>    7.2657    0.0000 </r>
       <r>    9.4912    0.0000 </r>
       <r>   10.3856    0.0000 </r>
       <r>   10.5102    0.0000 </r>
      </set>
      <set comment="kpoint 42">
       <r>   -5.0982    1.0000 </r>
       <r>    1.8611    1.0000 </r>
       <r>    3.8231    1.0000 </r>
       <r>    3.9511    1.0000 </r>
       <r>    7.4378    0.0000 </r>
       <r>    9.4046    0.0000 </r>
       <r>   10.3456    0.0000 </r>
       <r>   10.7571    0.0000 </r>
      </set>
      <set comment="kpoint 43">
       <r>   -4.7274    1.0000 </r>
       <r>    0.9787    1.0000 </r>
       <r>    3.4899    1.0000 </r>
       <r>    3.8328    1.0000 </r>
       <r>    7.5760    0.0000 </r>
       <r>    9.6921    0.0000 </r>
       <r>   10.2032    0.0000 </r>
       <r>   10.7850    0.0000 </r>
      </set>
      <set comment="kpoint 44">
       <r>   -4.3043    1.0000 </r>
       <r>    0.1442    1.0000 </r>
       <r>    3.1762    1.0000 </r>
       <r>    3.7812    1.0000 </r>
       <r>    7.6113    0.0000 </r>
       <r>   10.0216    0.0000 </r>
       <r>   10.3830    0.0000 </r>
       <r>   10.6605    0.0000 </r>
      </set>
      <set comment="kpoint 45">
       <r>   -3.8765    1.0000 </r>
       <r>   -0.5674    1.0000 </r>
       <r>    2.9092    1.0000 </r>
       <r>    3.7973    1.0000 </r>
       <r>    7.6281    0.0000 </r>
       <r>    9.9097    0.0000 </r>
       <r>   10.4777    0.0000 </r>
       <r>   11.2730    0.0000 </r>
      </set>
      <set comment="kpoint 46">
       <r>   -3.5661    1.0000 </r>
       <r>   -1.0197    1.0000 </r>
       <r>    2.7033    1.0000 </r>
       <r>    3.8792    1.0000 </r>
       <r>    7.6871    0.0000 </r>
       <r>    9.8328    0.0000 </r>
       <r>   10.2973    0.0000 </r>
       <r>   12.3134    0.0000 </r>
      </set>
      <set comment="kpoint 47">
       <r>   -3.5732    1.0000 </r>
       <r>   -1.0074    1.0000 </r>
       <r>    2.5685    1.0000 </r>
       <r>    4.0228    1.0000 </r>
       <r>    7.8082    0.0000 </r>
       <r>    9.8065    0.0000 </r>
       <r>   10.1455    0.0000 </r>
       <r>   13.4247    0.0000 </r>
      </set>
      <set comment="kpoint 48">
       <r>   -3.8910    1.0000 </r>
       <r>   -0.5393    1.0000 </r>
       <r>    2.5149    1.0000 </r>
       <r>    4.2205    1.0000 </r>
       <r>    7.9890    0.0000 </r>
       <r>    9.8290    0.0000 </r>
       <r>   10.0195    0.0000 </r>
       <r>   13.1274    0.0000 </r>
      </set>
      <set comment="kpoint 49">
       <r>   -4.3192    1.0000 </r>
       <r>    0.1709    1.0000 </r>
       <r>    2.5574    1.0000 </r>
       <r>    4.4601    1.0000 </r>
       <r>    8.2131    0.0000 </r>
       <r>    9.8751    0.0000 </r>
       <r>    9.8806    0.0000 </r>
       <r>   12.2266    0.0000 </r>
      </set>
      <set comment="kpoint 50">
       <r>   -4.7403    1.0000 </r>
       <r>    0.9685    1.0000 </r>
       <r>    2.7282    1.0000 </r>
       <r>    4.7220    1.0000 </r>
       <r>    8.4477    0.0000 </r>
       <r>    9.6529    0.0000 </r>
       <r>    9.8441    0.0000 </r>
       <r>   11.5234    0.0000 </r>
      </set>
      <set comment="kpoint 51">
       <r>   -5.1085    1.0000 </r>
       <r>    1.7163    1.0000 </r>
       <r>    3.1038    1.0000 </r>
       <r>    4.9730    1.0000 </r>
       <r>    8.6202    0.0000 </r>
       <r>    9.3129    0.0000 </r>
       <r>    9.5606    0.0000 </r>
       <r>   11.2509    0.0000 </r>
      </set>
      <set comment="kpoint 52">
       <r>   -5.2067    1.0000 </r>
       <r>    2.3789    1.0000 </r>
       <r>    3.8843    1.0000 </r>
       <r>    3.8843    1.0000 </r>
       <r>    6.9059    0.0000 </r>
       <r>    9.0164    0.0000 </r>
       <r>   11.0630    0.0000 </r>
       <r>   11.0630    0.0000 </r>
      </set>
      <set comment="kpoint 53">
       <r>   -4.9340    1.0000 </r>
       <r>    1.7595    1.0000 </r>
       <r>    3.6015    1.0000 </r>
       <r>    3.6897    1.0000 </r>
       <r>    6.8992    0.0000 </r>
       <r>    8.6953    0.0000 </r>
       <r>   11.3268    0.0000 </r>
       <r>   11.4665    0.0000 </r>
      </set>
      <set comment="kpoint 54">
       <r>   -4.5860    1.0000 </r>
       <r>    1.0334    1.0000 </r>
       <r>    3.2075    1.0000 </r>
       <r>    3.5588    1.0000 </r>
       <r>    7.0874    0.0000 </r>
       <r>    8.6955    0.0000 </r>
       <r>   11.2917    0.0000 </r>
       <r>   11.6180    0.0000 </r>
      </set>
      <set comment="kpoint 55">
       <r>   -4.1772    1.0000 </r>
       <r>    0.2898    1.0000 </r>
       <r>    2.7936    1.0000 </r>
       <r>    3.4967    1.0000 </r>
       <r>    7.2103    0.0000 </r>
       <r>    9.1387    0.0000 </r>
       <r>   11.1665    0.0000 </r>
       <r>   11.5505    0.0000 </r>
      </set>
      <set comment="kpoint 56">
       <r>   -3.7416    1.0000 </r>
       <r>   -0.3975    1.0000 </r>
       <r>    2.4260    1.0000 </r>
       <r>    3.5049    1.0000 </r>
       <r>    7.2638    0.0000 </r>
       <r>    9.9261    0.0000 </r>
       <r>   11.0424    0.0000 </r>
       <r>   11.3752    0.0000 </r>
      </set>
      <set comment="kpoint 57">
       <r>   -3.3704    1.0000 </r>
       <r>   -0.9136    1.0000 </r>
       <r>    2.1343    1.0000 </r>
       <r>    3.5826    1.0000 </r>
       <r>    7.3412    0.0000 </r>
       <r>   10.7443    0.0000 </r>
       <r>   11.1163    0.0000 </r>
       <r>   11.1739    0.0000 </r>
      </set>
      <set comment="kpoint 58">
       <r>   -3.2638    1.0000 </r>
       <r>   -1.0474    1.0000 </r>
       <r>    1.9349    1.0000 </r>
       <r>    3.7261    1.0000 </r>
       <r>    7.4823    0.0000 </r>
       <r>   10.7923    0.0000 </r>
       <r>   10.9828    0.0000 </r>
       <r>   12.1195    0.0000 </r>
      </set>
      <set comment="kpoint 59">
       <r>   -3.5147    1.0000 </r>
       <r>   -0.7104    1.0000 </r>
       <r>    1.8455    1.0000 </r>
       <r>    3.9286    1.0000 </r>
       <r>    7.6927    0.0000 </r>
       <r>   10.7610    0.0000 </r>
       <r>   10.7975    0.0000 </r>
       <r>   13.0124    0.0000 </r>
      </set>
      <set comment="kpoint 60">
       <r>   -3.9289    1.0000 </r>
       <r>   -0.1260    1.0000 </r>
       <r>    1.9000    1.0000 </r>
       <r>    4.1779    1.0000 </r>
       <r>    7.9587    0.0000 </r>
       <r>   10.5560    0.0000 </r>
       <r>   10.7135    0.0000 </r>
       <r>   12.1358    0.0000 </r>
      </set>
      <set comment="kpoint 61">
       <r>   -4.3567    1.0000 </r>
       <r>    0.4822    1.0000 </r>
       <r>    2.1694    1.0000 </r>
       <r>    4.4539    1.0000 </r>
       <r>    8.2430    0.0000 </r>
       <r>   10.1577    0.0000 </r>
       <r>   10.4419    0.0000 </r>
       <r>   11.5522    0.0000 </r>
      </set>
      <set comment="kpoint 62">
       <r>   -4.6872    1.0000 </r>
       <r>    1.3422    1.0000 </r>
       <r>    3.4795    1.0000 </r>
       <r>    3.4795    1.0000 </r>
       <r>    6.5817    0.0000 </r>
       <r>    8.1801    0.0000 </r>
       <r>   12.0888    0.0000 </r>
       <r>   12.0888    0.0000 </r>
      </set>
      <set comment="kpoint 63">
       <r>   -4.3630    1.0000 </r>
       <r>    0.7748    1.0000 </r>
       <r>    3.1880    1.0000 </r>
       <r>    3.3324    1.0000 </r>
       <r>    6.6218    0.0000 </r>
       <r>    7.9315    0.0000 </r>
       <r>   12.3698    0.0000 </r>
       <r>   12.4593    0.0000 </r>
      </set>
      <set comment="kpoint 64">
       <r>   -3.9721    1.0000 </r>
       <r>    0.1622    1.0000 </r>
       <r>    2.7335    1.0000 </r>
       <r>    3.2547    1.0000 </r>
       <r>    6.8129    0.0000 </r>
       <r>    8.0831    0.0000 </r>
       <r>   12.3517    0.0000 </r>
       <r>   12.5194    0.0000 </r>
      </set>
      <set comment="kpoint 65">
       <r>   -3.5385    1.0000 </r>
       <r>   -0.4374    1.0000 </r>
       <r>    2.2568    1.0000 </r>
       <r>    3.2487    1.0000 </r>
       <r>    6.9156    0.0000 </r>
       <r>    8.7092    0.0000 </r>
       <r>   12.2400    0.0000 </r>
       <r>   12.3867    0.0000 </r>
      </set>
      <set comment="kpoint 66">
       <r>   -3.1282    1.0000 </r>
       <r>   -0.9444    1.0000 </r>
       <r>    1.8502    1.0000 </r>
       <r>    3.3144    1.0000 </r>
       <r>    7.0018    0.0000 </r>
       <r>    9.6297    0.0000 </r>
       <r>   12.1215    0.0000 </r>
       <r>   12.1817    0.0000 </r>
      </set>
      <set comment="kpoint 67">
       <r>   -2.9239    1.0000 </r>
       <r>   -1.1731    1.0000 </r>
       <r>    1.5620    1.0000 </r>
       <r>    3.4490    1.0000 </r>
       <r>    7.1453    0.0000 </r>
       <r>   10.6931    0.0000 </r>
       <r>   11.9556    0.0000 </r>
       <r>   12.0438    0.0000 </r>
      </set>
      <set comment="kpoint 68">
       <r>   -3.1070    1.0000 </r>
       <r>   -0.9578    1.0000 </r>
       <r>    1.4320    1.0000 </r>
       <r>    3.6463    1.0000 </r>
       <r>    7.3624    0.0000 </r>
       <r>   11.5929    0.0000 </r>
       <r>   11.6835    0.0000 </r>
       <r>   12.2363    0.0000 </r>
      </set>
      <set comment="kpoint 69">
       <r>   -3.5026    1.0000 </r>
       <r>   -0.5240    1.0000 </r>
       <r>    1.5206    1.0000 </r>
       <r>    3.8957    1.0000 </r>
       <r>    7.6443    0.0000 </r>
       <r>   11.2296    0.0000 </r>
       <r>   11.5009    0.0000 </r>
       <r>   12.2934    0.0000 </r>
      </set>
      <set comment="kpoint 70">
       <r>   -4.0621    1.0000 </r>
       <r>    0.3155    1.0000 </r>
       <r>    3.1675    1.0000 </r>
       <r>    3.1675    1.0000 </r>
       <r>    6.3655    0.0012 </r>
       <r>    7.4679    0.0000 </r>
       <r>   13.1514    0.0000 </r>
       <r>   13.1514    0.0000 </r>
      </set>
      <set comment="kpoint 71">
       <r>   -3.6909    1.0000 </r>
       <r>   -0.2095    1.0000 </r>
       <r>    2.8913    1.0000 </r>
       <r>    3.0715    1.0000 </r>
       <r>    6.4570    0.0001 </r>
       <r>    7.3211    0.0000 </r>
       <r>   13.4505    0.0000 </r>
       <r>   13.4822    0.0000 </r>
      </set>
      <set comment="kpoint 72">
       <r>   -3.2661    1.0000 </r>
       <r>   -0.7326    1.0000 </r>
       <r>    2.4198    1.0000 </r>
       <r>    3.0479    1.0000 </r>
       <r>    6.6291    0.0000 </r>
       <r>    7.6588    0.0000 </r>
       <r>   13.4483    0.0000 </r>
       <r>   13.4657    0.0000 </r>
      </set>
      <set comment="kpoint 73">
       <r>   -2.8341    1.0000 </r>
       <r>   -1.2001    1.0000 </r>
       <r>    1.9289    1.0000 </r>
       <r>    3.0972    1.0000 </r>
       <r>    6.7268    0.0000 </r>
       <r>    8.4552    0.0000 </r>
       <r>   13.2810    0.0000 </r>
       <r>   13.3471    0.0000 </r>
      </set>
      <set comment="kpoint 74">
       <r>   -2.5636    1.0000 </r>
       <r>   -1.4605    1.0000 </r>
       <r>    1.5405    1.0000 </r>
       <r>    3.2175    1.0000 </r>
       <r>    6.8642    0.0000 </r>
       <r>    9.4842    0.0000 </r>
       <r>   13.0026    0.0000 </r>
       <r>   13.2280    0.0000 </r>
      </set>
      <set comment="kpoint 75">
       <r>   -2.7235    1.0000 </r>
       <r>   -1.2874    1.0000 </r>
       <r>    1.3450    1.0000 </r>
       <r>    3.4037    1.0000 </r>
       <r>    7.0773    0.0000 </r>
       <r>   10.6366    0.0000 </r>
       <r>   12.5085    0.0000 </r>
       <r>   12.9922    0.0000 </r>
      </set>
      <set comment="kpoint 76">
       <r>   -3.3386    1.0000 </r>
       <r>   -0.6831    1.0000 </r>
       <r>    2.9561    1.0000 </r>
       <r>    2.9561    1.0000 </r>
       <r>    6.2777    0.0079 </r>
       <r>    6.9205    0.0000 </r>
       <r>   14.2394    0.0000 </r>
       <r>   14.2394    0.0000 </r>
      </set>
      <set comment="kpoint 77">
       <r>   -2.9263    1.0000 </r>
       <r>   -1.1684    1.0000 </r>
       <r>    2.7130    1.0000 </r>
       <r>    2.9130    1.0000 </r>
       <r>    6.4144    0.0004 </r>
       <r>    6.8909    0.0000 </r>
       <r>   14.5226    0.0000 </r>
       <r>   14.5490    0.0000 </r>
      </set>
      <set comment="kpoint 78">
       <r>   -2.4855    1.0000 </r>
       <r>   -1.6142    1.0000 </r>
       <r>    2.2649    1.0000 </r>
       <r>    2.9434    1.0000 </r>
       <r>    6.5387    0.0000 </r>
       <r>    7.4423    0.0000 </r>
       <r>   14.4067    0.0000 </r>
       <r>   14.5582    0.0000 </r>
      </set>
      <set comment="kpoint 79">
       <r>   -2.2559    1.0000 </r>
       <r>   -1.8001    1.0000 </r>
       <r>    1.8201    1.0000 </r>
       <r>    3.0462    1.0000 </r>
       <r>    6.6620    0.0000 </r>
       <r>    8.3715    0.0000 </r>
       <r>   13.9413    0.0000 </r>
       <r>   14.4536    0.0000 </r>
      </set>
      <set comment="kpoint 80">
       <r>   -2.5259    1.0000 </r>
       <r>   -1.6359    1.0000 </r>
       <r>    2.8496    1.0000 </r>
       <r>    2.8496    1.0000 </r>
       <r>    6.3331    0.0025 </r>
       <r>    6.5441    0.0000 </r>
       <r>   15.2929    0.0000 </r>
       <r>   15.2929    0.0000 </r>
      </set>
      <set comment="kpoint 81">
       <r>   -2.1033    1.0000 </r>
       <r>   -2.0575    1.0000 </r>
       <r>    2.6536    1.0000 </r>
       <r>    2.8598    1.0000 </r>
       <r>    6.4459    0.0002 </r>
       <r>    6.7009    0.0000 </r>
       <r>   15.2936    0.0000 </r>
       <r>   15.4118    0.0000 </r>
      </set>
      <set comment="kpoint 82">
       <r>   -5.8518    1.0000 </r>
       <r>    3.8810    1.0000 </r>
       <r>    4.6635    1.0000 </r>
       <r>    5.2279    1.0000 </r>
       <r>    8.0409    0.0000 </r>
       <r>    8.8201    0.0000 </r>
       <r>    9.0956    0.0000 </r>
       <r>   10.3622    0.0000 </r>
      </set>
      <set comment="kpoint 83">
       <r>   -5.6335    1.0000 </r>
       <r>    2.9908    1.0000 </r>
       <r>    4.2847    1.0000 </r>
       <r>    5.0902    1.0000 </r>
       <r>    8.1809    0.0000 </r>
       <r>    8.8143    0.0000 </r>
       <r>    9.4492    0.0000 </r>
       <r>   10.8006    0.0000 </r>
      </set>
      <set comment="kpoint 84">
       <r>   -5.3341    1.0000 </r>
       <r>    1.9970    1.0000 </r>
       <r>    4.0252    1.0000 </r>
       <r>    4.8805    1.0000 </r>
       <r>    8.2179    0.0000 </r>
       <r>    8.8744    0.0000 </r>
       <r>    9.7037    0.0000 </r>
       <r>   11.0195    0.0000 </r>
      </set>
      <set comment="kpoint 85">
       <r>   -4.9628    1.0000 </r>
       <r>    1.0227    1.0000 </r>
       <r>    3.8400    1.0000 </r>
       <r>    4.6575    1.0000 </r>
       <r>    8.1108    0.0000 </r>
       <r>    8.9604    0.0000 </r>
       <r>    9.7604    0.0000 </r>
       <r>   11.4058    0.0000 </r>
      </set>
      <set comment="kpoint 86">
       <r>   -4.5398    1.0000 </r>
       <r>    0.1289    1.0000 </r>
       <r>    3.7160    1.0000 </r>
       <r>    4.4590    1.0000 </r>
       <r>    7.9849    0.0000 </r>
       <r>    8.9512    0.0000 </r>
       <r>    9.6920    0.0000 </r>
       <r>   12.0658    0.0000 </r>
      </set>
      <set comment="kpoint 87">
       <r>   -4.1130    1.0000 </r>
       <r>   -0.6185    1.0000 </r>
       <r>    3.6437    1.0000 </r>
       <r>    4.3097    1.0000 </r>
       <r>    7.8895    0.0000 </r>
       <r>    8.8985    0.0000 </r>
       <r>    9.5967    0.0000 </r>
       <r>   12.8874    0.0000 </r>
      </set>
      <set comment="kpoint 88">
       <r>   -3.8029    1.0000 </r>
       <r>   -1.0907    1.0000 </r>
       <r>    3.6122    1.0000 </r>
       <r>    4.2288    1.0000 </r>
       <r>    7.8395    0.0000 </r>
       <r>    8.8602    0.0000 </r>
       <r>    9.5356    0.0000 </r>
       <r>   13.5934    0.0000 </r>
      </set>
      <set comment="kpoint 89">
       <r>   -5.5588    1.0000 </r>
       <r>    3.0352    1.0000 </r>
       <r>    4.1354    1.0000 </r>
       <r>    4.6496    1.0000 </r>
       <r>    7.6338    0.0000 </r>
       <r>    9.4622    0.0000 </r>
       <r>    9.9994    0.0000 </r>
       <r>   10.2612    0.0000 </r>
      </set>
      <set comment="kpoint 90">
       <r>   -5.2862    1.0000 </r>
       <r>    2.2118    1.0000 </r>
       <r>    3.7514    1.0000 </r>
       <r>    4.4923    1.0000 </r>
       <r>    7.8076    0.0000 </r>
       <r>    9.4336    0.0000 </r>
       <r>   10.1698    0.0000 </r>
       <r>   10.3514    0.0000 </r>
      </set>
      <set comment="kpoint 91">
       <r>   -4.9380    1.0000 </r>
       <r>    1.3071    1.0000 </r>
       <r>    3.4834    1.0000 </r>
       <r>    4.2827    1.0000 </r>
       <r>    7.9676    0.0000 </r>
       <r>    9.4464    0.0000 </r>
       <r>   10.1972    0.0000 </r>
       <r>   10.5258    0.0000 </r>
      </set>
      <set comment="kpoint 92">
       <r>   -4.5292    1.0000 </r>
       <r>    0.4276    1.0000 </r>
       <r>    3.2823    1.0000 </r>
       <r>    4.0932    1.0000 </r>
       <r>    8.0088    0.0000 </r>
       <r>    9.3626    0.0000 </r>
       <r>   10.4492    0.0000 </r>
       <r>   10.7347    0.0000 </r>
      </set>
      <set comment="kpoint 93">
       <r>   -4.0948    1.0000 </r>
       <r>   -0.3518    1.0000 </r>
       <r>    3.1238    1.0000 </r>
       <r>    3.9689    1.0000 </r>
       <r>    8.0056    0.0000 </r>
       <r>    9.2147    0.0000 </r>
       <r>   10.3824    0.0000 </r>
       <r>   11.5191    0.0000 </r>
      </set>
      <set comment="kpoint 94">
       <r>   -3.7242    1.0000 </r>
       <r>   -0.9235    1.0000 </r>
       <r>    2.9987    1.0000 </r>
       <r>    3.9308    1.0000 </r>
       <r>    8.0264    0.0000 </r>
       <r>    9.0851    0.0000 </r>
       <r>   10.2886    0.0000 </r>
       <r>   12.4955    0.0000 </r>
      </set>
      <set comment="kpoint 95">
       <r>   -3.6049    1.0000 </r>
       <r>   -1.0921    1.0000 </r>
       <r>    2.9119    1.0000 </r>
       <r>    3.9805    1.0000 </r>
       <r>    8.0950    0.0000 </r>
       <r>    9.0034    0.0000 </r>
       <r>   10.2266    0.0000 </r>
       <r>   13.5323    0.0000 </r>
      </set>
      <set comment="kpoint 96">
       <r>   -3.8355    1.0000 </r>
       <r>   -0.7576    1.0000 </r>
       <r>    2.8755    1.0000 </r>
       <r>    4.1074    1.0000 </r>
       <r>    8.2107    0.0000 </r>
       <r>    8.9790    0.0000 </r>
       <r>   10.2065    0.0000 </r>
       <r>   12.7883    0.0000 </r>
      </set>
      <set comment="kpoint 97">
       <r>   -4.2441    1.0000 </r>
       <r>   -0.0970    1.0000 </r>
       <r>    2.9037    1.0000 </r>
       <r>    4.2961    1.0000 </r>
       <r>    8.3588    0.0000 </r>
       <r>    8.9999    0.0000 </r>
       <r>   10.2121    0.0000 </r>
       <r>   11.8715    0.0000 </r>
      </set>
      <set comment="kpoint 98">
       <r>   -4.6755    1.0000 </r>
       <r>    0.7194    1.0000 </r>
       <r>    3.0134    1.0000 </r>
       <r>    4.5265    1.0000 </r>
       <r>    8.5136    0.0000 </r>
       <r>    9.0093    0.0000 </r>
       <r>   10.1951    0.0000 </r>
       <r>   11.1469    0.0000 </r>
      </set>
      <set comment="kpoint 99">
       <r>   -5.0657    1.0000 </r>
       <r>    1.5887    1.0000 </r>
       <r>    3.2348    1.0000 </r>
       <r>    4.7698    1.0000 </r>
       <r>    8.5974    0.0000 </r>
       <r>    8.9351    0.0000 </r>
       <r>   10.0741    0.0000 </r>
       <r>   10.7415    0.0000 </r>
      </set>
      <set comment="kpoint 100">
       <r>   -5.3889    1.0000 </r>
       <r>    2.3904    1.0000 </r>
       <r>    3.6383    1.0000 </r>
       <r>    4.9796    1.0000 </r>
       <r>    8.4162    0.0000 </r>
       <r>    8.9183    0.0000 </r>
       <r>    9.7629    0.0000 </r>
       <r>   10.7101    0.0000 </r>
      </set>
      <set comment="kpoint 101">
       <r>   -5.1521    1.0000 </r>
       <r>    2.1405    1.0000 </r>
       <r>    3.6533    1.0000 </r>
       <r>    4.0546    1.0000 </r>
       <r>    7.2429    0.0000 </r>
       <r>    9.1924    0.0000 </r>
       <r>   10.5737    0.0000 </r>
       <r>   10.9975    0.0000 </r>
      </set>
      <set comment="kpoint 102">
       <r>   -4.8286    1.0000 </r>
       <r>    1.4105    1.0000 </r>
       <r>    3.2663    1.0000 </r>
       <r>    3.8807    1.0000 </r>
       <r>    7.4464    0.0000 </r>
       <r>    9.1221    0.0000 </r>
       <r>   10.4885    0.0000 </r>
       <r>   11.3322    0.0000 </r>
      </set>
      <set comment="kpoint 103">
       <r>   -4.4382    1.0000 </r>
       <r>    0.6256    1.0000 </r>
       <r>    2.9445    1.0000 </r>
       <r>    3.7075    1.0000 </r>
       <r>    7.6125    0.0000 </r>
       <r>    9.4562    0.0000 </r>
       <r>   10.3058    0.0000 </r>
       <r>   11.4203    0.0000 </r>
      </set>
      <set comment="kpoint 104">
       <r>   -4.0060    1.0000 </r>
       <r>   -0.1264    1.0000 </r>
       <r>    2.6671    1.0000 </r>
       <r>    3.6047    1.0000 </r>
       <r>    7.6759    0.0000 </r>
       <r>   10.0638    0.0000 </r>
       <r>   10.2126    0.0000 </r>
       <r>   11.3576    0.0000 </r>
      </set>
      <set comment="kpoint 105">
       <r>   -3.5967    1.0000 </r>
       <r>   -0.7452    1.0000 </r>
       <r>    2.4357    1.0000 </r>
       <r>    3.5920    1.0000 </r>
       <r>    7.7333    0.0000 </r>
       <r>    9.9055    0.0000 </r>
       <r>   11.1330    0.0000 </r>
       <r>   11.2526    0.0000 </r>
      </set>
      <set comment="kpoint 106">
       <r>   -3.3712    1.0000 </r>
       <r>   -1.0524    1.0000 </r>
       <r>    2.2636    1.0000 </r>
       <r>    3.6658    1.0000 </r>
       <r>    7.8409    0.0000 </r>
       <r>    9.7551    0.0000 </r>
       <r>   11.1517    0.0000 </r>
       <r>   12.2206    0.0000 </r>
      </set>
      <set comment="kpoint 107">
       <r>   -3.5051    1.0000 </r>
       <r>   -0.8678    1.0000 </r>
       <r>    2.1668    1.0000 </r>
       <r>    3.8156    1.0000 </r>
       <r>    8.0124    0.0000 </r>
       <r>    9.6456    0.0000 </r>
       <r>   11.0767    0.0000 </r>
       <r>   12.7298    0.0000 </r>
      </set>
      <set comment="kpoint 108">
       <r>   -3.8834    1.0000 </r>
       <r>   -0.3164    1.0000 </r>
       <r>    2.1655    1.0000 </r>
       <r>    4.0271    1.0000 </r>
       <r>    8.2409    0.0000 </r>
       <r>    9.5617    0.0000 </r>
       <r>   11.0000    0.0000 </r>
       <r>   11.7792    0.0000 </r>
      </set>
      <set comment="kpoint 109">
       <r>   -4.3172    1.0000 </r>
       <r>    0.3791    1.0000 </r>
       <r>    2.2957    1.0000 </r>
       <r>    4.2809    1.0000 </r>
       <r>    8.5024    0.0000 </r>
       <r>    9.4272    0.0000 </r>
       <r>   10.8282    0.0000 </r>
       <r>   11.0684    0.0000 </r>
      </set>
      <set comment="kpoint 110">
       <r>   -4.7220    1.0000 </r>
       <r>    1.0552    1.0000 </r>
       <r>    2.6292    1.0000 </r>
       <r>    4.5456    1.0000 </r>
       <r>    8.7439    0.0000 </r>
       <r>    9.1021    0.0000 </r>
       <r>   10.5777    0.0000 </r>
       <r>   10.6503    0.0000 </r>
      </set>
      <set comment="kpoint 111">
       <r>   -4.6360    1.0000 </r>
       <r>    1.2059    1.0000 </r>
       <r>    3.2530    1.0000 </r>
       <r>    3.5415    1.0000 </r>
       <r>    6.9226    0.0000 </r>
       <r>    8.4007    0.0000 </r>
       <r>   11.4732    0.0000 </r>
       <r>   12.0486    0.0000 </r>
      </set>
      <set comment="kpoint 112">
       <r>   -4.2665    1.0000 </r>
       <r>    0.5724    1.0000 </r>
       <r>    2.8541    1.0000 </r>
       <r>    3.3764    1.0000 </r>
       <r>    7.1532    0.0000 </r>
       <r>    8.4339    0.0000 </r>
       <r>   11.3593    0.0000 </r>
       <r>   12.3740    0.0000 </r>
      </set>
      <set comment="kpoint 113">
       <r>   -3.8439    1.0000 </r>
       <r>   -0.0785    1.0000 </r>
       <r>    2.4450    1.0000 </r>
       <r>    3.2803    1.0000 </r>
       <r>    7.3004    0.0000 </r>
       <r>    8.9363    0.0000 </r>
       <r>   11.1684    0.0000 </r>
       <r>   12.4183    0.0000 </r>
      </set>
      <set comment="kpoint 114">
       <r>   -3.4137    1.0000 </r>
       <r>   -0.6709    1.0000 </r>
       <r>    2.0830    1.0000 </r>
       <r>    3.2753    1.0000 </r>
       <r>    7.3807    0.0000 </r>
       <r>    9.7782    0.0000 </r>
       <r>   10.9769    0.0000 </r>
       <r>   12.3364    0.0000 </r>
      </set>
      <set comment="kpoint 115">
       <r>   -3.1037    1.0000 </r>
       <r>   -1.0576    1.0000 </r>
       <r>    1.8071    1.0000 </r>
       <r>    3.3556    1.0000 </r>
       <r>    7.4957    0.0000 </r>
       <r>   10.5936    0.0000 </r>
       <r>   11.0180    0.0000 </r>
       <r>   12.2254    0.0000 </r>
      </set>
      <set comment="kpoint 116">
       <r>   -3.1353    1.0000 </r>
       <r>   -1.0126    1.0000 </r>
       <r>    1.6440    1.0000 </r>
       <r>    3.5119    1.0000 </r>
       <r>    7.6773    0.0000 </r>
       <r>   10.5595    0.0000 </r>
       <r>   11.9455    0.0000 </r>
       <r>   12.1765    0.0000 </r>
      </set>
      <set comment="kpoint 117">
       <r>   -3.4748    1.0000 </r>
       <r>   -0.5898    1.0000 </r>
       <r>    1.6283    1.0000 </r>
       <r>    3.7323    1.0000 </r>
       <r>    7.9251    0.0000 </r>
       <r>   10.4017    0.0000 </r>
       <r>   11.7006    0.0000 </r>
       <r>   11.9805    0.0000 </r>
      </set>
      <set comment="kpoint 118">
       <r>   -3.9041    1.0000 </r>
       <r>   -0.0659    1.0000 </r>
       <r>    1.8229    1.0000 </r>
       <r>    3.9987    1.0000 </r>
       <r>    8.2193    0.0000 </r>
       <r>   10.0471    0.0000 </r>
       <r>   11.1134    0.0000 </r>
       <r>   11.5773    0.0000 </r>
      </set>
      <set comment="kpoint 119">
       <r>   -4.0160    1.0000 </r>
       <r>    0.2495    1.0000 </r>
       <r>    2.9509    1.0000 </r>
       <r>    3.1425    1.0000 </r>
       <r>    6.7046    0.0000 </r>
       <r>    7.7176    0.0000 </r>
       <r>   12.4413    0.0000 </r>
       <r>   13.1337    0.0000 </r>
      </set>
      <set comment="kpoint 120">
       <r>   -3.6079    1.0000 </r>
       <r>   -0.2996    1.0000 </r>
       <r>    2.5370    1.0000 </r>
       <r>    3.0218    1.0000 </r>
       <r>    6.9501    0.0000 </r>
       <r>    7.8995    0.0000 </r>
       <r>   12.2968    0.0000 </r>
       <r>   13.4544    0.0000 </r>
      </set>
      <set comment="kpoint 121">
       <r>   -3.1703    1.0000 </r>
       <r>   -0.8231    1.0000 </r>
       <r>    2.0672    1.0000 </r>
       <r>    3.0115    1.0000 </r>
       <r>    7.0744    0.0000 </r>
       <r>    8.5891    0.0000 </r>
       <r>   12.0946    0.0000 </r>
       <r>   13.4688    0.0000 </r>
      </set>
      <set comment="kpoint 122">
       <r>   -2.8003    1.0000 </r>
       <r>   -1.2241    1.0000 </r>
       <r>    1.6719    1.0000 </r>
       <r>    3.0877    1.0000 </r>
       <r>    7.1894    0.0000 </r>
       <r>    9.5606    0.0000 </r>
       <r>   11.8925    0.0000 </r>
       <r>   13.3437    0.0000 </r>
      </set>
      <set comment="kpoint 123">
       <r>   -2.7472    1.0000 </r>
       <r>   -1.2684    1.0000 </r>
       <r>    1.4224    1.0000 </r>
       <r>    3.2409    1.0000 </r>
       <r>    7.3679    0.0000 </r>
       <r>   10.6511    0.0000 </r>
       <r>   11.7196    0.0000 </r>
       <r>   12.8135    0.0000 </r>
      </set>
      <set comment="kpoint 124">
       <r>   -3.0569    1.0000 </r>
       <r>   -0.9511    1.0000 </r>
       <r>    1.3841    1.0000 </r>
       <r>    3.4610    1.0000 </r>
       <r>    7.6182    0.0000 </r>
       <r>   11.1532    0.0000 </r>
       <r>   11.9923    0.0000 </r>
       <r>   12.0290    0.0000 </r>
      </set>
      <set comment="kpoint 125">
       <r>   -3.3001    1.0000 </r>
       <r>   -0.7036    1.0000 </r>
       <r>    2.7562    1.0000 </r>
       <r>    2.8652    1.0000 </r>
       <r>    6.6091    0.0000 </r>
       <r>    7.1968    0.0000 </r>
       <r>   13.4513    0.0000 </r>
       <r>   14.2372    0.0000 </r>
      </set>
      <set comment="kpoint 126">
       <r>   -2.8648    1.0000 </r>
       <r>   -1.1812    1.0000 </r>
       <r>    2.3377    1.0000 </r>
       <r>    2.8160    1.0000 </r>
       <r>    6.8404    0.0000 </r>
       <r>    7.5599    0.0000 </r>
       <r>   13.2865    0.0000 </r>
       <r>   14.5231    0.0000 </r>
      </set>
      <set comment="kpoint 127">
       <r>   -2.4579    1.0000 </r>
       <r>   -1.5747    1.0000 </r>
       <r>    1.8697    1.0000 </r>
       <r>    2.8818    1.0000 </r>
       <r>    6.9563    0.0000 </r>
       <r>    8.4179    0.0000 </r>
       <r>   13.0712    0.0000 </r>
       <r>   14.1048    0.0000 </r>
      </set>
      <set comment="kpoint 128">
       <r>   -2.4103    1.0000 </r>
       <r>   -1.5894    1.0000 </r>
       <r>    1.5259    1.0000 </r>
       <r>    3.0265    1.0000 </r>
       <r>    7.1238    0.0000 </r>
       <r>    9.4885    0.0000 </r>
       <r>   12.6936    0.0000 </r>
       <r>   13.1343    0.0000 </r>
      </set>
      <set comment="kpoint 129">
       <r>   -2.4992    1.0000 </r>
       <r>   -1.6275    1.0000 </r>
       <r>    2.6746    1.0000 </r>
       <r>    2.7100    1.0000 </r>
       <r>    6.6512    0.0000 </r>
       <r>    6.8436    0.0000 </r>
       <r>   14.4901    0.0000 </r>
       <r>   15.1835    0.0000 </r>
      </set>
      <set comment="kpoint 130">
       <r>   -2.1196    1.0000 </r>
       <r>   -1.9746    1.0000 </r>
       <r>    2.2700    1.0000 </r>
       <r>    2.7487    1.0000 </r>
       <r>    6.8085    0.0000 </r>
       <r>    7.4412    0.0000 </r>
       <r>   14.2341    0.0000 </r>
       <r>   14.3986    0.0000 </r>
      </set>
      <set comment="kpoint 131">
       <r>   -4.9894    1.0000 </r>
       <r>    1.6319    1.0000 </r>
       <r>    3.1575    1.0000 </r>
       <r>    4.3544    1.0000 </r>
       <r>    8.0550    0.0000 </r>
       <r>    9.4530    0.0000 </r>
       <r>    9.9442    0.0000 </r>
       <r>   10.8197    0.0000 </r>
      </set>
      <set comment="kpoint 132">
       <r>   -4.6209    1.0000 </r>
[...]
       <r>   -1.6116    1.0000 </r>
       <r>    2.3022    1.0000 </r>
       <r>    2.4202    1.0000 </r>
       <r>    7.4567    0.0000 </r>
       <r>    7.6186    0.0000 </r>
       <r>   13.0593    0.0000 </r>
       <r>   14.1008    0.0000 </r>
      </set>
      <set comment="kpoint 155">
       <r>   -2.1282    1.0000 </r>
       <r>   -1.8630    1.0000 </r>
       <r>    1.9183    1.0000 </r>
       <r>    2.4617    1.0000 </r>
       <r>    7.6487    0.0000 </r>
       <r>    8.4715    0.0000 </r>
       <r>   12.7647    0.0000 </r>
       <r>   12.9072    0.0000 </r>
      </set>
      <set comment="kpoint 156">
       <r>   -3.6633    1.0000 </r>
       <r>   -0.2404    1.0000 </r>
       <r>    2.0050    1.0000 </r>
       <r>    3.1846    1.0000 </r>
       <r>    8.6307    0.0000 </r>
       <r>    9.3576    0.0000 </r>
       <r>    9.8782    0.0000 </r>
       <r>   12.9952    0.0000 </r>
      </set>
      <set comment="kpoint 157">
       <r>   -3.2322    1.0000 </r>
       <r>   -0.7365    1.0000 </r>
       <r>    1.7697    1.0000 </r>
       <r>    2.9474    1.0000 </r>
       <r>    8.9399    0.0000 </r>
       <r>    9.4930    0.0000 </r>
       <r>   10.1167    0.0000 </r>
       <r>   13.3654    0.0000 </r>
      </set>
      <set comment="kpoint 158">
       <r>   -2.8974    1.0000 </r>
       <r>   -1.1169    1.0000 </r>
       <r>    1.6674    1.0000 </r>
       <r>    2.8151    1.0000 </r>
       <r>    9.0604    0.0000 </r>
       <r>    9.3313    0.0000 </r>
       <r>   11.0781    0.0000 </r>
       <r>   12.3170    0.0000 </r>
      </set>
      <set comment="kpoint 159">
       <r>   -3.0182    1.0000 </r>
       <r>   -0.9120    1.0000 </r>
       <r>    1.8963    1.0000 </r>
       <r>    2.5953    1.0000 </r>
       <r>    8.5296    0.0000 </r>
       <r>    8.9518    0.0000 </r>
       <r>   10.6665    0.0000 </r>
       <r>   13.7040    0.0000 </r>
      </set>
      <set comment="kpoint 160">
       <r>   -2.6222    1.0000 </r>
       <r>   -1.3022    1.0000 </r>
       <r>    1.7058    1.0000 </r>
       <r>    2.4262    1.0000 </r>
       <r>    8.8073    0.0000 </r>
       <r>    9.7020    0.0000 </r>
       <r>   10.4798    0.0000 </r>
       <r>   12.4264    0.0000 </r>
      </set>
      <set comment="kpoint 161">
       <r>   -2.5092    1.0000 </r>
       <r>   -1.4088    1.0000 </r>
       <r>    1.5774    1.0000 </r>
       <r>    2.4581    1.0000 </r>
       <r>    8.9808    0.0000 </r>
       <r>   10.0752    0.0000 </r>
       <r>   10.9160    0.0000 </r>
       <r>   11.3387    0.0000 </r>
      </set>
      <set comment="kpoint 162">
       <r>   -2.8110    1.0000 </r>
       <r>   -1.1142    1.0000 </r>
       <r>    1.5801    1.0000 </r>
       <r>    2.6483    1.0000 </r>
       <r>    9.2025    0.0000 </r>
       <r>    9.7761    0.0000 </r>
       <r>   10.3098    0.0000 </r>
       <r>   12.2528    0.0000 </r>
      </set>
      <set comment="kpoint 163">
       <r>   -2.3246    1.0000 </r>
       <r>   -1.6124    1.0000 </r>
       <r>    1.9475    1.0000 </r>
       <r>    2.1772    1.0000 </r>
       <r>    8.5419    0.0000 </r>
       <r>    8.6796    0.0000 </r>
       <r>   11.5842    0.0000 </r>
       <r>   12.6053    0.0000 </r>
      </set>
      <set comment="kpoint 164">
       <r>   -2.1576    1.0000 </r>
       <r>   -1.7462    1.0000 </r>
       <r>    1.7221    1.0000 </r>
       <r>    2.2043    1.0000 </r>
       <r>    8.7621    0.0000 </r>
       <r>    9.6549    0.0000 </r>
       <r>   11.3323    0.0000 </r>
       <r>   11.4343    0.0000 </r>
      </set>
      <set comment="kpoint 165">
       <r>   -2.2258    1.0000 </r>
       <r>   -1.6555    1.0000 </r>
       <r>    1.7341    1.0000 </r>
       <r>    2.0951    1.0000 </r>
       <r>    9.7177    0.0000 </r>
       <r>    9.7573    0.0000 </r>
       <r>   10.3862    0.0000 </r>
       <r>   11.1982    0.0000 </r>
      </set>
     </set>
    </set>
   </array>
  </eigenvalues>
  <separator name="orbital magnetization" >
   <v name="MAGDIPOLOUT">      0.00000000      0.00000000      0.00000000</v>
  </separator>
  <dos>
   <i name="efermi">      5.93656296 </i>
   <total>
    <array>
     <dimension dim="1">gridpoints</dimension>
     <dimension dim="2">spin</dimension>
     <field>energy</field>
     <field>total</field>
     <field>integrated</field>
     <set>
      <set comment="spin 1">
       <r>    -8.1472     0.0000     0.0000 </r>
       <r>    -8.0620     0.0000     0.0000 </r>
       <r>    -7.9768     0.0000     0.0000 </r>
       <r>    -7.8916     0.0000     0.0000 </r>
       <r>    -7.8064     0.0000     0.0000 </r>
       <r>    -7.7212     0.0000     0.0000 </r>
       <r>    -7.6360     0.0000     0.0000 </r>
       <r>    -7.5508     0.0000     0.0000 </r>
       <r>    -7.4656     0.0000     0.0000 </r>
       <r>    -7.3804     0.0000     0.0000 </r>
       <r>    -7.2952     0.0000     0.0000 </r>
       <r>    -7.2100     0.0000     0.0000 </r>
       <r>    -7.1248     0.0000     0.0000 </r>
       <r>    -7.0396     0.0000     0.0000 </r>
       <r>    -6.9544     0.0000     0.0000 </r>
       <r>    -6.8692     0.0000     0.0000 </r>
       <r>    -6.7840     0.0000     0.0000 </r>
       <r>    -6.6988     0.0000     0.0000 </r>
       <r>    -6.6136     0.0000     0.0000 </r>
       <r>    -6.5284     0.0001     0.0000 </r>
       <r>    -6.4432     0.0006     0.0001 </r>
       <r>    -6.3580     0.0030     0.0003 </r>
       <r>    -6.2728     0.0103     0.0012 </r>
       <r>    -6.1876     0.0272     0.0035 </r>
       <r>    -6.1024     0.0563     0.0083 </r>
       <r>    -6.0172     0.0949     0.0164 </r>
       <r>    -5.9321     0.1358     0.0280 </r>
       <r>    -5.8469     0.1733     0.0427 </r>
       <r>    -5.7617     0.2055     0.0602 </r>
       <r>    -5.6765     0.2338     0.0802 </r>
       <r>    -5.5913     0.2587     0.1022 </r>
       <r>    -5.5061     0.2811     0.1262 </r>
       <r>    -5.4209     0.3039     0.1520 </r>
       <r>    -5.3357     0.3262     0.1798 </r>
       <r>    -5.2505     0.3444     0.2092 </r>
       <r>    -5.1653     0.3622     0.2400 </r>
       <r>    -5.0801     0.3852     0.2729 </r>
       <r>    -4.9949     0.4081     0.3076 </r>
       <r>    -4.9097     0.4230     0.3437 </r>
       <r>    -4.8245     0.4365     0.3809 </r>
       <r>    -4.7393     0.4610     0.4201 </r>
       <r>    -4.6541     0.4912     0.4620 </r>
       <r>    -4.5689     0.5103     0.5055 </r>
       <r>    -4.4837     0.5193     0.5497 </r>
       <r>    -4.3985     0.5399     0.5957 </r>
       <r>    -4.3133     0.5806     0.6452 </r>
       <r>    -4.2281     0.6211     0.6981 </r>
       <r>    -4.1429     0.6453     0.7530 </r>
       <r>    -4.0577     0.6710     0.8102 </r>
       <r>    -3.9725     0.7248     0.8720 </r>
       <r>    -3.8873     0.7978     0.9399 </r>
       <r>    -3.8021     0.8470     1.0121 </r>
       <r>    -3.7169     0.8489     1.0844 </r>
       <r>    -3.6318     0.8285     1.1550 </r>
       <r>    -3.5466     0.8156     1.2245 </r>
       <r>    -3.4614     0.8042     1.2930 </r>
       <r>    -3.3762     0.7750     1.3591 </r>
       <r>    -3.2910     0.7334     1.4215 </r>
       <r>    -3.2058     0.6994     1.4811 </r>
       <r>    -3.1206     0.6735     1.5385 </r>
       <r>    -3.0354     0.6422     1.5932 </r>
       <r>    -2.9502     0.6093     1.6451 </r>
       <r>    -2.8650     0.5842     1.6949 </r>
       <r>    -2.7798     0.5535     1.7421 </r>
       <r>    -2.6946     0.5054     1.7851 </r>
       <r>    -2.6094     0.4611     1.8244 </r>
       <r>    -2.5242     0.4385     1.8618 </r>
       <r>    -2.4390     0.4125     1.8969 </r>
       <r>    -2.3538     0.3544     1.9271 </r>
       <r>    -2.2686     0.2810     1.9510 </r>
       <r>    -2.1834     0.2265     1.9703 </r>
       <r>    -2.0982     0.1937     1.9868 </r>
       <r>    -2.0130     0.1665     2.0010 </r>
       <r>    -1.9278     0.1450     2.0134 </r>
       <r>    -1.8426     0.1477     2.0260 </r>
       <r>    -1.7574     0.1898     2.0421 </r>
       <r>    -1.6722     0.2637     2.0646 </r>
       <r>    -1.5870     0.3370     2.0933 </r>
       <r>    -1.5018     0.3838     2.1260 </r>
       <r>    -1.4166     0.4280     2.1625 </r>
       <r>    -1.3314     0.5281     2.2075 </r>
       <r>    -1.2463     0.7109     2.2680 </r>
       <r>    -1.1611     0.9348     2.3477 </r>
       <r>    -1.0759     1.1184     2.4429 </r>
       <r>    -0.9907     1.1934     2.5446 </r>
       <r>    -0.9055     1.1487     2.6425 </r>
       <r>    -0.8203     1.0366     2.7308 </r>
       <r>    -0.7351     0.9189     2.8091 </r>
       <r>    -0.6499     0.8157     2.8786 </r>
       <r>    -0.5647     0.7240     2.9403 </r>
       <r>    -0.4795     0.6503     2.9957 </r>
       <r>    -0.3943     0.6011     3.0469 </r>
       <r>    -0.3091     0.5717     3.0956 </r>
       <r>    -0.2239     0.5518     3.1426 </r>
       <r>    -0.1387     0.5273     3.1875 </r>
       <r>    -0.0535     0.4852     3.2288 </r>
       <r>     0.0317     0.4383     3.2662 </r>
       <r>     0.1169     0.4142     3.3015 </r>
       <r>     0.2021     0.4115     3.3365 </r>
       <r>     0.2873     0.4055     3.3711 </r>
       <r>     0.3725     0.3865     3.4040 </r>
       <r>     0.4577     0.3590     3.4346 </r>
       <r>     0.5429     0.3307     3.4628 </r>
       <r>     0.6281     0.3105     3.4892 </r>
       <r>     0.7133     0.2992     3.5147 </r>
       <r>     0.7985     0.2915     3.5395 </r>
       <r>     0.8837     0.2886     3.5641 </r>
       <r>     0.9689     0.2875     3.5886 </r>
       <r>     1.0540     0.2741     3.6120 </r>
       <r>     1.1392     0.2539     3.6336 </r>
       <r>     1.2244     0.2675     3.6564 </r>
       <r>     1.3096     0.3504     3.6863 </r>
       <r>     1.3948     0.4991     3.7288 </r>
       <r>     1.4800     0.6884     3.7874 </r>
       <r>     1.5652     0.8853     3.8629 </r>
       <r>     1.6504     1.0404     3.9515 </r>
       <r>     1.7356     1.1171     4.0467 </r>
       <r>     1.8208     1.1296     4.1429 </r>
       <r>     1.9060     1.1103     4.2375 </r>
       <r>     1.9912     1.0746     4.3291 </r>
       <r>     2.0764     1.0432     4.4179 </r>
       <r>     2.1616     1.0432     4.5068 </r>
       <r>     2.2468     1.0778     4.5986 </r>
       <r>     2.3320     1.1266     4.6946 </r>
       <r>     2.4172     1.1611     4.7935 </r>
       <r>     2.5024     1.1630     4.8926 </r>
       <r>     2.5876     1.1537     4.9909 </r>
       <r>     2.6728     1.1866     5.0920 </r>
       <r>     2.7580     1.2895     5.2019 </r>
       <r>     2.8432     1.4314     5.3238 </r>
       <r>     2.9284     1.5392     5.4549 </r>
       <r>     3.0136     1.5580     5.5877 </r>
       <r>     3.0988     1.5135     5.7166 </r>
       <r>     3.1840     1.4764     5.8424 </r>
       <r>     3.2692     1.4623     5.9670 </r>
       <r>     3.3544     1.4298     6.0888 </r>
       <r>     3.4395     1.3791     6.2063 </r>
       <r>     3.5247     1.3644     6.3226 </r>
       <r>     3.6099     1.3987     6.4417 </r>
       <r>     3.6951     1.4217     6.5628 </r>
       <r>     3.7803     1.3820     6.6806 </r>
       <r>     3.8655     1.3025     6.7916 </r>
       <r>     3.9507     1.2420     6.8974 </r>
       <r>     4.0359     1.2257     7.0018 </r>
       <r>     4.1211     1.2307     7.1066 </r>
       <r>     4.2063     1.2231     7.2108 </r>
       <r>     4.2915     1.1865     7.3119 </r>
       <r>     4.3767     1.1206     7.4074 </r>
       <r>     4.4619     1.0320     7.4953 </r>
       <r>     4.5471     0.9287     7.5744 </r>
       <r>     4.6323     0.8188     7.6442 </r>
       <r>     4.7175     0.7097     7.7047 </r>
       <r>     4.8027     0.6070     7.7564 </r>
       <r>     4.8879     0.5173     7.8005 </r>
       <r>     4.9731     0.4479     7.8386 </r>
       <r>     5.0583     0.4003     7.8727 </r>
       <r>     5.1435     0.3649     7.9038 </r>
       <r>     5.2287     0.3236     7.9314 </r>
       <r>     5.3139     0.2673     7.9541 </r>
       <r>     5.3991     0.2038     7.9715 </r>
       <r>     5.4843     0.1449     7.9839 </r>
       <r>     5.5695     0.0949     7.9919 </r>
       <r>     5.6547     0.0548     7.9966 </r>
       <r>     5.7399     0.0263     7.9989 </r>
       <r>     5.8250     0.0100     7.9997 </r>
       <r>     5.9102     0.0030     8.0000 </r>
       <r>     5.9954     0.0017     8.0001 </r>
       <r>     6.0806     0.0047     8.0005 </r>
       <r>     6.1658     0.0150     8.0018 </r>
       <r>     6.2510     0.0381     8.0050 </r>
       <r>     6.3362     0.0780     8.0117 </r>
       <r>     6.4214     0.1333     8.0230 </r>
       <r>     6.5066     0.1980     8.0399 </r>
       <r>     6.5918     0.2664     8.0626 </r>
       <r>     6.6770     0.3356     8.0912 </r>
       <r>     6.7622     0.4074     8.1259 </r>
       <r>     6.8474     0.4785     8.1667 </r>
       <r>     6.9326     0.5314     8.2119 </r>
       <r>     7.0178     0.5573     8.2594 </r>
       <r>     7.1030     0.5784     8.3087 </r>
       <r>     7.1882     0.6237     8.3618 </r>
       <r>     7.2734     0.7016     8.4216 </r>
       <r>     7.3586     0.8070     8.4903 </r>
       <r>     7.4438     0.9272     8.5693 </r>
       <r>     7.5290     1.0478     8.6586 </r>
       <r>     7.6142     1.1628     8.7577 </r>
       <r>     7.6994     1.2727     8.8661 </r>
       <r>     7.7846     1.3822     8.9839 </r>
       <r>     7.8698     1.4915     9.1109 </r>
       <r>     7.9550     1.5680     9.2445 </r>
       <r>     8.0402     1.5593     9.3774 </r>
       <r>     8.1253     1.4566     9.5015 </r>
       <r>     8.2105     1.3213     9.6140 </r>
       <r>     8.2957     1.2355     9.7193 </r>
       <r>     8.3809     1.2336     9.8244 </r>
       <r>     8.4661     1.2771     9.9332 </r>
       <r>     8.5513     1.2928    10.0433 </r>
       <r>     8.6365     1.2594    10.1506 </r>
       <r>     8.7217     1.2559    10.2576 </r>
       <r>     8.8069     1.3820    10.3754 </r>
       <r>     8.8921     1.6223    10.5136 </r>
       <r>     8.9773     1.8406    10.6704 </r>
       <r>     9.0625     1.9205    10.8340 </r>
       <r>     9.1477     1.8611    10.9926 </r>
       <r>     9.2329     1.7415    11.1410 </r>
       <r>     9.3181     1.6502    11.2815 </r>
       <r>     9.4033     1.6242    11.4199 </r>
       <r>     9.4885     1.6217    11.5581 </r>
       <r>     9.5737     1.5847    11.6931 </r>
       <r>     9.6589     1.5107    11.8218 </r>
       <r>     9.7441     1.4220    11.9429 </r>
       <r>     9.8293     1.3216    12.0555 </r>
       <r>     9.9145     1.2250    12.1599 </r>
       <r>     9.9997     1.1807    12.2605 </r>
       <r>    10.0849     1.2189    12.3643 </r>
       <r>    10.1701     1.3037    12.4754 </r>
       <r>    10.2553     1.3650    12.5917 </r>
       <r>    10.3405     1.3695    12.7084 </r>
       <r>    10.4257     1.3342    12.8220 </r>
       <r>    10.5108     1.2841    12.9314 </r>
       <r>    10.5960     1.2285    13.0361 </r>
       <r>    10.6812     1.1656    13.1354 </r>
       <r>    10.7664     1.0941    13.2286 </r>
       <r>    10.8516     1.0409    13.3173 </r>
       <r>    10.9368     1.0647    13.4080 </r>
       <r>    11.0220     1.1846    13.5089 </r>
       <r>    11.1072     1.3331    13.6225 </r>
       <r>    11.1924     1.4240    13.7438 </r>
       <r>    11.2776     1.4260    13.8653 </r>
       <r>    11.3628     1.3428    13.9797 </r>
       <r>    11.4480     1.1828    14.0805 </r>
       <r>    11.5332     0.9871    14.1646 </r>
       <r>    11.6184     0.8251    14.2349 </r>
       <r>    11.7036     0.7331    14.2973 </r>
       <r>    11.7888     0.6991    14.3569 </r>
       <r>    11.8740     0.7114    14.4175 </r>
       <r>    11.9592     0.7819    14.4841 </r>
       <r>    12.0444     0.9164    14.5622 </r>
       <r>    12.1296     1.0862    14.6548 </r>
       <r>    12.2148     1.2352    14.7600 </r>
       <r>    12.3000     1.3002    14.8708 </r>
       <r>    12.3852     1.2339    14.9759 </r>
       <r>    12.4704     1.0424    15.0647 </r>
       <r>    12.5556     0.8048    15.1333 </r>
       <r>    12.6408     0.6195    15.1860 </r>
       <r>    12.7260     0.5238    15.2307 </r>
       <r>    12.8111     0.4866    15.2721 </r>
       <r>    12.8963     0.4704    15.3122 </r>
       <r>    12.9815     0.4682    15.3521 </r>
       <r>    13.0667     0.4806    15.3930 </r>
       <r>    13.1519     0.5031    15.4359 </r>
       <r>    13.2371     0.5510    15.4828 </r>
       <r>    13.3223     0.6462    15.5379 </r>
       <r>    13.4075     0.7553    15.6022 </r>
       <r>    13.4927     0.7826    15.6689 </r>
       <r>    13.5779     0.6681    15.7258 </r>
       <r>    13.6631     0.4655    15.7655 </r>
       <r>    13.7483     0.2849    15.7898 </r>
       <r>    13.8335     0.1844    15.8055 </r>
       <r>    13.9187     0.1504    15.8183 </r>
       <r>    14.0039     0.1512    15.8312 </r>
       <r>    14.0891     0.1684    15.8455 </r>
       <r>    14.1743     0.1895    15.8617 </r>
       <r>    14.2595     0.2042    15.8791 </r>
       <r>    14.3447     0.2160    15.8975 </r>
       <r>    14.4299     0.2324    15.9173 </r>
       <r>    14.5151     0.2383    15.9376 </r>
       <r>    14.6003     0.2064    15.9551 </r>
       <r>    14.6855     0.1384    15.9669 </r>
       <r>    14.7707     0.0690    15.9728 </r>
       <r>    14.8559     0.0259    15.9750 </r>
       <r>    14.9411     0.0108    15.9759 </r>
       <r>    15.0263     0.0143    15.9772 </r>
       <r>    15.1115     0.0287    15.9796 </r>
       <r>    15.1966     0.0463    15.9836 </r>
       <r>    15.2818     0.0571    15.9884 </r>
       <r>    15.3670     0.0546    15.9931 </r>
       <r>    15.4522     0.0410    15.9966 </r>
       <r>    15.5374     0.0242    15.9986 </r>
       <r>    15.6226     0.0111    15.9996 </r>
       <r>    15.7078     0.0039    15.9999 </r>
       <r>    15.7930     0.0010    16.0000 </r>
       <r>    15.8782     0.0002    16.0000 </r>
       <r>    15.9634     0.0000    16.0000 </r>
       <r>    16.0486     0.0000    16.0000 </r>
       <r>    16.1338     0.0000    16.0000 </r>
       <r>    16.2190     0.0000    16.0000 </r>
       <r>    16.3042     0.0000    16.0000 </r>
       <r>    16.3894     0.0000    16.0000 </r>
       <r>    16.4746     0.0000    16.0000 </r>
       <r>    16.5598     0.0000    16.0000 </r>
       <r>    16.6450     0.0000    16.0000 </r>
       <r>    16.7302     0.0000    16.0000 </r>
       <r>    16.8154     0.0000    16.0000 </r>
       <r>    16.9006     0.0000    16.0000 </r>
       <r>    16.9858     0.0000    16.0000 </r>
       <r>    17.0710     0.0000    16.0000 </r>
       <r>    17.1562     0.0000    16.0000 </r>
       <r>    17.2414     0.0000    16.0000 </r>
       <r>    17.3266     0.0000    16.0000 </r>
       <r>    17.4118     0.0000    16.0000 </r>
      </set>
     </set>
    </array>
   </total>
  </dos>
 </calculation>
 <structure name="finalpos" >
  <crystal>
   <varray name="basis" >
    <v>       3.34889800       0.00000000       1.93348700 </v>
    <v>       1.11629900       3.15737200       1.93348700 </v>
    <v>       0.00000000       0.00000000       3.86697500 </v>
   </varray>
   <i name="volume">     40.88829843 </i>
   <varray name="rec_basis" >
    <v>       0.29860569      -0.10557300       0.00000000 </v>
    <v>       0.00000000       0.31671909       0.00000000 </v>
    <v>      -0.14930281      -0.10557302       0.25860007 </v>
   </varray>
  </crystal>
  <varray name="positions" >
   <v>       0.87500000       0.87500000       0.87500000 </v>
   <v>       0.12500000       0.12500000       0.12500000 </v>
  </varray>
 </structure>
</modeling>
