datafile (written by JARVIS-FF) 

500 	 atoms 
1  atom types
0.0 20.249999838  xlo xhi
0.0 20.249999837  ylo yhi
0.0 48.599999609  zlo zhi
0E-9 0E-9 0E-9  xy xz yz


Atoms 

     1   1 0.000000 0E-9 0E-9 15.187499878
     2   1 0.000000 0E-9 4.049999968 15.187499878
     3   1 0.000000 0E-9 8.099999935 15.187499878
     4   1 0.000000 0E-9 12.149999903 15.187499878
     5   1 0.000000 0E-9 16.199999870 15.187499878
     6   1 0.000000 4.049999968 0E-9 15.187499878
     7   1 0.000000 4.049999968 4.049999968 15.187499878
     8   1 0.000000 4.049999968 8.099999935 15.187499878
     9   1 0.000000 4.049999968 12.149999903 15.187499878
    10   1 0.000000 4.049999968 16.199999870 15.187499878
    11   1 0.000000 8.099999935 0E-9 15.187499878
    12   1 0.000000 8.099999935 4.049999968 15.187499878
    13   1 0.000000 8.099999935 8.099999935 15.187499878
    14   1 0.000000 8.099999935 12.149999903 15.187499878
    15   1 0.000000 8.099999935 16.199999870 15.187499878
    16   1 0.000000 12.149999903 0E-9 15.187499878
    17   1 0.000000 12.149999903 4.049999968 15.187499878
    18   1 0.000000 12.149999903 8.099999935 15.187499878
    19   1 0.000000 12.149999903 12.149999903 15.187499878
    20   1 0.000000 12.149999903 16.199999870 15.187499878
    21   1 0.000000 16.199999870 0E-9 15.187499878
    22   1 0.000000 16.199999870 4.049999968 15.187499878
    23   1 0.000000 16.199999870 8.099999935 15.187499878
    24   1 0.000000 16.199999870 12.149999903 15.187499878
    25   1 0.000000 16.199999870 16.199999870 15.187499878
    26   1 0.000000 2.024999984 2.024999984 15.187499878
    27   1 0.000000 2.024999984 6.074999951 15.187499878
    28   1 0.000000 2.024999984 10.124999919 15.187499878
    29   1 0.000000 2.024999984 14.174999886 15.187499878
    30   1 0.000000 2.024999984 18.224999854 15.187499878
    31   1 0.000000 6.074999951 2.024999984 15.187499878
    32   1 0.000000 6.074999951 6.074999951 15.187499878
    33   1 0.000000 6.074999951 10.124999919 15.187499878
    34   1 0.000000 6.074999951 14.174999886 15.187499878
    35   1 0.000000 6.074999951 18.224999854 15.187499878
    36   1 0.000000 10.124999919 2.024999984 15.187499878
    37   1 0.000000 10.124999919 6.074999951 15.187499878
    38   1 0.000000 10.124999919 10.124999919 15.187499878
    39   1 0.000000 10.124999919 14.174999886 15.187499878
    40   1 0.000000 10.124999919 18.224999854 15.187499878
    41   1 0.000000 14.174999886 2.024999984 15.187499878
    42   1 0.000000 14.174999886 6.074999951 15.187499878
    43   1 0.000000 14.174999886 10.124999919 15.187499878
    44   1 0.000000 14.174999886 14.174999886 15.187499878
    45   1 0.000000 14.174999886 18.224999854 15.187499878
    46   1 0.000000 18.224999854 2.024999984 15.187499878
    47   1 0.000000 18.224999854 6.074999951 15.187499878
    48   1 0.000000 18.224999854 10.124999919 15.187499878
    49   1 0.000000 18.224999854 14.174999886 15.187499878
    50   1 0.000000 18.224999854 18.224999854 15.187499878
    51   1 0.000000 0E-9 2.024999984 17.212499862
    52   1 0.000000 0E-9 6.074999951 17.212499862
    53   1 0.000000 0E-9 10.124999919 17.212499862
    54   1 0.000000 0E-9 14.174999886 17.212499862
    55   1 0.000000 0E-9 18.224999854 17.212499862
    56   1 0.000000 4.049999968 2.024999984 17.212499862
    57   1 0.000000 4.049999968 6.074999951 17.212499862
    58   1 0.000000 4.049999968 10.124999919 17.212499862
    59   1 0.000000 4.049999968 14.174999886 17.212499862
    60   1 0.000000 4.049999968 18.224999854 17.212499862
    61   1 0.000000 8.099999935 2.024999984 17.212499862
    62   1 0.000000 8.099999935 6.074999951 17.212499862
    63   1 0.000000 8.099999935 10.124999919 17.212499862
    64   1 0.000000 8.099999935 14.174999886 17.212499862
    65   1 0.000000 8.099999935 18.224999854 17.212499862
    66   1 0.000000 12.149999903 2.024999984 17.212499862
    67   1 0.000000 12.149999903 6.074999951 17.212499862
    68   1 0.000000 12.149999903 10.124999919 17.212499862
    69   1 0.000000 12.149999903 14.174999886 17.212499862
    70   1 0.000000 12.149999903 18.224999854 17.212499862
    71   1 0.000000 16.199999870 2.024999984 17.212499862
    72   1 0.000000 16.199999870 6.074999951 17.212499862
    73   1 0.000000 16.199999870 10.124999919 17.212499862
    74   1 0.000000 16.199999870 14.174999886 17.212499862
    75   1 0.000000 16.199999870 18.224999854 17.212499862
    76   1 0.000000 2.024999984 0E-9 17.212499862
    77   1 0.000000 2.024999984 4.049999968 17.212499862
    78   1 0.000000 2.024999984 8.099999935 17.212499862
    79   1 0.000000 2.024999984 12.149999903 17.212499862
    80   1 0.000000 2.024999984 16.199999870 17.212499862
    81   1 0.000000 6.074999951 0E-9 17.212499862
    82   1 0.000000 6.074999951 4.049999968 17.212499862
    83   1 0.000000 6.074999951 8.099999935 17.212499862
    84   1 0.000000 6.074999951 12.149999903 17.212499862
    85   1 0.000000 6.074999951 16.199999870 17.212499862
    86   1 0.000000 10.124999919 0E-9 17.212499862
    87   1 0.000000 10.124999919 4.049999968 17.212499862
    88   1 0.000000 10.124999919 8.099999935 17.212499862
    89   1 0.000000 10.124999919 12.149999903 17.212499862
    90   1 0.000000 10.124999919 16.199999870 17.212499862
    91   1 0.000000 14.174999886 0E-9 17.212499862
    92   1 0.000000 14.174999886 4.049999968 17.212499862
    93   1 0.000000 14.174999886 8.099999935 17.212499862
    94   1 0.000000 14.174999886 12.149999903 17.212499862
    95   1 0.000000 14.174999886 16.199999870 17.212499862
    96   1 0.000000 18.224999854 0E-9 17.212499862
    97   1 0.000000 18.224999854 4.049999968 17.212499862
    98   1 0.000000 18.224999854 8.099999935 17.212499862
    99   1 0.000000 18.224999854 12.149999903 17.212499862
   100   1 0.000000 18.224999854 16.199999870 17.212499862
   101   1 0.000000 0E-9 0E-9 19.237499846
   102   1 0.000000 0E-9 4.049999968 19.237499846
   103   1 0.000000 0E-9 8.099999935 19.237499846
   104   1 0.000000 0E-9 12.149999903 19.237499846
   105   1 0.000000 0E-9 16.199999870 19.237499846
   106   1 0.000000 4.049999968 0E-9 19.237499846
   107   1 0.000000 4.049999968 4.049999968 19.237499846
   108   1 0.000000 4.049999968 8.099999935 19.237499846
   109   1 0.000000 4.049999968 12.149999903 19.237499846
   110   1 0.000000 4.049999968 16.199999870 19.237499846
   111   1 0.000000 8.099999935 0E-9 19.237499846
   112   1 0.000000 8.099999935 4.049999968 19.237499846
   113   1 0.000000 8.099999935 8.099999935 19.237499846
   114   1 0.000000 8.099999935 12.149999903 19.237499846
   115   1 0.000000 8.099999935 16.199999870 19.237499846
   116   1 0.000000 12.149999903 0E-9 19.237499846
   117   1 0.000000 12.149999903 4.049999968 19.237499846
   118   1 0.000000 12.149999903 8.099999935 19.237499846
   119   1 0.000000 12.149999903 12.149999903 19.237499846
   120   1 0.000000 12.149999903 16.199999870 19.237499846
   121   1 0.000000 16.199999870 0E-9 19.237499846
   122   1 0.000000 16.199999870 4.049999968 19.237499846
   123   1 0.000000 16.199999870 8.099999935 19.237499846
   124   1 0.000000 16.199999870 12.149999903 19.237499846
   125   1 0.000000 16.199999870 16.199999870 19.237499846
   126   1 0.000000 2.024999984 2.024999984 19.237499846
   127   1 0.000000 2.024999984 6.074999951 19.237499846
   128   1 0.000000 2.024999984 10.124999919 19.237499846
   129   1 0.000000 2.024999984 14.174999886 19.237499846
   130   1 0.000000 2.024999984 18.224999854 19.237499846
   131   1 0.000000 6.074999951 2.024999984 19.237499846
   132   1 0.000000 6.074999951 6.074999951 19.237499846
   133   1 0.000000 6.074999951 10.124999919 19.237499846
   134   1 0.000000 6.074999951 14.174999886 19.237499846
   135   1 0.000000 6.074999951 18.224999854 19.237499846
   136   1 0.000000 10.124999919 2.024999984 19.237499846
   137   1 0.000000 10.124999919 6.074999951 19.237499846
   138   1 0.000000 10.124999919 10.124999919 19.237499846
   139   1 0.000000 10.124999919 14.174999886 19.237499846
   140   1 0.000000 10.124999919 18.224999854 19.237499846
   141   1 0.000000 14.174999886 2.024999984 19.237499846
   142   1 0.000000 14.174999886 6.074999951 19.237499846
   143   1 0.000000 14.174999886 10.124999919 19.237499846
   144   1 0.000000 14.174999886 14.174999886 19.237499846
   145   1 0.000000 14.174999886 18.224999854 19.237499846
   146   1 0.000000 18.224999854 2.024999984 19.237499846
   147   1 0.000000 18.224999854 6.074999951 19.237499846
   148   1 0.000000 18.224999854 10.124999919 19.237499846
   149   1 0.000000 18.224999854 14.174999886 19.237499846
   150   1 0.000000 18.224999854 18.224999854 19.237499846
   151   1 0.000000 0E-9 2.024999984 21.262499830
   152   1 0.000000 0E-9 6.074999951 21.262499830
   153   1 0.000000 0E-9 10.124999919 21.262499830
   154   1 0.000000 0E-9 14.174999886 21.262499830
   155   1 0.000000 0E-9 18.224999854 21.262499830
   156   1 0.000000 4.049999968 2.024999984 21.262499830
   157   1 0.000000 4.049999968 6.074999951 21.262499830
   158   1 0.000000 4.049999968 10.124999919 21.262499830
   159   1 0.000000 4.049999968 14.174999886 21.262499830
   160   1 0.000000 4.049999968 18.224999854 21.262499830
   161   1 0.000000 8.099999935 2.024999984 21.262499830
   162   1 0.000000 8.099999935 6.074999951 21.262499830
   163   1 0.000000 8.099999935 10.124999919 21.262499830
   164   1 0.000000 8.099999935 14.174999886 21.262499830
   165   1 0.000000 8.099999935 18.224999854 21.262499830
   166   1 0.000000 12.149999903 2.024999984 21.262499830
   167   1 0.000000 12.149999903 6.074999951 21.262499830
   168   1 0.000000 12.149999903 10.124999919 21.262499830
   169   1 0.000000 12.149999903 14.174999886 21.262499830
   170   1 0.000000 12.149999903 18.224999854 21.262499830
   171   1 0.000000 16.199999870 2.024999984 21.262499830
   172   1 0.000000 16.199999870 6.074999951 21.262499830
   173   1 0.000000 16.199999870 10.124999919 21.262499830
   174   1 0.000000 16.199999870 14.174999886 21.262499830
   175   1 0.000000 16.199999870 18.224999854 21.262499830
   176   1 0.000000 2.024999984 0E-9 21.262499830
   177   1 0.000000 2.024999984 4.049999968 21.262499830
   178   1 0.000000 2.024999984 8.099999935 21.262499830
   179   1 0.000000 2.024999984 12.149999903 21.262499830
   180   1 0.000000 2.024999984 16.199999870 21.262499830
   181   1 0.000000 6.074999951 0E-9 21.262499830
   182   1 0.000000 6.074999951 4.049999968 21.262499830
   183   1 0.000000 6.074999951 8.099999935 21.262499830
   184   1 0.000000 6.074999951 12.149999903 21.262499830
   185   1 0.000000 6.074999951 16.199999870 21.262499830
   186   1 0.000000 10.124999919 0E-9 21.262499830
   187   1 0.000000 10.124999919 4.049999968 21.262499830
   188   1 0.000000 10.124999919 8.099999935 21.262499830
   189   1 0.000000 10.124999919 12.149999903 21.262499830
   190   1 0.000000 10.124999919 16.199999870 21.262499830
   191   1 0.000000 14.174999886 0E-9 21.262499830
   192   1 0.000000 14.174999886 4.049999968 21.262499830
   193   1 0.000000 14.174999886 8.099999935 21.262499830
   194   1 0.000000 14.174999886 12.149999903 21.262499830
   195   1 0.000000 14.174999886 16.199999870 21.262499830
   196   1 0.000000 18.224999854 0E-9 21.262499830
   197   1 0.000000 18.224999854 4.049999968 21.262499830
   198   1 0.000000 18.224999854 8.099999935 21.262499830
   199   1 0.000000 18.224999854 12.149999903 21.262499830
   200   1 0.000000 18.224999854 16.199999870 21.262499830
   201   1 0.000000 0E-9 0E-9 23.287499813
   202   1 0.000000 0E-9 4.049999968 23.287499813
   203   1 0.000000 0E-9 8.099999935 23.287499813
   204   1 0.000000 0E-9 12.149999903 23.287499813
   205   1 0.000000 0E-9 16.199999870 23.287499813
   206   1 0.000000 4.049999968 0E-9 23.287499813
   207   1 0.000000 4.049999968 4.049999968 23.287499813
   208   1 0.000000 4.049999968 8.099999935 23.287499813
   209   1 0.000000 4.049999968 12.149999903 23.287499813
   210   1 0.000000 4.049999968 16.199999870 23.287499813
   211   1 0.000000 8.099999935 0E-9 23.287499813
   212   1 0.000000 8.099999935 4.049999968 23.287499813
   213   1 0.000000 8.099999935 8.099999935 23.287499813
   214   1 0.000000 8.099999935 12.149999903 23.287499813
   215   1 0.000000 8.099999935 16.199999870 23.287499813
   216   1 0.000000 12.149999903 0E-9 23.287499813
   217   1 0.000000 12.149999903 4.049999968 23.287499813
   218   1 0.000000 12.149999903 8.099999935 23.287499813
   219   1 0.000000 12.149999903 12.149999903 23.287499813
   220   1 0.000000 12.149999903 16.199999870 23.287499813
   221   1 0.000000 16.199999870 0E-9 23.287499813
   222   1 0.000000 16.199999870 4.049999968 23.287499813
   223   1 0.000000 16.199999870 8.099999935 23.287499813
   224   1 0.000000 16.199999870 12.149999903 23.287499813
   225   1 0.000000 16.199999870 16.199999870 23.287499813
   226   1 0.000000 2.024999984 2.024999984 23.287499813
   227   1 0.000000 2.024999984 6.074999951 23.287499813
   228   1 0.000000 2.024999984 10.124999919 23.287499813
   229   1 0.000000 2.024999984 14.174999886 23.287499813
   230   1 0.000000 2.024999984 18.224999854 23.287499813
   231   1 0.000000 6.074999951 2.024999984 23.287499813
   232   1 0.000000 6.074999951 6.074999951 23.287499813
   233   1 0.000000 6.074999951 10.124999919 23.287499813
   234   1 0.000000 6.074999951 14.174999886 23.287499813
   235   1 0.000000 6.074999951 18.224999854 23.287499813
   236   1 0.000000 10.124999919 2.024999984 23.287499813
   237   1 0.000000 10.124999919 6.074999951 23.287499813
   238   1 0.000000 10.124999919 10.124999919 23.287499813
   239   1 0.000000 10.124999919 14.174999886 23.287499813
   240   1 0.000000 10.124999919 18.224999854 23.287499813
   241   1 0.000000 14.174999886 2.024999984 23.287499813
   242   1 0.000000 14.174999886 6.074999951 23.287499813
   243   1 0.000000 14.174999886 10.124999919 23.287499813
   244   1 0.000000 14.174999886 14.174999886 23.287499813
   245   1 0.000000 14.174999886 18.224999854 23.287499813
   246   1 0.000000 18.224999854 2.024999984 23.287499813
   247   1 0.000000 18.224999854 6.074999951 23.287499813
   248   1 0.000000 18.224999854 10.124999919 23.287499813
   249   1 0.000000 18.224999854 14.174999886 23.287499813
   250   1 0.000000 18.224999854 18.224999854 23.287499813
   251   1 0.000000 0E-9 2.024999984 25.312499797
   252   1 0.000000 0E-9 6.074999951 25.312499797
   253   1 0.000000 0E-9 10.124999919 25.312499797
   254   1 0.000000 0E-9 14.174999886 25.312499797
   255   1 0.000000 0E-9 18.224999854 25.312499797
   256   1 0.000000 4.049999968 2.024999984 25.312499797
   257   1 0.000000 4.049999968 6.074999951 25.312499797
   258   1 0.000000 4.049999968 10.124999919 25.312499797
   259   1 0.000000 4.049999968 14.174999886 25.312499797
   260   1 0.000000 4.049999968 18.224999854 25.312499797
   261   1 0.000000 8.099999935 2.024999984 25.312499797
   262   1 0.000000 8.099999935 6.074999951 25.312499797
   263   1 0.000000 8.099999935 10.124999919 25.312499797
   264   1 0.000000 8.099999935 14.174999886 25.312499797
   265   1 0.000000 8.099999935 18.224999854 25.312499797
   266   1 0.000000 12.149999903 2.024999984 25.312499797
   267   1 0.000000 12.149999903 6.074999951 25.312499797
   268   1 0.000000 12.149999903 10.124999919 25.312499797
   269   1 0.000000 12.149999903 14.174999886 25.312499797
   270   1 0.000000 12.149999903 18.224999854 25.312499797
   271   1 0.000000 16.199999870 2.024999984 25.312499797
   272   1 0.000000 16.199999870 6.074999951 25.312499797
   273   1 0.000000 16.199999870 10.124999919 25.312499797
   274   1 0.000000 16.199999870 14.174999886 25.312499797
   275   1 0.000000 16.199999870 18.224999854 25.312499797
   276   1 0.000000 2.024999984 0E-9 25.312499797
   277   1 0.000000 2.024999984 4.049999968 25.312499797
   278   1 0.000000 2.024999984 8.099999935 25.312499797
   279   1 0.000000 2.024999984 12.149999903 25.312499797
   280   1 0.000000 2.024999984 16.199999870 25.312499797
   281   1 0.000000 6.074999951 0E-9 25.312499797
   282   1 0.000000 6.074999951 4.049999968 25.312499797
   283   1 0.000000 6.074999951 8.099999935 25.312499797
   284   1 0.000000 6.074999951 12.149999903 25.312499797
   285   1 0.000000 6.074999951 16.199999870 25.312499797
   286   1 0.000000 10.124999919 0E-9 25.312499797
   287   1 0.000000 10.124999919 4.049999968 25.312499797
   288   1 0.000000 10.124999919 8.099999935 25.312499797
   289   1 0.000000 10.124999919 12.149999903 25.312499797
   290   1 0.000000 10.124999919 16.199999870 25.312499797
   291   1 0.000000 14.174999886 0E-9 25.312499797
   292   1 0.000000 14.174999886 4.049999968 25.312499797
   293   1 0.000000 14.174999886 8.099999935 25.312499797
   294   1 0.000000 14.174999886 12.149999903 25.312499797
   295   1 0.000000 14.174999886 16.199999870 25.312499797
   296   1 0.000000 18.224999854 0E-9 25.312499797
   297   1 0.000000 18.224999854 4.049999968 25.312499797
   298   1 0.000000 18.224999854 8.099999935 25.312499797
   299   1 0.000000 18.224999854 12.149999903 25.312499797
   300   1 0.000000 18.224999854 16.199999870 25.312499797
   301   1 0.000000 0E-9 0E-9 27.337499781
   302   1 0.000000 0E-9 4.049999968 27.337499781
   303   1 0.000000 0E-9 8.099999935 27.337499781
   304   1 0.000000 0E-9 12.149999903 27.337499781
   305   1 0.000000 0E-9 16.199999870 27.337499781
   306   1 0.000000 4.049999968 0E-9 27.337499781
   307   1 0.000000 4.049999968 4.049999968 27.337499781
   308   1 0.000000 4.049999968 8.099999935 27.337499781
   309   1 0.000000 4.049999968 12.149999903 27.337499781
   310   1 0.000000 4.049999968 16.199999870 27.337499781
   311   1 0.000000 8.099999935 0E-9 27.337499781
   312   1 0.000000 8.099999935 4.049999968 27.337499781
   313   1 0.000000 8.099999935 8.099999935 27.337499781
   314   1 0.000000 8.099999935 12.149999903 27.337499781
   315   1 0.000000 8.099999935 16.199999870 27.337499781
   316   1 0.000000 12.149999903 0E-9 27.337499781
   317   1 0.000000 12.149999903 4.049999968 27.337499781
   318   1 0.000000 12.149999903 8.099999935 27.337499781
   319   1 0.000000 12.149999903 12.149999903 27.337499781
   320   1 0.000000 12.149999903 16.199999870 27.337499781
   321   1 0.000000 16.199999870 0E-9 27.337499781
   322   1 0.000000 16.199999870 4.049999968 27.337499781
   323   1 0.000000 16.199999870 8.099999935 27.337499781
   324   1 0.000000 16.199999870 12.149999903 27.337499781
   325   1 0.000000 16.199999870 16.199999870 27.337499781
   326   1 0.000000 2.024999984 2.024999984 27.337499781
   327   1 0.000000 2.024999984 6.074999951 27.337499781
   328   1 0.000000 2.024999984 10.124999919 27.337499781
   329   1 0.000000 2.024999984 14.174999886 27.337499781
   330   1 0.000000 2.024999984 18.224999854 27.337499781
   331   1 0.000000 6.074999951 2.024999984 27.337499781
   332   1 0.000000 6.074999951 6.074999951 27.337499781
   333   1 0.000000 6.074999951 10.124999919 27.337499781
   334   1 0.000000 6.074999951 14.174999886 27.337499781
   335   1 0.000000 6.074999951 18.224999854 27.337499781
   336   1 0.000000 10.124999919 2.024999984 27.337499781
   337   1 0.000000 10.124999919 6.074999951 27.337499781
   338   1 0.000000 10.124999919 10.124999919 27.337499781
   339   1 0.000000 10.124999919 14.174999886 27.337499781
   340   1 0.000000 10.124999919 18.224999854 27.337499781
   341   1 0.000000 14.174999886 2.024999984 27.337499781
   342   1 0.000000 14.174999886 6.074999951 27.337499781
   343   1 0.000000 14.174999886 10.124999919 27.337499781
   344   1 0.000000 14.174999886 14.174999886 27.337499781
   345   1 0.000000 14.174999886 18.224999854 27.337499781
   346   1 0.000000 18.224999854 2.024999984 27.337499781
   347   1 0.000000 18.224999854 6.074999951 27.337499781
   348   1 0.000000 18.224999854 10.124999919 27.337499781
   349   1 0.000000 18.224999854 14.174999886 27.337499781
   350   1 0.000000 18.224999854 18.224999854 27.337499781
   351   1 0.000000 0E-9 2.024999984 29.362499765
   352   1 0.000000 0E-9 6.074999951 29.362499765
   353   1 0.000000 0E-9 10.124999919 29.362499765
   354   1 0.000000 0E-9 14.174999886 29.362499765
   355   1 0.000000 0E-9 18.224999854 29.362499765
   356   1 0.000000 4.049999968 2.024999984 29.362499765
   357   1 0.000000 4.049999968 6.074999951 29.362499765
   358   1 0.000000 4.049999968 10.124999919 29.362499765
   359   1 0.000000 4.049999968 14.174999886 29.362499765
   360   1 0.000000 4.049999968 18.224999854 29.362499765
   361   1 0.000000 8.099999935 2.024999984 29.362499765
   362   1 0.000000 8.099999935 6.074999951 29.362499765
   363   1 0.000000 8.099999935 10.124999919 29.362499765
   364   1 0.000000 8.099999935 14.174999886 29.362499765
   365   1 0.000000 8.099999935 18.224999854 29.362499765
   366   1 0.000000 12.149999903 2.024999984 29.362499765
   367   1 0.000000 12.149999903 6.074999951 29.362499765
   368   1 0.000000 12.149999903 10.124999919 29.362499765
   369   1 0.000000 12.149999903 14.174999886 29.362499765
   370   1 0.000000 12.149999903 18.224999854 29.362499765
   371   1 0.000000 16.199999870 2.024999984 29.362499765
   372   1 0.000000 16.199999870 6.074999951 29.362499765
   373   1 0.000000 16.199999870 10.124999919 29.362499765
   374   1 0.000000 16.199999870 14.174999886 29.362499765
   375   1 0.000000 16.199999870 18.224999854 29.362499765
   376   1 0.000000 2.024999984 0E-9 29.362499765
   377   1 0.000000 2.024999984 4.049999968 29.362499765
   378   1 0.000000 2.024999984 8.099999935 29.362499765
   379   1 0.000000 2.024999984 12.149999903 29.362499765
   380   1 0.000000 2.024999984 16.199999870 29.362499765
   381   1 0.000000 6.074999951 0E-9 29.362499765
   382   1 0.000000 6.074999951 4.049999968 29.362499765
   383   1 0.000000 6.074999951 8.099999935 29.362499765
   384   1 0.000000 6.074999951 12.149999903 29.362499765
   385   1 0.000000 6.074999951 16.199999870 29.362499765
   386   1 0.000000 10.124999919 0E-9 29.362499765
   387   1 0.000000 10.124999919 4.049999968 29.362499765
   388   1 0.000000 10.124999919 8.099999935 29.362499765
   389   1 0.000000 10.124999919 12.149999903 29.362499765
   390   1 0.000000 10.124999919 16.199999870 29.362499765
   391   1 0.000000 14.174999886 0E-9 29.362499765
   392   1 0.000000 14.174999886 4.049999968 29.362499765
   393   1 0.000000 14.174999886 8.099999935 29.362499765
   394   1 0.000000 14.174999886 12.149999903 29.362499765
   395   1 0.000000 14.174999886 16.199999870 29.362499765
   396   1 0.000000 18.224999854 0E-9 29.362499765
   397   1 0.000000 18.224999854 4.049999968 29.362499765
   398   1 0.000000 18.224999854 8.099999935 29.362499765
   399   1 0.000000 18.224999854 12.149999903 29.362499765
   400   1 0.000000 18.224999854 16.199999870 29.362499765
   401   1 0.000000 0E-9 0E-9 31.387499748
   402   1 0.000000 0E-9 4.049999968 31.387499748
   403   1 0.000000 0E-9 8.099999935 31.387499748
   404   1 0.000000 0E-9 12.149999903 31.387499748
   405   1 0.000000 0E-9 16.199999870 31.387499748
   406   1 0.000000 4.049999968 0E-9 31.387499748
   407   1 0.000000 4.049999968 4.049999968 31.387499748
   408   1 0.000000 4.049999968 8.099999935 31.387499748
   409   1 0.000000 4.049999968 12.149999903 31.387499748
   410   1 0.000000 4.049999968 16.199999870 31.387499748
   411   1 0.000000 8.099999935 0E-9 31.387499748
   412   1 0.000000 8.099999935 4.049999968 31.387499748
   413   1 0.000000 8.099999935 8.099999935 31.387499748
   414   1 0.000000 8.099999935 12.149999903 31.387499748
   415   1 0.000000 8.099999935 16.199999870 31.387499748
   416   1 0.000000 12.149999903 0E-9 31.387499748
   417   1 0.000000 12.149999903 4.049999968 31.387499748
   418   1 0.000000 12.149999903 8.099999935 31.387499748
   419   1 0.000000 12.149999903 12.149999903 31.387499748
   420   1 0.000000 12.149999903 16.199999870 31.387499748
   421   1 0.000000 16.199999870 0E-9 31.387499748
   422   1 0.000000 16.199999870 4.049999968 31.387499748
   423   1 0.000000 16.199999870 8.099999935 31.387499748
   424   1 0.000000 16.199999870 12.149999903 31.387499748
   425   1 0.000000 16.199999870 16.199999870 31.387499748
   426   1 0.000000 2.024999984 2.024999984 31.387499748
   427   1 0.000000 2.024999984 6.074999951 31.387499748
   428   1 0.000000 2.024999984 10.124999919 31.387499748
   429   1 0.000000 2.024999984 14.174999886 31.387499748
   430   1 0.000000 2.024999984 18.224999854 31.387499748
   431   1 0.000000 6.074999951 2.024999984 31.387499748
   432   1 0.000000 6.074999951 6.074999951 31.387499748
   433   1 0.000000 6.074999951 10.124999919 31.387499748
   434   1 0.000000 6.074999951 14.174999886 31.387499748
   435   1 0.000000 6.074999951 18.224999854 31.387499748
   436   1 0.000000 10.124999919 2.024999984 31.387499748
   437   1 0.000000 10.124999919 6.074999951 31.387499748
   438   1 0.000000 10.124999919 10.124999919 31.387499748
   439   1 0.000000 10.124999919 14.174999886 31.387499748
   440   1 0.000000 10.124999919 18.224999854 31.387499748
   441   1 0.000000 14.174999886 2.024999984 31.387499748
   442   1 0.000000 14.174999886 6.074999951 31.387499748
   443   1 0.000000 14.174999886 10.124999919 31.387499748
   444   1 0.000000 14.174999886 14.174999886 31.387499748
   445   1 0.000000 14.174999886 18.224999854 31.387499748
   446   1 0.000000 18.224999854 2.024999984 31.387499748
   447   1 0.000000 18.224999854 6.074999951 31.387499748
   448   1 0.000000 18.224999854 10.124999919 31.387499748
   449   1 0.000000 18.224999854 14.174999886 31.387499748
   450   1 0.000000 18.224999854 18.224999854 31.387499748
   451   1 0.000000 0E-9 2.024999984 33.412499732
   452   1 0.000000 0E-9 6.074999951 33.412499732
   453   1 0.000000 0E-9 10.124999919 33.412499732
   454   1 0.000000 0E-9 14.174999886 33.412499732
   455   1 0.000000 0E-9 18.224999854 33.412499732
   456   1 0.000000 4.049999968 2.024999984 33.412499732
   457   1 0.000000 4.049999968 6.074999951 33.412499732
   458   1 0.000000 4.049999968 10.124999919 33.412499732
   459   1 0.000000 4.049999968 14.174999886 33.412499732
   460   1 0.000000 4.049999968 18.224999854 33.412499732
   461   1 0.000000 8.099999935 2.024999984 33.412499732
   462   1 0.000000 8.099999935 6.074999951 33.412499732
   463   1 0.000000 8.099999935 10.124999919 33.412499732
   464   1 0.000000 8.099999935 14.174999886 33.412499732
   465   1 0.000000 8.099999935 18.224999854 33.412499732
   466   1 0.000000 12.149999903 2.024999984 33.412499732
   467   1 0.000000 12.149999903 6.074999951 33.412499732
   468   1 0.000000 12.149999903 10.124999919 33.412499732
   469   1 0.000000 12.149999903 14.174999886 33.412499732
   470   1 0.000000 12.149999903 18.224999854 33.412499732
   471   1 0.000000 16.199999870 2.024999984 33.412499732
   472   1 0.000000 16.199999870 6.074999951 33.412499732
   473   1 0.000000 16.199999870 10.124999919 33.412499732
   474   1 0.000000 16.199999870 14.174999886 33.412499732
   475   1 0.000000 16.199999870 18.224999854 33.412499732
   476   1 0.000000 2.024999984 0E-9 33.412499732
   477   1 0.000000 2.024999984 4.049999968 33.412499732
   478   1 0.000000 2.024999984 8.099999935 33.412499732
   479   1 0.000000 2.024999984 12.149999903 33.412499732
   480   1 0.000000 2.024999984 16.199999870 33.412499732
   481   1 0.000000 6.074999951 0E-9 33.412499732
   482   1 0.000000 6.074999951 4.049999968 33.412499732
   483   1 0.000000 6.074999951 8.099999935 33.412499732
   484   1 0.000000 6.074999951 12.149999903 33.412499732
   485   1 0.000000 6.074999951 16.199999870 33.412499732
   486   1 0.000000 10.124999919 0E-9 33.412499732
   487   1 0.000000 10.124999919 4.049999968 33.412499732
   488   1 0.000000 10.124999919 8.099999935 33.412499732
   489   1 0.000000 10.124999919 12.149999903 33.412499732
   490   1 0.000000 10.124999919 16.199999870 33.412499732
   491   1 0.000000 14.174999886 0E-9 33.412499732
   492   1 0.000000 14.174999886 4.049999968 33.412499732
   493   1 0.000000 14.174999886 8.099999935 33.412499732
   494   1 0.000000 14.174999886 12.149999903 33.412499732
   495   1 0.000000 14.174999886 16.199999870 33.412499732
   496   1 0.000000 18.224999854 0E-9 33.412499732
   497   1 0.000000 18.224999854 4.049999968 33.412499732
   498   1 0.000000 18.224999854 8.099999935 33.412499732
   499   1 0.000000 18.224999854 12.149999903 33.412499732
   500   1 0.000000 18.224999854 16.199999870 33.412499732
