LAMMPS (13 Jan 2016)
Reading data file ...
  triclinic box = (0 0 0) to (20.25 20.25 48.6) with tilt (0 0 0)
  1 by 1 by 1 MPI processor grid
  reading atoms ...
  500 atoms
Neighbor list info ...
  1 neighbor list requests
  update every 1 steps, delay 0 steps, check yes
  max neighbors/atom: 2000, page size: 100000
  master list distance cutoff = 7.72488
  ghost atom cutoff = 7.72488
Setting up cg style minimization ...
  Unit style: metal
Memory usage per processor = 3.35025 Mbytes
Step Temp Press CPU Pxx Pyy Pzz Pxy Pxz Pyz KinEng PotEng TotEng Volume Lx Ly Lz Atoms 
       0            0   -10054.571            0   -10793.945   -10793.945   -8575.8241 5.4389981e-13  1.90761e-11 -1.0065772e-11            0   -1646.1397   -1646.1397    19929.037        20.25        20.25         48.6      500 
       1            0   -9199.1671 0.0017039776   -9892.7101   -9892.7101   -7812.0813 -1.7565404e-12 1.4285173e-11 -9.5202603e-12            0   -1646.4779   -1646.4779    19873.397     20.22975     20.22975    48.561387      500 
       2            0   -8333.6034 0.0034279823   -8980.1664   -8980.1664   -7040.4774 8.5626865e-12 -6.2836927e-12 -8.6908907e-12            0   -1646.7849   -1646.7849    19817.959      20.2095      20.2095    48.523016      500 
       3            0   -7457.9788 0.0051400661   -8056.3469   -8056.3469   -6261.2424  2.03527e-12 2.1604637e-12 7.5991969e-12            0   -1647.0605   -1647.0605    19762.739     20.18925     20.18925    48.484929      500 
       4            0   -6572.4843 0.0068559647   -7121.3544   -7121.3544   -5474.7441 -6.6316704e-12 -6.3496061e-13 1.7469248e-11            0   -1647.3046   -1647.3046    19707.759       20.169       20.169    48.447182      500 
       5            0   -5677.7642 0.0085661411   -6175.7134   -6175.7134   -4681.8657 6.8945049e-12 -4.3262401e-12 -6.9119924e-12            0    -1647.517    -1647.517     19653.05     20.14875     20.14875    48.409852      500 
       6            0   -4774.5141   0.01028204   -5219.9611   -5219.9611   -3883.6201 4.8386406e-12 2.0889342e-11 4.7069203e-13            0   -1647.6974   -1647.6974    19598.655      20.1285      20.1285    48.373048      500 
       7            0   -3863.7089  0.011994123    -4254.813    -4254.813   -3081.5007 1.3230694e-12 -1.1044725e-11 7.3265187e-12            0   -1647.8459   -1647.8459     19544.64     20.10825     20.10825    48.336938      500 
       8            0   -2947.1042  0.013704062   -3281.6099   -3281.6099   -2278.0927 1.1385346e-11 -1.0837202e-11 1.7430553e-11            0   -1647.9624   -1647.9624    19491.115       20.088       20.088    48.301796      500 
       9            0   -2028.1387   0.01541996   -2303.0569   -2303.0569   -1478.3022 2.1962111e-13 7.0317093e-12 8.7496327e-12            0   -1648.0471   -1648.0471    19438.276     20.06775     20.06775    48.268122      500 
      10            0   -1114.2156   0.01712513   -1324.9087   -1324.9087   -692.82957 -6.1480194e-12 1.3230993e-11 8.8859941e-12            0   -1648.1003   -1648.1003    19386.556      20.0475      20.0475    48.236994      500 
      11            0   -226.90928  0.018835068   -363.94027   -363.94027    47.152708 -2.5566611e-12 -8.0372749e-12 5.4242574e-12            0   -1648.1237   -1648.1237    19337.244     20.02725     20.02725    48.211645      500 
      12            0     174.2614  0.022207022    107.96401    107.96401    306.85618 -8.3524424e-12 8.5206237e-13 -5.3052275e-12            0   -1648.1269   -1648.1269    19315.875     20.01542     20.01542    48.215312      500 
      13            0    52.151774  0.023916006    87.410384    87.410383   -18.365446 8.6868681e-13 -1.3522977e-12 -4.2628772e-12            0   -1648.1317   -1648.1317     19324.77    20.009945    20.009945    48.263912      500 
      14            0   -367.81379  0.027298927   -411.09437   -411.09437   -281.25262 8.4985636e-12 2.2898801e-11 -2.9380826e-12            0   -1648.1353   -1648.1353    19347.429    20.022645    20.022645    48.259226      500 
      15            0   -246.68936  0.029005051   -396.58074   -396.58074    53.093392 -1.107747e-12 -1.9283757e-11 -8.7880146e-12            0   -1648.1496   -1648.1496    19339.344    20.028549    20.028549    48.210626      500 
      16            0    180.64245  0.032386065    105.69475    105.69475    330.53784 1.7162409e-12 -5.0098197e-12 -3.0106754e-12            0   -1648.1533   -1648.1533    19316.569    20.015972    20.015972    48.214385      500 
      17            0    63.151036  0.034091949    90.511313    90.511312    8.4304824 1.903014e-12 1.5753952e-12 1.5036816e-12            0   -1648.1581   -1648.1581    19325.206    20.010363    20.010363    48.262985      500 
      18            0   -314.97524   0.03747797   -341.89024   -341.89023   -261.14525 -4.9535888e-12 -3.3311981e-11 -1.4045463e-11            0   -1648.1608   -1648.1608    19345.855     20.02058     20.02058    48.265257      500 
      19            0   -215.42952  0.039192915   -353.32064   -353.32063    60.352711 9.2667937e-12 -1.7842585e-12 1.0956746e-11            0   -1648.1788   -1648.1788    19339.095    20.027167    20.027167    48.216657      500 
      20            0    208.40612  0.042568922    144.91495    144.91495    335.38845 -4.9162132e-12 -2.0994417e-13 6.1046817e-12            0   -1648.1824   -1648.1824    19316.546    20.014698    20.014698    48.220466      500 
      21            0    117.46486  0.044275999    160.09946    160.09946    32.195678 2.0337499e-12 -1.1604841e-11 7.3211158e-12            0   -1648.1877   -1648.1877    19323.797    20.008374    20.008374    48.269066      500 
      22            0   -181.01601   0.04765296   -176.10916   -176.10916   -190.82971 -1.3221169e-14 -9.6869859e-12 -1.3213336e-13            0   -1648.1893   -1648.1893    19340.095    20.016046    20.016046    48.272749      500 
      23            0   -99.707381  0.049360037   -206.76153   -206.76153    114.40091 4.4931546e-12 4.2811025e-13 -1.8424047e-12            0   -1648.2008   -1648.2008    19334.042    20.022995    20.022995    48.224149      500 
      24            0    340.89899  0.052742004    333.36356    333.36356    355.96983 8.8006376e-12 -2.0119955e-12 -1.527732e-11            0   -1648.2051   -1648.2051    19311.177    20.008434    20.008434    48.237251      500 
      25            0    291.78125  0.054454088    395.88871     395.8887    83.566346 -9.1125288e-12 -1.6545461e-11 9.526579e-12            0   -1648.2122   -1648.2122    19316.343    20.001037    20.001037    48.285851      500 
      26            0   -130.22935  0.057826996   -72.855402   -72.855405   -244.97724 -5.5093962e-12 -3.2469368e-12 -2.9337594e-12            0   -1648.2154   -1648.2154    19339.418    20.011363    20.011363    48.293654      500 
      27            0   -87.242445  0.059538126   -145.77477   -145.77476    29.822197 -1.233219e-11 3.9503669e-11 -7.5419835e-12            0   -1648.2215   -1648.2215    19335.134    20.019222    20.019222    48.245054      500 
      28            0    298.54354  0.062922955    292.32297    292.32297    310.98467 -1.4050303e-12 -7.7562248e-12 -1.661961e-11            0   -1648.2243   -1648.2243    19314.466    20.009048    20.009048    48.242504      500 
      29            0    357.53835  0.064630032    477.62557    477.62557    117.36391 1.3572769e-12 1.4511168e-12 1.3567087e-11            0    -1648.237    -1648.237    19314.165    19.998821    19.998821    48.291104      500 
      30            0   -224.68793  0.068007946   -151.35635   -151.35636   -371.35108 -2.496257e-12 -8.1208887e-12 -4.7867464e-12            0    -1648.243    -1648.243    19346.443    20.011759    20.011759    48.309284      500 
      31            0   -401.39735  0.069715977   -479.76166   -479.76166   -244.66873 3.9990506e-12 1.5170985e-11 -6.3786973e-12            0   -1648.2542   -1648.2542    19354.312    20.025904    20.025904    48.260684      500 
      32            0    245.85158  0.073096991    169.07353    169.07353    399.40767 7.8899933e-12 -2.022069e-11 6.2189033e-12            0   -1648.2616   -1648.2616    19317.967    20.015154    20.015154    48.221815      500 
      33            0    983.91206  0.074811935     1020.157     1020.157    911.42221 -8.6508351e-12 7.9040745e-13 -1.3065947e-11            0   -1648.2878   -1648.2878    19280.606    19.994904    19.994904    48.226088      500 
      34            0    461.13654  0.076519966    528.94135    528.94135    325.52691 -8.0772227e-12 -7.9291945e-12 2.1769125e-12            0   -1648.3311   -1648.3311    19311.997    20.001098    20.001098    48.274688      500 
      35            0   -48.701871  0.079898119     -19.6111   -19.611101   -106.88341 -1.0576924e-13 4.2490457e-12 5.6677724e-12            0   -1648.3357   -1648.3357    19340.115    20.012257    20.012257    48.291077      500 
      36            0   -13.154843  0.081605911   -102.06418   -102.06418    164.66382 -8.5838972e-12 9.4582423e-12 -5.1884144e-12            0   -1648.3443   -1648.3443    19336.413    20.020419    20.020419    48.242477      500 
      37            0    246.33087  0.083317995    314.47707    314.47707    110.03847 -6.8561013e-12 -1.616092e-11 2.7990728e-11            0   -1648.3576   -1648.3576    19325.323    20.004603    20.004603    48.291077      500 
      38            0   -326.25999  0.085026026   -230.32173   -230.32174   -518.13651 -5.5469223e-12 -1.0776238e-11 4.040422e-12            0   -1648.3667   -1648.3667    19358.901    20.011907    20.011907    48.339677      500 
      39            0   -744.45702  0.086741924   -605.36516   -605.36517   -1022.6407 -2.9746708e-12 1.8516015e-11 1.3132409e-11            0   -1648.3926   -1648.3926    19385.542    20.015613    20.015613    48.388277      500 
      40            0    301.21668  0.088452101     485.0199    485.01989   -66.389756 -7.4920515e-12 1.4564976e-11 5.474418e-12            0   -1648.4424   -1648.4424    19329.068    19.995363    19.995363    48.345088      500 
      41            0    155.89424  0.090158939    184.71603    184.71603    98.250669 7.0556923e-12 -1.0734068e-12 -1.9906524e-13            0   -1648.4859   -1648.4859    19336.431     20.00923     20.00923    48.296488      500 
      42            0   -102.70684  0.093539953   -95.967774   -95.967775   -116.18498 4.0170272e-12 6.6340494e-12 1.3385981e-12            0    -1648.487    -1648.487    19350.725    20.015085    20.015085    48.303919      500 
      43            0   -61.594081  0.095251083   -173.96513   -173.96512    163.14801 9.0532103e-12 -1.0697638e-11 -9.300775e-12            0   -1648.5027   -1648.5027    19347.123    20.023298    20.023298    48.255319      500 
      44            0    435.92607  0.098634958    486.20601    486.20601     335.3662 1.5747507e-12 1.1884509e-11 -1.0712271e-11            0     -1648.51     -1648.51    19322.512    20.003169    20.003169    48.290974      500 
      45            0    380.28078   0.10034394    539.76519    539.76518    61.311959 2.1103637e-12 5.7583683e-12 1.0090378e-11            0   -1648.5164   -1648.5164    19328.182    19.996044    19.996044    48.339574      500 
      46            0   -142.12086   0.10400009   -46.190531   -46.190535   -333.98151 7.3613388e-12 -9.4290888e-12 -1.5526497e-11            0   -1648.5214   -1648.5214    19356.649    20.009211    20.009211     48.34708      500 
      47            0    -80.53614   0.10573006   -95.814922   -95.814922   -49.978576 -1.0352552e-12 -6.2590035e-12 -1.1823758e-11            0    -1648.526    -1648.526    19351.203    20.016459    20.016459     48.29848      500 
      48            0    179.96161   0.10912013     186.5569     186.5569    166.77104 -2.9396027e-12 -9.9920024e-12 2.5883985e-12            0   -1648.5272   -1648.5272    19336.941    20.010594    20.010594    48.291177      500 
      49            0    129.63749   0.11084294     239.5102    239.51019   -90.107905 6.9238466e-12 -2.6249727e-12 4.3468716e-12            0   -1648.5546   -1648.5546    19343.367    20.003856    20.003856    48.339777      500 
      50            0   -266.19558     0.114223   -241.53851   -241.53852    -315.5097 5.8944052e-12 1.4217472e-11 7.2182603e-12            0    -1648.558    -1648.558    19364.406    20.016625    20.016625    48.330633      500 
      51            0   -245.26604   0.11593699   -338.84517   -338.84517   -58.107777 -4.1400078e-12 5.2845768e-12 2.7545579e-11            0   -1648.5631   -1648.5631    19361.309    20.025095    20.025095    48.282033      500 
      52            0    134.36644   0.11931896    74.494286    74.494289    254.11076 1.0012827e-11 1.2861396e-11 -9.0356212e-12            0   -1648.5657   -1648.5657    19340.474     20.01638     20.01638    48.272084      500 
      53            0    138.66523   0.12103009    197.77566    197.77566     20.44437 8.2316146e-12 -2.0944282e-11 -4.5705118e-12            0   -1648.5716   -1648.5716    19342.796    20.007512    20.007512    48.320684      500 
      54            0   -187.64378   0.12442994   -156.87279    -156.8728   -249.18575 -1.2121693e-12 -1.5600615e-11 2.0473169e-11            0   -1648.5734   -1648.5734      19360.9    20.014932    20.014932    48.330055      500 
      55            0     -417.345   0.12614107   -546.74621   -546.74621   -158.54258 9.4439408e-12 -1.4992014e-11 7.490438e-12            0    -1648.585    -1648.585    19371.874    20.030677    20.030677    48.281455      500 
      56            0    361.60925   0.12952805    231.31571    231.31572    622.19633 -1.0572447e-11 -1.1411871e-11 1.3754923e-11            0   -1648.5958   -1648.5958    19328.325    20.018013    20.018013    48.233887      500 
      57            0    1094.6913   0.13124204    1080.1205    1080.1205     1123.833 -1.9662046e-12 -2.6678866e-12 1.531012e-11            0   -1648.6279   -1648.6279    19292.163    19.997763    19.997763    48.241197      500 
      58            0    554.78253   0.13295293    568.68198    568.68198    526.98362 -2.682027e-12 -6.7688405e-12 3.0451524e-12            0     -1648.67     -1648.67    19324.565    20.004476    20.004476    48.289797      500 
      59            0    -22.38801   0.13634109    -35.94467    -35.94467    4.7253094 7.2309383e-13 -1.1729509e-11 5.7143071e-12            0   -1648.6758   -1648.6758    19356.716    20.015883    20.015883     48.31502      500 
      60            0   -29.606855   0.13805199    69.460011    69.460009   -227.74059 4.5823715e-13 -3.5978894e-12 2.4975516e-11            0   -1648.6914   -1648.6914     19360.35    20.007701    20.007701     48.36362      500 
      61            0     90.90097   0.13976598    87.043532    87.043532    98.615845 8.2208282e-13 -1.4835645e-11 1.8502415e-11            0   -1648.6995   -1648.6995    19351.947    20.013417    20.013417     48.31502      500 
      62            0    -268.4246   0.14315104   -311.99796   -311.99796   -181.27786 -1.72856e-12 -2.270519e-11 9.0924479e-12            0   -1648.7019   -1648.7019     19371.85     20.02225     20.02225    48.322048      500 
      63            0   -816.24904   0.14654398   -954.40149   -954.40149   -539.94413 8.9494252e-12 1.3872471e-11 7.8648457e-12            0   -1648.7081   -1648.7081    19402.544    20.038418    20.038418    48.320547      500 
      64            0   -656.06657   0.14825511   -902.75179   -902.75178   -162.69614 -1.819441e-12 -7.6553229e-12 -5.4071517e-12            0   -1648.7503   -1648.7503    19394.097    20.044138    20.044138    48.271947      500 
      65            0    125.76394   0.14996505   -22.253622   -22.253618    421.79907 1.6442095e-12 4.0208091e-12 4.6562588e-12            0   -1648.7618   -1648.7618     19351.43    20.023888    20.023888    48.263218      500 
      66            0    45.799165   0.15167904    4.4786481    4.4786491     128.4402 3.9563516e-12 1.4653672e-11 -3.987337e-12            0   -1648.7663   -1648.7663    19358.063    20.017243    20.017243    48.311818      500 
      67            0   -224.31635   0.15506411   -214.01665   -214.01665   -244.91575 -1.1963935e-12 -3.4571466e-12 -2.2917124e-12            0   -1648.7681   -1648.7681    19374.594    20.017806    20.017806    48.350354      500 
      68            0    63.696166   0.15845394    232.44921     232.4492   -273.80991 -4.797346e-12 3.0211641e-11 -7.7046334e-12            0   -1648.7728   -1648.7728    19361.813    20.001383    20.001383    48.397838      500 
      69            0   -5.3428159   0.16017008     124.8439     124.8439   -265.71624 1.5620698e-12 1.6147055e-12 -8.8058417e-13            0   -1649.0629   -1649.0629    19386.851    20.007168    20.007168    48.432405      500 
      70            0   -32.235215   0.16188407   -24.171117   -24.171117   -48.363411 7.128267e-13 2.3060582e-11 8.4471969e-13            0   -1649.0663   -1649.0663    19385.981    20.016764    20.016764    48.383805      500 
      71            0    204.10321   0.16527414    207.95194    207.95194    196.40575 -3.7066237e-12 4.2041201e-12 8.7599628e-12            0   -1649.0673   -1649.0673    19372.577     20.01328     20.01328     48.36719      500 
      72            0    129.72429   0.16699004     -2.43792   -2.4379196     394.0487 5.4365943e-12 7.2186485e-14 9.9265992e-12            0   -1649.0817   -1649.0817    19375.499    20.024852    20.024852     48.31859      500 
      73            0    -246.1392   0.16870308   -320.01678   -320.01678   -98.384037 1.359408e-12 -1.4768785e-11 -9.5198788e-12            0   -1649.0866   -1649.0866    19398.381    20.026604    20.026604     48.36719      500 
      74            0   -45.657744   0.17042494    27.122094    27.122094   -191.21742 1.811771e-12 5.1989733e-12 -7.6389864e-12            0   -1649.0922   -1649.0922    19390.293    20.012377    20.012377     48.41579      500 
      75            0      300.859   0.17381001    327.56946    327.56946     247.4381 -4.8378126e-12 3.3516017e-12 -1.5165296e-11            0   -1649.0948   -1649.0948    19369.911    20.010283    20.010283     48.37502      500 
      76            0     232.9389   0.17552614    128.50672    128.50672    441.80324 -6.6847256e-12 -1.8889249e-12 2.4396655e-12            0   -1649.1003   -1649.1003    19371.729    20.021282    20.021282     48.32642      500 
      77            0   -126.19565   0.17891502   -217.02665   -217.02665    55.466336 5.0723744e-12 -1.2276767e-12 6.7282504e-12            0   -1649.1027   -1649.1027    19392.527     20.02609     20.02609    48.355077      500 
      78            0   -66.893484   0.18062806   -31.898356   -31.898356   -136.88374 -1.3048292e-12 1.0872773e-11 1.6349014e-12            0   -1649.1058   -1649.1058    19391.849    20.015684    20.015684    48.403677      500 
      79            0    132.73285   0.18402314    162.96566    162.96566    72.267232 -8.1226981e-13 1.9234051e-12 -5.193234e-12            0   -1649.1065   -1649.1065    19380.436     20.01283     20.01283    48.388987      500 
      80            0    111.50629   0.18573713    18.455127    18.455128    297.60862 -1.3201055e-11 1.5674823e-11 4.9715217e-12            0   -1649.1111   -1649.1111    19379.668    20.022491    20.022491    48.340387      500 
      81            0   -267.89815   0.18912601   -344.77212   -344.77212   -114.15022 -5.0131957e-12 -1.3299887e-11 -5.6994601e-12            0   -1649.1137   -1649.1137    19401.904    20.027459    20.027459    48.371846      500 
      82            0   -317.41251   0.19084311   -287.44745   -287.44745   -377.34263 1.001321e-12 8.6304341e-12 -1.8511192e-12            0   -1649.1199   -1649.1199    19407.461    20.020272    20.020272    48.420446      500 
      83            0    68.221603   0.19423008    119.39459    119.39459   -34.124369 2.0444364e-12 -2.6683415e-12 -1.7884745e-12            0   -1649.1225   -1649.1225    19385.925    20.012461    20.012461    48.404478      500 
      84            0    156.14017   0.19594908    101.77944    101.77944    264.86163 -2.3084691e-12 -2.02052e-12 -2.1851395e-12            0   -1649.1261   -1649.1261     19379.14    20.019011    20.019011    48.355878      500 
      85            0   -156.85932   0.19933796   -235.77434   -235.77434   0.97071695 -1.0316821e-14 -1.4289187e-11 1.8005101e-12            0   -1649.1278   -1649.1278    19396.671    20.025949    20.025949    48.366092      500 
      86            0   -439.09489     0.201051    -449.1558    -449.1558   -418.97308 -4.4772381e-12 8.3779639e-12 7.5074231e-12            0   -1649.1363   -1649.1363    19415.189    20.025447    20.025447    48.414692      500 
      87            0    295.98211   0.20444107    394.52757    394.52757      98.8912 2.063817e-12 2.3888133e-12 -9.0996066e-12            0   -1649.1467   -1649.1467    19376.256    20.005527    20.005527    48.413878      500 
      88            0     905.5445   0.20615602    1150.5291    1150.5291    415.57536 -1.3382454e-12 2.6136047e-11 1.2585988e-11            0   -1649.1635   -1649.1635    19347.923    19.985277    19.985277    48.441101      500 
      89            0    417.63411   0.20788503    688.71444    688.71444   -124.52656 2.4392518e-12 9.8032537e-12 -3.6703092e-12            0   -1649.2039   -1649.2039    19379.262     19.99143     19.99143    48.489701      500 
      90            0   -209.16305   0.21127701   -56.172692   -56.172693   -515.14378 -9.3353554e-12 -1.0839155e-11 7.0650873e-12            0    -1649.212    -1649.212    19412.613    20.010297    20.010297    48.481601      500 
      91            0   -83.119904     0.212991   -27.022458   -27.022458    -195.3148 -5.6952045e-13 6.3523563e-13 -2.664853e-12            0   -1649.2165   -1649.2165    19403.392    20.015578    20.015578    48.433001      500 
      92            0    101.25298   0.21638203    134.54508    134.54508    34.668794 4.4303264e-12 -3.4276581e-12 8.306553e-12            0   -1649.2172   -1649.2172    19392.419    20.014336    20.014336    48.411621      500 
      93            0   -12.411334   0.21977496   -63.641791   -63.641791    90.049579 2.6221076e-12 -5.6536927e-12 1.8569988e-11            0   -1649.2184   -1649.2184    19397.296    20.022556    20.022556    48.384045      500 
      94            0    217.96347   0.22148895    123.33901      123.339    407.21239 -6.0490578e-12 3.4889747e-12 8.8138658e-12            0   -1649.4016   -1649.4016    19404.146    20.025041    20.025041    48.389118      500 
      95            0   -260.55215   0.22488093   -326.87729   -326.87729   -127.90185 4.3622273e-12 3.3893531e-12 7.4283613e-12            0    -1649.406    -1649.406    19432.656     20.03066     20.03066    48.433028      500 
      96            0   -439.49617   0.22660112   -421.57081   -421.57081   -475.34688 2.4995545e-12 1.9321216e-11 -9.5403178e-13            0   -1649.4089   -1649.4089    19445.457    20.027211    20.027211    48.481628      500 
      97            0    92.508049   0.22998905    216.42031    216.42031   -155.31648 4.9810363e-12 -2.8351497e-12 5.4050948e-12            0    -1649.415    -1649.415    19417.806    20.010722    20.010722    48.492508      500 
      98            0    346.37975   0.23171401    386.74969    386.74969    265.63986 -4.8690238e-12 8.9071773e-12 -8.6127224e-13            0   -1649.4279   -1649.4279    19403.293    20.013273    20.013273    48.443908      500 
      99            0   -202.08661   0.23511004   -234.65617   -234.65617   -136.94748 3.9907079e-12 -1.8963358e-11 -6.7344674e-12            0   -1649.4336   -1649.4336    19433.774    20.027692    20.027692    48.450175      500 
     100            0   -598.78629   0.23850203   -739.43019    -739.4302   -317.49847 2.789608e-12 -8.8755281e-12 1.1791154e-11            0   -1649.4378   -1649.4378    19456.074    20.042633    20.042633    48.433477      500 
     101            0     -356.255   0.24021697   -585.81203   -585.81203    102.85906 -6.1181624e-13 -2.1274323e-11 1.9968193e-11            0   -1649.4554   -1649.4554    19443.005    20.045961    20.045961    48.384877      500 
     102            0    174.41858   0.24361706    42.314004    42.314001    438.62775 -3.2158742e-12 8.5400415e-12 -7.368178e-12            0   -1649.4612   -1649.4612    19414.609    20.029926    20.029926    48.391595      500 
     103            0    51.598247     0.245332    15.559552    15.559551    123.67564 2.592785e-12 1.2132055e-11 1.8974251e-12            0   -1649.4646   -1649.4646    19423.715     20.02457     20.02457    48.440195      500 
     104            0   -66.671665   0.24872613   -87.639498   -87.639498   -24.735999 4.2728049e-12 4.3597018e-12 7.0416251e-12            0   -1649.4649   -1649.4649    19430.852    20.025319    20.025319     48.45437      500 
     105            0    7.3979145   0.25211906    39.912409    39.912409   -57.631075 8.0759896e-12 -7.3918703e-12 6.5421735e-12            0   -1649.4654   -1649.4654    19427.826    20.020065    20.020065    48.472255      500 
     106            0    443.01801   0.25383496    370.32824    370.32822    588.39756 -4.6952854e-12 1.9669404e-12 1.7709163e-11            0    -1649.581    -1649.581    19420.409    20.024482    20.024482    48.432376      500 
     107            0   -318.71157   0.25723505   -407.06917   -407.06918   -141.99638 1.6059987e-12 9.1013813e-12 1.9053232e-11            0   -1649.5914   -1649.5914    19465.731    20.038181    20.038181    48.479052      500 
     108            0   -656.18466   0.25895405    -693.7599    -693.7599   -581.03417 -3.4905377e-12 6.2074244e-12 4.651702e-12            0   -1649.5969   -1649.5969    19488.963    20.040092    20.040092    48.527652      500 
     109            0   -48.644478   0.26066995    58.757138    58.757156   -263.44773 2.1685234e-12 4.498454e-12 1.7783621e-12            0   -1649.6173   -1649.6173     19460.89    20.019842    20.019842    48.555829      500 
     110            0    107.46577   0.26238894    126.07213    126.07213    70.253052 -1.7890702e-13 1.2974653e-11 3.7984453e-12            0   -1649.6192   -1649.6192    19449.909    20.024217    20.024217    48.507229      500 
     111            0   -3.2225529   0.26577997   -10.747242   -10.747244    11.826827 -2.590235e-12 1.5651792e-11 1.409214e-11            0   -1649.6195   -1649.6195    19455.713    20.027994    20.027994    48.503409      500 
     112            0   -138.29483   0.26918006   -76.519107   -76.519071   -261.84631 -2.5146677e-12 -1.4114299e-11 1.2980918e-11            0   -1649.6207   -1649.6207     19465.64    20.024863    20.024863     48.54333      500 
     113            0     110.6732   0.27257705    232.06897    232.06902   -132.11838 3.4175001e-13 1.7832995e-12 6.2583468e-12            0   -1649.6222   -1649.6222    19453.299    20.016412    20.016412    48.553529      500 
     114            0    197.08889   0.27429914     148.2684    148.26828       294.73 -5.0316685e-12 2.1577537e-11 -1.9198649e-12            0   -1649.6697   -1649.6697    19461.033    20.030418    20.030418    48.504929      500 
     115            0   -79.187697   0.27769208   -129.22679   -129.22688    20.890577 1.1564044e-12 -1.2471757e-11 -8.5725683e-12            0    -1649.671    -1649.671     19477.37    20.034952    20.034952    48.523674      500 
     116            0   -141.20128   0.28109193   -119.25993   -119.25985   -185.08408 -5.7460156e-13 1.430971e-11 3.4646519e-12            0    -1649.672    -1649.672    19483.334    20.030429    20.030429    48.560457      500 
     117            0    12.647712   0.28448796    55.454998    55.455094   -72.966956 -2.3056587e-12 5.0355239e-13 -4.6293671e-12            0   -1649.6725   -1649.6725    19475.088    20.026397    20.026397    48.559454      500 
     118            0    53.304497   0.28788495    44.011421    44.011374    71.890696 -1.1744396e-12 -3.9229948e-12 -1.4045454e-11            0   -1649.6729   -1649.6729    19471.716     20.02983     20.02983    48.534402      500 
     119            0    -7.242459   0.29128504   -24.497762   -24.497815    27.268199 -3.4393691e-12 -2.0139127e-11 3.3106064e-12            0    -1649.673    -1649.673    19475.063    20.031413    20.031413    48.535073      500 
     120            0   -26.791552   0.29468012   -19.292676   -19.292628   -41.789352 3.0452065e-12 -1.5166726e-11 -9.4953063e-12            0   -1649.6731   -1649.6731    19476.831    20.029808    20.029808    48.547259      500 
     121            0    8.8845363   0.29807115    21.106991    21.107044   -15.560426 8.5405574e-12 3.4545751e-12 -5.2157314e-12            0   -1649.6731   -1649.6731     19474.89    20.028879    20.028879    48.546926      500 
     122            0       27.604   0.30146694    14.315771    14.315659    54.180571 9.7281609e-13 -1.2724435e-11 6.5237773e-12            0   -1649.6733   -1649.6733    19473.295    20.030583    20.030583    48.534691      500 
     123            0   -20.862558   0.30486894   -40.264246   -40.264364    17.940936 -6.4879674e-12 -4.8682226e-13 -1.1292984e-12            0   -1649.6733   -1649.6733    19475.993    20.031834    20.031834    48.535349      500 
     124            0   -58.972794   0.30826497    -27.24522   -27.244792   -122.42837 -2.2012312e-12 3.296982e-12 -5.2595788e-12            0   -1649.6738   -1649.6738    19479.804     20.02855     20.02855     48.56077      500 
     125            0    47.724685   0.31167006    92.125842    92.126284    -41.07807 6.8008663e-12 1.4099172e-12 -7.1424049e-13            0    -1649.674    -1649.674    19474.105    20.025918    20.025918    48.559325      500 
     126            0    89.306532   0.31506991    37.469972    37.468826     192.9808 2.3198488e-12 -3.6006801e-12 1.1388437e-11            0   -1649.6758   -1649.6758    19470.977    20.033082    20.033082    48.516807      500 
     127            0   -72.818901   0.31846905   -135.37694   -135.37796      52.2982 -1.7017955e-12 1.3461905e-13 1.5703146e-11            0   -1649.6763   -1649.6763    19480.534    20.036586    20.036586    48.523646      500 
     128            0   -65.565357   0.32186007    -28.43531   -28.433917   -139.82684 -1.2878107e-12 -1.0584423e-11 -1.3796243e-12            0   -1649.6781   -1649.6781     19484.09    20.029063    20.029063    48.568963      500 
     129            0    43.733183   0.32525706    82.905888    82.906972    -34.61331 4.9593663e-12 1.2328559e-11 2.072945e-11            0   -1649.6783   -1649.6783    19477.993    20.027219    20.027219    48.562709      500 
     130            0    25.277707   0.32865691    10.197721    10.196774    55.438625 5.8217297e-14 -8.0370646e-12 2.0527253e-13            0   -1649.6788   -1649.6788    19478.196    20.031826    20.031826     48.54088      500 
     131            0   -18.652455   0.33205295   -33.913516   -33.914213    11.870365 -4.8793346e-12 -1.5334636e-11 1.7131648e-11            0   -1649.6788   -1649.6788     19480.77    20.032543    20.032543    48.543819      500 
     132            0   -10.503535   0.33544993    -3.855626     -3.85494   -23.800038 -1.4774876e-12 -8.1675057e-14 -8.8511788e-13            0   -1649.6789   -1649.6789     19480.89    20.030722    20.030722    48.552947      500 
     133            0    9.6036788   0.33884811    16.310868    16.311361   -3.8111923 -7.5716455e-12 5.1903629e-12 8.6810225e-12            0   -1649.6789   -1649.6789    19479.736    20.030401    20.030401    48.551626      500 
     134            0     4.998776   0.34224296   0.28247127   0.28175712      14.4321 1.1300095e-12 -8.3938753e-12 1.1417642e-11            0   -1649.6789   -1649.6789    19479.764    20.031368    20.031368    48.547006      500 
     135            0   -11.434187   0.34563303   -16.156187   -16.156621   -1.9897524 -1.4426884e-12 -3.0934372e-11 -1.1026649e-12            0    -1649.679    -1649.679    19480.726     20.03163     20.03163    48.548136      500 
     136            0   -6.2613517   0.34902692    2.2017921    2.2037556   -23.189603 -2.7204384e-12 6.3834726e-12 3.0172997e-12            0    -1649.679    -1649.679    19480.804    20.030528    20.030528    48.553672      500 
     137            0    24.752658   0.35242891    33.147885    33.148953    7.9611348 1.6625444e-12 -1.9375547e-11 -4.3916569e-12            0    -1649.679    -1649.679    19479.052    20.030047    20.030047    48.551636      500 
     138            0    11.179471   0.35582304   -6.9474721   -6.9543159    47.440201 -1.0615371e-13 -1.8702815e-11 -1.7348873e-12            0   -1649.6791   -1649.6791    19479.526    20.032361    20.032361    48.541601      500 
     139            0    -54.18331   0.35922003   -70.480475   -70.483433   -21.586022 6.369034e-12 2.404401e-11 1.8632863e-13            0   -1649.6792   -1649.6792    19483.593    20.033277    20.033278    48.547296      500 
     140            0   -16.131227   0.36262107     9.537012      9.55369   -67.484383 -5.8201903e-13 1.3098369e-11 1.1412755e-11            0   -1649.6795   -1649.6795    19483.348      20.0295    20.029498    48.565004      500 
     141            0     57.66978   0.36601496    75.572418    75.578278    21.858644 -4.8226449e-13 -1.0989938e-11 -2.9773557e-12            0   -1649.6797   -1649.6797    19479.241    20.028974    20.028974     48.55731      500 
     142            0    8.1213173   0.36941195   -5.9417068   -5.9571865    36.262845 3.5020705e-12 4.1688747e-12 -1.3780516e-11            0   -1649.6799   -1649.6799    19481.924    20.032307    20.032308    48.547836      500 
     143            0   -28.697158   0.37280798   -36.805083   -36.808993   -12.477398 6.8281175e-12 1.4194086e-11 -1.1347075e-11            0   -1649.6799   -1649.6799    19484.305    20.032436    20.032436    48.553146      500 
     144            0   -3.5560852   0.37620997    2.4840891    2.4954628   -15.647808 -1.0388493e-11 -5.1427532e-12 8.9783226e-12            0   -1649.6799   -1649.6799    19483.303    20.030947    20.030946    48.557872      500 
     145            0    11.975248   0.37960601    15.262732     15.26544    5.3975713 -4.7431258e-12 -7.8623107e-12 1.1118415e-12            0   -1649.6799   -1649.6799    19482.357    20.030918    20.030918    48.555651      500 
     146            0    1.1706934   0.38300204   -1.4378687   -1.4458282    6.3957771 6.0879561e-12 4.7004317e-12 -9.8737281e-12            0   -1649.6799   -1649.6799    19482.864    20.031551    20.031552    48.553845      500 
     147            0   -7.1035975   0.38639998   -8.2354563   -8.2353383    -4.839998 5.1086335e-12 1.3763535e-11 1.2908548e-11            0   -1649.6799   -1649.6799    19483.386    20.031568    20.031568    48.555066      500 
     148            0  -0.53441114   0.38979197    1.9050997    1.9164006   -5.4247337 -2.4935838e-12 -2.8492091e-11 -1.0385729e-11            0   -1649.6799   -1649.6799    19483.101    20.031187    20.031186    48.556203      500 
     149            0    9.7248041     0.393188    10.268217     10.26228    8.6439156 3.7473434e-12 1.9570585e-11 -4.7765891e-12            0   -1649.6799   -1649.6799    19482.475    20.031175    20.031176    48.554698      500 
     150            0   0.26627258   0.39658403   -4.1493601   -4.1812737    9.1294515 -4.9261548e-12 -4.8534419e-12 -8.8638659e-12            0   -1649.6799   -1649.6799    19482.931    20.031716    20.031719    48.553208      500 
     151            0   -20.916963   0.39998412   -21.281638   -21.251422   -20.217828 -7.6115146e-12 -2.7489495e-11 3.9861339e-12            0     -1649.68     -1649.68    19484.324    20.031747    20.031745     48.55654      500 
     152            0  -0.46796969   0.40338206    8.8839192    8.9988643   -19.286692 -7.3299644e-12 -9.9428625e-12 -7.7712399e-12            0     -1649.68     -1649.68    19483.486    20.030687    20.030677    48.559609      500 
     153            0    32.761619    0.4067781    33.214939    33.133119    31.936799 -3.8205602e-12 -4.1634751e-12 -1.3645879e-11            0     -1649.68     -1649.68    19481.578    20.030897    20.030904    48.553796      500 
     154            0   0.15814579   0.41017103   -10.144944   -10.358441    20.977823 1.8944089e-12 6.3231029e-12 -8.9774551e-12            0   -1649.6801   -1649.6801     19483.41    20.032288    20.032305    48.551594      500 
     155            0   -23.447022   0.41356993    -23.58529   -23.478138   -23.277639 5.306135e-13 -8.5434613e-12 -1.983019e-12            0   -1649.6801   -1649.6801    19485.218    20.031903    20.031895    48.558025      500 
     156            0  -0.26680137   0.41696811    5.3169016     5.517333   -11.634639 -5.2083017e-12 -2.987503e-11 -1.5779648e-11            0   -1649.6801   -1649.6801    19484.089    20.031105    20.031088    48.559103      500 
     157            0    9.7223784   0.42036295    9.8564953    9.7851475    9.5254924 -6.0427047e-13 -5.8556711e-12 -1.0967722e-11            0   -1649.6801   -1649.6801     19483.42    20.031379    20.031385    48.556051      500 
     158            0  -0.02990738   0.42376208   -2.1044403   -2.2312473    4.2459655 -2.9659238e-12 8.9512846e-12 -6.1249292e-12            0   -1649.6801   -1649.6801    19483.945    20.031708    20.031718    48.555754      500 
     159            0    -3.996681   0.42715812   -3.8964167   -3.8332478   -4.2603786 -3.3749859e-12 -1.4997493e-11 1.4572205e-11            0   -1649.6801   -1649.6801    19484.236    20.031603    20.031598    48.557028      500 
     160            0   0.12516976   0.43056202    1.1459736    1.2489034   -2.0193677 6.3763114e-12 -2.0859039e-11 -1.3817852e-11            0   -1649.6801   -1649.6801    19484.022    20.031466    20.031458    48.557164      500 
     161            0    2.5314845   0.43395209    2.2277276    2.1308916    3.2358344 -6.8950349e-12 2.7329036e-12 6.4115729e-13            0   -1649.6801   -1649.6801    19483.853    20.031532     20.03154    48.556385      500 
     162            0  -0.43236208   0.43735099   -1.3750899   -1.5183921    1.5963958 2.1693736e-12 -3.5571212e-12 -1.9654499e-11            0   -1649.6801   -1649.6801    19484.011    20.031629    20.031641    48.556299      500 
     163            0   -3.9388075   0.44074702   -3.1122729   -2.7652206   -5.9389291 6.335718e-12 2.9848767e-11 2.3849186e-12            0   -1649.6801   -1649.6801    19484.273    20.031549    20.031521    48.557437      500 
     164            0    1.1214884    0.4441421    3.0125104    3.4975729    -3.145618 2.171085e-12 -1.3568075e-11 -7.9403024e-12            0   -1649.6801   -1649.6801    19484.014    20.031388    20.031348      48.5576      500 
     165            0    7.8157064    0.4475441    6.1458519    4.8646138    12.436653 -3.5206031e-13 -2.4587935e-11 -1.7890701e-11            0   -1649.6801   -1649.6801    19483.577    20.031567    20.031671    48.555295      500 
     166            0   -2.5733697   0.45093894   -6.0207951   -7.6241959     5.924882 -3.8987941e-12 -2.0908015e-12 -8.3730175e-12            0   -1649.6801   -1649.6801    19484.162    20.031874    20.032005    48.555198      500 
     167            0   -10.136205   0.45433712   -8.6378668   -5.8297087   -15.941038 8.1767062e-12 -6.8127294e-12 -5.5301058e-12            0   -1649.6801   -1649.6801    19484.924    20.031643    20.031413    48.559092      500 
     168            0    2.5473318   0.45773101    5.5417845    8.4689404   -6.3687294 6.9137186e-12 1.4029868e-12 4.3114473e-12            0   -1649.6801   -1649.6801    19484.264    20.031333    20.031093    48.558976      500 
     169            0    5.0357075   0.46113491    4.8020616    2.3618537    7.9432071 -2.2657968e-12 1.0428194e-11 -1.9315655e-11            0   -1649.6801   -1649.6801    19484.063     20.03155     20.03175    48.556356      500 
     170            0   -1.3403613   0.46453214   -2.2119934   -4.4536328    2.6445422 1.0800989e-12 -1.467951e-11 -1.3787682e-11            0   -1649.6801   -1649.6801    19484.429    20.031703    20.031886    48.556568      500 
     171            0   -2.0268282   0.46793294   -2.3194339  -0.67802496   -3.0830257 5.6092918e-12 2.1690256e-12 8.3251075e-12            0   -1649.6802   -1649.6802    19484.545    20.031678    20.031544    48.557745      500 
     172            0   0.59431063   0.47133803   0.59543807     2.079855  -0.89236117 3.3726753e-12 1.0623373e-11 -2.0398694e-11            0   -1649.6802   -1649.6802      19484.4    20.031614    20.031492    48.557664      500 
     173            0   0.73844384   0.47474003    1.1008747  0.030001795     1.084455 4.7734462e-12 1.0704865e-11 -1.2847216e-11            0   -1649.6802   -1649.6802    19484.373    20.031579    20.031667    48.557259      500 
     174            0  -0.43327369   0.47813392  -0.23409769   -1.1831769   0.11745349 -8.8872754e-12 -2.818521e-11 -1.2953212e-11            0   -1649.6802   -1649.6802    19484.439    20.031611    20.031688    48.557294      500 
     175            0  -0.41170978   0.48153806  -0.93968005    0.2464131  -0.54186238 -1.925119e-12 -1.4245477e-11 -9.3755068e-12            0   -1649.6802   -1649.6802    19484.448    20.031671    20.031574    48.557445      500 
     176            0   0.68507147   0.48494005   0.34123097    1.3837207   0.33026279 9.477275e-12 9.2723287e-12 1.0807313e-12            0   -1649.6802   -1649.6802    19484.387     20.03164    20.031554    48.557421      500 
     177            0   0.37704291   0.48834515    1.5783358  -0.57251549   0.12530839 3.8496752e-12 8.6877673e-12 -4.9441397e-12            0   -1649.6802   -1649.6802    19484.408    20.031518    20.031694    48.557427      500 
     178            0   -1.7704793     0.491745   -1.0064568   -2.8240695   -1.4809115 -8.3611664e-12 6.2342478e-12 -1.4567245e-11            0   -1649.6802   -1649.6802     19484.53    20.031587    20.031736    48.557461      500 
     179            0  -0.53304526   0.49515295   -3.3355968   0.54138275    1.1950783 -2.435211e-12 -4.7243804e-12 3.2252189e-12            0   -1649.6802   -1649.6802    19484.462     20.03186    20.031542    48.557102      500 
     180            0    4.0741445   0.49855208    2.4469937    5.4356051    4.3398348 3.6751128e-12 -1.3992931e-11 -1.492383e-11            0   -1649.6802   -1649.6802    19484.229    20.031695    20.031451    48.557141      500 
     181            0   0.46135787   0.50194693    3.9190892   0.26047009   -2.7954856 5.7684828e-12 -1.8076428e-11 -1.5566269e-11            0   -1649.6802   -1649.6802     19484.54     20.03135     20.03165    48.558271      500 
     182            0   -4.8443951   0.50534606   -3.4548139   -5.5919745   -5.4863969 6.555769e-13 1.3311795e-11 -1.3136197e-11            0   -1649.6802   -1649.6802    19484.847    20.031602    20.031777    48.558116      500 
     183            0  -0.26516611   0.50875211   -2.1173175  -0.73927891    2.0610981 -1.0042041e-13 3.1107829e-12 -1.099679e-11            0   -1649.6802   -1649.6802     19484.59    20.031795    20.031682    48.557238      500 
     184            0    2.4469372     0.512151      1.89509      2.54319    2.9025318 -3.3264477e-13 1.6019625e-11 -1.3785209e-11            0   -1649.6802   -1649.6802    19484.464     20.03165    20.031597    48.557481      500 
     185            0  0.067266744   0.51555204   0.67042397   0.37797194  -0.84659568 4.406508e-12 1.1997749e-11 -8.1708455e-12            0   -1649.6802   -1649.6802    19484.626    20.031597    20.031621    48.557958      500 
     186            0  -0.98083322   0.51895404  -0.84823478  -0.98588267   -1.1083822 -7.5075326e-12 -1.3002622e-11 -1.2105868e-11            0   -1649.6802   -1649.6802    19484.679    20.031651    20.031662     48.55786      500 
     187            0  -0.02535104   0.52235103  -0.26480524   -0.2068906   0.39564272 -3.3309858e-12 -1.4946267e-13 -1.1057117e-11            0   -1649.6802   -1649.6802    19484.619    20.031665    20.031661    48.557678      500 
     188            0   0.48139867   0.52574205   0.45033486   0.48400428   0.50985688 -1.6198493e-12 -6.0549763e-12 4.7606398e-12            0   -1649.6802   -1649.6802    19484.595    20.031641    20.031638     48.55773      500 
     189            0 -0.013837186     0.529145     0.114074   0.10934054   -0.2649261 -1.5593663e-12 -1.1550644e-11 -4.5818101e-12            0   -1649.6802   -1649.6802    19484.627    20.031636    20.031637    48.557826      500 
     190            0  -0.47057688   0.53254914  -0.50788497  -0.53617813  -0.36766753 3.5831719e-13 -2.2259564e-12 -1.0475157e-11            0   -1649.6802   -1649.6802     19484.65    20.031657    20.031659     48.55778      500 
     191            0  0.057385252   0.53594494  -0.12164527  -0.16468055   0.45848157 1.1981965e-14 1.654393e-11 -1.5714106e-11            0   -1649.6802   -1649.6802    19484.617    20.031659    20.031663     48.55768      500 
     192            0   0.90920007   0.53934407    1.0049052    1.1027615   0.61993354 6.3487422e-12 2.8220806e-11 -9.4755989e-12            0   -1649.6802   -1649.6802    19484.578    20.031625    20.031617    48.557777      500 
     193            0  -0.15425764   0.54274702   0.14351825   0.36898944  -0.97528062 6.3669773e-12 3.1859973e-11 -2.2645143e-12            0   -1649.6802   -1649.6802    19484.649    20.031627    20.031609     48.55797      500 
     194            0   -1.7515544   0.54614305   -1.8764325   -2.2248175   -1.1534133 2.0934076e-12 1.6417904e-11 9.9318575e-12            0   -1649.6802   -1649.6802    19484.735    20.031687    20.031715    48.557785      500 
     195            0    0.2386189   0.54954696 -0.052010313  -0.75754565    1.5254127 7.6792962e-12 1.0768106e-11 -6.2882683e-12            0   -1649.6802   -1649.6802    19484.622    20.031669    20.031727    48.557514      500 
     196            0    1.5537615   0.55294895    1.5440307    2.0516336    1.0656203 -6.7840863e-12 -3.9186626e-12 -5.4254262e-12            0   -1649.6802   -1649.6802    19484.582    20.031632     20.03159    48.557837      500 
     197            0  -0.17499578   0.55634999  -0.18217758   0.59293805  -0.93574779 9.6882372e-13 -4.0963196e-12 -9.4742276e-13            0   -1649.6802   -1649.6802    19484.691    20.031661    20.031597    48.558022      500 
     198            0   -0.7240239   0.55975294  -0.62182328   -1.0153091  -0.53493931 7.6096496e-12 7.2365537e-12 -4.637656e-12            0   -1649.6802   -1649.6802    19484.717     20.03166    20.031692    48.557859      500 
     199            0  0.082854831   0.56315112   0.22217301  -0.31631373   0.34270522 -1.1514066e-12 3.1136926e-11 -9.2186994e-12            0   -1649.6802   -1649.6802     19484.67    20.031644    20.031688    48.557791      500 
     200            0    0.2784377   0.56656003   0.18299234   0.40841759   0.24390317 6.7966104e-12 -1.2384339e-11 -5.642716e-12            0   -1649.6802   -1649.6802    19484.664    20.031661    20.031642    48.557844      500 
     201            0 -0.051101481   0.56995201  -0.17823884   0.12004089 -0.095106487 -7.9765379e-12 2.5049421e-13 -4.2697495e-12            0   -1649.6802   -1649.6802    19484.683    20.031669    20.031644    48.557868      500 
     202            0  -0.13086332   0.57335496 -0.037564336  -0.20802608  -0.14699954 -3.7657466e-14 -7.842352e-12 1.722358e-13            0   -1649.6802   -1649.6802    19484.688    20.031652    20.031666    48.557868      500 
     203            0  0.060439619   0.57675505   0.17993745 -0.034979661  0.036361064 4.4880878e-12 1.0547077e-11 -4.8757991e-12            0   -1649.6802   -1649.6802    19484.677    20.031647    20.031664    48.557857      500 
     204            0   0.11226066   0.58020306 -0.035544786   0.18044894   0.19187783 7.2193981e-12 1.7528426e-12 -1.6178342e-11            0   -1649.6802   -1649.6802    19484.673    20.031668     20.03165    48.557832      500 
     205            0  -0.13447882    0.5836041   -0.3146102  -0.05677941 -0.032046866 3.7805814e-12 -1.0368075e-11 -1.5483963e-11            0   -1649.6802   -1649.6802    19484.687    20.031674    20.031653    48.557844      500 
     206            0  -0.20528554   0.58700514  0.088389129  -0.23807093  -0.46617482 6.0948006e-12 -1.6623193e-12 -8.5142943e-12            0   -1649.6802   -1649.6802    19484.698    20.031638    20.031664    48.557933      500 
     207            0   0.30498586   0.59040904   0.65078933   0.27528502  -0.01111676 9.2489103e-13 -1.3044517e-11 -8.9915587e-12            0   -1649.6802   -1649.6802     19484.67    20.031625    20.031656    48.557912      500 
     208            0   0.28583364   0.59380603  -0.11536335   0.20679655   0.76606773 3.3469531e-12 -2.3896613e-11 -2.4506121e-13            0   -1649.6802   -1649.6802    19484.669    20.031686     20.03166    48.557754      500 
     209            0  -0.48195858   0.59719992  -0.89190908  -0.56944441  0.015477767 2.3729874e-12 8.6640319e-12 -1.0318132e-12            0   -1649.6802   -1649.6802    19484.716      20.0317    20.031673    48.557807      500 
     210            0  -0.22540959   0.60059905  0.034106446  -0.09679979  -0.61353542 -2.6913631e-12 -1.1003358e-11 -6.2797202e-12            0   -1649.6802   -1649.6802    19484.721    20.031643    20.031654       48.558      500 
     211            0   0.30586111   0.60399914   0.53541631   0.41997826 -0.037811242 2.4448821e-12 -6.1047494e-12 -9.2885968e-12            0   -1649.6802   -1649.6802    19484.691    20.031638    20.031647    48.557957      500 
     212            0  0.084293195   0.60739708 -0.007032337  0.014200961   0.24571096 3.6116911e-13 1.4790256e-11 -1.2207606e-11            0   -1649.6802   -1649.6802      19484.7    20.031667    20.031665    48.557866      500 
     213            0   -0.1335339   0.61079192  -0.21158314  -0.19045318 0.0014346111 5.222399e-12 8.3818295e-12 9.1141226e-13            0   -1649.6802   -1649.6802    19484.713    20.031669    20.031667    48.557887      500 
     214            0 -0.036580665   0.61418509 -0.00080745085 0.0018043991  -0.11073894 -7.4116653e-13 1.4083272e-11 -5.4799192e-12            0   -1649.6802   -1649.6802     19484.71    20.031659    20.031659    48.557927      500 
     215            0  0.068876161   0.61758399  0.099829031  0.098427228 0.0083722248 2.9658082e-12 -7.1645911e-12 -6.3764907e-12            0   -1649.6802   -1649.6802    19484.704    20.031657    20.031658    48.557917      500 
     216            0    0.0164914   0.62098408 -0.0033109756 -0.012017222  0.064802398 1.1548279e-12 2.9575589e-11 8.8810638e-12            0   -1649.6802   -1649.6802    19484.706    20.031662    20.031663    48.557897      500 
     217            0 -0.071164497   0.62438011 -0.089269569 -0.089867565 -0.034356358 -4.6010521e-12 1.399124e-11 -1.6085647e-11            0   -1649.6802   -1649.6802    19484.711    20.031664    20.031664    48.557905      500 
     218            0 -0.015828767   0.62778091 0.0077961236   0.03485378 -0.090136204 -3.4924407e-12 3.2174334e-11 -1.3792496e-11            0   -1649.6802   -1649.6802     19484.71    20.031659    20.031657    48.557926      500 
     219            0   0.14365493   0.63118005   0.17054297     0.169496  0.090925821 2.0061146e-12 -7.7592484e-12 -1.4897417e-11            0   -1649.6802   -1649.6802      19484.7    20.031657    20.031657    48.557911      500 
     220            0  0.026261711   0.63458109 0.0016964951  -0.10192021   0.17900885 -5.2680464e-12 3.5782796e-12 -2.9261092e-11            0   -1649.6802   -1649.6802    19484.706    20.031663    20.031671    48.557876      500 
     221            0  -0.30713357   0.63797712  -0.36158663  -0.35458571  -0.20522839 -5.6788485e-12 3.1161417e-11 -4.7783676e-12            0   -1649.6802   -1649.6802    19484.727    20.031671     20.03167    48.557912      500 
     222            0 -0.037730661   0.64138412 -0.070010183   0.20887642  -0.25205822 1.2147366e-12 6.5258426e-12 -1.3048352e-11            0   -1649.6802   -1649.6802    19484.718    20.031666    20.031643    48.557968      500 
     223            0   0.35357048   0.64478803   0.41499013   0.41259925   0.23312205 7.2462058e-13 5.9555182e-12 -4.3832704e-12            0   -1649.6802   -1649.6802    19484.697    20.031652    20.031652    48.557925      500 
     224            0  0.013126104   0.64818811   0.10458917  -0.17782005   0.11260919 1.9228102e-12 -4.2413207e-12 -3.579891e-12            0   -1649.6802   -1649.6802    19484.717    20.031655    20.031678    48.557904      500 
     225            0  -0.19539039   0.65159392  -0.23638415  -0.21977376  -0.13001327 -6.958628e-12 2.2208583e-11 -1.8139556e-11            0   -1649.6802   -1649.6802     19484.73    20.031669    20.031668    48.557928      500 
     226            0 1.6051104e-05   0.65499806 -0.082001104  0.087053743 -0.0050044858 1.1411334e-12 -1.0378942e-11 -3.2905184e-12            0   -1649.6802   -1649.6802     19484.72     20.03167    20.031656    48.557931      500 
     227            0  0.081326986   0.65840101  0.097575922  0.093151091  0.053253944 2.5361695e-12 1.7025812e-11 -1.6497912e-11            0   -1649.6802   -1649.6802    19484.716    20.031661    20.031661    48.557931      500 
     228            0 -0.004442333     0.661798  0.034763712 -0.027390122 -0.020700589 1.6067158e-12 6.8207717e-12 -2.5170334e-11            0   -1649.6802   -1649.6802    19484.721     20.03166    20.031665    48.557934      500 
     229            0 -0.033909412       0.6652 -0.044017112 -0.038294526 -0.019416598 -1.8503476e-12 -3.4012363e-12 9.4767559e-13            0   -1649.6802   -1649.6802    19484.723    20.031665    20.031664     48.55793      500 
     230            0 0.0048197574   0.66860199  -0.01477386 0.0096781741  0.019554958 -2.1299255e-12 7.5000116e-12 1.8648359e-11            0   -1649.6802   -1649.6802     19484.72    20.031665    20.031663    48.557927      500 
     231            0    0.0214393   0.67200708  0.032435474  0.024991811 0.0068906153 3.3509384e-12 -7.2638095e-12 -7.67422e-12            0   -1649.6802   -1649.6802     19484.72    20.031662    20.031663    48.557932      500 
     232            0 -0.008202291   0.67541194 0.0082161359 -0.0080623498 -0.024760659 -1.7601982e-12 -1.9671232e-11 3.4012135e-12            0   -1649.6802   -1649.6802    19484.722    20.031662    20.031663    48.557935      500 
     233            0 -0.029577968   0.67880797 -0.049410047 -0.039444392 0.00012053506 1.1999017e-12 -9.1688815e-12 9.3369019e-12            0   -1649.6802   -1649.6802    19484.722    20.031665    20.031664    48.557926      500 
     234            0  0.019017855    0.6822021 -0.0070174235  0.011191278   0.05287971 6.4610977e-12 -1.8775967e-11 -2.5837927e-12            0   -1649.6802   -1649.6802     19484.72    20.031665    20.031664    48.557922      500 
     235            0  0.056357479   0.68559909  0.093086986  0.084443495 -0.0084580421 6.4040411e-12 1.0559949e-11 -1.3879284e-11            0   -1649.6802   -1649.6802    19484.719     20.03166     20.03166    48.557942      500 
     236            0 -0.041140984   0.68900108 0.0019983533 -0.014586605   -0.1108347 1.259811e-12 1.6379547e-11 -8.695541e-12            0   -1649.6802   -1649.6802    19484.725    20.031661    20.031662     48.55795      500 
     237            0 -0.077616255   0.69239807  -0.12007638  -0.12488854  0.012116155 -6.1250315e-12 3.8549226e-12 -8.6890597e-12            0   -1649.6802   -1649.6802    19484.727    20.031668    20.031669    48.557921      500 
     238            0  0.047602975   0.69579697 0.0059399122 0.0059189812   0.13095003 9.9398427e-12 -9.5895646e-12 -1.7940824e-11            0   -1649.6802   -1649.6802     19484.72    20.031666    20.031666    48.557914      500 
     239            0  0.043878708    0.6991961  0.063884014     0.077307 -0.0095548901 -3.014874e-12 7.972129e-12 -1.7164678e-11            0   -1649.6802   -1649.6802    19484.723    20.031662    20.031661    48.557947      500 
     240            0  -0.02743989   0.70259309  -0.01043325 -0.00034268745 -0.071543732 -2.3712744e-12 -7.1591338e-13 -1.1850547e-11            0   -1649.6802   -1649.6802    19484.727    20.031663    20.031662     48.55795      500 
     241            0 -0.019259273   0.70598507 -0.024622817 -0.036980159 0.0038251585 -9.0811369e-12 8.325354e-12 1.3990605e-12            0   -1649.6802   -1649.6802    19484.726    20.031665    20.031666    48.557935      500 
     242            0  0.012366639   0.70937991 0.0081307538 -0.0018137507  0.030782914 5.2720352e-12 -1.2184115e-11 -3.8665443e-12            0   -1649.6802   -1649.6802    19484.725    20.031664    20.031665    48.557934      500 
     243            0 0.0077369315    0.7127831 0.0077480682  0.017249285 -0.0017865588 2.4363192e-13 -2.0968382e-11 1.8003781e-11            0   -1649.6802   -1649.6802    19484.725    20.031664    20.031663     48.55794      500 
     244            0 -0.0069454197   0.71617794 -0.007052308 0.0006003591  -0.01438431 1.9798659e-12 2.8504304e-11 -2.2667343e-12            0   -1649.6802   -1649.6802    19484.726    20.031664    20.031663    48.557941      500 
     245            0 -0.0039349633   0.71957493 -0.0016376024 -0.011811006 0.0016437191 -1.3091079e-11 -1.1664602e-11 -1.9812832e-12            0   -1649.6802   -1649.6802    19484.726    20.031664    20.031665    48.557938      500 
     246            0 0.0078838749   0.72297597 0.0097136209 0.0018456768  0.012092327 4.2752553e-12 4.320342e-11 -2.3156342e-13            0   -1649.6802   -1649.6802    19484.725    20.031664    20.031664    48.557937      500 
     247            0    0.0036247   0.72637391 -0.0039495444  0.015542997 -0.00071935247 1.0173202e-12 1.6077846e-11 5.4713532e-12            0   -1649.6802   -1649.6802    19484.726    20.031665    20.031663     48.55794      500 
     248            0 -0.016229125   0.72976494 -0.021724359 -0.0075640642 -0.019398952 -6.5877611e-12 -1.6524086e-11 -8.0165183e-12            0   -1649.6802   -1649.6802    19484.727    20.031665    20.031664    48.557941      500 
     249            0 -0.0053389736   0.73316312  0.016462137 -0.024079093 -0.0083999646 -1.4486684e-12 1.4092321e-11 -7.046984e-12            0   -1649.6802   -1649.6802    19484.726    20.031662    20.031666     48.55794      500 
     250            0  0.035580616   0.73656607  0.049852825  0.023144956  0.033744067 7.2108207e-12 -2.228965e-11 3.7659956e-12            0   -1649.6802   -1649.6802    19484.724    20.031662    20.031664    48.557937      500 
     251            0 0.0068343665   0.73996592 -0.028749922  0.021788865  0.027464157 -6.9466478e-12 -8.5953794e-12 1.7041536e-12            0   -1649.6802   -1649.6802    19484.726    20.031667    20.031663    48.557935      500 
     252            0 -0.047965404   0.74336505  -0.06579223 -0.040122273 -0.037981709 1.7539213e-12 3.4124531e-12 2.3580855e-12            0   -1649.6802   -1649.6802    19484.729    20.031666    20.031664    48.557942      500 
     253            0 -0.0049509589   0.74677205  0.019405102 -0.0063735914 -0.027884387 5.9492969e-12 -5.7529546e-13 2.7717705e-12            0   -1649.6802   -1649.6802    19484.727    20.031662    20.031664    48.557947      500 
     254            0  0.029383607   0.75016212  0.038558793  0.028594619   0.02099741 -1.3065974e-13 6.7483771e-12 6.9619375e-12            0   -1649.6802   -1649.6802    19484.725    20.031663    20.031664    48.557941      500 
     255            0 0.0020491673   0.75356102 -0.0073517752 -0.00042692353  0.013926201 3.370907e-12 5.5521155e-12 -8.4112223e-12            0   -1649.6802   -1649.6802    19484.727    20.031665    20.031664    48.557939      500 
     256            0 -0.013174105    0.7569561 -0.016295838 -0.013755585 -0.0094708922 2.2411852e-12 -2.7514257e-11 -7.0335572e-12            0   -1649.6802   -1649.6802    19484.728    20.031665    20.031664    48.557942      500 
     257            0 -0.00076257282    0.7603581 0.0028185342 0.0012755704 -0.0063818231 -1.1732559e-11 -1.9481385e-12 -7.314897e-12            0   -1649.6802   -1649.6802    19484.727    20.031664    20.031664    48.557943      500 
     258            0 0.0068131553   0.76375294 0.0077481856 0.0070878389 0.0056034414 -2.2834072e-12 -1.7469734e-13 6.4849846e-12            0   -1649.6802   -1649.6802    19484.727    20.031664    20.031664    48.557941      500 
     259            0 0.00016394362   0.76714802 -0.0018779005 -0.0015901315 0.0039598628 6.7195618e-12 2.3484094e-12 -1.1670645e-11            0   -1649.6802   -1649.6802    19484.727    20.031664    20.031664    48.557941      500 
     260            0 -0.0066136263   0.77054906 -0.0067627641 -0.0062089815 -0.0068691332 1.7790263e-12 3.6939842e-12 -1.4691272e-11            0   -1649.6802   -1649.6802    19484.728    20.031664    20.031664    48.557942      500 
     261            0 0.00028149054   0.77394009 0.0026955608 0.0032363894 -0.0050874786 -9.6254569e-13 3.0996916e-12 -1.8837834e-11            0   -1649.6802   -1649.6802    19484.727    20.031664    20.031664    48.557943      500 
     262            0  0.011930847   0.77733612   0.01198516  0.010039534  0.013767848 -6.4958999e-12 1.569834e-11 8.9885573e-12            0   -1649.6802   -1649.6802    19484.727    20.031664    20.031664    48.557941      500 
     263            0 -0.00095650836   0.78073192 -0.0045847692 -0.0080997298 0.0098149739 1.0878421e-11 1.9963354e-11 -1.4281769e-11            0   -1649.6802   -1649.6802    19484.727    20.031664    20.031665     48.55794      500 
     264            0 -0.021666978     0.784132 -0.023124364 -0.016617622 -0.025258948 7.6798246e-13 2.5803602e-11 9.8741042e-12            0   -1649.6802   -1649.6802    19484.729    20.031665    20.031664    48.557944      500 
     265            0 0.0018167355   0.78753114 0.0045108994  0.015560172 -0.014620865 -7.5948106e-12 2.6362089e-11 -5.7992134e-12            0   -1649.6802   -1649.6802    19484.728    20.031664    20.031663    48.557946      500 
     266            0  0.020667903   0.79093409  0.024624553   0.01408368  0.023295475 1.2632343e-12 2.2651292e-11 -6.0455909e-13            0   -1649.6802   -1649.6802    19484.727    20.031664    20.031664    48.557941      500 
     267            0 -0.0018828361   0.79433513 -0.00026950722 -0.014488889 0.0091098876 5.0175617e-12 1.8586425e-13 -4.1604452e-12            0   -1649.6802   -1649.6802    19484.728    20.031664    20.031665     48.55794      500 
     268            0 -0.010214752   0.79772592 -0.014279771 -0.0060799651  -0.01028452 4.3745331e-12 -6.4573361e-12 -9.9194598e-13            0   -1649.6802   -1649.6802    19484.728    20.031665    20.031664    48.557943      500 
     269            0 0.0013478393   0.80112314 -0.0019110839 0.0080590867 -0.0021044849 -7.5919577e-12 -4.8434826e-13 -9.1012974e-12            0   -1649.6802   -1649.6802    19484.728    20.031665    20.031664    48.557943      500 
     270            0 0.0039073441   0.80451894 0.0065538575 0.0022142305 0.0029539444 -1.7630505e-12 -8.1387109e-12 -4.0649973e-12            0   -1649.6802   -1649.6802    19484.728    20.031664    20.031664    48.557943      500 
     271            0 -0.00097911054   0.80791998 0.0014701573 -0.0036529137 -0.0007545752 -2.8842136e-12 1.4400948e-11 1.0996818e-11            0   -1649.6802   -1649.6802    19484.728    20.031664    20.031665    48.557943      500 
     272            0 -0.001544535   0.81131601 -0.0031171669 -0.0009734115 -0.0005430267 -1.3128735e-12 -3.0735304e-11 -1.2665557e-11            0   -1649.6802   -1649.6802    19484.728    20.031664    20.031664    48.557943      500 
     273            0 0.00088265766     0.814713 -0.0006238076 0.0018617976  0.001409983 7.5582943e-12 -1.5729346e-11 1.3482728e-11            0   -1649.6802   -1649.6802    19484.728    20.031664    20.031664    48.557943      500 
     274            0 0.00089057333   0.81810403 0.0023099318 0.00068532619 -0.00032353805 1.0778001e-12 -2.4741836e-11 -1.1312426e-11            0   -1649.6802   -1649.6802    19484.728    20.031664    20.031664    48.557943      500 
     275            0 -0.0013584999   0.82150412 -1.7307485e-05 -0.0018649603 -0.0021932319 -2.9281472e-12 -1.0495733e-12 -4.4880861e-12            0   -1649.6802   -1649.6802    19484.728    20.031664    20.031664    48.557943      500 
     276            0 -0.0010445577   0.82489991 -0.0032638319 -0.0013255032  0.001455662 -2.8653849e-12 -1.2708288e-11 9.7198313e-13            0   -1649.6802   -1649.6802    19484.728    20.031664    20.031664    48.557942      500 
     277            0 0.0030015773   0.82829595 0.0009949243 0.0031739828 0.0048358247 -5.3393612e-12 -2.0244151e-11 -1.4816209e-11            0   -1649.6802   -1649.6802    19484.728    20.031664    20.031664    48.557942      500 
     278            0 0.0018157867   0.83169603 0.0056054464 0.0034280459 -0.0035861322 5.192155e-14 -2.9751531e-12 -2.4055562e-11            0   -1649.6802   -1649.6802    19484.728    20.031664    20.031664    48.557944      500 
     279            0 -0.0061113475   0.83509111 -0.0030159471 -0.0053961706 -0.0099219248 -6.3937679e-12 -5.0433681e-12 -1.2552921e-11            0   -1649.6802   -1649.6802    19484.728    20.031664    20.031664    48.557944      500 
     280            0 -0.0022599886    0.8384881 -0.0064288599 -0.0053307654 0.0049796596 6.3064713e-12 2.8204678e-12 -8.1563376e-12            0   -1649.6802   -1649.6802    19484.728    20.031665    20.031665    48.557942      500 
     281            0 0.0069664089   0.84187698  0.004172859 0.0053867596  0.011339608 4.1628531e-12 -7.6884107e-12 9.5450468e-12            0   -1649.6802   -1649.6802    19484.728    20.031664    20.031664    48.557942      500 
     282            0 0.0013571849   0.84527612 0.0034953344 0.0037312029 -0.0031549824 -4.982757e-12 -1.4181048e-11 -1.8244526e-11            0   -1649.6802   -1649.6802    19484.728    20.031664    20.031664    48.557944      500 
     283            0 -0.0039325032   0.84867191 -0.0027013501 -0.0027582917 -0.0063378679 -5.6537431e-12 -9.2871181e-13 -1.0177949e-11            0   -1649.6802   -1649.6802    19484.729    20.031664    20.031664    48.557944      500 
     284            0 -0.00057651484   0.85206914 -0.0012963991 -0.0018364564  0.001403311 6.0902265e-12 1.8088928e-11 -9.9982008e-12            0   -1649.6802   -1649.6802    19484.728    20.031664    20.031664    48.557943      500 
     285            0 0.0017636094   0.85546994 0.0013760189 0.0011553325 0.0027594768 4.3848034e-12 1.8704058e-11 -9.5031554e-12            0   -1649.6802   -1649.6802    19484.728    20.031664    20.031664    48.557943      500 
     286            0 0.00022893064   0.85886693 0.00041564753 0.00091191936 -0.00064077497 -5.4323634e-12 8.2035915e-12 -7.8704471e-12            0   -1649.6802   -1649.6802    19484.728    20.031664    20.031664    48.557944      500 
     287            0 -0.00094241866   0.86226392 -0.00084678615 -0.00065168318 -0.0013287867 2.3963792e-13 2.4534825e-12 3.2017603e-12            0   -1649.6802   -1649.6802    19484.728    20.031664    20.031664    48.557944      500 
     288            0 -8.8391245e-05   0.86565495 -8.6194379e-05 -0.00063953156 0.0004605522 -3.3092856e-12 4.1573735e-12 -9.8585526e-12            0   -1649.6802   -1649.6802    19484.728    20.031664    20.031664    48.557943      500 
     289            0 0.00095259074   0.86905503 0.0009212888 0.0008247688 0.0011117146 -3.5523469e-12 -9.0805586e-13 -6.2419378e-12            0   -1649.6802   -1649.6802    19484.728    20.031664    20.031664    48.557943      500 
     290            0 2.9797755e-05   0.87245393 -0.00023576655 0.00091017626 -0.00058501645 -3.6550488e-12 4.3845786e-12 -6.8851723e-12            0   -1649.6802   -1649.6802    19484.728    20.031664    20.031664    48.557944      500 
     291            0 -0.0017506109   0.87584901 -0.0016490888 -0.0017262459 -0.0018764979 -3.7708738e-12 4.7409113e-12 -6.7504058e-12            0   -1649.6802   -1649.6802    19484.728    20.031664    20.031664    48.557944      500 
     292            0 2.4599047e-05    0.8792491 0.0012160471 -0.0017211714 0.00057892142 -2.2651489e-12 -8.5151518e-12 -5.4363251e-12            0   -1649.6802   -1649.6802    19484.728    20.031664    20.031664    48.557943      500 
     293            0 0.0033921203   0.88264513 0.0030649537 0.0034272423  0.003684165 3.7063998e-12 1.6510778e-12 -5.3536683e-12            0   -1649.6802   -1649.6802    19484.728    20.031664    20.031664    48.557943      500 
     294            0 -0.00011484457   0.88603711 -0.0028301437 0.0020350619 0.00045054807 -2.5960775e-13 1.2759406e-12 -1.2265645e-12            0   -1649.6802   -1649.6802    19484.728    20.031665    20.031664    48.557944      500 
     295            0 -0.0039252104    0.8894341 -0.0034718718 -0.0038943455 -0.0044094137 7.1297985e-12 1.3484912e-11 1.106081e-12            0   -1649.6802   -1649.6802    19484.729    20.031664    20.031664    48.557944      500 
     296            0 0.00014567275   0.89283514 0.0025642197 -0.00074757463 -0.0013796268 3.4194049e-12 1.5298287e-11 4.5166002e-12            0   -1649.6802   -1649.6802    19484.728    20.031664    20.031664    48.557944      500 
     297            0 0.0022359546   0.89623094 0.0019760834 0.0021506237 0.0025811566 -3.8901222e-12 9.9316066e-13 -1.0928961e-11            0   -1649.6802   -1649.6802    19484.728    20.031664    20.031664    48.557944      500 
     298            0 -9.1828932e-05   0.89962792 -0.0011629874 -6.9804636e-05 0.00095730519 5.9116392e-12 -1.2943917e-12 -5.7085771e-12            0   -1649.6802   -1649.6802    19484.728    20.031664    20.031664    48.557944      500 
     299            0 -0.00096985505   0.90302706 -0.0008550686 -0.00090239542 -0.0011521011 8.5379566e-12 1.8775012e-11 1.2272447e-13            0   -1649.6802   -1649.6802    19484.729    20.031664    20.031664    48.557944      500 
     300            0 5.5476032e-05   0.90642214 0.00045537305 0.00017333635 -0.00046228129 2.6793801e-12 4.9775736e-12 -5.6502672e-12            0   -1649.6802   -1649.6802    19484.728    20.031664    20.031664    48.557944      500 
     301            0 0.00045155067   0.90982103 0.00037836099 0.00039489812 0.00058139291 -9.1963904e-12 1.4253843e-11 1.0665652e-11            0   -1649.6802   -1649.6802    19484.728    20.031664    20.031664    48.557944      500 
     302            0 -5.8393846e-05   0.91321707 -0.00024983711 -0.00016839731 0.00024305289 6.9266769e-12 8.0803143e-12 5.032449e-12            0   -1649.6802   -1649.6802    19484.728    20.031664    20.031664    48.557944      500 
     303            0 -0.0003400453   0.91661596 -0.00024617701 -0.00024640531 -0.00052755358 -3.4188343e-12 2.8518125e-11 9.367772e-12            0   -1649.6802   -1649.6802    19484.728    20.031664    20.031664    48.557944      500 
     304            0 0.00011335569   0.92001295 0.00029746625 0.00026911311 -0.00022651229 5.9898068e-12 3.962085e-12 -1.3240732e-12            0   -1649.6802   -1649.6802    19484.728    20.031664    20.031664    48.557944      500 
     305            0 0.00051854412   0.92340803 0.00035958891 0.00027982641 0.00091621705 2.8345742e-12 2.7573479e-12 1.7885301e-11            0   -1649.6802   -1649.6802    19484.728    20.031664    20.031664    48.557944      500 
     306            0 -0.00025879595   0.92681003 -0.00054985682 -0.00061570952 0.00038917848 -4.073274e-12 7.5320276e-12 1.1695749e-11            0   -1649.6802   -1649.6802    19484.728    20.031664    20.031664    48.557944      500 
     307            0 -0.00093481597   0.93020105 -0.00074124952 -0.00036236547 -0.0017008329 -4.4133316e-12 5.7543174e-12 3.9041306e-12            0   -1649.6802   -1649.6802    19484.729    20.031664    20.031664    48.557944      500 
     308            0 0.00049193412   0.93359613 0.00087548856 0.0012525619 -0.00065224812 -5.5658759e-12 7.0763475e-12 1.9139621e-11            0   -1649.6802   -1649.6802    19484.728    20.031664    20.031664    48.557944      500 
     309            0 0.0009998818   0.93699193 0.00099056533  0.000215035 0.0017940451 5.5687288e-12 7.4391685e-15 1.1204053e-11            0   -1649.6802   -1649.6802    19484.728    20.031664    20.031664    48.557944      500 
     310            0 -0.00049885102   0.94039202 -0.0006711686 -0.0013667143 0.00054132987 -3.9939653e-14 3.6344982e-12 1.6846245e-11            0   -1649.6802   -1649.6802    19484.729    20.031664    20.031664    48.557944      500 
     311            0 -0.00053143452   0.94378805 -0.00070778205 5.2046322e-06 -0.00089172614 -1.6683364e-12 -6.5052546e-12 7.3080755e-12            0   -1649.6802   -1649.6802    19484.729    20.031664    20.031664    48.557944      500 
     312            0 0.00029183724   0.94718504 0.00022789194 0.00082122636 -0.00017360659 1.4011401e-11 3.735392e-12 8.3141432e-12            0   -1649.6802   -1649.6802    19484.729    20.031664    20.031664    48.557944      500 
     313            0 0.00020840979   0.95058703 0.00039529889 -5.6097532e-05 0.00028602801 1.0880132e-11 1.2730221e-11 2.1623448e-11            0   -1649.6802   -1649.6802    19484.729    20.031664    20.031664    48.557944      500 
     314            0 -0.000164549   0.95397806 -5.0901723e-05 -0.00041566924 -2.7076026e-05 7.9251682e-13 9.9208111e-12 2.7136056e-11            0   -1649.6802   -1649.6802    19484.729    20.031664    20.031664    48.557944      500 
     315            0 -7.6981357e-05   0.95737505 -0.00021776978 4.0942842e-05 -5.4117131e-05 8.4854645e-12 1.1840316e-11 1.6050108e-11            0   -1649.6802   -1649.6802    19484.729    20.031664    20.031664    48.557944      500 
     316            0 0.00012835833   0.96077108 4.0557899e-05 0.00024176348 0.00010275362 -1.1749675e-11 2.2706244e-11 2.4117712e-11            0   -1649.6802   -1649.6802    19484.729    20.031664    20.031664    48.557944      500 
     317            0 3.4152346e-05   0.96417093 0.00016617538 -3.3011857e-05 -3.0706487e-05 2.8722316e-12 2.4197705e-11 7.869691e-12            0   -1649.6802   -1649.6802    19484.729    20.031664    20.031664    48.557944      500 
     318            0 -0.0001795949   0.96756601 -0.0001089487 -0.00025383915 -0.00017599687 3.4673324e-12 1.4608765e-11 1.402268e-11            0   -1649.6802   -1649.6802    19484.729    20.031664    20.031664    48.557944      500 
     319            0 -2.2060748e-05     0.970963 -0.00022405244 1.7829479e-05 0.00014004071 3.5677521e-12 3.7362297e-12 2.0721184e-12            0   -1649.6802   -1649.6802    19484.729    20.031664    20.031664    48.557944      500 
     320            0 0.00037749144   0.97436213 0.00029011371 0.00045647975 0.00038588086 -3.8747169e-12 6.7342252e-12 1.3920249e-11            0   -1649.6802   -1649.6802    19484.729    20.031664    20.031664    48.557944      500 
     321            0 2.0724567e-05   0.97775412 0.0003648697 6.2513209e-05 -0.00036520921 -3.5489234e-12 1.4478731e-11 1.8584237e-11            0   -1649.6802   -1649.6802    19484.729    20.031664    20.031664    48.557944      500 
     322            0 -0.00073647556     0.981148 -0.00062500986 -0.00081544928 -0.00076896755 4.7716474e-12 2.099772e-11 2.6137939e-11            0   -1649.6802   -1649.6802    19484.729    20.031664    20.031664    48.557944      500 
     323            0 -1.7511801e-05   0.98454309 -0.000418647 -0.00019286243 0.00055897403 -5.7398987e-12 1.513319e-11 6.1622578e-12            0   -1649.6802   -1649.6802    19484.729    20.031664    20.031664    48.557944      500 
     324            0 0.00078893396   0.98794293 0.00070798866 0.00082871023 0.00083010298 -2.4705528e-13 6.8772679e-12 6.8583865e-12            0   -1649.6802   -1649.6802    19484.729    20.031664    20.031664    48.557944      500 
     325            0 8.5079759e-06   0.99133897 0.00023295407 0.00017952917 -0.00038695931 -2.0192347e-12 6.357206e-12  5.09268e-12            0   -1649.6802   -1649.6802    19484.729    20.031664    20.031664    48.557944      500 
     326            0 -0.00042856733     0.994735 -0.00039823403 -0.00043809027 -0.00044937769 5.0192732e-12 2.7903475e-11 1.0741719e-11            0   -1649.6802   -1649.6802    19484.729    20.031664    20.031664    48.557944      500 
     327            0 -2.2993368e-06   0.99812603 -8.4820281e-05 -9.8766835e-05 0.00017668911 4.3722508e-12 1.6122778e-11 9.4338868e-12            0   -1649.6802   -1649.6802    19484.729    20.031664    20.031664    48.557944      500 
     328            0 0.0001864341    1.0015271 0.00017776407 0.00018994618 0.00019159204 3.6036978e-12 9.5168791e-12 2.0367811e-11            0   -1649.6802   -1649.6802    19484.729    20.031664    20.031664    48.557944      500 
     329            0 -8.7513563e-07    1.0049231 2.6056323e-05 5.0113156e-05 -7.8794886e-05 4.6558224e-12 1.2114217e-11 1.4916207e-11            0   -1649.6802   -1649.6802    19484.729    20.031664    20.031664    48.557944      500 
     330            0 -9.122702e-05    1.0083179 -8.9812182e-05 -9.8448199e-05 -8.542068e-05 -2.395238e-12 8.1420532e-12 1.2339688e-11            0   -1649.6802   -1649.6802    19484.729    20.031664    20.031664    48.557944      500 
     331            0 4.6199252e-06     1.011718 -4.5633482e-06 -3.2202182e-05 5.0625305e-05 -6.7440956e-13 1.541107e-11 1.7353826e-11            0   -1649.6802   -1649.6802    19484.729    20.031664    20.031664    48.557944      500 
     332            0 7.7720036e-05     1.015115 7.6141244e-05 9.8710419e-05 5.8308444e-05 -2.5219038e-13 -1.4284573e-11 2.1347586e-11            0   -1649.6802   -1649.6802    19484.729    20.031664    20.031664    48.557944      500 
     333            0 -1.2275983e-05    1.0185089 -1.3720195e-05 4.1675587e-05 -6.4783342e-05 -7.0407902e-13 5.8131205e-12 1.7397919e-11            0   -1649.6802   -1649.6802    19484.729    20.031664    20.031664    48.557944      500 
     334            0 -0.0001264792    1.0218999 -0.00010577104 -0.00018512988 -8.8536662e-05 2.854544e-12 -5.9677564e-12 1.662019e-11            0   -1649.6802   -1649.6802    19484.729    20.031664    20.031664    48.557944      500 
     335            0 3.0743813e-05    1.0253019 7.3569341e-05 -8.9482377e-05 0.00010814447 -6.3726569e-12 2.6889064e-11 2.8869064e-11            0   -1649.6802   -1649.6802    19484.729    20.031664    20.031664    48.557944      500 
     336            0 0.00022517418    1.0287039 0.00013326091 0.00034678209 0.00019547954 4.9302649e-12 1.0127919e-11 1.4126899e-11            0   -1649.6802   -1649.6802    19484.729    20.031664    20.031664    48.557944      500 
     337            0 -6.2494123e-05    1.0320981 -0.00022247699 0.0001449915 -0.00010999688 -5.6508903e-12 1.0010981e-11 1.8495951e-11            0   -1649.6802   -1649.6802    19484.729    20.031664    20.031664    48.557944      500 
     338            0 -0.00024346472     1.035497 -8.9257766e-05 -0.00035342981 -0.00028770659 4.0493102e-12 -1.6640248e-11 2.8366555e-11            0   -1649.6802   -1649.6802    19484.729    20.031664    20.031664    48.557944      500 
     339            0 7.1259015e-05     1.038892 0.00028308951 -7.656782e-05 7.2553589e-06 -1.3505308e-12 1.5674618e-13 2.1144914e-11            0   -1649.6802   -1649.6802    19484.729    20.031664    20.031664    48.557944      500 
     340            0 0.00013400419    1.0422881 3.8515517e-05 0.00016328395 0.00020021309 4.1103608e-12 1.6504792e-11 6.8140341e-12            0   -1649.6802   -1649.6802    19484.729    20.031664    20.031664    48.557944      500 
[...]
---------------------------------------------------------------
Pair    | 0.058581   | 0.058581   | 0.058581   |   0.0 | 98.09
Neigh   | 0          | 0          | 0          |   0.0 |  0.00
Comm    | 0.00022602 | 0.00022602 | 0.00022602 |   0.0 |  0.38
Output  | 0.00042605 | 0.00042605 | 0.00042605 |   0.0 |  0.71
Modify  | 0          | 0          | 0          |   0.0 |  0.00
Other   |            | 0.0004876  |            |       |  0.82

Nlocal:    500 ave 500 max 500 min
Histogram: 1 0 0 0 0 0 0 0 0 0
Nghost:    945 ave 945 max 945 min
Histogram: 1 0 0 0 0 0 0 0 0 0
Neighs:    28400 ave 28400 max 28400 min
Histogram: 1 0 0 0 0 0 0 0 0 0

Total # of neighbors = 28400
Ave neighs/atom = 56.8
Neighbor list builds = 0
Dangerous builds = 0
Reading restart file ...
  restart file = 13 Jan 2016, LAMMPS = 13 Jan 2016
  triclinic box = (0.109168 0.109168 0.0210278) to (20.1408 20.1408 48.579) with tilt (0 0 0)
  1 by 1 by 1 MPI processor grid
  500 atoms
Changing box ...
  triclinic box = (0.109168 0.109168 0.0210278) to (20.1408 20.1408 48.579) with tilt (0 -4.85579e-05 0)
Neighbor list info ...
  1 neighbor list requests
  update every 1 steps, delay 0 steps, check yes
  max neighbors/atom: 2000, page size: 100000
  master list distance cutoff = 7.72488
  ghost atom cutoff = 7.72488
Setting up cg style minimization ...
  Unit style: metal
Memory usage per processor = 3.35025 Mbytes
Step Temp Press CPU Pxx Pyy Pzz Pxy Pxz Pyz KinEng PotEng TotEng Volume Lx Ly Lz Atoms 
     503            0 2.5605317e-07            0 3.2197915e-07 2.6869576e-08 4.193108e-07 -4.9799041e-12   0.13757659 -7.7076237e-13            0   -1649.6802   -1649.6802    19484.729    20.031664    20.031664    48.557944      500 
     504            0 1.0809817e-07 0.0033149719 1.7242777e-07 -7.7703588e-08 2.2957033e-07 2.4271898e-12   0.10892754 1.1275663e-11            0   -1649.6802   -1649.6802    19484.729    20.031664    20.031664    48.557944      500 
     505            0 1.6688824e-07 0.0066421032 2.6410102e-07 2.4174703e-08  2.12389e-07 3.2470938e-12  0.088728614 1.2092492e-11            0   -1649.6802   -1649.6802    19484.729    20.031664    20.031664    48.557944      500 
     506            0 1.3519134e-07 0.0099711418 -3.397688e-08 -2.5186013e-07 6.9141103e-07 1.1685201e-12  0.065537098 9.4432801e-12            0   -1649.6802   -1649.6802    19484.729    20.031664    20.031664    48.557944      500 
     507            0 -4.9083495e-06  0.013293982 -1.497817e-06 -1.6216433e-06 -1.1605588e-05 -1.0467042e-11  0.044020736 2.0172168e-11            0   -1649.6802   -1649.6802    19484.729    20.031664    20.031664    48.557944      500 
     508            0 6.2271479e-05  0.014974117 2.7463656e-05 2.7455424e-05 0.00013189536 7.6946594e-12   0.00859892 5.1672634e-12            0   -1649.6802   -1649.6802    19484.729    20.031664    20.031664    48.557944      500 
     509            0 -0.00018611942  0.018297195 -9.1974023e-05 -9.1981278e-05 -0.00037440295 1.0500135e-11 0.0085989177 -3.0941673e-12            0   -1649.6802   -1649.6802    19484.729    20.031664    20.031664    48.557944      500 
     510            0 9.2448116e-05  0.021625996 5.3688842e-05 5.3681801e-05 0.00016997371 -2.1470416e-12 0.0085989194 9.8385633e-13            0   -1649.6802   -1649.6802    19484.729    20.031664    20.031664    48.557944      500 
     511            0 -0.0001739157   0.02494812 -0.0001184265 -0.00011843219 -0.00028488841 1.4821605e-11 0.0085989196 -3.8139649e-12            0   -1649.6802   -1649.6802    19484.729    20.031664    20.031664    48.557944      500 
     512            0 0.00024617873  0.028264999 0.00016912623 0.00016912094 0.00040028902 3.2579345e-13 0.0085989183 4.3338044e-12            0   -1649.6802   -1649.6802    19484.729    20.031664    20.031664    48.557944      500 
     513            0 -4.1858093e-05  0.031589031 -2.9102279e-05 -2.9107177e-05 -6.7364822e-05 2.6468578e-12 0.0085307849 8.8475555e-12            0   -1649.6802   -1649.6802    19484.729    20.031664    20.031664    48.557944      500 
     514            0 -9.9399682e-05   0.03512001 -6.7038488e-05 -6.7043103e-05 -0.00016411746 1.5602711e-11 0.0079580885 -1.1574186e-11            0   -1649.6802   -1649.6802    19484.729    20.031664    20.031664    48.557944      500 
     515            0 6.6557469e-05  0.038459063 4.500841e-05 4.5004024e-05 0.00010965997 2.5801016e-12 0.0064799415 -1.2230455e-11            0   -1649.6802   -1649.6802    19484.729    20.031664    20.031664    48.557944      500 
     516            0 1.0853013e-05  0.041795015 8.0263843e-06 8.0227397e-06 1.6509914e-05 -2.8123221e-12 0.0001897618 8.5354185e-12            0   -1649.6802   -1649.6802    19484.729    20.031664    20.031664    48.557944      500 
     517            0 9.5023517e-07  0.045124054 7.7594246e-07 7.7229594e-07 1.3024671e-06 8.6155537e-13 3.2466172e-07 6.0021021e-12            0   -1649.6802   -1649.6802    19484.729    20.031664    20.031664    48.557944      500 
     518            0 6.2287739e-07  0.048448086 5.1598136e-07 5.123236e-07 8.4032722e-07 -3.1911783e-12 3.7033304e-09  7.77938e-12            0   -1649.6802   -1649.6802    19484.729    20.031664    20.031664    48.557944      500 
     519            0 5.2902029e-07  0.051768064 4.2632473e-07 4.2267697e-07 7.3805917e-07 5.8123606e-12 3.5067447e-10 -2.0848626e-11            0   -1649.6802   -1649.6802    19484.729    20.031664    20.031664    48.557944      500 
     520            0 4.7597412e-07  0.055091143 3.7722438e-07 3.7357813e-07 6.7711985e-07 3.5289536e-12 7.1496165e-11 8.9553916e-12            0   -1649.6802   -1649.6802    19484.729    20.031664    20.031664    48.557944      500 
     521            0 4.3209186e-07   0.06005311 3.3851085e-07 3.348598e-07 6.2290492e-07 1.4834728e-13 -1.2219931e-10 2.1625277e-12            0   -1649.6802   -1649.6802    19484.729    20.031664    20.031664    48.557944      500 
Loop time of 0.06007 on 1 procs for 18 steps with 500 atoms

99.9% CPU use with 1 MPI tasks x no OpenMP threads

Minimization stats:
  Stopping criterion = force tolerance
  Energy initial, next-to-last, final = 
        -1649.68015724     -1649.68015725     -1649.68015725
  Force two-norm initial, final = 2.37334e-05 8.78554e-11
  Force max component initial, final = 2.32273e-06 8.76022e-12
  Final line search alpha, max atom move = 1 8.76022e-12
  Iterations, force evaluations = 18 35

MPI task timing breakdown:
Section |  min time  |  avg time  |  max time  |%varavg| %total
---------------------------------------------------------------
Pair    | 0.058897   | 0.058897   | 0.058897   |   0.0 | 98.05
Neigh   | 0          | 0          | 0          |   0.0 |  0.00
Comm    | 0.00024438 | 0.00024438 | 0.00024438 |   0.0 |  0.41
Output  | 0.00044751 | 0.00044751 | 0.00044751 |   0.0 |  0.74
Modify  | 0          | 0          | 0          |   0.0 |  0.00
Other   |            | 0.0004809  |            |       |  0.80

Nlocal:    500 ave 500 max 500 min
Histogram: 1 0 0 0 0 0 0 0 0 0
Nghost:    945 ave 945 max 945 min
Histogram: 1 0 0 0 0 0 0 0 0 0
Neighs:    28400 ave 28400 max 28400 min
Histogram: 1 0 0 0 0 0 0 0 0 0

Total # of neighbors = 28400
Ave neighs/atom = 56.8
Neighbor list builds = 0
Dangerous builds = 0
Reading restart file ...
  restart file = 13 Jan 2016, LAMMPS = 13 Jan 2016
  triclinic box = (0.109168 0.109168 0.0210278) to (20.1408 20.1408 48.579) with tilt (0 0 0)
  1 by 1 by 1 MPI processor grid
  500 atoms
Changing box ...
  triclinic box = (0.109168 0.109168 0.0210278) to (20.1408 20.1408 48.579) with tilt (0 4.85579e-05 0)
Neighbor list info ...
  1 neighbor list requests
  update every 1 steps, delay 0 steps, check yes
  max neighbors/atom: 2000, page size: 100000
  master list distance cutoff = 7.72488
  ghost atom cutoff = 7.72488
Setting up cg style minimization ...
  Unit style: metal
Memory usage per processor = 3.35025 Mbytes
Step Temp Press CPU Pxx Pyy Pzz Pxy Pxz Pyz KinEng PotEng TotEng Volume Lx Ly Lz Atoms 
     503            0 2.5601419e-07            0 3.2193866e-07 2.6839757e-08 4.1926414e-07 6.1484243e-12  -0.13757659 6.2146829e-12            0   -1649.6802   -1649.6802    19484.729    20.031664    20.031664    48.557944      500 
     504            0 1.0810243e-07 0.0033261776 1.7244568e-07 -7.7697535e-08 2.2955915e-07 5.3890003e-12  -0.10892754 -5.0139954e-13            0   -1649.6802   -1649.6802    19484.729    20.031664    20.031664    48.557944      500 
     505            0 1.6691776e-07 0.0066552162 2.6411121e-07 2.4199682e-08 2.1244237e-07 7.0795887e-12 -0.088728614 1.6016714e-11            0   -1649.6802   -1649.6802    19484.729    20.031664    20.031664    48.557944      500 
     506            0 1.3501315e-07 0.0099790096 -3.4079978e-08 -2.5196661e-07 6.9108602e-07 -1.2021835e-12 -0.065537098 5.391266e-12            0   -1649.6802   -1649.6802    19484.729    20.031664    20.031664    48.557944      500 
     507            0 -4.9070851e-06  0.013308048 -1.4970697e-06 -1.6209072e-06 -1.1603279e-05 -8.7473545e-12 -0.044020736 -5.2713128e-12            0   -1649.6802   -1649.6802    19484.729    20.031664    20.031664    48.557944      500 
     508            0 6.2261387e-05  0.014996052 2.7457882e-05 2.7449635e-05 0.00013187664 9.2545881e-13 -0.0085989204 2.8437654e-12            0   -1649.6802   -1649.6802    19484.729    20.031664    20.031664    48.557944      500 
     509            0 -0.00018611828  0.018318176 -9.1971471e-05 -9.1978742e-05 -0.00037440464 -1.0159507e-11 -0.0085989181 -8.9357773e-13            0   -1649.6802   -1649.6802    19484.729    20.031664    20.031664    48.557944      500 
     510            0 9.2468967e-05  0.021644115 5.3699323e-05 5.3692284e-05 0.00017001529 -1.2780689e-13 -0.0085989198 7.9096905e-12            0   -1649.6802   -1649.6802    19484.729    20.031664    20.031664    48.557944      500 
     511            0 -0.0001739682  0.024971008 -0.00011845604 -0.00011846175 -0.00028498682 -2.6873681e-13 -0.0085989201 4.8599769e-12            0   -1649.6802   -1649.6802    19484.729    20.031664    20.031664    48.557944      500 
     512            0 0.00024665652  0.028302193 0.00016943847 0.00016943316 0.00040109794 -7.4401867e-13 -0.0085989187 -1.5552657e-11            0   -1649.6802   -1649.6802    19484.729    20.031664    20.031664    48.557944      500 
     513            0 -4.3335507e-05  0.031676054 -3.008968e-05 -3.00946e-05 -6.9822241e-05 7.0425019e-12 -0.0085306388 1.6161688e-11            0   -1649.6802   -1649.6802    19484.729    20.031664    20.031664    48.557944      500 
     514            0 -9.5427118e-05  0.035002232 -6.4368039e-05 -6.437264e-05 -0.00015754068 6.5757785e-12 -0.0079418355 1.0664143e-11            0   -1649.6802   -1649.6802    19484.729    20.031664    20.031664    48.557944      500 
     515            0 6.6540634e-05  0.038325071 4.500276e-05 4.499838e-05 0.00010962076 1.0116143e-12  -0.00647119 4.0703432e-12            0   -1649.6802   -1649.6802    19484.729    20.031664    20.031664    48.557944      500 
     516            0 1.0859245e-05  0.041655064 8.0275614e-06 8.0238973e-06 1.6526277e-05 -4.8098753e-13 -0.00018930303 -1.1039767e-11            0   -1649.6802   -1649.6802    19484.729    20.031664    20.031664    48.557944      500 
     517            0 9.4729769e-07  0.044983149 7.7400679e-07 7.7034759e-07 1.2975387e-06 2.1738582e-12 -3.2122075e-07 -6.222297e-12            0   -1649.6802   -1649.6802    19484.729    20.031664    20.031664    48.557944      500 
     518            0 6.224309e-07  0.048310041 5.1562261e-07 5.1197739e-07 8.3969268e-07 -3.750904e-12 -3.6781482e-09 -3.934323e-12            0   -1649.6802   -1649.6802    19484.729    20.031664    20.031664    48.557944      500 
     519            0 5.2879096e-07  0.051640034 4.2609447e-07 4.2244487e-07 7.3783356e-07 -3.1004582e-12 -3.4865109e-10 3.5273867e-12            0   -1649.6802   -1649.6802    19484.729    20.031664    20.031664    48.557944      500 
     520            0 4.756456e-07  0.054967165 3.7694187e-07 3.7328079e-07 6.7671413e-07 -8.8317983e-12 -6.3344509e-11 -7.7011247e-12            0   -1649.6802   -1649.6802    19484.729    20.031664    20.031664    48.557944      500 
     521            0 4.3155704e-07  0.059929132 3.3802601e-07 3.3438975e-07 6.2225536e-07 2.8813607e-13 1.1820539e-10 9.2298177e-12            0   -1649.6802   -1649.6802    19484.729    20.031664    20.031664    48.557944      500 
Loop time of 0.0599461 on 1 procs for 18 steps with 500 atoms

93.4% CPU use with 1 MPI tasks x no OpenMP threads

Minimization stats:
  Stopping criterion = force tolerance
  Energy initial, next-to-last, final = 
        -1649.68015724     -1649.68015725     -1649.68015725
  Force two-norm initial, final = 2.37334e-05 8.7836e-11
  Force max component initial, final = 2.32273e-06 8.6583e-12
  Final line search alpha, max atom move = 1 8.6583e-12
  Iterations, force evaluations = 18 35

MPI task timing breakdown:
Section |  min time  |  avg time  |  max time  |%varavg| %total
---------------------------------------------------------------
Pair    | 0.058814   | 0.058814   | 0.058814   |   0.0 | 98.11
Neigh   | 0          | 0          | 0          |   0.0 |  0.00
Comm    | 0.00023437 | 0.00023437 | 0.00023437 |   0.0 |  0.39
Output  | 0.00042343 | 0.00042343 | 0.00042343 |   0.0 |  0.71
Modify  | 0          | 0          | 0          |   0.0 |  0.00
Other   |            | 0.0004745  |            |       |  0.79

Nlocal:    500 ave 500 max 500 min
Histogram: 1 0 0 0 0 0 0 0 0 0
Nghost:    945 ave 945 max 945 min
Histogram: 1 0 0 0 0 0 0 0 0 0
Neighs:    28400 ave 28400 max 28400 min
Histogram: 1 0 0 0 0 0 0 0 0 0

Total # of neighbors = 28400
Ave neighs/atom = 56.8
Neighbor list builds = 0
Dangerous builds = 0
Reading restart file ...
  restart file = 13 Jan 2016, LAMMPS = 13 Jan 2016
  triclinic box = (0.109168 0.109168 0.0210278) to (20.1408 20.1408 48.579) with tilt (0 0 0)
  1 by 1 by 1 MPI processor grid
  500 atoms
Changing box ...
  triclinic box = (0.109168 0.109168 0.0210278) to (20.1408 20.1408 48.579) with tilt (-2.00317e-05 0 0)
Neighbor list info ...
  1 neighbor list requests
  update every 1 steps, delay 0 steps, check yes
  max neighbors/atom: 2000, page size: 100000
  master list distance cutoff = 7.72488
  ghost atom cutoff = 7.72488
Setting up cg style minimization ...
  Unit style: metal
Memory usage per processor = 3.35025 Mbytes
Step Temp Press CPU Pxx Pyy Pzz Pxy Pxz Pyz KinEng PotEng TotEng Volume Lx Ly Lz Atoms 
     503            0 2.8736615e-07            0 3.1345463e-07 5.2006291e-07 2.8580906e-08   0.16636127 -3.4654399e-12 1.6034339e-11            0   -1649.6802   -1649.6802    19484.729    20.031664    20.031664    48.557944      500 
     504            0 2.8911564e-07 0.0049481392 3.134771e-07 5.200876e-07 3.3782231e-08   0.16636127 3.9492576e-11 3.3767899e-11            0   -1649.6802   -1649.6802    19484.729    20.031664    20.031664    48.557944      500 
Loop time of 0.00496602 on 1 procs for 1 steps with 500 atoms

80.5% CPU use with 1 MPI tasks x no OpenMP threads

Minimization stats:
  Stopping criterion = force tolerance
  Energy initial, next-to-last, final = 
        -1649.68015724     -1649.68015724     -1649.68015724
  Force two-norm initial, final = 5.96538e-11 2.6508e-11
  Force max component initial, final = 4.68231e-12 3.07218e-12
  Final line search alpha, max atom move = 1 3.07218e-12
  Iterations, force evaluations = 1 2

MPI task timing breakdown:
Section |  min time  |  avg time  |  max time  |%varavg| %total
---------------------------------------------------------------
Pair    | 0.004889   | 0.004889   | 0.004889   |   0.0 | 98.45
Neigh   | 0          | 0          | 0          |   0.0 |  0.00
Comm    | 1.812e-05  | 1.812e-05  | 1.812e-05  |   0.0 |  0.36
Output  | 0          | 0          | 0          |   0.0 |  0.00
Modify  | 0          | 0          | 0          |   0.0 |  0.00
Other   |            | 5.889e-05  |            |       |  1.19

Nlocal:    500 ave 500 max 500 min
Histogram: 1 0 0 0 0 0 0 0 0 0
Nghost:    945 ave 945 max 945 min
Histogram: 1 0 0 0 0 0 0 0 0 0
Neighs:    28400 ave 28400 max 28400 min
Histogram: 1 0 0 0 0 0 0 0 0 0

Total # of neighbors = 28400
Ave neighs/atom = 56.8
Neighbor list builds = 0
Dangerous builds = 0
Reading restart file ...
  restart file = 13 Jan 2016, LAMMPS = 13 Jan 2016
  triclinic box = (0.109168 0.109168 0.0210278) to (20.1408 20.1408 48.579) with tilt (0 0 0)
  1 by 1 by 1 MPI processor grid
  500 atoms
Changing box ...
  triclinic box = (0.109168 0.109168 0.0210278) to (20.1408 20.1408 48.579) with tilt (2.00317e-05 0 0)
Neighbor list info ...
  1 neighbor list requests
  update every 1 steps, delay 0 steps, check yes
  max neighbors/atom: 2000, page size: 100000
  master list distance cutoff = 7.72488
  ghost atom cutoff = 7.72488
Setting up cg style minimization ...
  Unit style: metal
Memory usage per processor = 3.35025 Mbytes
Step Temp Press CPU Pxx Pyy Pzz Pxy Pxz Pyz KinEng PotEng TotEng Volume Lx Ly Lz Atoms 
     503            0 2.8738016e-07            0 3.1345543e-07 5.2006745e-07 2.8617603e-08  -0.16636127 1.1655771e-11 1.5116454e-11            0   -1649.6802   -1649.6802    19484.729    20.031664    20.031664    48.557944      500 
     504            0 2.8912522e-07 0.0051548481 3.1346583e-07 5.2008623e-07 3.382362e-08  -0.16636127 1.478254e-11 1.7619895e-11            0   -1649.6802   -1649.6802    19484.729    20.031664    20.031664    48.557944      500 
Loop time of 0.00517893 on 1 procs for 1 steps with 500 atoms

154.5% CPU use with 1 MPI tasks x no OpenMP threads

Minimization stats:
  Stopping criterion = force tolerance
  Energy initial, next-to-last, final = 
        -1649.68015724     -1649.68015724     -1649.68015724
  Force two-norm initial, final = 5.96538e-11 2.651e-11
  Force max component initial, final = 4.68076e-12 3.07413e-12
  Final line search alpha, max atom move = 1 3.07413e-12
  Iterations, force evaluations = 1 2

MPI task timing breakdown:
Section |  min time  |  avg time  |  max time  |%varavg| %total
---------------------------------------------------------------
Pair    | 0.0050378  | 0.0050378  | 0.0050378  |   0.0 | 97.27
Neigh   | 0          | 0          | 0          |   0.0 |  0.00
Comm    | 6.4135e-05 | 6.4135e-05 | 6.4135e-05 |   0.0 |  1.24
Output  | 0          | 0          | 0          |   0.0 |  0.00
Modify  | 0          | 0          | 0          |   0.0 |  0.00
Other   |            | 7.701e-05  |            |       |  1.49

Nlocal:    500 ave 500 max 500 min
Histogram: 1 0 0 0 0 0 0 0 0 0
Nghost:    945 ave 945 max 945 min
Histogram: 1 0 0 0 0 0 0 0 0 0
Neighs:    28400 ave 28400 max 28400 min
Histogram: 1 0 0 0 0 0 0 0 0 0

Total # of neighbors = 28400
Ave neighs/atom = 56.8
Neighbor list builds = 0
Dangerous builds = 0
Elastic Constant C11all = 39.3353255751309 GPa
Elastic Constant C22all = 39.3353255739536 GPa
Elastic Constant C33all = -1.0192600300587e-06 GPa
Elastic Constant C12all = 14.8466843903902 GPa
Elastic Constant C13all = -2.42259405597802e-07 GPa
Elastic Constant C23all = -2.4583024888375e-07 GPa
Elastic Constant C44all = -1.02508846726082e-08 GPa
Elastic Constant C55all = -1.20202349036044e-08 GPa
Elastic Constant C66all = 16.6361273246691 GPa
Elastic Constant C14all = 1.26176340993106e-08 GPa
Elastic Constant C15all = 1.1158212542086e-08 GPa
Elastic Constant C16all = 3.91835685009385e-11 GPa
Elastic Constant C24all = 1.17806205458964e-08 GPa
Elastic Constant C25all = 1.14949559025215e-08 GPa
Elastic Constant C26all = 1.53239958006262e-10 GPa
Elastic Constant C34all = 1.67068850222056e-08 GPa
Elastic Constant C35all = 1.68089599088983e-08 GPa
Elastic Constant C36all = -8.90279623264156e-10 GPa
Elastic Constant C45all = -6.89039078357337e-10 GPa
Elastic Constant C46all = 4.13314158119599e-10 GPa
Elastic Constant C56all = 6.14256181568135e-10 GPa
Total wall time: 0:00:02
