    2    2    1    1
  0.2044415E+02  0.3866974E-09  0.3866975E-09  0.3866975E-09  0.5000000E-15
  1.000000000000000E-004
  CAR 
 unknown system                          
    8    4    8
 
  0.0000000E+00  0.0000000E+00  0.0000000E+00  0.3703704E-01
   1       -6.067559
   2        5.693862
   3        5.693862
   4        5.693864
   5        8.280343
   6        8.280346
   7        8.280347
   8        8.938116
 
  0.3333333E+00  0.4163336E-16  0.0000000E+00  0.2962963E+00
   1       -4.716394
   2        0.460078
   3        4.721031
   4        4.721033
   5        7.440970
   6        9.215729
   7        9.215732
   8       13.497441
 
  0.3333333E+00  0.3333333E+00  0.0000000E+00  0.2222222E+00
   1       -4.197383
   2        0.754128
   3        3.340646
   4        3.340646
   5        6.474826
   6        7.730525
   7       12.879876
   8       12.879876
 
 -0.3333333E+00  0.3333333E+00  0.0000000E+00  0.4444444E+00
   1       -2.867163
   2       -0.969085
   3        1.397500
   4        3.638391
   5        7.302586
   6       11.462209
   7       12.132450
   8       12.684174
