   2   2   0   0
  0.2072484E+02  0.3884592E-09  0.3884592E-09  0.3884592E-09  0.5000000E-15
   1.0000000000000000E-004
  CAR 
 unknown system                          
     30.16681481     -8.19130214  301      5.80109863      1.00000000
     -8.191  0.0000E+00  0.0000E+00
     -8.063  0.0000E+00  0.0000E+00
     -7.936  0.0000E+00  0.0000E+00
     -7.808  0.0000E+00  0.0000E+00
     -7.680  0.0000E+00  0.0000E+00
     -7.552  0.0000E+00  0.0000E+00
     -7.424  0.0000E+00  0.0000E+00
     -7.296  0.5955E-16  0.7615E-17
     -7.168  0.5230E-13  0.6695E-14
     -7.041  0.2056E-10  0.2635E-11
     -6.913  0.3653E-08  0.4697E-09
     -6.785  0.2973E-06  0.3848E-07
     -6.657  0.1139E-04  0.1495E-05
     -6.529  0.2176E-03  0.2931E-04
     -6.401  0.2268E-02  0.3193E-03
     -6.273  0.1400E-01  0.2110E-02
     -6.146  0.5142E-01  0.8685E-02
     -6.018  0.1098E+00  0.2273E-01
     -5.890  0.1564E+00  0.4273E-01
     -5.762  0.2144E+00  0.7014E-01
     -5.634  0.2923E+00  0.1075E+00
     -5.506  0.2944E+00  0.1451E+00
     -5.378  0.2614E+00  0.1786E+00
     -5.251  0.3481E+00  0.2231E+00
     -5.123  0.4575E+00  0.2816E+00
     -4.995  0.4600E+00  0.3404E+00
     -4.867  0.4322E+00  0.3957E+00
     -4.739  0.3971E+00  0.4464E+00
     -4.611  0.4262E+00  0.5009E+00
     -4.483  0.6101E+00  0.5789E+00
     -4.355  0.7204E+00  0.6710E+00
     -4.228  0.6807E+00  0.7581E+00
     -4.100  0.6562E+00  0.8420E+00
     -3.972  0.6241E+00  0.9218E+00
     -3.844  0.7336E+00  0.1016E+01
     -3.716  0.9859E+00  0.1142E+01
     -3.588  0.9969E+00  0.1269E+01
     -3.460  0.8114E+00  0.1373E+01
     -3.333  0.6760E+00  0.1459E+01
     -3.205  0.5319E+00  0.1527E+01
     -3.077  0.5658E+00  0.1600E+01
     -2.949  0.7326E+00  0.1693E+01
     -2.821  0.6817E+00  0.1780E+01
     -2.693  0.4611E+00  0.1839E+01
     -2.565  0.3215E+00  0.1881E+01
     -2.438  0.2931E+00  0.1918E+01
     -2.310  0.2978E+00  0.1956E+01
     -2.182  0.2642E+00  0.1990E+01
     -2.054  0.2016E+00  0.2016E+01
     -1.926  0.1721E+00  0.2038E+01
     -1.798  0.1999E+00  0.2063E+01
     -1.670  0.2303E+00  0.2093E+01
     -1.543  0.3079E+00  0.2132E+01
     -1.415  0.5770E+00  0.2206E+01
     -1.287  0.9622E+00  0.2329E+01
     -1.159  0.1174E+01  0.2479E+01
     -1.031  0.1062E+01  0.2615E+01
     -0.903  0.9067E+00  0.2731E+01
     -0.775  0.8527E+00  0.2840E+01
     -0.648  0.7924E+00  0.2941E+01
     -0.520  0.7461E+00  0.3036E+01
     -0.392  0.6680E+00  0.3122E+01
     -0.264  0.5571E+00  0.3193E+01
     -0.136  0.4404E+00  0.3249E+01
     -0.008  0.2722E+00  0.3284E+01
      0.120  0.2523E+00  0.3316E+01
      0.247  0.4830E+00  0.3378E+01
      0.375  0.6021E+00  0.3455E+01
      0.503  0.4198E+00  0.3509E+01
      0.631  0.2409E+00  0.3540E+01
      0.759  0.1979E+00  0.3565E+01
      0.887  0.2184E+00  0.3593E+01
      1.015  0.2283E+00  0.3622E+01
      1.143  0.2613E+00  0.3655E+01
      1.270  0.3617E+00  0.3702E+01
      1.398  0.5863E+00  0.3777E+01
      1.526  0.1033E+01  0.3909E+01
      1.654  0.1328E+01  0.4079E+01
      1.782  0.1202E+01  0.4232E+01
      1.910  0.9918E+00  0.4359E+01
      2.038  0.8510E+00  0.4468E+01
      2.165  0.8366E+00  0.4575E+01
      2.293  0.1033E+01  0.4707E+01
      2.421  0.1387E+01  0.4884E+01
      2.549  0.1674E+01  0.5098E+01
      2.677  0.1537E+01  0.5295E+01
      2.805  0.1231E+01  0.5452E+01
      2.933  0.1214E+01  0.5608E+01
      3.060  0.1377E+01  0.5784E+01
      3.188  0.1490E+01  0.5974E+01
      3.316  0.1541E+01  0.6171E+01
      3.444  0.1582E+01  0.6373E+01
      3.572  0.1592E+01  0.6577E+01
      3.700  0.1323E+01  0.6746E+01
      3.828  0.1020E+01  0.6877E+01
      3.955  0.1172E+01  0.7027E+01
      4.083  0.1336E+01  0.7197E+01
      4.211  0.1164E+01  0.7346E+01
      4.339  0.1080E+01  0.7484E+01
      4.467  0.1094E+01  0.7624E+01
      4.595  0.8167E+00  0.7729E+01
      4.723  0.4842E+00  0.7790E+01
      4.850  0.4222E+00  0.7844E+01
      4.978  0.3719E+00  0.7892E+01
      5.106  0.2457E+00  0.7923E+01
      5.234  0.2253E+00  0.7952E+01
      5.362  0.2091E+00  0.7979E+01
      5.490  0.1151E+00  0.7994E+01
      5.618  0.3907E-01  0.7999E+01
      5.745  0.9395E-02  0.8000E+01
      5.873  0.3432E-02  0.8000E+01
      6.001  0.1424E-01  0.8002E+01
      6.129  0.5214E-01  0.8009E+01
      6.257  0.1212E+00  0.8024E+01
      6.385  0.2158E+00  0.8052E+01
      6.513  0.3191E+00  0.8093E+01
      6.641  0.3774E+00  0.8141E+01
      6.768  0.3752E+00  0.8189E+01
      6.896  0.3902E+00  0.8239E+01
      7.024  0.5276E+00  0.8306E+01
      7.152  0.7793E+00  0.8406E+01
      7.280  0.9540E+00  0.8528E+01
      7.408  0.1005E+01  0.8656E+01
      7.536  0.1244E+01  0.8815E+01
      7.663  0.1703E+01  0.9033E+01
      7.791  0.1864E+01  0.9272E+01
      7.919  0.1522E+01  0.9466E+01
      8.047  0.1175E+01  0.9616E+01
      8.175  0.1167E+01  0.9765E+01
      8.303  0.1340E+01  0.9937E+01
      8.431  0.1343E+01  0.1011E+02
      8.558  0.1134E+01  0.1025E+02
      8.686  0.1086E+01  0.1039E+02
      8.814  0.1352E+01  0.1057E+02
      8.942  0.1831E+01  0.1080E+02
      9.070  0.2177E+01  0.1108E+02
      9.198  0.2132E+01  0.1135E+02
      9.326  0.1890E+01  0.1159E+02
      9.453  0.1648E+01  0.1180E+02
      9.581  0.1381E+01  0.1198E+02
      9.709  0.1137E+01  0.1212E+02
      9.837  0.1034E+01  0.1226E+02
      9.965  0.1065E+01  0.1239E+02
     10.093  0.1053E+01  0.1253E+02
     10.221  0.1151E+01  0.1267E+02
     10.348  0.1578E+01  0.1288E+02
     10.476  0.1725E+01  0.1310E+02
     10.604  0.1394E+01  0.1328E+02
     10.732  0.1365E+01  0.1345E+02
     10.860  0.1599E+01  0.1365E+02
     10.988  0.1369E+01  0.1383E+02
     11.116  0.8636E+00  0.1394E+02
     11.243  0.6606E+00  0.1402E+02
     11.371  0.7081E+00  0.1412E+02
     11.499  0.8263E+00  0.1422E+02
     11.627  0.8563E+00  0.1433E+02
     11.755  0.8723E+00  0.1444E+02
     11.883  0.1122E+01  0.1459E+02
     12.011  0.1382E+01  0.1476E+02
     12.138  0.1282E+01  0.1493E+02
     12.266  0.1084E+01  0.1506E+02
     12.394  0.1101E+01  0.1521E+02
     12.522  0.1321E+01  0.1537E+02
     12.650  0.1702E+01  0.1559E+02
     12.778  0.2062E+01  0.1586E+02
     12.906  0.2114E+01  0.1613E+02
     13.034  0.1571E+01  0.1633E+02
     13.161  0.8587E+00  0.1644E+02
     13.289  0.5285E+00  0.1650E+02
     13.417  0.5179E+00  0.1657E+02
     13.545  0.6474E+00  0.1665E+02
     13.673  0.8060E+00  0.1676E+02
     13.801  0.9836E+00  0.1688E+02
     13.929  0.1145E+01  0.1703E+02
     14.056  0.1218E+01  0.1718E+02
     14.184  0.1237E+01  0.1734E+02
     14.312  0.1339E+01  0.1751E+02
     14.440  0.1567E+01  0.1771E+02
     14.568  0.1737E+01  0.1794E+02
     14.696  0.1998E+01  0.1819E+02
     14.824  0.2274E+01  0.1848E+02
     14.951  0.1897E+01  0.1872E+02
     15.079  0.1275E+01  0.1889E+02
     15.207  0.1165E+01  0.1904E+02
     15.335  0.1286E+01  0.1920E+02
     15.463  0.1105E+01  0.1934E+02
     15.591  0.8843E+00  0.1946E+02
     15.719  0.8934E+00  0.1957E+02
     15.846  0.8291E+00  0.1968E+02
     15.974  0.8017E+00  0.1978E+02
     16.102  0.1086E+01  0.1992E+02
     16.230  0.1334E+01  0.2009E+02
     16.358  0.1222E+01  0.2024E+02
     16.486  0.1158E+01  0.2039E+02
     16.614  0.1503E+01  0.2058E+02
     16.741  0.1883E+01  0.2082E+02
     16.869  0.1805E+01  0.2106E+02
     16.997  0.1420E+01  0.2124E+02
     17.125  0.1256E+01  0.2140E+02
     17.253  0.1461E+01  0.2158E+02
     17.381  0.1803E+01  0.2181E+02
     17.509  0.2010E+01  0.2207E+02
     17.636  0.1666E+01  0.2228E+02
     17.764  0.9444E+00  0.2241E+02
     17.892  0.6554E+00  0.2249E+02
     18.020  0.9269E+00  0.2261E+02
     18.148  0.1383E+01  0.2278E+02
     18.276  0.1711E+01  0.2300E+02
     18.404  0.1650E+01  0.2321E+02
     18.532  0.1389E+01  0.2339E+02
     18.659  0.1357E+01  0.2357E+02
     18.787  0.1699E+01  0.2378E+02
     18.915  0.2129E+01  0.2406E+02
     19.043  0.2415E+01  0.2436E+02
     19.171  0.2448E+01  0.2468E+02
     19.299  0.2459E+01  0.2499E+02
     19.427  0.2402E+01  0.2530E+02
     19.554  0.1841E+01  0.2553E+02
     19.682  0.1056E+01  0.2567E+02
     19.810  0.7200E+00  0.2576E+02
     19.938  0.8012E+00  0.2586E+02
     20.066  0.8290E+00  0.2597E+02
     20.194  0.8391E+00  0.2608E+02
     20.322  0.1054E+01  0.2621E+02
     20.449  0.1267E+01  0.2637E+02
     20.577  0.1298E+01  0.2654E+02
     20.705  0.1418E+01  0.2672E+02
     20.833  0.1658E+01  0.2693E+02
     20.961  0.1742E+01  0.2716E+02
     21.089  0.1700E+01  0.2737E+02
     21.217  0.1833E+01  0.2761E+02
     21.344  0.2066E+01  0.2787E+02
     21.472  0.2039E+01  0.2813E+02
     21.600  0.1863E+01  0.2837E+02
     21.728  0.1594E+01  0.2857E+02
     21.856  0.1320E+01  0.2874E+02
     21.984  0.1157E+01  0.2889E+02
     22.112  0.1071E+01  0.2903E+02
     22.239  0.1306E+01  0.2919E+02
     22.367  0.1844E+01  0.2943E+02
     22.495  0.1994E+01  0.2969E+02
     22.623  0.1699E+01  0.2990E+02
     22.751  0.1467E+01  0.3009E+02
     22.879  0.1295E+01  0.3026E+02
     23.007  0.1043E+01  0.3039E+02
     23.134  0.8680E+00  0.3050E+02
     23.262  0.9469E+00  0.3062E+02
     23.390  0.1285E+01  0.3079E+02
     23.518  0.1832E+01  0.3102E+02
     23.646  0.2140E+01  0.3129E+02
     23.774  0.1765E+01  0.3152E+02
     23.902  0.1042E+01  0.3165E+02
     24.030  0.4818E+00  0.3171E+02
     24.157  0.1970E+00  0.3174E+02
     24.285  0.1872E+00  0.3176E+02
     24.413  0.3306E+00  0.3181E+02
     24.541  0.3266E+00  0.3185E+02
     24.669  0.1521E+00  0.3187E+02
     24.797  0.3605E-01  0.3187E+02
     24.925  0.2965E-01  0.3187E+02
     25.052  0.1002E+00  0.3189E+02
     25.180  0.1784E+00  0.3191E+02
     25.308  0.1604E+00  0.3193E+02
     25.436  0.1006E+00  0.3194E+02
     25.564  0.6912E-01  0.3195E+02
     25.692  0.3772E-01  0.3196E+02
     25.820  0.1754E-01  0.3196E+02
     25.947  0.2784E-01  0.3196E+02
     26.075  0.4458E-01  0.3197E+02
     26.203  0.3643E-01  0.3197E+02
     26.331  0.2508E-01  0.3198E+02
     26.459  0.4222E-01  0.3198E+02
     26.587  0.6002E-01  0.3199E+02
     26.715  0.4164E-01  0.3200E+02
     26.842  0.1347E-01  0.3200E+02
     26.970  0.2020E-02  0.3200E+02
     27.098  0.1394E-03  0.3200E+02
     27.226  0.4400E-05  0.3200E+02
     27.354  0.6321E-07  0.3200E+02
     27.482  0.1395E-07  0.3200E+02
     27.610  0.8603E-06  0.3200E+02
     27.737  0.2485E-04  0.3200E+02
     27.865  0.3285E-03  0.3200E+02
     27.993  0.2001E-02  0.3200E+02
     28.121  0.5650E-02  0.3200E+02
     28.249  0.7426E-02  0.3200E+02
     28.377  0.4548E-02  0.3200E+02
     28.505  0.1295E-02  0.3200E+02
     28.632  0.1708E-03  0.3200E+02
     28.760  0.1035E-04  0.3200E+02
     28.888  0.2866E-06  0.3200E+02
     29.016  0.3603E-08  0.3200E+02
     29.144  0.2046E-10  0.3200E+02
     29.272  0.5221E-13  0.3200E+02
     29.400  0.5955E-16  0.3200E+02
     29.528  0.0000E+00  0.3200E+02
     29.655  0.0000E+00  0.3200E+02
     29.783  0.0000E+00  0.3200E+02
     29.911  0.0000E+00  0.3200E+02
     30.039  0.0000E+00  0.3200E+02
     30.167  0.0000E+00  0.3200E+02
