    2    2    1    1
  0.2072484E+02  0.3884592E-09  0.3884592E-09  0.3884592E-09  0.5000000E-15
   1.0000000000000000E-004
  CAR 
 unknown system                          
      8     35     16

  0.3742002E-15  0.3742002E-15  0.3742002E-15  0.1371742E-02
    1       -6.191302   1.000000
    2        5.459593   0.992128
    3        5.459593   0.992128
    4        5.459593   0.992128
    5        8.074621   0.000000
    6        8.074621   0.000000
    7        8.074621   0.000000
    8        8.530573   0.000000
    9       13.214365   0.000000
   10       13.214365   0.000000
   11       13.348772   0.000000
   12       16.655711   0.000000
   13       16.655711   0.000000
   14       16.655711   0.000000
   15       20.750778   0.000000
   16       28.166815   0.000000

  0.1111111E+00  0.3608225E-15  0.3608225E-15  0.1097394E-01
    1       -6.034900   1.000000
    2        4.149166   1.000000
    3        5.236853   0.999967
    4        5.236853   0.999967
    5        7.977409   0.000000
    6        8.406700   0.000000
    7        8.406700   0.000000
    8        9.693802   0.000000
    9       12.813875   0.000000
   10       12.813875   0.000000
   11       13.978165   0.000000
   12       16.182846   0.000000
   13       17.577366   0.000000
   14       17.577366   0.000000
   15       21.726059   0.000000
   16       26.525918   0.000000

  0.2222222E+00  0.3747003E-15  0.3747003E-15  0.1097394E-01
    1       -5.575794   1.000000
    2        2.133690   1.000000
    3        4.831826   1.000000
    4        4.831826   1.000000
    5        7.548601   0.000000
    6        8.925154   0.000000
    7        8.925154   0.000000
    8       11.660558   0.000000
    9       12.586894   0.000000
   10       12.586894   0.000000
   11       14.511858   0.000000
   12       16.639710   0.000000
   13       19.477876   0.000000
   14       19.477876   0.000000
   15       23.255739   0.000000
   16       23.663809   0.000000

  0.3333333E+00  0.3885781E-15  0.3885781E-15  0.1097394E-01
    1       -4.861434   1.000000
    2        0.282430   1.000000
    3        4.504741   1.000000
    4        4.504742   1.000000
    5        7.176842   0.000000
    6        9.018215   0.000000
    7        9.018215   0.000000
    8       13.231008   0.000000
    9       13.435931   0.000000
   10       13.435931   0.000000
   11       14.408208   0.000000
   12       18.819075   0.000000
   13       19.860567   0.000000
   14       19.860567   0.000000
   15       21.885750   0.000000
   16       22.915019   0.000000

  0.4444444E+00  0.3885781E-15  0.3885781E-15  0.1097394E-01
    1       -4.105239   1.000000
    2       -1.060099   1.000000
    3        4.333324   1.000000
    4        4.333324   1.000000
    5        6.976775   0.000000
    6        8.897962   0.000000
    7        8.897962   0.000000
    8       13.247552   0.000000
    9       15.154378   0.000000
   10       15.154378   0.000000
   11       15.998003   0.000000
   12       17.525690   0.000000
   13       17.525690   0.000000
   14       18.566310   0.000000
   15       23.129855   0.000000
   16       25.480092   0.000000

  0.1111111E+00  0.1111111E+00  0.3742002E-15  0.8230453E-02
    1       -5.982300   1.000000
    2        4.341565   1.000000
    3        4.825172   1.000000
    4        4.825172   1.000000
    5        7.636489   0.000000
    6        8.965274   0.000000
    7        8.965274   0.000000
    8        9.504311   0.000000
    9       12.117677   0.000000
   10       13.447826   0.000000
   11       14.201691   0.000000
   12       17.021383   0.000000
   13       17.021383   0.000000
   14       17.455306   0.000000
   15       22.168694   0.000000
   16       26.033702   0.000000

  0.2222222E+00  0.1111111E+00  0.3816392E-15  0.3292181E-01
    1       -5.622045   1.000000
    2        2.721224   1.000000
    3        4.371967   1.000000
    4        4.489953   1.000000
    5        7.711012   0.000000
    6        8.931357   0.000000
    7        9.658013   0.000000
    8       10.352471   0.000000
    9       12.365502   0.000000
   10       13.494193   0.000000
   11       15.165277   0.000000
   12       16.700407   0.000000
   13       18.173033   0.000000
   14       19.273791   0.000000
   15       23.480709   0.000000
   16       23.603137   0.000000

  0.3333333E+00  0.1111111E+00  0.3885781E-15  0.3292181E-01
    1       -4.983715   1.000000
    2        0.879309   1.000000
    3        4.001648   1.000000
    4        4.075879   1.000000
    5        7.796451   0.000000
    6        8.943743   0.000000
    7        9.847827   0.000000
    8       10.812942   0.000000
    9       14.120801   0.000000
   10       14.144581   0.000000
   11       14.987570   0.000000
   12       18.223762   0.000000
   13       19.309177   0.000000
   14       20.654629   0.000000
   15       21.597583   0.000000
   16       22.429761   0.000000

  0.4444444E+00  0.1111111E+00  0.3885781E-15  0.3292181E-01
    1       -4.190411   1.000000
    2       -0.652709   1.000000
    3        3.581730   1.000000
    4        3.992867   1.000000
    5        7.660772   0.000000
    6        8.885574   0.000000
    7        9.598802   0.000000
    8       12.203574   0.000000
    9       14.426343   0.000000
   10       15.694840   0.000000
   11       16.270254   0.000000
   12       17.260256   0.000000
   13       18.003584   0.000000
   14       20.659100   0.000000
   15       22.354775   0.000000
   16       23.672761   0.000000

 -0.4444444E+00  0.1111111E+00  0.3885781E-15  0.3292181E-01
    1       -3.831340   1.000000
    2       -1.198967   1.000000
    3        3.334980   1.000000
    4        4.123714   1.000000
    5        7.652473   0.000000
    6        8.919953   0.000000
    7        9.351070   0.000000
    8       13.592958   0.000000
    9       14.412848   0.000000
   10       14.808910   0.000000
   11       16.256533   0.000000
   12       17.968301   0.000000
   13       18.326965   0.000000
   14       18.941802   0.000000
   15       23.780754   0.000000
   16       25.147059   0.000000

 -0.3333333E+00  0.1111111E+00  0.3608225E-15  0.3292181E-01
    1       -4.456904   1.000000
    2       -0.194742   1.000000
    3        3.307938   1.000000
    4        4.438294   1.000000
    5        7.824891   0.000000
    6        9.139473   0.000000
    7        9.226922   0.000000
    8       12.764384   0.000000
    9       12.930574   0.000000
   10       14.750298   0.000000
   11       16.483976   0.000000
   12       17.353097   0.000000
   13       19.847597   0.000000
   14       20.369430   0.000000
   15       21.625383   0.000000
   16       22.798588   0.000000

 -0.2222222E+00  0.1111111E+00  0.3885781E-15  0.3292181E-01
    1       -5.226016   1.000000
    2        1.473142   1.000000
    3        3.540989   1.000000
    4        4.867534   1.000000
    5        8.140644   0.000000
    6        9.001665   0.000000
    7        9.252739   0.000000
    8       11.457088   0.000000
    9       11.884479   0.000000
   10       14.515663   0.000000
   11       15.231691   0.000000
   12       17.354007   0.000000
   13       19.109393   0.000000
   14       21.018366   0.000000
   15       21.232088   0.000000
   16       23.489881   0.000000

 -0.1111111E+00  0.1111111E+00  0.3747003E-15  0.1646091E-01
    1       -5.776732   1.000000
    2        3.180258   1.000000
    3        4.175819   1.000000
    4        5.242836   0.999961
    5        8.418121   0.000000
    6        8.506377   0.000000
    7        8.672837   0.000000
    8       10.673388   0.000000
    9       12.010292   0.000000
   10       13.210139   0.000000
   11       14.825880   0.000000
   12       16.539209   0.000000
   13       17.485651   0.000000
   14       19.287360   0.000000
   15       22.994777   0.000000
   16       23.604049   0.000000

  0.2222222E+00  0.2222222E+00  0.3742002E-15  0.8230453E-02
    1       -5.361311   1.000000
    2        2.467366   1.000000
    3        3.873255   1.000000
    4        3.873255   1.000000
    5        6.862950   0.000000
    6        9.056085   0.000000
    7       10.667327   0.000000
    8       10.667327   0.000000
    9       12.717530   0.000000
   10       14.147137   0.000000
   11       16.164710   0.000000
   12       18.052790   0.000000
   13       18.052790   0.000000
   14       18.718304   0.000000
   15       23.178877   0.000000
   16       23.178877   0.000000

  0.3333333E+00  0.2222222E+00  0.3816392E-15  0.3292181E-01
    1       -4.810627   1.000000
    2        1.182144   1.000000
    3        3.270881   1.000000
    4        3.542628   1.000000
    5        7.010513   0.000000
    6        8.696789   0.000000
    7       10.890328   0.000000
    8       11.242485   0.000000
    9       14.451359   0.000000
   10       14.810917   0.000000
   11       16.734116   0.000000
   12       18.428233   0.000000
   13       18.838666   0.000000
   14       20.255987   0.000000
   15       21.217670   0.000000
   16       21.986688   0.000000

  0.4444444E+00  0.2222222E+00  0.3747003E-15  0.3292181E-01
    1       -4.040797   1.000000
    2       -0.230755   1.000000
    3        2.555408   1.000000
    4        3.445949   1.000000
    5        7.199041   0.000000
    6        9.678263   0.000000
    7       10.640107   0.000000
    8       11.087610   0.000000
    9       15.934753   0.000000
   10       16.282032   0.000000
   11       16.714689   0.000000
   12       17.173311   0.000000
   13       18.431663   0.000000
   14       20.992647   0.000000
   15       22.359899   0.000000
   16       23.940911   0.000000

 -0.4444444E+00  0.2222222E+00  0.3885781E-15  0.3292181E-01
    1       -3.416961   1.000000
    2       -1.128772   1.000000
    3        2.054556   1.000000
    4        3.592747   1.000000
    5        7.343275   0.000000
    6       10.416139   0.000000
    7       10.727051   0.000000
    8       11.592580   0.000000
    9       14.474185   0.000000
   10       14.713230   0.000000
   11       17.446202   0.000000
   12       18.476473   0.000000
   13       18.973665   0.000000
   14       21.800201   0.000000
   15       23.542034   0.000000
   16       23.817253   0.000000

 -0.3333333E+00  0.2222222E+00  0.3885781E-15  0.3292181E-01
    1       -3.810023   1.000000
    2       -0.577718   1.000000
    3        1.887097   1.000000
    4        3.956326   1.000000
    5        7.707947   0.000000
    6       10.360865   0.000000
    7       10.393007   0.000000
    8       12.547340   0.000000
    9       12.740319   0.000000
   10       13.842169   0.000000
   11       17.470552   0.000000
   12       19.482728   0.000000
   13       20.219366   0.000000
   14       20.873339   0.000000
   15       21.404967   0.000000
   16       23.573840   0.000000

 -0.2222222E+00  0.2222222E+00  0.3608225E-15  0.1646091E-01
    1       -4.600642   1.000000
    2        0.621922   1.000000
    3        2.268001   1.000000
    4        4.453763   1.000000
    5        8.199535   0.000000
    6        9.790954   0.000000
    7       10.062947   0.000000
    8       11.244111   0.000000
    9       11.739597   0.000000
   10       15.785443   0.000000
   11       16.951873   0.000000
   12       17.655707   0.000000
   13       18.746928   0.000000
   14       20.886574   0.000000
   15       22.400206   0.000000
   16       22.998908   0.000000

  0.3333333E+00  0.3333333E+00  0.3742002E-15  0.8230453E-02
    1       -4.347914   1.000000
    2        0.531651   1.000000
    3        3.156397   1.000000
    4        3.156397   1.000000
    5        6.306048   0.000178
    6        7.567979   0.000000
    7       12.599248   0.000000
    8       12.599248   0.000000
    9       14.953357   0.000000
   10       15.308973   0.000000
   11       18.319634   0.000000
   12       18.753736   0.000000
   13       18.753736   0.000000
   14       20.470752   0.000000
   15       21.468976   0.000000
   16       21.646571   0.000000

  0.4444444E+00  0.3333333E+00  0.3816392E-15  0.3292181E-01
    1       -3.634336   1.000000
    2       -0.486055   1.000000
    3        2.469845   1.000000
    4        3.003858   1.000000
    5        6.547075   0.000000
    6        7.595812   0.000000
    7       12.879522   0.000000
    8       12.967607   0.000000
    9       16.615597   0.000000
   10       16.670322   0.000000
   11       17.115657   0.000000
   12       17.236869   0.000000
   13       19.987495   0.000000
   14       20.395115   0.000000
   15       20.984468   0.000000
   16       22.859678   0.000000

 -0.4444444E+00  0.3333333E+00  0.3330669E-15  0.3292181E-01
    1       -2.873537   1.000000
    2       -1.350506   1.000000
    3        1.609986   1.000000
    4        3.105929   1.000000
    5        6.744830   0.000000
    6        9.137332   0.000000
    7       12.620144   0.000000
    8       12.672212   0.000000
    9       14.759768   0.000000
   10       14.877442   0.000000
   11       18.795953   0.000000
   12       19.052620   0.000000
   13       19.901031   0.000000
   14       21.377275   0.000000
   15       21.792624   0.000000
   16       23.149218   0.000000

 -0.3333333E+00  0.3333333E+00  0.3885781E-15  0.1646091E-01
    1       -3.045811   1.000000
    2       -1.161596   1.000000
    3        1.263654   1.000000
    4        3.446345   1.000000
    5        7.127950   0.000000
    6       11.247368   0.000000
    7       11.879000   0.000000
    8       12.392209   0.000000
    9       12.723676   0.000000
   10       13.126097   0.000000
   11       19.683014   0.000000
   12       20.234369   0.000000
   13       20.759561   0.000000
   14       20.962073   0.000000
   15       21.787353   0.000000
   16       22.659187   0.000000

  0.4444444E+00  0.4444444E+00  0.3742002E-15  0.8230453E-02
    1       -2.980145   1.000000
    2       -1.322031   1.000000
    3        2.783583   1.000000
    4        2.783583   1.000000
    5        6.177321   0.003904
    6        6.578397   0.000000
    7       14.620658   0.000000
    8       14.620658   0.000000
    9       16.926643   0.000000
   10       17.024847   0.000000
   11       17.024847   0.000000
   12       17.171647   0.000000
   13       18.805312   0.000000
   14       18.987936   0.000000
   15       22.866133   0.000000
   16       23.613077   0.000000

 -0.4444444E+00  0.4444444E+00  0.2775558E-15  0.1646091E-01
    1       -2.237672   1.000000
    2       -2.068208   1.000000
    3        2.206274   1.000000
    4        2.819398   1.000000
    5        6.402763   0.000010
    6        7.197138   0.000000
    7       14.517361   0.000000
    8       14.794574   0.000000
    9       15.191368   0.000000
   10       15.464513   0.000000
   11       18.641882   0.000000
   12       18.714013   0.000000
   13       18.784835   0.000000
   14       19.395122   0.000000
   15       22.841873   0.000000
   16       23.222125   0.000000

  0.3333333E+00  0.2222222E+00  0.1111111E+00  0.3292181E-01
    1       -5.167648   1.000000
    2        1.739378   1.000000
    3        3.214706   1.000000
    4        4.348118   1.000000
    5        7.888106   0.000000
    6        9.212613   0.000000
    7        9.916924   0.000000
    8       10.433731   0.000000
    9       12.853033   0.000000
   10       14.719011   0.000000
   11       16.152935   0.000000
   12       17.231717   0.000000
   13       18.768969   0.000000
   14       20.790153   0.000000
   15       20.918066   0.000000
   16       23.500397   0.000000

  0.4444444E+00  0.2222222E+00  0.1111111E+00  0.6584362E-01
    1       -4.458181   1.000000
    2        0.304029   1.000000
    3        2.619690   1.000000
    4        3.934358   1.000000
    5        8.257928   0.000000
    6        9.065308   0.000000
    7       10.253272   0.000000
    8       10.882763   0.000000
    9       13.717363   0.000000
   10       15.699238   0.000000
   11       16.852679   0.000000
   12       17.560226   0.000000
   13       19.400289   0.000000
   14       20.470111   0.000000
   15       21.574947   0.000000
   16       23.651357   0.000000

 -0.4444444E+00  0.2222222E+00  0.1111111E+00  0.6584362E-01
    1       -3.695909   1.000000
    2       -0.929561   1.000000
    3        2.423597   1.000000
    4        3.628495   1.000000
    5        8.330358   0.000000
    6        8.712906   0.000000
    7       10.827061   0.000000
    8       11.945740   0.000000
    9       14.001331   0.000000
   10       15.311630   0.000000
   11       16.762177   0.000000
   12       18.161309   0.000000
   13       19.120488   0.000000
   14       21.244630   0.000000
   15       22.421989   0.000000
   16       24.412957   0.000000

  0.4444444E+00  0.3333333E+00  0.1111111E+00  0.3292181E-01
    1       -4.180838   1.000000
    2        0.241156   1.000000
    3        2.529515   1.000000
    4        3.189183   1.000000
    5        7.356578   0.000000
    6        8.368525   0.000000
    7       10.842890   0.000000
    8       12.514516   0.000000
    9       14.774109   0.000000
   10       16.481049   0.000000
   11       16.912422   0.000000
   12       18.540318   0.000000
   13       19.256983   0.000000
   14       20.028627   0.000000
   15       21.221955   0.000000
   16       22.690108   0.000000

 -0.4444444E+00  0.3333333E+00  0.1111111E+00  0.6584362E-01
    1       -3.385782   1.000000
    2       -0.804142   1.000000
    3        1.891746   1.000000
    4        2.899677   1.000000
    5        7.758878   0.000000
    6        9.420479   0.000000
    7       10.420914   0.000000
    8       12.910696   0.000000
    9       14.249834   0.000000
   10       16.098459   0.000000
   11       17.526890   0.000000
   12       19.031290   0.000000
   13       19.487273   0.000000
   14       20.779425   0.000000
   15       22.555376   0.000000
   16       23.336803   0.000000

 -0.3333333E+00  0.3333333E+00  0.1111111E+00  0.6584362E-01
    1       -3.039307   1.000000
    2       -1.208562   1.000000
    3        1.522228   1.000000
    4        3.006197   1.000000
    5        8.040713   0.000000
    6        9.973998   0.000000
    7       11.484728   0.000000
    8       12.005814   0.000000
    9       12.836114   0.000000
   10       15.349819   0.000000
   11       18.245158   0.000000
   12       18.979052   0.000000
   13       21.341085   0.000000
   14       21.557609   0.000000
   15       22.368900   0.000000
   16       22.671571   0.000000

 -0.2222222E+00  0.3333333E+00  0.1111111E+00  0.3292181E-01
    1       -3.710426   1.000000
    2       -0.438066   1.000000
    3        1.667264   1.000000
    4        3.421957   1.000000
    5        8.528295   0.000000
    6        9.487034   0.000000
    7       10.334091   0.000000
    8       12.288397   0.000000
    9       13.845915   0.000000
   10       13.924606   0.000000
   11       18.738522   0.000000
   12       19.334867   0.000000
   13       19.525422   0.000000
   14       20.404853   0.000000
   15       22.261370   0.000000
   16       23.461035   0.000000

 -0.4444444E+00  0.4444444E+00  0.1111111E+00  0.3292181E-01
    1       -2.870628   1.000000
    2       -1.340934   1.000000
    3        2.253818   1.000000
    4        2.456630   1.000000
    5        7.196431   0.000000
    6        7.511577   0.000000
    7       12.582182   0.000000
    8       14.392336   0.000000
    9       14.917545   0.000000
   10       16.599016   0.000000
   11       17.410249   0.000000
   12       19.003194   0.000000
   13       19.277242   0.000000
   14       21.263522   0.000000
   15       21.421543   0.000000
   16       22.880513   0.000000

 -0.3333333E+00  0.4444444E+00  0.1111111E+00  0.3292181E-01
    1       -2.374095   1.000000
    2       -1.784054   1.000000
    3        1.570760   1.000000
    4        2.540495   1.000000
    5        7.561125   0.000000
    6        9.153321   0.000000
    7       12.054831   0.000000
    8       12.308975   0.000000
    9       14.761185   0.000000
   10       15.607109   0.000000
   11       18.301589   0.000000
   12       19.340910   0.000000
   13       21.062878   0.000000
   14       21.890967   0.000000
   15       22.045842   0.000000
   16       22.232267   0.000000

 -0.3333333E+00  0.4444444E+00  0.2222222E+00  0.3292181E-01
    1       -2.610154   1.000000
    2       -1.484473   1.000000
    3        1.606244   1.000000
    4        2.222546   1.000000
    5        9.331717   0.000000
    6        9.450663   0.000000
    7       10.050909   0.000000
    8       11.773282   0.000000
    9       14.722139   0.000000
   10       16.139256   0.000000
   11       17.911892   0.000000
   12       19.268749   0.000000
   13       20.680352   0.000000
   14       21.995258   0.000000
   15       22.300920   0.000000
   16       23.660577   0.000000
