       N       E                     dE             d eps       ncg     rms          rms(c)
DAV:   1     0.300241620979E+01    0.30024E+01   -0.35389E+03  1120   0.395E+02
DAV:   2    -0.832773291753E+01   -0.11330E+02   -0.11230E+02  1616   0.400E+01
DAV:   3    -0.840775632009E+01   -0.80023E-01   -0.80023E-01  1232   0.433E+00
DAV:   4    -0.840799664438E+01   -0.24032E-03   -0.24032E-03  2112   0.267E-01
DAV:   5    -0.840799666185E+01   -0.17467E-07   -0.17662E-07  1200   0.178E-03    0.367E+00
DAV:   6    -0.835836850195E+01    0.49628E-01   -0.84836E-02  1728   0.859E-01    0.225E+00
DAV:   7    -0.835243974285E+01    0.59288E-02   -0.19396E-01  1712   0.128E+00    0.186E-01
DAV:   8    -0.833600161017E+01    0.16438E-01   -0.49310E-03  1296   0.243E-01    0.954E-02
DAV:   9    -0.833711413385E+01   -0.11125E-02   -0.55093E-04  1712   0.819E-02    0.520E-02
DAV:  10    -0.833715649854E+01   -0.42365E-04   -0.22833E-05  1408   0.215E-02    0.106E-02
DAV:  11    -0.833697041809E+01    0.18608E-03   -0.31004E-07  1904   0.260E-03    0.196E-03
DAV:  12    -0.833695921059E+01    0.11208E-04   -0.69365E-08  1344   0.137E-03    0.398E-04
DAV:  13    -0.833695688715E+01    0.23234E-05   -0.49362E-09  1424   0.319E-04    0.775E-05
DAV:  14    -0.833695725325E+01   -0.36610E-06   -0.17713E-10   720   0.644E-05    0.897E-06
DAV:  15    -0.833695696058E+01    0.29267E-06   -0.67274E-12   848   0.133E-05    0.301E-06
DAV:  16    -0.833695694549E+01    0.15085E-07    0.16923E-13   688   0.561E-06
   1 F= -.83369569E+01 E0= -.83369292E+01  d E =-.833696E+01
