<?xml version="1.0" encoding="ISO-8859-1"?>
<modeling>
 <generator>
  <i name="program" type="string">vasp </i>
  <i name="version" type="string">5.4.1  </i>
  <i name="subversion" type="string">24Jun15 (build Feb  9 2019 14:16:27) complex                          parallel </i>
  <i name="platform" type="string">IFC91_ompi </i>
  <i name="date" type="string">2020 09 26 </i>
  <i name="time" type="string">22:29:26 </i>
 </generator>
 <incar>
  <i type="string" name="PREC">accurate</i>
  <i type="int" name="NELM">   400</i>
  <i type="int" name="IBRION">     2</i>
  <i name="EDIFF">      0.00000010</i>
  <i type="int" name="NSW">     1</i>
  <i type="int" name="ISIF">     2</i>
  <i name="ENCUT">    500.00000000</i>
  <i type="int" name="ISMEAR">     0</i>
  <i type="logical" name="LWAVE"> F  </i>
  <i type="logical" name="LCHARG"> F  </i>
  <v type="int" name="KPOINT_BSE">    -1     0     0     0</v>
  <i type="int" name="NELM">   400</i>
  <i type="string" name="GGA">BO</i>
  <i name="PARAM1">      0.18333333</i>
  <i name="PARAM2">      0.22000000</i>
  <i type="logical" name="LUSE_VDW"> T  </i>
  <i name="AGGAC">      0.00000000</i>
 </incar>
 <kpoints>
  <generation param="Gamma">
   <v type="int" name="divisions">       9        9        9 </v>
   <v name="usershift">      0.00000000       0.00000000       0.00000000 </v>
   <v name="genvec1">      0.11111111       0.00000000       0.00000000 </v>
   <v name="genvec2">      0.00000000       0.11111111       0.00000000 </v>
   <v name="genvec3">      0.00000000       0.00000000       0.11111111 </v>
   <v name="shift">      0.00000000       0.00000000       0.00000000 </v>
  </generation>
  <varray name="kpointlist" >
   <v>       0.00000000       0.00000000       0.00000000 </v>
   <v>       0.11111111       0.00000000       0.00000000 </v>
   <v>       0.22222222       0.00000000       0.00000000 </v>
   <v>       0.33333333       0.00000000       0.00000000 </v>
   <v>       0.44444444       0.00000000       0.00000000 </v>
   <v>       0.11111111       0.11111111       0.00000000 </v>
   <v>       0.22222222       0.11111111       0.00000000 </v>
   <v>       0.33333333       0.11111111       0.00000000 </v>
   <v>       0.44444444       0.11111111       0.00000000 </v>
   <v>      -0.44444444       0.11111111       0.00000000 </v>
   <v>      -0.33333333       0.11111111       0.00000000 </v>
   <v>      -0.22222222       0.11111111       0.00000000 </v>
   <v>      -0.11111111       0.11111111       0.00000000 </v>
   <v>       0.22222222       0.22222222       0.00000000 </v>
   <v>       0.33333333       0.22222222       0.00000000 </v>
   <v>       0.44444444       0.22222222       0.00000000 </v>
   <v>      -0.44444444       0.22222222       0.00000000 </v>
   <v>      -0.33333333       0.22222222       0.00000000 </v>
   <v>      -0.22222222       0.22222222       0.00000000 </v>
   <v>       0.33333333       0.33333333       0.00000000 </v>
   <v>       0.44444444       0.33333333       0.00000000 </v>
   <v>      -0.44444444       0.33333333       0.00000000 </v>
   <v>      -0.33333333       0.33333333       0.00000000 </v>
   <v>       0.44444444       0.44444444       0.00000000 </v>
   <v>      -0.44444444       0.44444444       0.00000000 </v>
   <v>       0.33333333       0.22222222       0.11111111 </v>
   <v>       0.44444444       0.22222222       0.11111111 </v>
   <v>      -0.44444444       0.22222222       0.11111111 </v>
   <v>       0.44444444       0.33333333       0.11111111 </v>
   <v>      -0.44444444       0.33333333       0.11111111 </v>
   <v>      -0.33333333       0.33333333       0.11111111 </v>
   <v>      -0.22222222       0.33333333       0.11111111 </v>
   <v>      -0.44444444       0.44444444       0.11111111 </v>
   <v>      -0.33333333       0.44444444       0.11111111 </v>
   <v>      -0.33333333       0.44444444       0.22222222 </v>
  </varray>
  <varray name="weights" >
   <v>       0.00137174 </v>
   <v>       0.01097394 </v>
   <v>       0.01097394 </v>
   <v>       0.01097394 </v>
   <v>       0.01097394 </v>
   <v>       0.00823045 </v>
   <v>       0.03292181 </v>
   <v>       0.03292181 </v>
   <v>       0.03292181 </v>
   <v>       0.03292181 </v>
   <v>       0.03292181 </v>
   <v>       0.03292181 </v>
   <v>       0.01646091 </v>
   <v>       0.00823045 </v>
   <v>       0.03292181 </v>
   <v>       0.03292181 </v>
   <v>       0.03292181 </v>
   <v>       0.03292181 </v>
   <v>       0.01646091 </v>
   <v>       0.00823045 </v>
   <v>       0.03292181 </v>
   <v>       0.03292181 </v>
   <v>       0.01646091 </v>
   <v>       0.00823045 </v>
   <v>       0.01646091 </v>
   <v>       0.03292181 </v>
   <v>       0.06584362 </v>
   <v>       0.06584362 </v>
   <v>       0.03292181 </v>
   <v>       0.06584362 </v>
   <v>       0.06584362 </v>
   <v>       0.03292181 </v>
   <v>       0.03292181 </v>
   <v>       0.03292181 </v>
   <v>       0.03292181 </v>
  </varray>
 </kpoints>
 <parameters>
  <separator name="general" >
   <i type="string" name="SYSTEM">unknown system</i>
   <i type="logical" name="LCOMPAT"> F  </i>
  </separator>
  <separator name="electronic" >
   <i type="string" name="PREC">accura</i>
   <i name="ENMAX">    500.00000000</i>
   <i name="ENAUG">    322.06900000</i>
   <i name="EDIFF">      0.00000010</i>
   <i type="int" name="IALGO">    38</i>
   <i type="int" name="IWAVPR">    11</i>
   <i type="int" name="NBANDS">    16</i>
   <i name="NELECT">      8.00000000</i>
   <i type="int" name="TURBO">     0</i>
   <i type="int" name="IRESTART">     0</i>
   <i type="int" name="NREBOOT">     0</i>
   <i type="int" name="NMIN">     0</i>
   <i name="EREF">      0.00000000</i>
   <separator name="electronic smearing" >
    <i type="int" name="ISMEAR">     0</i>
    <i name="SIGMA">      0.20000000</i>
    <i name="KSPACING">      0.50000000</i>
    <i type="logical" name="KGAMMA"> T  </i>
   </separator>
   <separator name="electronic projectors" >
    <i type="logical" name="LREAL"> F  </i>
    <v name="ROPT">      0.00000000</v>
    <i type="int" name="LMAXPAW">  -100</i>
    <i type="int" name="LMAXMIX">     2</i>
    <i type="logical" name="NLSPLINE"> F  </i>
   </separator>
   <separator name="electronic startup" >
    <i type="int" name="ISTART">     0</i>
    <i type="int" name="ICHARG">     2</i>
    <i type="int" name="INIWAV">     1</i>
   </separator>
   <separator name="electronic spin" >
    <i type="int" name="ISPIN">     1</i>
    <i type="logical" name="LNONCOLLINEAR"> F  </i>
    <v name="MAGMOM">      1.00000000      1.00000000</v>
    <i name="NUPDOWN">     -1.00000000</i>
    <i type="logical" name="LSORBIT"> F  </i>
    <v name="SAXIS">      0.00000000      0.00000000      1.00000000</v>
    <i type="logical" name="LSPIRAL"> F  </i>
    <v name="QSPIRAL">      0.00000000      0.00000000      0.00000000</v>
    <i type="logical" name="LZEROZ"> F  </i>
   </separator>
   <separator name="electronic exchange-correlation" >
    <i type="logical" name="LASPH"> F  </i>
    <i type="logical" name="LMETAGGA"> F  </i>
   </separator>
   <separator name="electronic convergence" >
    <i type="int" name="NELM">   400</i>
    <i type="int" name="NELMDL">    -5</i>
    <i type="int" name="NELMIN">     2</i>
    <i name="ENINI">    500.00000000</i>
    <separator name="electronic convergence detail" >
     <i type="logical" name="LDIAG"> T  </i>
     <i type="logical" name="LSUBROT"> F  </i>
     <i name="WEIMIN">      0.00100000</i>
     <i name="EBREAK">      0.00000000</i>
     <i name="DEPER">      0.30000000</i>
     <i type="int" name="NRMM">     4</i>
     <i name="TIME">      0.40000000</i>
    </separator>
   </separator>
   <separator name="electronic mixer" >
    <i name="AMIX">      0.40000000</i>
    <i name="BMIX">      1.00000000</i>
    <i name="AMIN">      0.10000000</i>
    <i name="AMIX_MAG">      1.60000000</i>
    <i name="BMIX_MAG">      1.00000000</i>
    <separator name="electronic mixer details" >
     <i type="int" name="IMIX">     4</i>
     <i type="logical" name="MIXFIRST"> F  </i>
     <i type="int" name="MAXMIX">   -45</i>
     <i name="WC">    100.00000000</i>
     <i type="int" name="INIMIX">     1</i>
     <i type="int" name="MIXPRE">     1</i>
     <i type="int" name="MREMOVE">     5</i>
    </separator>
   </separator>
   <separator name="electronic dipolcorrection" >
    <i type="logical" name="LDIPOL"> F  </i>
    <i type="logical" name="LMONO"> F  </i>
    <i type="int" name="IDIPOL">     0</i>
    <i name="EPSILON">      1.00000000</i>
    <v name="DIPOL">   -100.00000000   -100.00000000   -100.00000000</v>
    <i name="EFIELD">      0.00000000</i>
   </separator>
  </separator>
  <separator name="grids" >
   <i type="int" name="NGX">    28</i>
   <i type="int" name="NGY">    28</i>
   <i type="int" name="NGZ">    28</i>
   <i type="int" name="NGXF">    56</i>
   <i type="int" name="NGYF">    56</i>
   <i type="int" name="NGZF">    56</i>
   <i type="logical" name="ADDGRID"> F  </i>
  </separator>
  <separator name="ionic" >
   <i type="int" name="NSW">     1</i>
   <i type="int" name="IBRION">     2</i>
   <i type="int" name="ISIF">     2</i>
   <i name="PSTRESS">      0.00000000</i>
   <i name="EDIFFG">      0.00000100</i>
   <i type="int" name="NFREE">     1</i>
   <i name="POTIM">      0.50000000</i>
   <i name="SMASS">     -3.00000000</i>
   <i name="SCALEE">      1.00000000</i>
  </separator>
  <separator name="ionic md" >
   <i name="TEBEG">      0.00010000</i>
   <i name="TEEND">      0.00010000</i>
   <i type="int" name="NBLOCK">     1</i>
   <i type="int" name="KBLOCK">     1</i>
   <i type="int" name="NPACO">   256</i>
   <i name="APACO">     16.00000000</i>
  </separator>
  <separator name="symmetry" >
   <i type="int" name="ISYM">     2</i>
   <i name="SYMPREC">      0.00001000</i>
  </separator>
  <separator name="dos" >
   <i type="logical" name="LORBIT"> T  </i>
   <v name="RWIGS">     -1.00000000</v>
   <i type="int" name="NEDOS">   301</i>
   <i name="EMIN">     10.00000000</i>
   <i name="EMAX">    -10.00000000</i>
   <i name="EFERMI">      0.00000000</i>
  </separator>
  <separator name="writing" >
   <i type="int" name="NWRITE">     2</i>
   <i type="logical" name="LWAVE"> F  </i>
   <i type="logical" name="LCHARG"> F  </i>
   <i type="logical" name="LPARD"> F  </i>
   <i type="logical" name="LVTOT"> F  </i>
   <i type="logical" name="LVHAR"> F  </i>
   <i type="logical" name="LELF"> F  </i>
   <i type="logical" name="LOPTICS"> F  </i>
   <v name="STM">      0.00000000      0.00000000      0.00000000      0.00000000      0.00000000      0.00000000      0.00000000</v>
  </separator>
  <separator name="performance" >
   <i type="int" name="NPAR">    16</i>
   <i type="int" name="NSIM">     4</i>
   <i type="int" name="NBLK">    -1</i>
   <i type="logical" name="LPLANE"> T  </i>
   <i type="logical" name="LSCALAPACK"> T  </i>
   <i type="logical" name="LSCAAWARE"> F  </i>
   <i type="logical" name="LSCALU"> F  </i>
   <i type="logical" name="LASYNC"> F  </i>
   <i type="logical" name="LORBITALREAL"> F  </i>
  </separator>
  <separator name="miscellaneous" >
   <i type="int" name="IDIOT">     3</i>
   <i type="logical" name="LMUSIC"> F  </i>
   <v name="POMASS">     28.08500000</v>
   <v name="DARWINR">      0.00000000</v>
   <v name="DARWINV">      1.00000000</v>
   <i type="logical" name="LCORR"> T  </i>
  </separator>
  <i type="logical" name="GGA_COMPAT"> T  </i>
  <i type="logical" name="LBERRY"> F  </i>
  <i type="int" name="ICORELEVEL">     0</i>
  <i type="logical" name="LDAU"> F  </i>
  <i type="int" name="I_CONSTRAINED_M">     0</i>
  <separator name="electronic exchange-correlation" >
   <i type="string" name="GGA">BO</i>
   <i type="int" name="VOSKOWN">     0</i>
   <i type="logical" name="LHFCALC"> F  </i>
   <i type="string" name="PRECFOCK"></i>
   <i type="logical" name="LSYMGRAD"> F  </i>
   <i type="logical" name="LHFONE"> F  </i>
   <i type="logical" name="LRHFCALC"> F  </i>
   <i type="logical" name="LTHOMAS"> F  </i>
   <i type="logical" name="LMODELHF"> F  </i>
   <i name="ENCUT4O">     -1.00000000</i>
   <i type="int" name="EXXOEP">     0</i>
   <i type="int" name="FOURORBIT">     0</i>
   <i name="AEXX">      0.00000000</i>
   <i name="HFALPHA">      0.00000000</i>
   <i name="MCALPHA">      0.00000000</i>
   <i name="ALDAX">      1.00000000</i>
   <i name="AGGAX">      1.00000000</i>
   <i name="ALDAC">      1.00000000</i>
   <i name="AGGAC">      0.00000000</i>
   <i type="int" name="NKREDX">     1</i>
   <i type="int" name="NKREDY">     1</i>
   <i type="int" name="NKREDZ">     1</i>
   <i type="logical" name="SHIFTRED"> F  </i>
   <i type="logical" name="ODDONLY"> F  </i>
   <i type="logical" name="EVENONLY"> F  </i>
   <i type="int" name="LMAXFOCK">     0</i>
   <i type="int" name="NMAXFOCKAE">     0</i>
   <i type="logical" name="LFOCKAEDFT"> F  </i>
   <i name="HFSCREEN">      0.00000000</i>
   <i name="HFSCREENC">      0.00000000</i>
   <i type="int" name="NBANDSGWLOW">     0</i>
  </separator>
  <separator name="vdW DFT" >
   <i type="logical" name="LUSE_VDW"> T  </i>
   <i name="Zab_VDW">     -0.84910000</i>
   <i name="PARAM1">      0.18333333</i>
   <i name="PARAM2">      0.22000000</i>
   <i name="PARAM3">      0.00000000</i>
  </separator>
  <separator name="model GW" >
   <i type="int" name="MODEL_GW">     0</i>
   <i name="MODEL_EPS0">     12.43490274</i>
   <i name="MODEL_ALPHA">      1.00000000</i>
  </separator>
  <separator name="linear response parameters" >
   <i type="logical" name="LEPSILON"> F  </i>
   <i type="logical" name="LRPA"> F  </i>
   <i type="logical" name="LNABLA"> F  </i>
   <i type="logical" name="LVEL"> F  </i>
   <i type="int" name="KINTER">     0</i>
   <i name="CSHIFT">      0.10000000</i>
   <i name="OMEGAMAX">     -1.00000000</i>
   <i name="DEG_THRESHOLD">      0.00200000</i>
  </separator>
  <separator name="orbital magnetization" >
   <i type="logical" name="NUCIND"> F  </i>
   <v name="MAGPOS">      0.00000000      0.00000000      0.00000000</v>
   <i type="logical" name="LNICSALL"> T  </i>
   <i type="logical" name="ORBITALMAG"> F  </i>
   <i type="logical" name="LMAGBLOCH"> F  </i>
   <i type="logical" name="LCHIMAG"> F  </i>
   <i type="logical" name="LGAUGE"> T  </i>
   <i type="int" name="MAGATOM">     0</i>
   <v name="MAGDIPOL">      0.00000000      0.00000000      0.00000000</v>
   <v name="AVECCONST">      0.00000000      0.00000000      0.00000000</v>
  </separator>
  <separator name="response functions" >
   <i type="logical" name="LADDER"> F  </i>
   <i type="logical" name="LFXC"> F  </i>
   <i type="logical" name="LHARTREE"> T  </i>
   <i type="int" name="IBSE">     0</i>
   <v type="int" name="KPOINT">    -1     0     0     0</v>
   <i type="logical" name="LTCTE"> F  </i>
   <i type="logical" name="LTETE"> F  </i>
   <i type="logical" name="LTRIPLET"> F  </i>
   <i type="logical" name="LFXCEPS"> F  </i>
   <i type="logical" name="LFXHEG"> F  </i>
   <i type="int" name="NATURALO">     0</i>
   <i type="logical" name="L2ORDER"> F  </i>
   <i type="logical" name="LUSEW"> F  </i>
   <i name="ENCUTGW">     -2.00000000</i>
   <i name="ENCUTGWSOFT">     -2.00000000</i>
   <i name="ENCUTLF">     -1.00000000</i>
   <i type="int" name="LMAXMP2">    -1</i>
   <i name="SCISSOR">      0.00000000</i>
   <i type="int" name="NOMEGA">     0</i>
   <i type="int" name="NOMEGAR">     0</i>
   <i type="int" name="NBANDSGW">    -1</i>
   <i type="int" name="NBANDSO">    -1</i>
   <i type="int" name="NBANDSV">    -1</i>
   <i type="int" name="NELM">   400</i>
   <i type="int" name="NELMHF">     1</i>
   <i type="int" name="DIM">     3</i>
   <i type="int" name="ANTIRES">     0</i>
   <i name="OMEGAMAX">    -30.00000000</i>
   <i name="OMEGAMIN">    -30.00000000</i>
   <i name="OMEGATL">   -200.00000000</i>
   <i type="int" name="OMEGAGRID">     0</i>
   <i name="CSHIFT">     -0.10000000</i>
   <i type="logical" name="SELFENERGY"> F  </i>
   <i type="logical" name="LSPECTRAL"> F  </i>
   <i type="logical" name="LSPECTRALGW"> F  </i>
   <i type="logical" name="LSINGLES"> F  </i>
   <i type="logical" name="LFERMIGW"> F  </i>
   <i type="logical" name="ODDONLYGW"> F  </i>
   <i type="logical" name="EVENONLYGW"> F  </i>
   <i type="int" name="NKREDLFX">     1</i>
   <i type="int" name="NKREDLFY">     1</i>
   <i type="int" name="NKREDLFZ">     1</i>
   <i type="int" name="MAXMEM">  1800</i>
   <i type="int" name="TELESCOPE">     0</i>
   <i type="int" name="TAUPAR">     1</i>
   <i type="int" name="OMEGAPAR">    -1</i>
   <i name="LAMBDA">      1.00000000</i>
  </separator>
  <separator name="External order field" >
   <i name="OFIELD_KAPPA">      0.00000000</i>
   <v name="OFIELD_K">      0.00000000      0.00000000      0.00000000</v>
   <i name="OFIELD_Q6_NEAR">      0.00000000</i>
   <i name="OFIELD_Q6_FAR">      0.00000000</i>
   <i name="OFIELD_A">      0.00000000</i>
  </separator>
 </parameters>
 <atominfo>
  <atoms>       2 </atoms>
  <types>       1 </types>
  <array name="atoms" >
   <dimension dim="1">ion</dimension>
   <field type="string">element</field>
   <field type="int">atomtype</field>
   <set>
    <rc><c>Si</c><c>   1</c></rc>
    <rc><c>Si</c><c>   1</c></rc>
   </set>
  </array>
  <array name="atomtypes" >
   <dimension dim="1">type</dimension>
   <field type="int">atomspertype</field>
   <field type="string">element</field>
   <field>mass</field>
   <field>valence</field>
   <field type="string">pseudopotential</field>
   <set>
    <rc><c>   2</c><c>Si</c><c>     28.08500000</c><c>      4.00000000</c><c>  PAW_PBE Si 05Jan2001                  </c></rc>
   </set>
  </array>
 </atominfo>
 <structure name="initialpos" >
  <crystal>
   <varray name="basis" >
    <v>       0.00000000       2.74682114       2.74682114 </v>
    <v>       2.74682114       0.00000000       2.74682114 </v>
    <v>       2.74682114       2.74682114       0.00000000 </v>
   </varray>
   <i name="volume">     41.44967579 </i>
   <varray name="rec_basis" >
    <v>      -0.18202860       0.18202860       0.18202860 </v>
    <v>       0.18202860      -0.18202860       0.18202860 </v>
    <v>       0.18202860       0.18202860      -0.18202860 </v>
   </varray>
  </crystal>
  <varray name="positions" >
   <v>       0.75000000       0.75000000       0.75000000 </v>
   <v>       0.50000000       0.50000000       0.50000000 </v>
  </varray>
 </structure>
 <calculation>
  <scstep>
   <time name="dav">    0.42    0.42</time>
   <time name="total">    2.51    2.51</time>
   <energy>
    <i name="alphaZ">      3.24857844 </i>
    <i name="ewald">   -225.91568183 </i>
    <i name="hartreedc">    -11.53197166 </i>
    <i name="XCdc">    -20.29573795 </i>
    <i name="pawpsdc">    189.40224250 </i>
    <i name="pawaedc">   -152.61488262 </i>
    <i name="eentropy">     -0.00476112 </i>
    <i name="bandstr">     12.12089217 </i>
    <i name="atom">    208.59373829 </i>
    <i name="e_fr_energy">      3.00241621 </i>
    <i name="e_wo_entrp">      3.00717733 </i>
    <i name="e_0_energy">      3.00479677 </i>
   </energy>
  </scstep>
  <scstep>
   <time name="dav">    0.74    0.74</time>
   <time name="total">    0.74    1.00</time>
   <energy>
    <i name="e_fr_energy">     -8.32773292 </i>
    <i name="e_wo_entrp">     -8.32772965 </i>
    <i name="e_0_energy">     -8.32773128 </i>
   </energy>
  </scstep>
  <scstep>
   <time name="dav">    0.55    0.55</time>
   <time name="total">    0.55    0.60</time>
   <energy>
    <i name="e_fr_energy">     -8.40775632 </i>
    <i name="e_wo_entrp">     -8.40775364 </i>
    <i name="e_0_energy">     -8.40775498 </i>
   </energy>
  </scstep>
  <scstep>
   <time name="dav">    1.14    1.13</time>
   <time name="total">    1.14    1.15</time>
   <energy>
    <i name="e_fr_energy">     -8.40799664 </i>
    <i name="e_wo_entrp">     -8.40799396 </i>
    <i name="e_0_energy">     -8.40799530 </i>
   </energy>
  </scstep>
  <scstep>
   <time name="dav">    0.54    0.55</time>
   <time name="total">    0.59    0.62</time>
   <energy>
    <i name="e_fr_energy">     -8.40799666 </i>
    <i name="e_wo_entrp">     -8.40799398 </i>
    <i name="e_0_energy">     -8.40799532 </i>
   </energy>
  </scstep>
  <scstep>
   <time name="dav">    0.66    0.66</time>
   <time name="total">    2.34    2.40</time>
   <energy>
    <i name="e_fr_energy">     -8.35836850 </i>
    <i name="e_wo_entrp">     -8.35835737 </i>
    <i name="e_0_energy">     -8.35836294 </i>
   </energy>
  </scstep>
  <scstep>
   <time name="dav">    0.79    0.79</time>
   <time name="total">    2.48    2.56</time>
   <energy>
    <i name="e_fr_energy">     -8.35243974 </i>
    <i name="e_wo_entrp">     -8.35236673 </i>
    <i name="e_0_energy">     -8.35240324 </i>
   </energy>
  </scstep>
  <scstep>
   <time name="dav">    0.50    0.50</time>
   <time name="total">    2.16    2.26</time>
   <energy>
    <i name="e_fr_energy">     -8.33600161 </i>
    <i name="e_wo_entrp">     -8.33594927 </i>
    <i name="e_0_energy">     -8.33597544 </i>
   </energy>
  </scstep>
  <scstep>
   <time name="dav">    0.90    0.90</time>
   <time name="total">    2.57    2.84</time>
   <energy>
    <i name="e_fr_energy">     -8.33711413 </i>
    <i name="e_wo_entrp">     -8.33705741 </i>
    <i name="e_0_energy">     -8.33708577 </i>
   </energy>
  </scstep>
  <scstep>
   <time name="dav">    0.61    0.61</time>
   <time name="total">    2.26    2.34</time>
   <energy>
    <i name="e_fr_energy">     -8.33715650 </i>
    <i name="e_wo_entrp">     -8.33710080 </i>
    <i name="e_0_energy">     -8.33712865 </i>
   </energy>
  </scstep>
  <scstep>
   <time name="dav">    0.89    0.89</time>
   <time name="total">    2.55    2.62</time>
   <energy>
    <i name="e_fr_energy">     -8.33697042 </i>
    <i name="e_wo_entrp">     -8.33691480 </i>
    <i name="e_0_energy">     -8.33694261 </i>
   </energy>
  </scstep>
  <scstep>
   <time name="dav">    0.61    0.61</time>
   <time name="total">    2.27    2.77</time>
   <energy>
    <i name="e_fr_energy">     -8.33695921 </i>
    <i name="e_wo_entrp">     -8.33690362 </i>
    <i name="e_0_energy">     -8.33693142 </i>
   </energy>
  </scstep>
  <scstep>
   <time name="dav">    0.63    0.63</time>
   <time name="total">    2.31    2.36</time>
   <energy>
    <i name="e_fr_energy">     -8.33695689 </i>
    <i name="e_wo_entrp">     -8.33690131 </i>
    <i name="e_0_energy">     -8.33692910 </i>
   </energy>
  </scstep>
  <scstep>
   <time name="dav">    0.28    0.28</time>
   <time name="total">    1.95    2.24</time>
   <energy>
    <i name="e_fr_energy">     -8.33695725 </i>
    <i name="e_wo_entrp">     -8.33690168 </i>
    <i name="e_0_energy">     -8.33692947 </i>
   </energy>
  </scstep>
  <scstep>
   <time name="dav">    0.38    0.38</time>
   <time name="total">    2.03    2.04</time>
   <energy>
    <i name="e_fr_energy">     -8.33695696 </i>
    <i name="e_wo_entrp">     -8.33690139 </i>
    <i name="e_0_energy">     -8.33692917 </i>
   </energy>
  </scstep>
  <scstep>
   <time name="dav">    0.28    0.28</time>
   <time name="total">    1.88    1.92</time>
   <energy>
    <i name="alphaZ">      3.24857844 </i>
    <i name="ewald">   -225.91568183 </i>
    <i name="hartreedc">    -15.53688094 </i>
    <i name="XCdc">    -19.63588699 </i>
    <i name="pawpsdc">    523.27294412 </i>
    <i name="pawaedc">   -486.72088620 </i>
    <i name="eentropy">     -0.00005557 </i>
    <i name="bandstr">      4.35717375 </i>
    <i name="atom">    208.59373829 </i>
    <i name="e_fr_energy">     -8.33695695 </i>
    <i name="e_wo_entrp">     -8.33690137 </i>
    <i name="e_0_energy">     -8.33692916 </i>
   </energy>
  </scstep>
  <structure>
   <crystal>
    <varray name="basis" >
     <v>       0.00000000       2.74682114       2.74682114 </v>
     <v>       2.74682114       0.00000000       2.74682114 </v>
     <v>       2.74682114       2.74682114       0.00000000 </v>
    </varray>
    <i name="volume">     41.44967579 </i>
    <varray name="rec_basis" >
     <v>      -0.18202860       0.18202860       0.18202860 </v>
     <v>       0.18202860      -0.18202860       0.18202860 </v>
     <v>       0.18202860       0.18202860      -0.18202860 </v>
    </varray>
   </crystal>
   <varray name="positions" >
    <v>       0.75000000       0.75000000       0.75000000 </v>
    <v>       0.50000000       0.50000000       0.50000000 </v>
   </varray>
  </structure>
  <varray name="forces" >
   <v>       0.00000000       0.00000000       0.00000000 </v>
   <v>      -0.00000000      -0.00000000      -0.00000000 </v>
  </varray>
  <varray name="stress" >
   <v>      -0.00585465      -0.00000000       0.00000000 </v>
   <v>       0.00000000      -0.00585465      -0.00000000 </v>
   <v>      -0.00000000       0.00000000      -0.00585465 </v>
  </varray>
  <energy>
   <i name="e_fr_energy">     -8.33695695 </i>
   <i name="e_wo_entrp">     -8.33692916 </i>
   <i name="e_0_energy">     -0.00005557 </i>
  </energy>
  <time name="totalsc">   34.22   36.84</time>
  <eigenvalues>
   <array>
    <dimension dim="1">band</dimension>
    <dimension dim="2">kpoint</dimension>
    <dimension dim="3">spin</dimension>
    <field>eigene</field>
    <field>occ</field>
    <set>
     <set comment="spin 1">
      <set comment="kpoint 1">
       <r>   -6.1913    1.0000 </r>
       <r>    5.4596    0.9921 </r>
       <r>    5.4596    0.9921 </r>
       <r>    5.4596    0.9921 </r>
       <r>    8.0746    0.0000 </r>
       <r>    8.0746    0.0000 </r>
       <r>    8.0746    0.0000 </r>
       <r>    8.5306    0.0000 </r>
       <r>   13.2144    0.0000 </r>
       <r>   13.2144    0.0000 </r>
       <r>   13.3488    0.0000 </r>
       <r>   16.6557    0.0000 </r>
       <r>   16.6557    0.0000 </r>
       <r>   16.6557    0.0000 </r>
       <r>   20.7508    0.0000 </r>
       <r>   28.1668    0.0000 </r>
      </set>
      <set comment="kpoint 2">
       <r>   -6.0349    1.0000 </r>
       <r>    4.1492    1.0000 </r>
       <r>    5.2369    1.0000 </r>
       <r>    5.2369    1.0000 </r>
       <r>    7.9774    0.0000 </r>
       <r>    8.4067    0.0000 </r>
       <r>    8.4067    0.0000 </r>
       <r>    9.6938    0.0000 </r>
       <r>   12.8139    0.0000 </r>
       <r>   12.8139    0.0000 </r>
       <r>   13.9782    0.0000 </r>
       <r>   16.1828    0.0000 </r>
       <r>   17.5774    0.0000 </r>
       <r>   17.5774    0.0000 </r>
       <r>   21.7261    0.0000 </r>
       <r>   26.5259    0.0000 </r>
      </set>
      <set comment="kpoint 3">
       <r>   -5.5758    1.0000 </r>
       <r>    2.1337    1.0000 </r>
       <r>    4.8318    1.0000 </r>
       <r>    4.8318    1.0000 </r>
       <r>    7.5486    0.0000 </r>
       <r>    8.9252    0.0000 </r>
       <r>    8.9252    0.0000 </r>
       <r>   11.6606    0.0000 </r>
       <r>   12.5869    0.0000 </r>
       <r>   12.5869    0.0000 </r>
       <r>   14.5119    0.0000 </r>
       <r>   16.6397    0.0000 </r>
       <r>   19.4779    0.0000 </r>
       <r>   19.4779    0.0000 </r>
       <r>   23.2557    0.0000 </r>
       <r>   23.6638    0.0000 </r>
      </set>
      <set comment="kpoint 4">
       <r>   -4.8614    1.0000 </r>
       <r>    0.2824    1.0000 </r>
       <r>    4.5047    1.0000 </r>
       <r>    4.5047    1.0000 </r>
       <r>    7.1768    0.0000 </r>
       <r>    9.0182    0.0000 </r>
       <r>    9.0182    0.0000 </r>
       <r>   13.2310    0.0000 </r>
       <r>   13.4359    0.0000 </r>
       <r>   13.4359    0.0000 </r>
       <r>   14.4082    0.0000 </r>
       <r>   18.8191    0.0000 </r>
       <r>   19.8606    0.0000 </r>
       <r>   19.8606    0.0000 </r>
       <r>   21.8858    0.0000 </r>
       <r>   22.9150    0.0000 </r>
      </set>
      <set comment="kpoint 5">
       <r>   -4.1052    1.0000 </r>
       <r>   -1.0601    1.0000 </r>
       <r>    4.3333    1.0000 </r>
       <r>    4.3333    1.0000 </r>
       <r>    6.9768    0.0000 </r>
       <r>    8.8980    0.0000 </r>
       <r>    8.8980    0.0000 </r>
       <r>   13.2476    0.0000 </r>
       <r>   15.1544    0.0000 </r>
       <r>   15.1544    0.0000 </r>
       <r>   15.9980    0.0000 </r>
       <r>   17.5257    0.0000 </r>
       <r>   17.5257    0.0000 </r>
       <r>   18.5663    0.0000 </r>
       <r>   23.1299    0.0000 </r>
       <r>   25.4801    0.0000 </r>
      </set>
      <set comment="kpoint 6">
       <r>   -5.9823    1.0000 </r>
       <r>    4.3416    1.0000 </r>
       <r>    4.8252    1.0000 </r>
       <r>    4.8252    1.0000 </r>
       <r>    7.6365    0.0000 </r>
       <r>    8.9653    0.0000 </r>
       <r>    8.9653    0.0000 </r>
       <r>    9.5043    0.0000 </r>
       <r>   12.1177    0.0000 </r>
       <r>   13.4478    0.0000 </r>
       <r>   14.2017    0.0000 </r>
       <r>   17.0214    0.0000 </r>
       <r>   17.0214    0.0000 </r>
       <r>   17.4553    0.0000 </r>
       <r>   22.1687    0.0000 </r>
       <r>   26.0337    0.0000 </r>
      </set>
      <set comment="kpoint 7">
       <r>   -5.6220    1.0000 </r>
       <r>    2.7212    1.0000 </r>
       <r>    4.3720    1.0000 </r>
       <r>    4.4900    1.0000 </r>
       <r>    7.7110    0.0000 </r>
       <r>    8.9314    0.0000 </r>
       <r>    9.6580    0.0000 </r>
       <r>   10.3525    0.0000 </r>
       <r>   12.3655    0.0000 </r>
       <r>   13.4942    0.0000 </r>
       <r>   15.1653    0.0000 </r>
       <r>   16.7004    0.0000 </r>
       <r>   18.1730    0.0000 </r>
       <r>   19.2738    0.0000 </r>
       <r>   23.4807    0.0000 </r>
       <r>   23.6031    0.0000 </r>
      </set>
      <set comment="kpoint 8">
       <r>   -4.9837    1.0000 </r>
       <r>    0.8793    1.0000 </r>
       <r>    4.0016    1.0000 </r>
       <r>    4.0759    1.0000 </r>
       <r>    7.7965    0.0000 </r>
       <r>    8.9437    0.0000 </r>
       <r>    9.8478    0.0000 </r>
       <r>   10.8129    0.0000 </r>
       <r>   14.1208    0.0000 </r>
       <r>   14.1446    0.0000 </r>
       <r>   14.9876    0.0000 </r>
       <r>   18.2238    0.0000 </r>
       <r>   19.3092    0.0000 </r>
       <r>   20.6546    0.0000 </r>
       <r>   21.5976    0.0000 </r>
       <r>   22.4298    0.0000 </r>
      </set>
      <set comment="kpoint 9">
       <r>   -4.1904    1.0000 </r>
       <r>   -0.6527    1.0000 </r>
       <r>    3.5817    1.0000 </r>
       <r>    3.9929    1.0000 </r>
       <r>    7.6608    0.0000 </r>
       <r>    8.8856    0.0000 </r>
       <r>    9.5988    0.0000 </r>
       <r>   12.2036    0.0000 </r>
       <r>   14.4263    0.0000 </r>
       <r>   15.6948    0.0000 </r>
       <r>   16.2703    0.0000 </r>
       <r>   17.2603    0.0000 </r>
       <r>   18.0036    0.0000 </r>
       <r>   20.6591    0.0000 </r>
       <r>   22.3548    0.0000 </r>
       <r>   23.6728    0.0000 </r>
      </set>
      <set comment="kpoint 10">
       <r>   -3.8313    1.0000 </r>
       <r>   -1.1990    1.0000 </r>
       <r>    3.3350    1.0000 </r>
       <r>    4.1237    1.0000 </r>
       <r>    7.6525    0.0000 </r>
       <r>    8.9200    0.0000 </r>
       <r>    9.3511    0.0000 </r>
       <r>   13.5930    0.0000 </r>
       <r>   14.4128    0.0000 </r>
       <r>   14.8089    0.0000 </r>
       <r>   16.2565    0.0000 </r>
       <r>   17.9683    0.0000 </r>
       <r>   18.3270    0.0000 </r>
       <r>   18.9418    0.0000 </r>
       <r>   23.7808    0.0000 </r>
       <r>   25.1471    0.0000 </r>
      </set>
      <set comment="kpoint 11">
       <r>   -4.4569    1.0000 </r>
       <r>   -0.1947    1.0000 </r>
       <r>    3.3079    1.0000 </r>
       <r>    4.4383    1.0000 </r>
       <r>    7.8249    0.0000 </r>
       <r>    9.1395    0.0000 </r>
       <r>    9.2269    0.0000 </r>
       <r>   12.7644    0.0000 </r>
       <r>   12.9306    0.0000 </r>
       <r>   14.7503    0.0000 </r>
       <r>   16.4840    0.0000 </r>
       <r>   17.3531    0.0000 </r>
       <r>   19.8476    0.0000 </r>
       <r>   20.3694    0.0000 </r>
       <r>   21.6254    0.0000 </r>
       <r>   22.7986    0.0000 </r>
      </set>
      <set comment="kpoint 12">
       <r>   -5.2260    1.0000 </r>
       <r>    1.4731    1.0000 </r>
       <r>    3.5410    1.0000 </r>
       <r>    4.8675    1.0000 </r>
       <r>    8.1406    0.0000 </r>
       <r>    9.0017    0.0000 </r>
       <r>    9.2527    0.0000 </r>
       <r>   11.4571    0.0000 </r>
       <r>   11.8845    0.0000 </r>
       <r>   14.5157    0.0000 </r>
       <r>   15.2317    0.0000 </r>
       <r>   17.3540    0.0000 </r>
       <r>   19.1094    0.0000 </r>
       <r>   21.0184    0.0000 </r>
       <r>   21.2321    0.0000 </r>
       <r>   23.4899    0.0000 </r>
      </set>
      <set comment="kpoint 13">
       <r>   -5.7767    1.0000 </r>
       <r>    3.1803    1.0000 </r>
       <r>    4.1758    1.0000 </r>
       <r>    5.2428    1.0000 </r>
       <r>    8.4181    0.0000 </r>
       <r>    8.5064    0.0000 </r>
       <r>    8.6728    0.0000 </r>
       <r>   10.6734    0.0000 </r>
       <r>   12.0103    0.0000 </r>
       <r>   13.2101    0.0000 </r>
       <r>   14.8259    0.0000 </r>
       <r>   16.5392    0.0000 </r>
       <r>   17.4857    0.0000 </r>
       <r>   19.2874    0.0000 </r>
       <r>   22.9948    0.0000 </r>
       <r>   23.6040    0.0000 </r>
      </set>
      <set comment="kpoint 14">
       <r>   -5.3613    1.0000 </r>
       <r>    2.4674    1.0000 </r>
       <r>    3.8733    1.0000 </r>
       <r>    3.8733    1.0000 </r>
       <r>    6.8630    0.0000 </r>
       <r>    9.0561    0.0000 </r>
       <r>   10.6673    0.0000 </r>
       <r>   10.6673    0.0000 </r>
       <r>   12.7175    0.0000 </r>
       <r>   14.1471    0.0000 </r>
       <r>   16.1647    0.0000 </r>
       <r>   18.0528    0.0000 </r>
       <r>   18.0528    0.0000 </r>
       <r>   18.7183    0.0000 </r>
       <r>   23.1789    0.0000 </r>
       <r>   23.1789    0.0000 </r>
      </set>
      <set comment="kpoint 15">
       <r>   -4.8106    1.0000 </r>
       <r>    1.1821    1.0000 </r>
       <r>    3.2709    1.0000 </r>
       <r>    3.5426    1.0000 </r>
       <r>    7.0105    0.0000 </r>
       <r>    8.6968    0.0000 </r>
       <r>   10.8903    0.0000 </r>
       <r>   11.2425    0.0000 </r>
       <r>   14.4514    0.0000 </r>
       <r>   14.8109    0.0000 </r>
       <r>   16.7341    0.0000 </r>
       <r>   18.4282    0.0000 </r>
       <r>   18.8387    0.0000 </r>
       <r>   20.2560    0.0000 </r>
       <r>   21.2177    0.0000 </r>
       <r>   21.9867    0.0000 </r>
      </set>
      <set comment="kpoint 16">
       <r>   -4.0408    1.0000 </r>
       <r>   -0.2308    1.0000 </r>
       <r>    2.5554    1.0000 </r>
       <r>    3.4459    1.0000 </r>
       <r>    7.1990    0.0000 </r>
       <r>    9.6783    0.0000 </r>
       <r>   10.6401    0.0000 </r>
       <r>   11.0876    0.0000 </r>
       <r>   15.9348    0.0000 </r>
       <r>   16.2820    0.0000 </r>
       <r>   16.7147    0.0000 </r>
       <r>   17.1733    0.0000 </r>
       <r>   18.4317    0.0000 </r>
       <r>   20.9926    0.0000 </r>
       <r>   22.3599    0.0000 </r>
       <r>   23.9409    0.0000 </r>
      </set>
      <set comment="kpoint 17">
       <r>   -3.4170    1.0000 </r>
       <r>   -1.1288    1.0000 </r>
       <r>    2.0546    1.0000 </r>
       <r>    3.5927    1.0000 </r>
       <r>    7.3433    0.0000 </r>
       <r>   10.4161    0.0000 </r>
       <r>   10.7271    0.0000 </r>
       <r>   11.5926    0.0000 </r>
       <r>   14.4742    0.0000 </r>
       <r>   14.7132    0.0000 </r>
       <r>   17.4462    0.0000 </r>
       <r>   18.4765    0.0000 </r>
       <r>   18.9737    0.0000 </r>
       <r>   21.8002    0.0000 </r>
       <r>   23.5420    0.0000 </r>
       <r>   23.8173    0.0000 </r>
      </set>
      <set comment="kpoint 18">
       <r>   -3.8100    1.0000 </r>
       <r>   -0.5777    1.0000 </r>
       <r>    1.8871    1.0000 </r>
       <r>    3.9563    1.0000 </r>
       <r>    7.7079    0.0000 </r>
       <r>   10.3609    0.0000 </r>
       <r>   10.3930    0.0000 </r>
       <r>   12.5473    0.0000 </r>
       <r>   12.7403    0.0000 </r>
       <r>   13.8422    0.0000 </r>
       <r>   17.4706    0.0000 </r>
       <r>   19.4827    0.0000 </r>
       <r>   20.2194    0.0000 </r>
       <r>   20.8733    0.0000 </r>
       <r>   21.4050    0.0000 </r>
       <r>   23.5738    0.0000 </r>
      </set>
      <set comment="kpoint 19">
       <r>   -4.6006    1.0000 </r>
       <r>    0.6219    1.0000 </r>
       <r>    2.2680    1.0000 </r>
       <r>    4.4538    1.0000 </r>
       <r>    8.1995    0.0000 </r>
       <r>    9.7910    0.0000 </r>
       <r>   10.0629    0.0000 </r>
       <r>   11.2441    0.0000 </r>
       <r>   11.7396    0.0000 </r>
       <r>   15.7854    0.0000 </r>
       <r>   16.9519    0.0000 </r>
       <r>   17.6557    0.0000 </r>
       <r>   18.7469    0.0000 </r>
       <r>   20.8866    0.0000 </r>
       <r>   22.4002    0.0000 </r>
       <r>   22.9989    0.0000 </r>
      </set>
      <set comment="kpoint 20">
       <r>   -4.3479    1.0000 </r>
       <r>    0.5317    1.0000 </r>
       <r>    3.1564    1.0000 </r>
       <r>    3.1564    1.0000 </r>
       <r>    6.3060    0.0002 </r>
       <r>    7.5680    0.0000 </r>
       <r>   12.5992    0.0000 </r>
       <r>   12.5992    0.0000 </r>
       <r>   14.9534    0.0000 </r>
       <r>   15.3090    0.0000 </r>
       <r>   18.3196    0.0000 </r>
       <r>   18.7537    0.0000 </r>
       <r>   18.7537    0.0000 </r>
       <r>   20.4708    0.0000 </r>
       <r>   21.4690    0.0000 </r>
       <r>   21.6466    0.0000 </r>
      </set>
      <set comment="kpoint 21">
       <r>   -3.6343    1.0000 </r>
       <r>   -0.4861    1.0000 </r>
       <r>    2.4698    1.0000 </r>
       <r>    3.0039    1.0000 </r>
       <r>    6.5471    0.0000 </r>
       <r>    7.5958    0.0000 </r>
       <r>   12.8795    0.0000 </r>
       <r>   12.9676    0.0000 </r>
       <r>   16.6156    0.0000 </r>
       <r>   16.6703    0.0000 </r>
       <r>   17.1157    0.0000 </r>
       <r>   17.2369    0.0000 </r>
       <r>   19.9875    0.0000 </r>
       <r>   20.3951    0.0000 </r>
       <r>   20.9845    0.0000 </r>
       <r>   22.8597    0.0000 </r>
      </set>
      <set comment="kpoint 22">
       <r>   -2.8735    1.0000 </r>
       <r>   -1.3505    1.0000 </r>
       <r>    1.6100    1.0000 </r>
       <r>    3.1059    1.0000 </r>
       <r>    6.7448    0.0000 </r>
       <r>    9.1373    0.0000 </r>
       <r>   12.6201    0.0000 </r>
       <r>   12.6722    0.0000 </r>
       <r>   14.7598    0.0000 </r>
       <r>   14.8774    0.0000 </r>
       <r>   18.7960    0.0000 </r>
       <r>   19.0526    0.0000 </r>
       <r>   19.9010    0.0000 </r>
       <r>   21.3773    0.0000 </r>
       <r>   21.7926    0.0000 </r>
       <r>   23.1492    0.0000 </r>
      </set>
      <set comment="kpoint 23">
       <r>   -3.0458    1.0000 </r>
       <r>   -1.1616    1.0000 </r>
       <r>    1.2637    1.0000 </r>
       <r>    3.4463    1.0000 </r>
       <r>    7.1279    0.0000 </r>
       <r>   11.2474    0.0000 </r>
       <r>   11.8790    0.0000 </r>
       <r>   12.3922    0.0000 </r>
       <r>   12.7237    0.0000 </r>
       <r>   13.1261    0.0000 </r>
       <r>   19.6830    0.0000 </r>
       <r>   20.2344    0.0000 </r>
       <r>   20.7596    0.0000 </r>
       <r>   20.9621    0.0000 </r>
       <r>   21.7874    0.0000 </r>
       <r>   22.6592    0.0000 </r>
      </set>
      <set comment="kpoint 24">
       <r>   -2.9801    1.0000 </r>
       <r>   -1.3220    1.0000 </r>
       <r>    2.7836    1.0000 </r>
       <r>    2.7836    1.0000 </r>
       <r>    6.1773    0.0039 </r>
       <r>    6.5784    0.0000 </r>
       <r>   14.6207    0.0000 </r>
       <r>   14.6207    0.0000 </r>
       <r>   16.9266    0.0000 </r>
       <r>   17.0248    0.0000 </r>
       <r>   17.0248    0.0000 </r>
       <r>   17.1716    0.0000 </r>
       <r>   18.8053    0.0000 </r>
       <r>   18.9879    0.0000 </r>
       <r>   22.8661    0.0000 </r>
       <r>   23.6131    0.0000 </r>
      </set>
      <set comment="kpoint 25">
       <r>   -2.2377    1.0000 </r>
       <r>   -2.0682    1.0000 </r>
       <r>    2.2063    1.0000 </r>
       <r>    2.8194    1.0000 </r>
       <r>    6.4028    0.0000 </r>
       <r>    7.1971    0.0000 </r>
       <r>   14.5174    0.0000 </r>
       <r>   14.7946    0.0000 </r>
       <r>   15.1914    0.0000 </r>
       <r>   15.4645    0.0000 </r>
       <r>   18.6419    0.0000 </r>
       <r>   18.7140    0.0000 </r>
       <r>   18.7848    0.0000 </r>
       <r>   19.3951    0.0000 </r>
       <r>   22.8419    0.0000 </r>
       <r>   23.2221    0.0000 </r>
      </set>
      <set comment="kpoint 26">
       <r>   -5.1676    1.0000 </r>
       <r>    1.7394    1.0000 </r>
       <r>    3.2147    1.0000 </r>
       <r>    4.3481    1.0000 </r>
       <r>    7.8881    0.0000 </r>
       <r>    9.2126    0.0000 </r>
       <r>    9.9169    0.0000 </r>
       <r>   10.4337    0.0000 </r>
       <r>   12.8530    0.0000 </r>
       <r>   14.7190    0.0000 </r>
       <r>   16.1529    0.0000 </r>
       <r>   17.2317    0.0000 </r>
       <r>   18.7690    0.0000 </r>
       <r>   20.7902    0.0000 </r>
       <r>   20.9181    0.0000 </r>
       <r>   23.5004    0.0000 </r>
      </set>
      <set comment="kpoint 27">
       <r>   -4.4582    1.0000 </r>
       <r>    0.3040    1.0000 </r>
       <r>    2.6197    1.0000 </r>
       <r>    3.9344    1.0000 </r>
       <r>    8.2579    0.0000 </r>
       <r>    9.0653    0.0000 </r>
       <r>   10.2533    0.0000 </r>
       <r>   10.8828    0.0000 </r>
       <r>   13.7174    0.0000 </r>
       <r>   15.6992    0.0000 </r>
       <r>   16.8527    0.0000 </r>
       <r>   17.5602    0.0000 </r>
       <r>   19.4003    0.0000 </r>
       <r>   20.4701    0.0000 </r>
       <r>   21.5749    0.0000 </r>
       <r>   23.6514    0.0000 </r>
      </set>
      <set comment="kpoint 28">
       <r>   -3.6959    1.0000 </r>
       <r>   -0.9296    1.0000 </r>
       <r>    2.4236    1.0000 </r>
       <r>    3.6285    1.0000 </r>
       <r>    8.3304    0.0000 </r>
       <r>    8.7129    0.0000 </r>
       <r>   10.8271    0.0000 </r>
       <r>   11.9457    0.0000 </r>
       <r>   14.0013    0.0000 </r>
       <r>   15.3116    0.0000 </r>
       <r>   16.7622    0.0000 </r>
       <r>   18.1613    0.0000 </r>
       <r>   19.1205    0.0000 </r>
       <r>   21.2446    0.0000 </r>
       <r>   22.4220    0.0000 </r>
       <r>   24.4130    0.0000 </r>
      </set>
      <set comment="kpoint 29">
       <r>   -4.1808    1.0000 </r>
       <r>    0.2412    1.0000 </r>
       <r>    2.5295    1.0000 </r>
       <r>    3.1892    1.0000 </r>
       <r>    7.3566    0.0000 </r>
       <r>    8.3685    0.0000 </r>
       <r>   10.8429    0.0000 </r>
       <r>   12.5145    0.0000 </r>
       <r>   14.7741    0.0000 </r>
       <r>   16.4810    0.0000 </r>
       <r>   16.9124    0.0000 </r>
       <r>   18.5403    0.0000 </r>
       <r>   19.2570    0.0000 </r>
       <r>   20.0286    0.0000 </r>
       <r>   21.2220    0.0000 </r>
       <r>   22.6901    0.0000 </r>
      </set>
      <set comment="kpoint 30">
       <r>   -3.3858    1.0000 </r>
       <r>   -0.8041    1.0000 </r>
       <r>    1.8917    1.0000 </r>
       <r>    2.8997    1.0000 </r>
       <r>    7.7589    0.0000 </r>
       <r>    9.4205    0.0000 </r>
       <r>   10.4209    0.0000 </r>
       <r>   12.9107    0.0000 </r>
       <r>   14.2498    0.0000 </r>
       <r>   16.0985    0.0000 </r>
       <r>   17.5269    0.0000 </r>
       <r>   19.0313    0.0000 </r>
       <r>   19.4873    0.0000 </r>
       <r>   20.7794    0.0000 </r>
       <r>   22.5554    0.0000 </r>
       <r>   23.3368    0.0000 </r>
      </set>
      <set comment="kpoint 31">
       <r>   -3.0393    1.0000 </r>
       <r>   -1.2086    1.0000 </r>
       <r>    1.5222    1.0000 </r>
       <r>    3.0062    1.0000 </r>
       <r>    8.0407    0.0000 </r>
       <r>    9.9740    0.0000 </r>
       <r>   11.4847    0.0000 </r>
       <r>   12.0058    0.0000 </r>
       <r>   12.8361    0.0000 </r>
       <r>   15.3498    0.0000 </r>
       <r>   18.2452    0.0000 </r>
       <r>   18.9791    0.0000 </r>
       <r>   21.3411    0.0000 </r>
       <r>   21.5576    0.0000 </r>
       <r>   22.3689    0.0000 </r>
       <r>   22.6716    0.0000 </r>
      </set>
      <set comment="kpoint 32">
       <r>   -3.7104    1.0000 </r>
       <r>   -0.4381    1.0000 </r>
       <r>    1.6673    1.0000 </r>
       <r>    3.4220    1.0000 </r>
       <r>    8.5283    0.0000 </r>
       <r>    9.4870    0.0000 </r>
       <r>   10.3341    0.0000 </r>
       <r>   12.2884    0.0000 </r>
       <r>   13.8459    0.0000 </r>
       <r>   13.9246    0.0000 </r>
       <r>   18.7385    0.0000 </r>
       <r>   19.3349    0.0000 </r>
       <r>   19.5254    0.0000 </r>
       <r>   20.4049    0.0000 </r>
       <r>   22.2614    0.0000 </r>
       <r>   23.4610    0.0000 </r>
      </set>
      <set comment="kpoint 33">
       <r>   -2.8706    1.0000 </r>
       <r>   -1.3409    1.0000 </r>
       <r>    2.2538    1.0000 </r>
       <r>    2.4566    1.0000 </r>
       <r>    7.1964    0.0000 </r>
       <r>    7.5116    0.0000 </r>
       <r>   12.5822    0.0000 </r>
       <r>   14.3923    0.0000 </r>
       <r>   14.9175    0.0000 </r>
       <r>   16.5990    0.0000 </r>
       <r>   17.4102    0.0000 </r>
       <r>   19.0032    0.0000 </r>
       <r>   19.2772    0.0000 </r>
       <r>   21.2635    0.0000 </r>
       <r>   21.4215    0.0000 </r>
       <r>   22.8805    0.0000 </r>
      </set>
      <set comment="kpoint 34">
       <r>   -2.3741    1.0000 </r>
       <r>   -1.7841    1.0000 </r>
       <r>    1.5708    1.0000 </r>
       <r>    2.5405    1.0000 </r>
       <r>    7.5611    0.0000 </r>
       <r>    9.1533    0.0000 </r>
       <r>   12.0548    0.0000 </r>
       <r>   12.3090    0.0000 </r>
       <r>   14.7612    0.0000 </r>
       <r>   15.6071    0.0000 </r>
       <r>   18.3016    0.0000 </r>
       <r>   19.3409    0.0000 </r>
       <r>   21.0629    0.0000 </r>
       <r>   21.8910    0.0000 </r>
       <r>   22.0458    0.0000 </r>
       <r>   22.2323    0.0000 </r>
      </set>
      <set comment="kpoint 35">
       <r>   -2.6102    1.0000 </r>
       <r>   -1.4845    1.0000 </r>
       <r>    1.6062    1.0000 </r>
       <r>    2.2225    1.0000 </r>
       <r>    9.3317    0.0000 </r>
       <r>    9.4507    0.0000 </r>
       <r>   10.0509    0.0000 </r>
       <r>   11.7733    0.0000 </r>
       <r>   14.7221    0.0000 </r>
       <r>   16.1393    0.0000 </r>
       <r>   17.9119    0.0000 </r>
       <r>   19.2687    0.0000 </r>
       <r>   20.6804    0.0000 </r>
       <r>   21.9953    0.0000 </r>
       <r>   22.3009    0.0000 </r>
       <r>   23.6606    0.0000 </r>
      </set>
     </set>
    </set>
   </array>
  </eigenvalues>
  <separator name="orbital magnetization" >
   <v name="MAGDIPOLOUT">      0.00000000      0.00000000      0.00000000</v>
  </separator>
  <dos>
   <i name="efermi">      5.80109863 </i>
   <total>
    <array>
     <dimension dim="1">gridpoints</dimension>
     <dimension dim="2">spin</dimension>
     <field>energy</field>
     <field>total</field>
     <field>integrated</field>
     <set>
      <set comment="spin 1">
       <r>    -8.1913     0.0000     0.0000 </r>
       <r>    -8.0634     0.0000     0.0000 </r>
       <r>    -7.9356     0.0000     0.0000 </r>
       <r>    -7.8077     0.0000     0.0000 </r>
       <r>    -7.6799     0.0000     0.0000 </r>
       <r>    -7.5520     0.0000     0.0000 </r>
       <r>    -7.4241     0.0000     0.0000 </r>
       <r>    -7.2963     0.0000     0.0000 </r>
       <r>    -7.1684     0.0000     0.0000 </r>
       <r>    -7.0406     0.0000     0.0000 </r>
       <r>    -6.9127     0.0000     0.0000 </r>
       <r>    -6.7848     0.0000     0.0000 </r>
       <r>    -6.6570     0.0000     0.0000 </r>
       <r>    -6.5291     0.0002     0.0000 </r>
       <r>    -6.4013     0.0023     0.0003 </r>
       <r>    -6.2734     0.0140     0.0021 </r>
       <r>    -6.1455     0.0514     0.0087 </r>
       <r>    -6.0177     0.1098     0.0227 </r>
       <r>    -5.8898     0.1564     0.0427 </r>
       <r>    -5.7620     0.2144     0.0701 </r>
       <r>    -5.6341     0.2923     0.1075 </r>
       <r>    -5.5062     0.2944     0.1451 </r>
       <r>    -5.3784     0.2614     0.1786 </r>
       <r>    -5.2505     0.3481     0.2231 </r>
       <r>    -5.1227     0.4575     0.2816 </r>
       <r>    -4.9948     0.4600     0.3404 </r>
       <r>    -4.8669     0.4322     0.3957 </r>
       <r>    -4.7391     0.3971     0.4464 </r>
       <r>    -4.6112     0.4262     0.5009 </r>
       <r>    -4.4834     0.6101     0.5789 </r>
       <r>    -4.3555     0.7204     0.6710 </r>
       <r>    -4.2276     0.6807     0.7581 </r>
       <r>    -4.0998     0.6562     0.8420 </r>
       <r>    -3.9719     0.6241     0.9218 </r>
       <r>    -3.8440     0.7336     1.0156 </r>
       <r>    -3.7162     0.9859     1.1416 </r>
       <r>    -3.5883     0.9969     1.2691 </r>
       <r>    -3.4605     0.8114     1.3729 </r>
       <r>    -3.3326     0.6760     1.4593 </r>
       <r>    -3.2047     0.5319     1.5273 </r>
       <r>    -3.0769     0.5658     1.5996 </r>
       <r>    -2.9490     0.7326     1.6933 </r>
       <r>    -2.8212     0.6817     1.7805 </r>
       <r>    -2.6933     0.4611     1.8394 </r>
       <r>    -2.5654     0.3215     1.8805 </r>
       <r>    -2.4376     0.2931     1.9180 </r>
       <r>    -2.3097     0.2978     1.9561 </r>
       <r>    -2.1819     0.2642     1.9899 </r>
       <r>    -2.0540     0.2016     2.0157 </r>
       <r>    -1.9261     0.1721     2.0377 </r>
       <r>    -1.7983     0.1999     2.0632 </r>
       <r>    -1.6704     0.2303     2.0927 </r>
       <r>    -1.5426     0.3079     2.1320 </r>
       <r>    -1.4147     0.5770     2.2058 </r>
       <r>    -1.2868     0.9622     2.3288 </r>
       <r>    -1.1590     1.1739     2.4789 </r>
       <r>    -1.0311     1.0622     2.6147 </r>
       <r>    -0.9033     0.9067     2.7307 </r>
       <r>    -0.7754     0.8527     2.8397 </r>
       <r>    -0.6475     0.7924     2.9410 </r>
       <r>    -0.5197     0.7461     3.0364 </r>
       <r>    -0.3918     0.6680     3.1218 </r>
       <r>    -0.2640     0.5571     3.1930 </r>
       <r>    -0.1361     0.4404     3.2494 </r>
       <r>    -0.0082     0.2722     3.2842 </r>
       <r>     0.1196     0.2523     3.3164 </r>
       <r>     0.2475     0.4830     3.3782 </r>
       <r>     0.3753     0.6021     3.4552 </r>
       <r>     0.5032     0.4198     3.5088 </r>
       <r>     0.6311     0.2409     3.5396 </r>
       <r>     0.7589     0.1979     3.5649 </r>
       <r>     0.8868     0.2184     3.5928 </r>
       <r>     1.0146     0.2283     3.6220 </r>
       <r>     1.1425     0.2613     3.6554 </r>
       <r>     1.2704     0.3617     3.7017 </r>
       <r>     1.3982     0.5863     3.7767 </r>
       <r>     1.5261     1.0330     3.9087 </r>
       <r>     1.6539     1.3285     4.0786 </r>
       <r>     1.7818     1.2025     4.2323 </r>
       <r>     1.9097     0.9918     4.3592 </r>
       <r>     2.0375     0.8510     4.4680 </r>
       <r>     2.1654     0.8366     4.5749 </r>
       <r>     2.2932     1.0327     4.7070 </r>
       <r>     2.4211     1.3873     4.8844 </r>
       <r>     2.5490     1.6737     5.0984 </r>
       <r>     2.6768     1.5373     5.2949 </r>
       <r>     2.8047     1.2314     5.4524 </r>
       <r>     2.9326     1.2143     5.6076 </r>
       <r>     3.0604     1.3768     5.7837 </r>
       <r>     3.1883     1.4896     5.9742 </r>
       <r>     3.3161     1.5413     6.1712 </r>
       <r>     3.4440     1.5820     6.3735 </r>
       <r>     3.5719     1.5918     6.5770 </r>
       <r>     3.6997     1.3234     6.7462 </r>
       <r>     3.8276     1.0200     6.8767 </r>
       <r>     3.9554     1.1720     7.0265 </r>
       <r>     4.0833     1.3357     7.1973 </r>
       <r>     4.2112     1.1642     7.3461 </r>
       <r>     4.3390     1.0797     7.4842 </r>
       <r>     4.4669     1.0941     7.6241 </r>
       <r>     4.5947     0.8167     7.7285 </r>
       <r>     4.7226     0.4842     7.7904 </r>
       <r>     4.8505     0.4222     7.8444 </r>
       <r>     4.9783     0.3719     7.8920 </r>
       <r>     5.1062     0.2457     7.9234 </r>
       <r>     5.2340     0.2253     7.9522 </r>
       <r>     5.3619     0.2091     7.9789 </r>
       <r>     5.4898     0.1151     7.9936 </r>
       <r>     5.6176     0.0391     7.9986 </r>
       <r>     5.7455     0.0094     7.9998 </r>
       <r>     5.8733     0.0034     8.0003 </r>
       <r>     6.0012     0.0142     8.0021 </r>
       <r>     6.1291     0.0521     8.0088 </r>
       <r>     6.2569     0.1212     8.0242 </r>
       <r>     6.3848     0.2158     8.0518 </r>
       <r>     6.5126     0.3191     8.0926 </r>
       <r>     6.6405     0.3774     8.1409 </r>
       <r>     6.7684     0.3752     8.1889 </r>
       <r>     6.8962     0.3902     8.2388 </r>
       <r>     7.0241     0.5276     8.3062 </r>
       <r>     7.1519     0.7793     8.4059 </r>
       <r>     7.2798     0.9540     8.5279 </r>
       <r>     7.4077     1.0053     8.6564 </r>
       <r>     7.5355     1.2437     8.8154 </r>
       <r>     7.6634     1.7034     9.0332 </r>
       <r>     7.7912     1.8638     9.2715 </r>
       <r>     7.9191     1.5218     9.4661 </r>
       <r>     8.0470     1.1745     9.6163 </r>
       <r>     8.1748     1.1669     9.7655 </r>
       <r>     8.3027     1.3397     9.9368 </r>
       <r>     8.4305     1.3425    10.1084 </r>
       <r>     8.5584     1.1337    10.2534 </r>
       <r>     8.6863     1.0861    10.3922 </r>
       <r>     8.8141     1.3515    10.5651 </r>
       <r>     8.9420     1.8314    10.7992 </r>
       <r>     9.0699     2.1774    11.0776 </r>
       <r>     9.1977     2.1316    11.3502 </r>
       <r>     9.3256     1.8904    11.5919 </r>
       <r>     9.4534     1.6479    11.8026 </r>
       <r>     9.5813     1.3814    11.9792 </r>
       <r>     9.7092     1.1373    12.1246 </r>
       <r>     9.8370     1.0344    12.2569 </r>
       <r>     9.9649     1.0654    12.3931 </r>
       <r>    10.0927     1.0530    12.5277 </r>
       <r>    10.2206     1.1515    12.6750 </r>
       <r>    10.3485     1.5783    12.8768 </r>
       <r>    10.4763     1.7255    13.0974 </r>
       <r>    10.6042     1.3940    13.2756 </r>
       <r>    10.7320     1.3647    13.4501 </r>
       <r>    10.8599     1.5993    13.6546 </r>
       <r>    10.9878     1.3695    13.8297 </r>
       <r>    11.1156     0.8636    13.9401 </r>
       <r>    11.2435     0.6606    14.0246 </r>
       <r>    11.3713     0.7081    14.1151 </r>
       <r>    11.4992     0.8263    14.2208 </r>
       <r>    11.6271     0.8563    14.3303 </r>
       <r>    11.7549     0.8723    14.4418 </r>
       <r>    11.8828     1.1216    14.5852 </r>
       <r>    12.0106     1.3819    14.7619 </r>
       <r>    12.1385     1.2823    14.9258 </r>
       <r>    12.2664     1.0842    15.0645 </r>
       <r>    12.3942     1.1011    15.2053 </r>
       <r>    12.5221     1.3207    15.3741 </r>
       <r>    12.6499     1.7018    15.5917 </r>
       <r>    12.7778     2.0619    15.8554 </r>
       <r>    12.9057     2.1141    16.1257 </r>
       <r>    13.0335     1.5714    16.3266 </r>
       <r>    13.1614     0.8587    16.4364 </r>
       <r>    13.2892     0.5285    16.5040 </r>
       <r>    13.4171     0.5179    16.5702 </r>
       <r>    13.5450     0.6474    16.6529 </r>
       <r>    13.6728     0.8060    16.7560 </r>
       <r>    13.8007     0.9836    16.8818 </r>
       <r>    13.9285     1.1447    17.0281 </r>
       <r>    14.0564     1.2183    17.1839 </r>
       <r>    14.1843     1.2368    17.3420 </r>
       <r>    14.3121     1.3389    17.5132 </r>
       <r>    14.4400     1.5674    17.7136 </r>
       <r>    14.5678     1.7367    17.9357 </r>
       <r>    14.6957     1.9979    18.1912 </r>
       <r>    14.8236     2.2742    18.4819 </r>
       <r>    14.9514     1.8969    18.7245 </r>
       <r>    15.0793     1.2747    18.8875 </r>
       <r>    15.2071     1.1653    19.0365 </r>
       <r>    15.3350     1.2858    19.2009 </r>
       <r>    15.4629     1.1047    19.3421 </r>
       <r>    15.5907     0.8843    19.4552 </r>
       <r>    15.7186     0.8934    19.5694 </r>
       <r>    15.8465     0.8291    19.6754 </r>
       <r>    15.9743     0.8017    19.7779 </r>
       <r>    16.1022     1.0859    19.9168 </r>
       <r>    16.2300     1.3336    20.0873 </r>
       <r>    16.3579     1.2218    20.2435 </r>
       <r>    16.4858     1.1579    20.3916 </r>
       <r>    16.6136     1.5031    20.5837 </r>
       <r>    16.7415     1.8832    20.8245 </r>
       <r>    16.8693     1.8045    21.0553 </r>
       <r>    16.9972     1.4204    21.2369 </r>
       <r>    17.1251     1.2560    21.3975 </r>
       <r>    17.2529     1.4611    21.5843 </r>
       <r>    17.3808     1.8033    21.8148 </r>
       <r>    17.5086     2.0099    22.0718 </r>
       <r>    17.6365     1.6660    22.2848 </r>
       <r>    17.7644     0.9444    22.4056 </r>
       <r>    17.8922     0.6554    22.4894 </r>
       <r>    18.0201     0.9269    22.6079 </r>
       <r>    18.1479     1.3827    22.7847 </r>
       <r>    18.2758     1.7105    23.0034 </r>
       <r>    18.4037     1.6502    23.2144 </r>
       <r>    18.5315     1.3894    23.3920 </r>
       <r>    18.6594     1.3570    23.5656 </r>
       <r>    18.7872     1.6991    23.7828 </r>
       <r>    18.9151     2.1291    24.0550 </r>
       <r>    19.0430     2.4148    24.3638 </r>
       <r>    19.1708     2.4478    24.6768 </r>
       <r>    19.2987     2.4589    24.9912 </r>
       <r>    19.4265     2.4018    25.2983 </r>
       <r>    19.5544     1.8405    25.5336 </r>
       <r>    19.6823     1.0558    25.6686 </r>
       <r>    19.8101     0.7200    25.7606 </r>
       <r>    19.9380     0.8012    25.8631 </r>
       <r>    20.0658     0.8290    25.9691 </r>
       <r>    20.1937     0.8391    26.0764 </r>
       <r>    20.3216     1.0539    26.2111 </r>
       <r>    20.4494     1.2667    26.3731 </r>
       <r>    20.5773     1.2984    26.5391 </r>
       <r>    20.7051     1.4181    26.7204 </r>
       <r>    20.8330     1.6583    26.9324 </r>
       <r>    20.9609     1.7418    27.1551 </r>
       <r>    21.0887     1.6996    27.3725 </r>
       <r>    21.2166     1.8331    27.6068 </r>
       <r>    21.3444     2.0658    27.8710 </r>
       <r>    21.4723     2.0392    28.1317 </r>
       <r>    21.6002     1.8633    28.3700 </r>
       <r>    21.7280     1.5936    28.5737 </r>
       <r>    21.8559     1.3203    28.7425 </r>
       <r>    21.9837     1.1570    28.8905 </r>
       <r>    22.1116     1.0712    29.0274 </r>
       <r>    22.2395     1.3061    29.1944 </r>
       <r>    22.3673     1.8436    29.4302 </r>
       <r>    22.4952     1.9945    29.6852 </r>
       <r>    22.6231     1.6994    29.9025 </r>
       <r>    22.7509     1.4673    30.0901 </r>
       <r>    22.8788     1.2953    30.2557 </r>
       <r>    23.0066     1.0426    30.3890 </r>
       <r>    23.1345     0.8680    30.5000 </r>
       <r>    23.2624     0.9469    30.6211 </r>
       <r>    23.3902     1.2853    30.7854 </r>
       <r>    23.5181     1.8320    31.0196 </r>
       <r>    23.6459     2.1404    31.2933 </r>
       <r>    23.7738     1.7654    31.5190 </r>
       <r>    23.9017     1.0418    31.6522 </r>
       <r>    24.0295     0.4818    31.7138 </r>
       <r>    24.1574     0.1970    31.7390 </r>
       <r>    24.2852     0.1872    31.7630 </r>
       <r>    24.4131     0.3306    31.8052 </r>
       <r>    24.5410     0.3266    31.8470 </r>
       <r>    24.6688     0.1521    31.8664 </r>
       <r>    24.7967     0.0361    31.8711 </r>
       <r>    24.9245     0.0296    31.8748 </r>
       <r>    25.0524     0.1002    31.8877 </r>
       <r>    25.1803     0.1784    31.9105 </r>
       <r>    25.3081     0.1604    31.9310 </r>
       <r>    25.4360     0.1006    31.9438 </r>
       <r>    25.5638     0.0691    31.9527 </r>
       <r>    25.6917     0.0377    31.9575 </r>
       <r>    25.8196     0.0175    31.9597 </r>
       <r>    25.9474     0.0278    31.9633 </r>
       <r>    26.0753     0.0446    31.9690 </r>
       <r>    26.2031     0.0364    31.9737 </r>
       <r>    26.3310     0.0251    31.9769 </r>
       <r>    26.4589     0.0422    31.9823 </r>
       <r>    26.5867     0.0600    31.9899 </r>
       <r>    26.7146     0.0416    31.9953 </r>
       <r>    26.8424     0.0135    31.9970 </r>
       <r>    26.9703     0.0020    31.9972 </r>
       <r>    27.0982     0.0001    31.9973 </r>
       <r>    27.2260     0.0000    31.9973 </r>
       <r>    27.3539     0.0000    31.9973 </r>
       <r>    27.4817     0.0000    31.9973 </r>
       <r>    27.6096     0.0000    31.9973 </r>
       <r>    27.7375     0.0000    31.9973 </r>
       <r>    27.8653     0.0003    31.9973 </r>
       <r>    27.9932     0.0020    31.9976 </r>
       <r>    28.1210     0.0057    31.9983 </r>
       <r>    28.2489     0.0074    31.9992 </r>
       <r>    28.3768     0.0045    31.9998 </r>
       <r>    28.5046     0.0013    32.0000 </r>
       <r>    28.6325     0.0002    32.0000 </r>
       <r>    28.7604     0.0000    32.0000 </r>
       <r>    28.8882     0.0000    32.0000 </r>
       <r>    29.0161     0.0000    32.0000 </r>
       <r>    29.1439     0.0000    32.0000 </r>
       <r>    29.2718     0.0000    32.0000 </r>
       <r>    29.3997     0.0000    32.0000 </r>
       <r>    29.5275     0.0000    32.0000 </r>
       <r>    29.6554     0.0000    32.0000 </r>
       <r>    29.7832     0.0000    32.0000 </r>
       <r>    29.9111     0.0000    32.0000 </r>
       <r>    30.0390     0.0000    32.0000 </r>
       <r>    30.1668     0.0000    32.0000 </r>
      </set>
     </set>
    </array>
   </total>
  </dos>
 </calculation>
 <structure name="finalpos" >
  <crystal>
   <varray name="basis" >
    <v>       0.00000000       2.74682114       2.74682114 </v>
    <v>       2.74682114       0.00000000       2.74682114 </v>
    <v>       2.74682114       2.74682114       0.00000000 </v>
   </varray>
   <i name="volume">     41.44967579 </i>
   <varray name="rec_basis" >
    <v>      -0.18202860       0.18202860       0.18202860 </v>
    <v>       0.18202860      -0.18202860       0.18202860 </v>
    <v>       0.18202860       0.18202860      -0.18202860 </v>
   </varray>
  </crystal>
  <varray name="positions" >
   <v>       0.75000000       0.75000000       0.75000000 </v>
   <v>       0.50000000       0.50000000       0.50000000 </v>
  </varray>
 </structure>
</modeling>
