 running on   16 total cores
 distrk:  each k-point on   16 cores,    1 groups
 distr:  one band on    1 cores,   16 groups
 using from now: INCAR     
 vasp.5.4.1 24Jun15 (build Feb  9 2019 14:16:27) complex                         
 POSCAR found type information on POSCAR  Si
 POSCAR found :  1 types and       2 ions
 scaLAPACK will be used

 ----------------------------------------------------------------------------- 
|                                                                             |
|           W    W    AA    RRRRR   N    N  II  N    N   GGGG   !!!           |
|           W    W   A  A   R    R  NN   N  II  NN   N  G    G  !!!           |
|           W    W  A    A  R    R  N N  N  II  N N  N  G       !!!           |
|           W WW W  AAAAAA  RRRRR   N  N N  II  N  N N  G  GGG   !            |
|           WW  WW  A    A  R   R   N   NN  II  N   NN  G    G                |
|           W    W  A    A  R    R  N    N  II  N    N   GGGG   !!!           |
|                                                                             |
|      For optimal performance we recommend to set                            |
|        NCORE= 4 - approx SQRT( number of cores)                             |
|      NCORE specifies how many cores store one orbital (NPAR=cpu/NCORE).     |
|      This setting can  greatly improve the performance of VASP for DFT.     |
|      The default, NPAR=number of cores might be grossly inefficient         |
|      on modern multi-core architectures or massively parallel machines.     |
|      Do your own testing !!!!                                               |
|      Unfortunately you need to use the default for GW and RPA calculations. |
|      (for HF NCORE is supported but not extensively tested yet)             |
|                                                                             |
 ----------------------------------------------------------------------------- 


 ----------------------------------------------------------------------------- 
|                                                                             |
|  ADVICE TO THIS USER RUNNING 'VASP/VAMP'   (HEAR YOUR MASTER'S VOICE ...):  |
|                                                                             |
|      You have switched on vdW-DFT.                                          |
|      This routine was written and supplied by Jiri Klimes.                  |
|      We recommed that you carefully read and cite the following             |
|      publication                                                            |
|      J. Klimes, D.R. Bowler, A. Michelides                                  |
|        J. Phys.: Cond Matt. 22 022201 (2010)                                |
|      J. Klimes, D.R. Bowler, A. Michelides                                  |
|        Phys. Rev. B. 83, 195131 (2011)                                      |
|      and references therein.                                                |
|                                                                             |
 ----------------------------------------------------------------------------- 


 ----------------------------------------------------------------------------- 
|                                                                             |
|  ADVICE TO THIS USER RUNNING 'VASP/VAMP'   (HEAR YOUR MASTER'S VOICE ...):  |
|                                                                             |
|      You enforced a specific xc-type in the INCAR file,                     |
|      a different type was found on the POTCAR file                          |
|          I HOPE YOU KNOW, WHAT YOU ARE  DOING                               |
|                                                                             |
 ----------------------------------------------------------------------------- 

 LDA part: xc-table for Pade appr. of Perdew
 POSCAR, INCAR and KPOINTS ok, starting setup
 WARNING: small aliasing (wrap around) errors must be expected
 FFT: planning ...
 WAVECAR not read
 entering main loop
       N       E                     dE             d eps       ncg     rms          rms(c)
Total vdW correction in eV:      1.0901334
DAV:   1     0.300241620979E+01    0.30024E+01   -0.35389E+03  1120   0.395E+02
DAV:   2    -0.832773291753E+01   -0.11330E+02   -0.11230E+02  1616   0.400E+01
DAV:   3    -0.840775632009E+01   -0.80023E-01   -0.80023E-01  1232   0.433E+00
DAV:   4    -0.840799664438E+01   -0.24032E-03   -0.24032E-03  2112   0.267E-01
DAV:   5    -0.840799666185E+01   -0.17467E-07   -0.17662E-07  1200   0.178E-03    0.367E+00
Total vdW correction in eV:      1.1376309
DAV:   6    -0.835836850195E+01    0.49628E-01   -0.84836E-02  1728   0.859E-01    0.225E+00
Total vdW correction in eV:      1.2283508
DAV:   7    -0.835243974285E+01    0.59288E-02   -0.19396E-01  1712   0.128E+00    0.186E-01
Total vdW correction in eV:      1.2237930
DAV:   8    -0.833600161017E+01    0.16438E-01   -0.49310E-03  1296   0.243E-01    0.954E-02
Total vdW correction in eV:      1.2296420
DAV:   9    -0.833711413385E+01   -0.11125E-02   -0.55093E-04  1712   0.819E-02    0.520E-02
Total vdW correction in eV:      1.2293329
DAV:  10    -0.833715649854E+01   -0.42365E-04   -0.22833E-05  1408   0.215E-02    0.106E-02
Total vdW correction in eV:      1.2293336
DAV:  11    -0.833697041809E+01    0.18608E-03   -0.31004E-07  1904   0.260E-03    0.196E-03
Total vdW correction in eV:      1.2293762
DAV:  12    -0.833695921059E+01    0.11208E-04   -0.69365E-08  1344   0.137E-03    0.398E-04
Total vdW correction in eV:      1.2293741
DAV:  13    -0.833695688715E+01    0.23234E-05   -0.49362E-09  1424   0.319E-04    0.775E-05
Total vdW correction in eV:      1.2293754
DAV:  14    -0.833695725325E+01   -0.36610E-06   -0.17713E-10   720   0.644E-05    0.897E-06
Total vdW correction in eV:      1.2293752
DAV:  15    -0.833695696058E+01    0.29267E-06   -0.67274E-12   848   0.133E-05    0.301E-06
Total vdW correction in eV:      1.2293752
DAV:  16    -0.833695694549E+01    0.15085E-07    0.16923E-13   688   0.561E-06
Total vdW correction in eV:      1.2293752
Total vdW correction in eV:      1.2293752
   1 F= -.83369569E+01 E0= -.83369292E+01  d E =-.833696E+01
 curvature:   0.00 expect dE= 0.000E+00 dE for cont linesearch  0.000E+00
 trial: gam= 0.00000 g(F)=  0.297E-48 g(S)=  0.000E+00 ort = 0.000E+00 (trialstep = 0.100E+01)
 search vector abs. value=  0.100E-09
 reached required accuracy - stopping structural energy minimisation
