   8   8   0   0
  0.2072481E+02  0.5493640E-09  0.5493640E-09  0.5493640E-09  0.1500000E-16
   1.0000000000000000E-004
  CAR 
 unknown system                          
     36.27144475     -8.21404609 5000      5.80265230      1.00000000
     -8.214  0.0000E+00  0.0000E+00  0.0000E+00  0.0000E+00
     -8.205  0.0000E+00  0.0000E+00  0.0000E+00  0.0000E+00
     -8.196  0.0000E+00  0.0000E+00  0.0000E+00  0.0000E+00
     -8.187  0.0000E+00  0.0000E+00  0.0000E+00  0.0000E+00
     -8.178  0.0000E+00  0.0000E+00  0.0000E+00  0.0000E+00
     -8.170  0.0000E+00  0.0000E+00  0.0000E+00  0.0000E+00
     -8.161  0.0000E+00  0.0000E+00  0.0000E+00  0.0000E+00
     -8.152  0.0000E+00  0.0000E+00  0.0000E+00  0.0000E+00
     -8.143  0.0000E+00  0.0000E+00  0.0000E+00  0.0000E+00
     -8.134  0.0000E+00  0.0000E+00  0.0000E+00  0.0000E+00
     -8.125  0.0000E+00  0.0000E+00  0.0000E+00  0.0000E+00
     -8.116  0.0000E+00  0.0000E+00  0.0000E+00  0.0000E+00
     -8.107  0.0000E+00  0.0000E+00  0.0000E+00  0.0000E+00
     -8.098  0.0000E+00  0.0000E+00  0.0000E+00  0.0000E+00
     -8.089  0.0000E+00  0.0000E+00  0.0000E+00  0.0000E+00
     -8.081  0.0000E+00  0.0000E+00  0.0000E+00  0.0000E+00
     -8.072  0.0000E+00  0.0000E+00  0.0000E+00  0.0000E+00
     -8.063  0.0000E+00  0.0000E+00  0.0000E+00  0.0000E+00
     -8.054  0.0000E+00  0.0000E+00  0.0000E+00  0.0000E+00
     -8.045  0.0000E+00  0.0000E+00  0.0000E+00  0.0000E+00
     -8.036  0.0000E+00  0.0000E+00  0.0000E+00  0.0000E+00
     -8.027  0.0000E+00  0.0000E+00  0.0000E+00  0.0000E+00
     -8.018  0.0000E+00  0.0000E+00  0.0000E+00  0.0000E+00
     -8.009  0.0000E+00  0.0000E+00  0.0000E+00  0.0000E+00
     -8.000  0.0000E+00  0.0000E+00  0.0000E+00  0.0000E+00
     -7.992  0.0000E+00  0.0000E+00  0.0000E+00  0.0000E+00
     -7.983  0.0000E+00  0.0000E+00  0.0000E+00  0.0000E+00
     -7.974  0.0000E+00  0.0000E+00  0.0000E+00  0.0000E+00
     -7.965  0.0000E+00  0.0000E+00  0.0000E+00  0.0000E+00
     -7.956  0.0000E+00  0.0000E+00  0.0000E+00  0.0000E+00
     -7.947  0.0000E+00  0.0000E+00  0.0000E+00  0.0000E+00
     -7.938  0.0000E+00  0.0000E+00  0.0000E+00  0.0000E+00
     -7.929  0.0000E+00  0.0000E+00  0.0000E+00  0.0000E+00
     -7.920  0.0000E+00  0.0000E+00  0.0000E+00  0.0000E+00
     -7.911  0.0000E+00  0.0000E+00  0.0000E+00  0.0000E+00
     -7.903  0.0000E+00  0.0000E+00  0.0000E+00  0.0000E+00
     -7.894  0.0000E+00  0.0000E+00  0.0000E+00  0.0000E+00
     -7.885  0.0000E+00  0.0000E+00  0.0000E+00  0.0000E+00
     -7.876  0.0000E+00  0.0000E+00  0.0000E+00  0.0000E+00
     -7.867  0.0000E+00  0.0000E+00  0.0000E+00  0.0000E+00
     -7.858  0.0000E+00  0.0000E+00  0.0000E+00  0.0000E+00
     -7.849  0.0000E+00  0.0000E+00  0.0000E+00  0.0000E+00
     -7.840  0.0000E+00  0.0000E+00  0.0000E+00  0.0000E+00
     -7.831  0.0000E+00  0.0000E+00  0.0000E+00  0.0000E+00
     -7.822  0.0000E+00  0.0000E+00  0.0000E+00  0.0000E+00
     -7.814  0.0000E+00  0.0000E+00  0.0000E+00  0.0000E+00
     -7.805  0.0000E+00  0.0000E+00  0.0000E+00  0.0000E+00
     -7.796  0.0000E+00  0.0000E+00  0.0000E+00  0.0000E+00
     -7.787  0.0000E+00  0.0000E+00  0.0000E+00  0.0000E+00
     -7.778  0.0000E+00  0.0000E+00  0.0000E+00  0.0000E+00
     -7.769  0.0000E+00  0.0000E+00  0.0000E+00  0.0000E+00
     -7.760  0.0000E+00  0.0000E+00  0.0000E+00  0.0000E+00
     -7.751  0.0000E+00  0.0000E+00  0.0000E+00  0.0000E+00
     -7.742  0.0000E+00  0.0000E+00  0.0000E+00  0.0000E+00
     -7.734  0.0000E+00  0.0000E+00  0.0000E+00  0.0000E+00
     -7.725  0.0000E+00  0.0000E+00  0.0000E+00  0.0000E+00
     -7.716  0.0000E+00  0.0000E+00  0.0000E+00  0.0000E+00
     -7.707  0.0000E+00  0.0000E+00  0.0000E+00  0.0000E+00
     -7.698  0.0000E+00  0.0000E+00  0.0000E+00  0.0000E+00
     -7.689  0.0000E+00  0.0000E+00  0.0000E+00  0.0000E+00
     -7.680  0.0000E+00  0.0000E+00  0.0000E+00  0.0000E+00
     -7.671  0.0000E+00  0.0000E+00  0.0000E+00  0.0000E+00
     -7.662  0.0000E+00  0.0000E+00  0.0000E+00  0.0000E+00
     -7.653  0.0000E+00  0.0000E+00  0.0000E+00  0.0000E+00
     -7.645  0.0000E+00  0.0000E+00  0.0000E+00  0.0000E+00
     -7.636  0.0000E+00  0.0000E+00  0.0000E+00  0.0000E+00
     -7.627  0.0000E+00  0.0000E+00  0.0000E+00  0.0000E+00
     -7.618  0.0000E+00  0.0000E+00  0.0000E+00  0.0000E+00
     -7.609  0.0000E+00  0.0000E+00  0.0000E+00  0.0000E+00
     -7.600  0.0000E+00  0.0000E+00  0.0000E+00  0.0000E+00
     -7.591  0.0000E+00  0.0000E+00  0.0000E+00  0.0000E+00
     -7.582  0.0000E+00  0.0000E+00  0.0000E+00  0.0000E+00
     -7.573  0.0000E+00  0.0000E+00  0.0000E+00  0.0000E+00
     -7.564  0.0000E+00  0.0000E+00  0.0000E+00  0.0000E+00
     -7.556  0.0000E+00  0.0000E+00  0.0000E+00  0.0000E+00
     -7.547  0.0000E+00  0.0000E+00  0.0000E+00  0.0000E+00
     -7.538  0.0000E+00  0.0000E+00  0.0000E+00  0.0000E+00
     -7.529  0.0000E+00  0.0000E+00  0.0000E+00  0.0000E+00
     -7.520  0.0000E+00  0.0000E+00  0.0000E+00  0.0000E+00
     -7.511  0.0000E+00  0.0000E+00  0.0000E+00  0.0000E+00
     -7.502  0.0000E+00  0.0000E+00  0.0000E+00  0.0000E+00
     -7.493  0.0000E+00  0.0000E+00  0.0000E+00  0.0000E+00
     -7.484  0.0000E+00  0.0000E+00  0.0000E+00  0.0000E+00
     -7.475  0.0000E+00  0.0000E+00  0.0000E+00  0.0000E+00
     -7.467  0.0000E+00  0.0000E+00  0.0000E+00  0.0000E+00
     -7.458  0.0000E+00  0.0000E+00  0.0000E+00  0.0000E+00
     -7.449  0.0000E+00  0.0000E+00  0.0000E+00  0.0000E+00
     -7.440  0.0000E+00  0.0000E+00  0.0000E+00  0.0000E+00
     -7.431  0.0000E+00  0.0000E+00  0.0000E+00  0.0000E+00
     -7.422  0.0000E+00  0.0000E+00  0.0000E+00  0.0000E+00
     -7.413  0.0000E+00  0.0000E+00  0.0000E+00  0.0000E+00
     -7.404  0.0000E+00  0.0000E+00  0.0000E+00  0.0000E+00
     -7.395  0.0000E+00  0.0000E+00  0.0000E+00  0.0000E+00
     -7.386  0.0000E+00  0.0000E+00  0.0000E+00  0.0000E+00
     -7.378  0.0000E+00  0.0000E+00  0.0000E+00  0.0000E+00
     -7.369  0.1819E-16  0.1819E-16  0.1618E-18  0.1618E-18
     -7.360  0.0000E+00  0.0000E+00  0.1618E-18  0.1618E-18
     -7.351  0.1819E-16  0.1819E-16  0.3237E-18  0.3237E-18
     -7.342  0.3637E-16  0.3637E-16  0.6474E-18  0.6474E-18
     -7.333  0.3637E-16  0.3637E-16  0.9710E-18  0.9710E-18
     -7.324  0.9093E-16  0.9093E-16  0.1780E-17  0.1780E-17
     -7.315  0.1273E-15  0.1273E-15  0.2913E-17  0.2913E-17
     -7.306  0.2182E-15  0.2182E-15  0.4855E-17  0.4855E-17
     -7.297  0.3455E-15  0.3455E-15  0.7930E-17  0.7930E-17
     -7.289  0.6729E-15  0.6729E-15  0.1392E-16  0.1392E-16
     -7.280  0.9275E-15  0.9275E-15  0.2217E-16  0.2217E-16
     -7.271  0.1619E-14  0.1619E-14  0.3658E-16  0.3658E-16
     -7.262  0.2564E-14  0.2564E-14  0.5940E-16  0.5940E-16
     -7.253  0.4037E-14  0.4037E-14  0.9532E-16  0.9532E-16
     -7.244  0.6620E-14  0.6620E-14  0.1542E-15  0.1542E-15
     -7.235  0.1060E-13  0.1060E-13  0.2486E-15  0.2486E-15
     -7.226  0.1697E-13  0.1697E-13  0.3996E-15  0.3996E-15
     -7.217  0.2677E-13  0.2677E-13  0.6378E-15  0.6378E-15
     -7.208  0.4237E-13  0.4237E-13  0.1015E-14  0.1015E-14
     -7.200  0.6698E-13  0.6698E-13  0.1611E-14  0.1611E-14
     -7.191  0.1048E-12  0.1048E-12  0.2544E-14  0.2544E-14
     -7.182  0.1640E-12  0.1640E-12  0.4003E-14  0.4003E-14
     -7.173  0.2552E-12  0.2552E-12  0.6274E-14  0.6274E-14
     -7.164  0.3959E-12  0.3959E-12  0.9797E-14  0.9797E-14
     -7.155  0.6119E-12  0.6119E-12  0.1524E-13  0.1524E-13
     -7.146  0.9415E-12  0.9415E-12  0.2362E-13  0.2362E-13
     -7.137  0.1444E-11  0.1444E-11  0.3647E-13  0.3647E-13
     -7.128  0.2205E-11  0.2205E-11  0.5609E-13  0.5609E-13
     -7.119  0.3355E-11  0.3355E-11  0.8595E-13  0.8595E-13
     -7.111  0.5085E-11  0.5085E-11  0.1312E-12  0.1312E-12
     -7.102  0.7678E-11  0.7678E-11  0.1995E-12  0.1995E-12
     -7.093  0.1155E-10  0.1155E-10  0.3023E-12  0.3023E-12
     -7.084  0.1731E-10  0.1731E-10  0.4563E-12  0.4563E-12
     -7.075  0.2583E-10  0.2583E-10  0.6862E-12  0.6862E-12
     -7.066  0.3841E-10  0.3841E-10  0.1028E-11  0.1028E-11
     -7.057  0.5690E-10  0.5690E-10  0.1534E-11  0.1534E-11
     -7.048  0.8396E-10  0.8396E-10  0.2281E-11  0.2281E-11
     -7.039  0.1234E-09  0.1234E-09  0.3380E-11  0.3380E-11
     -7.030  0.1808E-09  0.1808E-09  0.4989E-11  0.4989E-11
     -7.022  0.2637E-09  0.2637E-09  0.7336E-11  0.7336E-11
     -7.013  0.3833E-09  0.3833E-09  0.1075E-10  0.1075E-10
     -7.004  0.5551E-09  0.5551E-09  0.1569E-10  0.1569E-10
     -6.995  0.8007E-09  0.8007E-09  0.2281E-10  0.2281E-10
     -6.986  0.1151E-08  0.1151E-08  0.3305E-10  0.3305E-10
     -6.977  0.1648E-08  0.1648E-08  0.4771E-10  0.4771E-10
     -6.968  0.2350E-08  0.2350E-08  0.6863E-10  0.6863E-10
     -6.959  0.3340E-08  0.3340E-08  0.9835E-10  0.9835E-10
     -6.950  0.4728E-08  0.4728E-08  0.1404E-09  0.1404E-09
     -6.942  0.6669E-08  0.6669E-08  0.1998E-09  0.1998E-09
     -6.933  0.9371E-08  0.9371E-08  0.2832E-09  0.2832E-09
     -6.924  0.1312E-07  0.1312E-07  0.3999E-09  0.3999E-09
     -6.915  0.1830E-07  0.1830E-07  0.5627E-09  0.5627E-09
     -6.906  0.2543E-07  0.2543E-07  0.7891E-09  0.7891E-09
     -6.897  0.3521E-07  0.3521E-07  0.1102E-08  0.1102E-08
     -6.888  0.4857E-07  0.4857E-07  0.1535E-08  0.1535E-08
     -6.879  0.6676E-07  0.6676E-07  0.2129E-08  0.2129E-08
     -6.870  0.9141E-07  0.9141E-07  0.2942E-08  0.2942E-08
     -6.861  0.1247E-06  0.1247E-06  0.4052E-08  0.4052E-08
     -6.853  0.1695E-06  0.1695E-06  0.5561E-08  0.5561E-08
     -6.844  0.2296E-06  0.2296E-06  0.7604E-08  0.7604E-08
     -6.835  0.3099E-06  0.3099E-06  0.1036E-07  0.1036E-07
     -6.826  0.4167E-06  0.4167E-06  0.1407E-07  0.1407E-07
     -6.817  0.5583E-06  0.5583E-06  0.1904E-07  0.1904E-07
     -6.808  0.7454E-06  0.7454E-06  0.2567E-07  0.2567E-07
     -6.799  0.9915E-06  0.9915E-06  0.3450E-07  0.3450E-07
     -6.790  0.1314E-05  0.1314E-05  0.4619E-07  0.4619E-07
     -6.781  0.1736E-05  0.1736E-05  0.6164E-07  0.6164E-07
     -6.772  0.2284E-05  0.2284E-05  0.8197E-07  0.8197E-07
     -6.764  0.2996E-05  0.2996E-05  0.1086E-06  0.1086E-06
     -6.755  0.3915E-05  0.3915E-05  0.1435E-06  0.1435E-06
     -6.746  0.5097E-05  0.5097E-05  0.1888E-06  0.1888E-06
     -6.737  0.6614E-05  0.6614E-05  0.2477E-06  0.2477E-06
     -6.728  0.8552E-05  0.8552E-05  0.3238E-06  0.3238E-06
     -6.719  0.1102E-04  0.1102E-04  0.4218E-06  0.4218E-06
     -6.710  0.1415E-04  0.1415E-04  0.5478E-06  0.5478E-06
     -6.701  0.1811E-04  0.1811E-04  0.7089E-06  0.7089E-06
     -6.692  0.2309E-04  0.2309E-04  0.9143E-06  0.9143E-06
     -6.683  0.2934E-04  0.2934E-04  0.1175E-05  0.1175E-05
     -6.675  0.3715E-04  0.3715E-04  0.1506E-05  0.1506E-05
     -6.666  0.4689E-04  0.4689E-04  0.1923E-05  0.1923E-05
     -6.657  0.5898E-04  0.5898E-04  0.2448E-05  0.2448E-05
     -6.648  0.7393E-04  0.7393E-04  0.3106E-05  0.3106E-05
     -6.639  0.9236E-04  0.9236E-04  0.3928E-05  0.3928E-05
     -6.630  0.1150E-03  0.1150E-03  0.4951E-05  0.4951E-05
     -6.621  0.1427E-03  0.1427E-03  0.6221E-05  0.6221E-05
     -6.612  0.1765E-03  0.1765E-03  0.7791E-05  0.7791E-05
     -6.603  0.2175E-03  0.2175E-03  0.9727E-05  0.9727E-05
     -6.594  0.2672E-03  0.2672E-03  0.1210E-04  0.1210E-04
     -6.586  0.3271E-03  0.3271E-03  0.1502E-04  0.1502E-04
     -6.577  0.3992E-03  0.3992E-03  0.1857E-04  0.1857E-04
     -6.568  0.4856E-03  0.4856E-03  0.2289E-04  0.2289E-04
     -6.559  0.5887E-03  0.5887E-03  0.2813E-04  0.2813E-04
     -6.550  0.7114E-03  0.7114E-03  0.3446E-04  0.3446E-04
     -6.541  0.8569E-03  0.8569E-03  0.4208E-04  0.4208E-04
     -6.532  0.1029E-02  0.1029E-02  0.5124E-04  0.5124E-04
     -6.523  0.1231E-02  0.1231E-02  0.6219E-04  0.6219E-04
     -6.514  0.1468E-02  0.1468E-02  0.7526E-04  0.7526E-04
     -6.505  0.1746E-02  0.1746E-02  0.9080E-04  0.9080E-04
     -6.497  0.2069E-02  0.2069E-02  0.1092E-03  0.1092E-03
     -6.488  0.2445E-02  0.2445E-02  0.1310E-03  0.1310E-03
     -6.479  0.2879E-02  0.2879E-02  0.1566E-03  0.1566E-03
     -6.470  0.3379E-02  0.3379E-02  0.1867E-03  0.1867E-03
     -6.461  0.3955E-02  0.3955E-02  0.2218E-03  0.2218E-03
     -6.452  0.4613E-02  0.4613E-02  0.2629E-03  0.2629E-03
     -6.443  0.5365E-02  0.5365E-02  0.3106E-03  0.3106E-03
     -6.434  0.6219E-02  0.6219E-02  0.3660E-03  0.3660E-03
     -6.425  0.7187E-02  0.7187E-02  0.4299E-03  0.4299E-03
     -6.416  0.8280E-02  0.8280E-02  0.5036E-03  0.5036E-03
     -6.408  0.9509E-02  0.9509E-02  0.5882E-03  0.5882E-03
     -6.399  0.1089E-01  0.1089E-01  0.6851E-03  0.6851E-03
     -6.390  0.1243E-01  0.1243E-01  0.7957E-03  0.7957E-03
     -6.381  0.1414E-01  0.1414E-01  0.9216E-03  0.9216E-03
     -6.372  0.1605E-01  0.1605E-01  0.1064E-02  0.1064E-02
     -6.363  0.1815E-01  0.1815E-01  0.1226E-02  0.1226E-02
     -6.354  0.2046E-01  0.2046E-01  0.1408E-02  0.1408E-02
     -6.345  0.2301E-01  0.2301E-01  0.1613E-02  0.1613E-02
     -6.336  0.2579E-01  0.2579E-01  0.1842E-02  0.1842E-02
     -6.327  0.2882E-01  0.2882E-01  0.2099E-02  0.2099E-02
     -6.319  0.3211E-01  0.3211E-01  0.2384E-02  0.2384E-02
     -6.310  0.3567E-01  0.3567E-01  0.2702E-02  0.2702E-02
     -6.301  0.3952E-01  0.3952E-01  0.3054E-02  0.3054E-02
     -6.292  0.4364E-01  0.4364E-01  0.3442E-02  0.3442E-02
     -6.283  0.4806E-01  0.4806E-01  0.3870E-02  0.3870E-02
     -6.274  0.5278E-01  0.5278E-01  0.4339E-02  0.4339E-02
     -6.265  0.5779E-01  0.5779E-01  0.4854E-02  0.4854E-02
     -6.256  0.6309E-01  0.6309E-01  0.5415E-02  0.5415E-02
     -6.247  0.6869E-01  0.6869E-01  0.6026E-02  0.6026E-02
     -6.238  0.7458E-01  0.7458E-01  0.6690E-02  0.6690E-02
     -6.230  0.8075E-01  0.8075E-01  0.7409E-02  0.7409E-02
     -6.221  0.8719E-01  0.8719E-01  0.8185E-02  0.8185E-02
     -6.212  0.9390E-01  0.9390E-01  0.9020E-02  0.9020E-02
     -6.203  0.1008E+00  0.1008E+00  0.9917E-02  0.9917E-02
     -6.194  0.1080E+00  0.1080E+00  0.1088E-01  0.1088E-01
     -6.185  0.1154E+00  0.1154E+00  0.1191E-01  0.1191E-01
     -6.176  0.1230E+00  0.1230E+00  0.1300E-01  0.1300E-01
     -6.167  0.1307E+00  0.1307E+00  0.1416E-01  0.1416E-01
     -6.158  0.1387E+00  0.1387E+00  0.1540E-01  0.1540E-01
     -6.150  0.1467E+00  0.1467E+00  0.1670E-01  0.1670E-01
     -6.141  0.1548E+00  0.1548E+00  0.1808E-01  0.1808E-01
     -6.132  0.1630E+00  0.1630E+00  0.1953E-01  0.1953E-01
     -6.123  0.1713E+00  0.1713E+00  0.2106E-01  0.2106E-01
     -6.114  0.1797E+00  0.1797E+00  0.2265E-01  0.2265E-01
     -6.105  0.1880E+00  0.1880E+00  0.2433E-01  0.2433E-01
     -6.096  0.1964E+00  0.1964E+00  0.2608E-01  0.2608E-01
     -6.087  0.2047E+00  0.2047E+00  0.2790E-01  0.2790E-01
     -6.078  0.2130E+00  0.2130E+00  0.2979E-01  0.2979E-01
     -6.069  0.2213E+00  0.2213E+00  0.3176E-01  0.3176E-01
     -6.061  0.2296E+00  0.2296E+00  0.3381E-01  0.3381E-01
     -6.052  0.2378E+00  0.2378E+00  0.3592E-01  0.3592E-01
     -6.043  0.2460E+00  0.2460E+00  0.3811E-01  0.3811E-01
     -6.034  0.2541E+00  0.2541E+00  0.4037E-01  0.4037E-01
     -6.025  0.2622E+00  0.2622E+00  0.4270E-01  0.4270E-01
     -6.016  0.2703E+00  0.2703E+00  0.4511E-01  0.4511E-01
     -6.007  0.2783E+00  0.2783E+00  0.4759E-01  0.4759E-01
     -5.998  0.2864E+00  0.2864E+00  0.5014E-01  0.5014E-01
     -5.989  0.2944E+00  0.2944E+00  0.5276E-01  0.5276E-01
     -5.980  0.3025E+00  0.3025E+00  0.5545E-01  0.5545E-01
     -5.972  0.3106E+00  0.3106E+00  0.5821E-01  0.5821E-01
     -5.963  0.3188E+00  0.3188E+00  0.6105E-01  0.6105E-01
     -5.954  0.3270E+00  0.3270E+00  0.6396E-01  0.6396E-01
     -5.945  0.3353E+00  0.3353E+00  0.6694E-01  0.6694E-01
     -5.936  0.3437E+00  0.3437E+00  0.7000E-01  0.7000E-01
     -5.927  0.3521E+00  0.3521E+00  0.7313E-01  0.7313E-01
     -5.918  0.3606E+00  0.3606E+00  0.7634E-01  0.7634E-01
     -5.909  0.3691E+00  0.3691E+00  0.7963E-01  0.7963E-01
     -5.900  0.3777E+00  0.3777E+00  0.8299E-01  0.8299E-01
     -5.891  0.3863E+00  0.3863E+00  0.8643E-01  0.8643E-01
     -5.883  0.3950E+00  0.3950E+00  0.8994E-01  0.8994E-01
     -5.874  0.4036E+00  0.4036E+00  0.9353E-01  0.9353E-01
     -5.865  0.4122E+00  0.4122E+00  0.9720E-01  0.9720E-01
     -5.856  0.4206E+00  0.4206E+00  0.1009E+00  0.1009E+00
     -5.847  0.4290E+00  0.4290E+00  0.1048E+00  0.1048E+00
     -5.838  0.4372E+00  0.4372E+00  0.1087E+00  0.1087E+00
     -5.829  0.4452E+00  0.4452E+00  0.1126E+00  0.1126E+00
     -5.820  0.4529E+00  0.4529E+00  0.1166E+00  0.1166E+00
     -5.811  0.4603E+00  0.4603E+00  0.1207E+00  0.1207E+00
     -5.802  0.4674E+00  0.4674E+00  0.1249E+00  0.1249E+00
     -5.794  0.4741E+00  0.4741E+00  0.1291E+00  0.1291E+00
     -5.785  0.4803E+00  0.4803E+00  0.1334E+00  0.1334E+00
     -5.776  0.4862E+00  0.4862E+00  0.1377E+00  0.1377E+00
     -5.767  0.4915E+00  0.4915E+00  0.1421E+00  0.1421E+00
     -5.758  0.4964E+00  0.4964E+00  0.1465E+00  0.1465E+00
     -5.749  0.5008E+00  0.5008E+00  0.1510E+00  0.1510E+00
     -5.740  0.5047E+00  0.5047E+00  0.1555E+00  0.1555E+00
     -5.731  0.5081E+00  0.5081E+00  0.1600E+00  0.1600E+00
     -5.722  0.5110E+00  0.5110E+00  0.1645E+00  0.1645E+00
     -5.713  0.5135E+00  0.5135E+00  0.1691E+00  0.1691E+00
     -5.705  0.5157E+00  0.5157E+00  0.1737E+00  0.1737E+00
     -5.696  0.5175E+00  0.5175E+00  0.1783E+00  0.1783E+00
     -5.687  0.5190E+00  0.5190E+00  0.1829E+00  0.1829E+00
     -5.678  0.5202E+00  0.5202E+00  0.1875E+00  0.1875E+00
     -5.669  0.5214E+00  0.5214E+00  0.1922E+00  0.1922E+00
     -5.660  0.5224E+00  0.5224E+00  0.1968E+00  0.1968E+00
     -5.651  0.5234E+00  0.5234E+00  0.2015E+00  0.2015E+00
     -5.642  0.5246E+00  0.5246E+00  0.2062E+00  0.2062E+00
     -5.633  0.5259E+00  0.5259E+00  0.2108E+00  0.2108E+00
     -5.624  0.5274E+00  0.5274E+00  0.2155E+00  0.2155E+00
     -5.616  0.5292E+00  0.5292E+00  0.2202E+00  0.2202E+00
     -5.607  0.5314E+00  0.5314E+00  0.2250E+00  0.2250E+00
     -5.598  0.5340E+00  0.5340E+00  0.2297E+00  0.2297E+00
     -5.589  0.5371E+00  0.5371E+00  0.2345E+00  0.2345E+00
     -5.580  0.5408E+00  0.5408E+00  0.2393E+00  0.2393E+00
     -5.571  0.5450E+00  0.5450E+00  0.2442E+00  0.2442E+00
     -5.562  0.5498E+00  0.5498E+00  0.2490E+00  0.2490E+00
     -5.553  0.5551E+00  0.5551E+00  0.2540E+00  0.2540E+00
     -5.544  0.5611E+00  0.5611E+00  0.2590E+00  0.2590E+00
     -5.535  0.5676E+00  0.5676E+00  0.2640E+00  0.2640E+00
     -5.527  0.5747E+00  0.5747E+00  0.2691E+00  0.2691E+00
     -5.518  0.5823E+00  0.5823E+00  0.2743E+00  0.2743E+00
     -5.509  0.5904E+00  0.5904E+00  0.2796E+00  0.2796E+00
     -5.500  0.5989E+00  0.5989E+00  0.2849E+00  0.2849E+00
     -5.491  0.6077E+00  0.6077E+00  0.2903E+00  0.2903E+00
     -5.482  0.6168E+00  0.6168E+00  0.2958E+00  0.2958E+00
     -5.473  0.6261E+00  0.6261E+00  0.3014E+00  0.3014E+00
     -5.464  0.6355E+00  0.6355E+00  0.3070E+00  0.3070E+00
     -5.455  0.6449E+00  0.6449E+00  0.3128E+00  0.3128E+00
     -5.446  0.6544E+00  0.6544E+00  0.3186E+00  0.3186E+00
     -5.438  0.6637E+00  0.6637E+00  0.3245E+00  0.3245E+00
     -5.429  0.6728E+00  0.6728E+00  0.3305E+00  0.3305E+00
     -5.420  0.6817E+00  0.6817E+00  0.3366E+00  0.3366E+00
     -5.411  0.6903E+00  0.6903E+00  0.3427E+00  0.3427E+00
     -5.402  0.6985E+00  0.6985E+00  0.3489E+00  0.3489E+00
     -5.393  0.7063E+00  0.7063E+00  0.3552E+00  0.3552E+00
     -5.384  0.7136E+00  0.7136E+00  0.3616E+00  0.3616E+00
     -5.375  0.7205E+00  0.7205E+00  0.3680E+00  0.3680E+00
     -5.366  0.7269E+00  0.7269E+00  0.3744E+00  0.3744E+00
     -5.358  0.7328E+00  0.7328E+00  0.3810E+00  0.3810E+00
     -5.349  0.7382E+00  0.7382E+00  0.3875E+00  0.3875E+00
     -5.340  0.7431E+00  0.7431E+00  0.3941E+00  0.3941E+00
     -5.331  0.7475E+00  0.7475E+00  0.4008E+00  0.4008E+00
     -5.322  0.7515E+00  0.7515E+00  0.4075E+00  0.4075E+00
     -5.313  0.7551E+00  0.7551E+00  0.4142E+00  0.4142E+00
     -5.304  0.7583E+00  0.7583E+00  0.4209E+00  0.4209E+00
     -5.295  0.7613E+00  0.7613E+00  0.4277E+00  0.4277E+00
     -5.286  0.7639E+00  0.7639E+00  0.4345E+00  0.4345E+00
     -5.277  0.7664E+00  0.7664E+00  0.4413E+00  0.4413E+00
     -5.269  0.7687E+00  0.7687E+00  0.4482E+00  0.4482E+00
     -5.260  0.7708E+00  0.7708E+00  0.4550E+00  0.4550E+00
     -5.251  0.7729E+00  0.7729E+00  0.4619E+00  0.4619E+00
     -5.242  0.7750E+00  0.7750E+00  0.4688E+00  0.4688E+00
     -5.233  0.7770E+00  0.7770E+00  0.4757E+00  0.4757E+00
     -5.224  0.7791E+00  0.7791E+00  0.4827E+00  0.4827E+00
     -5.215  0.7812E+00  0.7812E+00  0.4896E+00  0.4896E+00
     -5.206  0.7834E+00  0.7834E+00  0.4966E+00  0.4966E+00
     -5.197  0.7856E+00  0.7856E+00  0.5036E+00  0.5036E+00
     -5.188  0.7878E+00  0.7878E+00  0.5106E+00  0.5106E+00
     -5.180  0.7901E+00  0.7901E+00  0.5176E+00  0.5176E+00
     -5.171  0.7924E+00  0.7924E+00  0.5247E+00  0.5247E+00
     -5.162  0.7947E+00  0.7947E+00  0.5317E+00  0.5317E+00
     -5.153  0.7969E+00  0.7969E+00  0.5388E+00  0.5388E+00
     -5.144  0.7990E+00  0.7990E+00  0.5459E+00  0.5459E+00
     -5.135  0.8010E+00  0.8010E+00  0.5531E+00  0.5531E+00
     -5.126  0.8029E+00  0.8029E+00  0.5602E+00  0.5602E+00
     -5.117  0.8045E+00  0.8045E+00  0.5674E+00  0.5674E+00
     -5.108  0.8058E+00  0.8058E+00  0.5745E+00  0.5745E+00
     -5.099  0.8069E+00  0.8069E+00  0.5817E+00  0.5817E+00
     -5.091  0.8076E+00  0.8076E+00  0.5889E+00  0.5889E+00
     -5.082  0.8081E+00  0.8081E+00  0.5961E+00  0.5961E+00
     -5.073  0.8081E+00  0.8081E+00  0.6033E+00  0.6033E+00
     -5.064  0.8079E+00  0.8079E+00  0.6105E+00  0.6105E+00
     -5.055  0.8073E+00  0.8073E+00  0.6177E+00  0.6177E+00
     -5.046  0.8065E+00  0.8065E+00  0.6248E+00  0.6248E+00
     -5.037  0.8054E+00  0.8054E+00  0.6320E+00  0.6320E+00
     -5.028  0.8041E+00  0.8041E+00  0.6392E+00  0.6392E+00
     -5.019  0.8028E+00  0.8028E+00  0.6463E+00  0.6463E+00
     -5.010  0.8013E+00  0.8013E+00  0.6534E+00  0.6534E+00
     -5.002  0.7999E+00  0.7999E+00  0.6606E+00  0.6606E+00
     -4.993  0.7987E+00  0.7987E+00  0.6677E+00  0.6677E+00
     -4.984  0.7977E+00  0.7977E+00  0.6748E+00  0.6748E+00
     -4.975  0.7970E+00  0.7970E+00  0.6819E+00  0.6819E+00
     -4.966  0.7969E+00  0.7969E+00  0.6889E+00  0.6889E+00
     -4.957  0.7972E+00  0.7972E+00  0.6960E+00  0.6960E+00
     -4.948  0.7983E+00  0.7983E+00  0.7031E+00  0.7031E+00
     -4.939  0.8001E+00  0.8001E+00  0.7103E+00  0.7103E+00
     -4.930  0.8027E+00  0.8027E+00  0.7174E+00  0.7174E+00
     -4.921  0.8063E+00  0.8063E+00  0.7246E+00  0.7246E+00
     -4.913  0.8109E+00  0.8109E+00  0.7318E+00  0.7318E+00
     -4.904  0.8165E+00  0.8165E+00  0.7391E+00  0.7391E+00
     -4.895  0.8231E+00  0.8231E+00  0.7464E+00  0.7464E+00
     -4.886  0.8308E+00  0.8308E+00  0.7538E+00  0.7538E+00
     -4.877  0.8396E+00  0.8396E+00  0.7613E+00  0.7613E+00
     -4.868  0.8494E+00  0.8494E+00  0.7688E+00  0.7688E+00
     -4.859  0.8602E+00  0.8602E+00  0.7765E+00  0.7765E+00
     -4.850  0.8720E+00  0.8720E+00  0.7842E+00  0.7842E+00
     -4.841  0.8846E+00  0.8846E+00  0.7921E+00  0.7921E+00
     -4.832  0.8980E+00  0.8980E+00  0.8001E+00  0.8001E+00
     -4.824  0.9121E+00  0.9121E+00  0.8082E+00  0.8082E+00
     -4.815  0.9268E+00  0.9268E+00  0.8165E+00  0.8165E+00
     -4.806  0.9419E+00  0.9419E+00  0.8248E+00  0.8248E+00
     -4.797  0.9573E+00  0.9573E+00  0.8334E+00  0.8334E+00
     -4.788  0.9730E+00  0.9730E+00  0.8420E+00  0.8420E+00
     -4.779  0.9887E+00  0.9887E+00  0.8508E+00  0.8508E+00
     -4.770  0.1004E+01  0.1004E+01  0.8598E+00  0.8598E+00
     -4.761  0.1020E+01  0.1020E+01  0.8688E+00  0.8688E+00
     -4.752  0.1035E+01  0.1035E+01  0.8780E+00  0.8780E+00
     -4.743  0.1050E+01  0.1050E+01  0.8874E+00  0.8874E+00
     -4.735  0.1065E+01  0.1065E+01  0.8969E+00  0.8969E+00
     -4.726  0.1079E+01  0.1079E+01  0.9065E+00  0.9065E+00
     -4.717  0.1092E+01  0.1092E+01  0.9162E+00  0.9162E+00
     -4.708  0.1105E+01  0.1105E+01  0.9260E+00  0.9260E+00
     -4.699  0.1117E+01  0.1117E+01  0.9360E+00  0.9360E+00
     -4.690  0.1128E+01  0.1128E+01  0.9460E+00  0.9460E+00
     -4.681  0.1139E+01  0.1139E+01  0.9561E+00  0.9561E+00
     -4.672  0.1149E+01  0.1149E+01  0.9664E+00  0.9664E+00
     -4.663  0.1158E+01  0.1158E+01  0.9767E+00  0.9767E+00
     -4.654  0.1166E+01  0.1166E+01  0.9870E+00  0.9870E+00
     -4.646  0.1173E+01  0.1173E+01  0.9975E+00  0.9975E+00
     -4.637  0.1179E+01  0.1179E+01  0.1008E+01  0.1008E+01
     -4.628  0.1185E+01  0.1185E+01  0.1019E+01  0.1019E+01
     -4.619  0.1190E+01  0.1190E+01  0.1029E+01  0.1029E+01
     -4.610  0.1194E+01  0.1194E+01  0.1040E+01  0.1040E+01
     -4.601  0.1197E+01  0.1197E+01  0.1050E+01  0.1050E+01
     -4.592  0.1199E+01  0.1199E+01  0.1061E+01  0.1061E+01
     -4.583  0.1200E+01  0.1200E+01  0.1072E+01  0.1072E+01
     -4.574  0.1201E+01  0.1201E+01  0.1082E+01  0.1082E+01
     -4.566  0.1200E+01  0.1200E+01  0.1093E+01  0.1093E+01
     -4.557  0.1199E+01  0.1199E+01  0.1104E+01  0.1104E+01
     -4.548  0.1197E+01  0.1197E+01  0.1114E+01  0.1114E+01
     -4.539  0.1194E+01  0.1194E+01  0.1125E+01  0.1125E+01
     -4.530  0.1190E+01  0.1190E+01  0.1136E+01  0.1136E+01
     -4.521  0.1186E+01  0.1186E+01  0.1146E+01  0.1146E+01
     -4.512  0.1180E+01  0.1180E+01  0.1157E+01  0.1157E+01
     -4.503  0.1174E+01  0.1174E+01  0.1167E+01  0.1167E+01
     -4.494  0.1167E+01  0.1167E+01  0.1178E+01  0.1178E+01
     -4.485  0.1159E+01  0.1159E+01  0.1188E+01  0.1188E+01
     -4.477  0.1151E+01  0.1151E+01  0.1198E+01  0.1198E+01
     -4.468  0.1142E+01  0.1142E+01  0.1208E+01  0.1208E+01
     -4.459  0.1132E+01  0.1132E+01  0.1218E+01  0.1218E+01
     -4.450  0.1123E+01  0.1123E+01  0.1228E+01  0.1228E+01
     -4.441  0.1113E+01  0.1113E+01  0.1238E+01  0.1238E+01
     -4.432  0.1103E+01  0.1103E+01  0.1248E+01  0.1248E+01
     -4.423  0.1093E+01  0.1093E+01  0.1258E+01  0.1258E+01
     -4.414  0.1084E+01  0.1084E+01  0.1267E+01  0.1267E+01
     -4.405  0.1075E+01  0.1075E+01  0.1277E+01  0.1277E+01
     -4.396  0.1066E+01  0.1066E+01  0.1286E+01  0.1286E+01
     -4.388  0.1059E+01  0.1059E+01  0.1296E+01  0.1296E+01
     -4.379  0.1052E+01  0.1052E+01  0.1305E+01  0.1305E+01
     -4.370  0.1047E+01  0.1047E+01  0.1315E+01  0.1315E+01
     -4.361  0.1042E+01  0.1042E+01  0.1324E+01  0.1324E+01
     -4.352  0.1040E+01  0.1040E+01  0.1333E+01  0.1333E+01
     -4.343  0.1039E+01  0.1039E+01  0.1342E+01  0.1342E+01
     -4.334  0.1039E+01  0.1039E+01  0.1352E+01  0.1352E+01
     -4.325  0.1042E+01  0.1042E+01  0.1361E+01  0.1361E+01
     -4.316  0.1046E+01  0.1046E+01  0.1370E+01  0.1370E+01
     -4.307  0.1052E+01  0.1052E+01  0.1380E+01  0.1380E+01
     -4.299  0.1061E+01  0.1061E+01  0.1389E+01  0.1389E+01
     -4.290  0.1071E+01  0.1071E+01  0.1398E+01  0.1398E+01
     -4.281  0.1084E+01  0.1084E+01  0.1408E+01  0.1408E+01
     -4.272  0.1098E+01  0.1098E+01  0.1418E+01  0.1418E+01
     -4.263  0.1114E+01  0.1114E+01  0.1428E+01  0.1428E+01
     -4.254  0.1132E+01  0.1132E+01  0.1438E+01  0.1438E+01
     -4.245  0.1152E+01  0.1152E+01  0.1448E+01  0.1448E+01
     -4.236  0.1173E+01  0.1173E+01  0.1459E+01  0.1459E+01
     -4.227  0.1196E+01  0.1196E+01  0.1469E+01  0.1469E+01
     -4.218  0.1220E+01  0.1220E+01  0.1480E+01  0.1480E+01
     -4.210  0.1245E+01  0.1245E+01  0.1491E+01  0.1491E+01
     -4.201  0.1270E+01  0.1270E+01  0.1502E+01  0.1502E+01
     -4.192  0.1297E+01  0.1297E+01  0.1514E+01  0.1514E+01
     -4.183  0.1324E+01  0.1324E+01  0.1526E+01  0.1526E+01
     -4.174  0.1351E+01  0.1351E+01  0.1538E+01  0.1538E+01
     -4.165  0.1378E+01  0.1378E+01  0.1550E+01  0.1550E+01
     -4.156  0.1404E+01  0.1404E+01  0.1563E+01  0.1563E+01
     -4.147  0.1431E+01  0.1431E+01  0.1575E+01  0.1575E+01
     -4.138  0.1457E+01  0.1457E+01  0.1588E+01  0.1588E+01
     -4.129  0.1482E+01  0.1482E+01  0.1601E+01  0.1601E+01
     -4.121  0.1506E+01  0.1506E+01  0.1615E+01  0.1615E+01
     -4.112  0.1529E+01  0.1529E+01  0.1628E+01  0.1628E+01
     -4.103  0.1551E+01  0.1551E+01  0.1642E+01  0.1642E+01
     -4.094  0.1571E+01  0.1571E+01  0.1656E+01  0.1656E+01
     -4.085  0.1591E+01  0.1591E+01  0.1670E+01  0.1670E+01
     -4.076  0.1609E+01  0.1609E+01  0.1685E+01  0.1685E+01
     -4.067  0.1625E+01  0.1625E+01  0.1699E+01  0.1699E+01
     -4.058  0.1640E+01  0.1640E+01  0.1714E+01  0.1714E+01
     -4.049  0.1653E+01  0.1653E+01  0.1728E+01  0.1728E+01
     -4.040  0.1666E+01  0.1666E+01  0.1743E+01  0.1743E+01
     -4.032  0.1676E+01  0.1676E+01  0.1758E+01  0.1758E+01
     -4.023  0.1686E+01  0.1686E+01  0.1773E+01  0.1773E+01
     -4.014  0.1694E+01  0.1694E+01  0.1788E+01  0.1788E+01
     -4.005  0.1701E+01  0.1701E+01  0.1803E+01  0.1803E+01
     -3.996  0.1708E+01  0.1708E+01  0.1819E+01  0.1819E+01
     -3.987  0.1713E+01  0.1713E+01  0.1834E+01  0.1834E+01
     -3.978  0.1718E+01  0.1718E+01  0.1849E+01  0.1849E+01
     -3.969  0.1722E+01  0.1722E+01  0.1864E+01  0.1864E+01
     -3.960  0.1726E+01  0.1726E+01  0.1880E+01  0.1880E+01
     -3.951  0.1729E+01  0.1729E+01  0.1895E+01  0.1895E+01
     -3.943  0.1733E+01  0.1733E+01  0.1911E+01  0.1911E+01
     -3.934  0.1736E+01  0.1736E+01  0.1926E+01  0.1926E+01
     -3.925  0.1739E+01  0.1739E+01  0.1942E+01  0.1942E+01
     -3.916  0.1743E+01  0.1743E+01  0.1957E+01  0.1957E+01
     -3.907  0.1747E+01  0.1747E+01  0.1973E+01  0.1973E+01
     -3.898  0.1751E+01  0.1751E+01  0.1988E+01  0.1988E+01
     -3.889  0.1756E+01  0.1756E+01  0.2004E+01  0.2004E+01
     -3.880  0.1761E+01  0.1761E+01  0.2020E+01  0.2020E+01
     -3.871  0.1766E+01  0.1766E+01  0.2035E+01  0.2035E+01
     -3.862  0.1772E+01  0.1772E+01  0.2051E+01  0.2051E+01
     -3.854  0.1778E+01  0.1778E+01  0.2067E+01  0.2067E+01
     -3.845  0.1785E+01  0.1785E+01  0.2083E+01  0.2083E+01
     -3.836  0.1792E+01  0.1792E+01  0.2099E+01  0.2099E+01
     -3.827  0.1799E+01  0.1799E+01  0.2115E+01  0.2115E+01
     -3.818  0.1806E+01  0.1806E+01  0.2131E+01  0.2131E+01
     -3.809  0.1814E+01  0.1814E+01  0.2147E+01  0.2147E+01