    8    8    1    2
  0.2072481E+02  0.5493640E-09  0.5493640E-09  0.5493640E-09  0.1500000E-16
   1.0000000000000000E-004
  CAR 
 unknown system                          
     32     20     96

  0.3742002E-15  0.3742002E-15  0.3742002E-15  0.2915452E-02
    1       -6.191978     -6.191978   1.000000   1.000000
    2       -2.206485     -2.206485   1.000000   1.000000
    3       -2.194699     -2.194699   1.000000   1.000000
    4       -2.182853     -2.182853   1.000000   1.000000
    5       -2.182838     -2.182838   1.000000   1.000000
    6       -2.171124     -2.171124   1.000000   1.000000
    7       -2.159150     -2.159150   1.000000   1.000000
    8        2.724955      2.724955   1.000000   1.000000
    9        2.734399      2.734399   1.000000   1.000000
   10        2.735709      2.735709   1.000000   1.000000
   11        2.735855      2.735855   1.000000   1.000000
   12        2.736992      2.736992   1.000000   1.000000
   13        2.746457      2.746457   1.000000   1.000000
   14        5.441073      5.441073   0.994742   0.994742
   15        5.458765      5.458765   0.992519   0.992519
   16        5.476655      5.476655   0.989467   0.989467
   17        6.289359      6.289359   0.000291   0.000291
   18        6.295382      6.295382   0.000248   0.000248
   19        6.306542      6.306542   0.000184   0.000184
   20        6.306609      6.306608   0.000184   0.000184
   21        6.317574      6.317574   0.000137   0.000137
   22        6.323584      6.323584   0.000116   0.000116
   23        8.063255      8.063255   0.000000   0.000000
   24        8.074197      8.074197   0.000000   0.000000
   25        8.085017      8.085017   0.000000   0.000000
   26        8.529766      8.529766   0.000000   0.000000
   27       13.213786     13.213786   0.000000   0.000000
   28       13.213943     13.213943   0.000000   0.000000
   29       13.348347     13.348347   0.000000   0.000000
   30       15.312800     15.312800   0.000000   0.000000
   31       15.326472     15.326472   0.000000   0.000000
   32       15.330568     15.330568   0.000000   0.000000
   33       15.331199     15.331199   0.000000   0.000000
   34       15.334252     15.334252   0.000000   0.000000
   35       15.348187     15.348187   0.000000   0.000000
   36       16.272186     16.272186   0.000000   0.000000
   37       16.293917     16.293917   0.000000   0.000000
   38       16.295976     16.295976   0.000000   0.000000
   39       16.296494     16.296494   0.000000   0.000000
   40       16.298885     16.298885   0.000000   0.000000
   41       16.320687     16.320687   0.000000   0.000000
   42       16.643698     16.643698   0.000000   0.000000
   43       16.655189     16.655189   0.000000   0.000000
   44       16.668586     16.668586   0.000000   0.000000
   45       17.880855     17.880855   0.000000   0.000000
   46       17.900153     17.900153   0.000000   0.000000
   47       17.900615     17.900615   0.000000   0.000000
   48       17.902449     17.902449   0.000000   0.000000
   49       17.904627     17.904627   0.000000   0.000000
   50       17.924329     17.924329   0.000000   0.000000
   51       18.092712     18.092712   0.000000   0.000000
   52       18.121986     18.121986   0.000000   0.000000
   53       18.122188     18.122188   0.000000   0.000000
   54       18.122277     18.122277   0.000000   0.000000
   55       18.123205     18.123204   0.000000   0.000000
   56       18.154748     18.154748   0.000000   0.000000
   57       20.750600     20.750600   0.000000   0.000000
   58       24.088103     24.088103   0.000000   0.000000
   59       24.093894     24.093894   0.000000   0.000000
   60       24.100595     24.100595   0.000000   0.000000
   61       24.100706     24.100706   0.000000   0.000000
   62       24.107433     24.107433   0.000000   0.000000
   63       24.113131     24.113131   0.000000   0.000000
   64       24.951081     24.951081   0.000000   0.000000
   65       24.966333     24.966333   0.000000   0.000000
   66       24.967363     24.967363   0.000000   0.000000
   67       24.967651     24.967650   0.000000   0.000000
   68       24.968902     24.968902   0.000000   0.000000
   69       24.981894     24.981894   0.000000   0.000000
   70       25.334327     25.334327   0.000000   0.000000
   71       25.355999     25.355999   0.000000   0.000000
   72       25.358988     25.358988   0.000000   0.000000
   73       25.359619     25.359619   0.000000   0.000000
   74       25.362120     25.362120   0.000000   0.000000
   75       25.384494     25.384494   0.000000   0.000000
   76       26.523865     26.523865   0.000000   0.000000
   77       26.538055     26.538055   0.000000   0.000000
   78       26.539911     26.539911   0.000000   0.000000
   79       26.539930     26.539930   0.000000   0.000000
   80       26.542023     26.542023   0.000000   0.000000
   81       26.554891     26.554891   0.000000   0.000000
   82       28.155384     28.155384   0.000000   0.000000
   83       28.165926     28.165926   0.000000   0.000000
   84       28.177445     28.177445   0.000000   0.000000
   85       29.268407     29.268407   0.000000   0.000000
   86       29.268747     29.268747   0.000000   0.000000
   87       30.427818     30.427818   0.000000   0.000000
   88       30.453112     30.453112   0.000000   0.000000
   89       30.457319     30.457319   0.000000   0.000000
   90       30.463007     30.463007   0.000000   0.000000
   91       30.463069     30.463069   0.000000   0.000000
   92       30.472306     30.472306   0.000000   0.000000
   93       30.478481     30.478481   0.000000   0.000000
   94       30.487799     30.487800   0.000000   0.000000
   95       30.502216     30.502216   0.000000   0.000000
   96       34.222241     34.222158   0.000000   0.000000

  0.1428571E+00  0.3742002E-15  0.3742002E-15  0.1749271E-01
    1       -6.105512     -6.105512   1.000000   1.000000
    2       -3.195981     -3.195981   1.000000   1.000000
    3       -2.168953     -2.168953   1.000000   1.000000
    4       -2.156975     -2.156975   1.000000   1.000000
    5       -2.156860     -2.156860   1.000000   1.000000
    6       -2.144915     -2.144915   1.000000   1.000000
    7       -1.067031     -1.067031   1.000000   1.000000
    8        2.513405      2.513405   1.000000   1.000000
    9        2.516965      2.516965   1.000000   1.000000
   10        2.517096      2.517096   1.000000   1.000000
   11        2.520524      2.520524   1.000000   1.000000
   12        2.807026      2.807026   1.000000   1.000000
   13        2.820017      2.820017   1.000000   1.000000
   14        4.917779      4.917779   1.000000   1.000000
   15        5.136401      5.136401   0.999999   0.999999
   16        5.165560      5.165560   0.999997   0.999997
   17        6.164526      6.164526   0.005276   0.005276
   18        6.682821      6.682821   0.000000   0.000000
   19        6.731172      6.731172   0.000000   0.000000
   20        6.746269      6.746269   0.000000   0.000000
   21        6.746414      6.746414   0.000000   0.000000
   22        6.761479      6.761479   0.000000   0.000000
   23        7.874545      7.874545   0.000000   0.000000
   24        8.480632      8.480632   0.000000   0.000000
   25        8.495963      8.495963   0.000000   0.000000
   26        9.043904      9.043904   0.000000   0.000000
   27       12.626967     12.626967   0.000000   0.000000
   28       13.310215     13.310215   0.000000   0.000000
   29       13.720210     13.720210   0.000000   0.000000
   30       14.332645     14.332645   0.000000   0.000000
   31       14.335273     14.335273   0.000000   0.000000
   32       14.477272     14.477272   0.000000   0.000000
   33       14.489273     14.489273   0.000000   0.000000
   34       14.489665     14.489665   0.000000   0.000000
   35       14.502093     14.502093   0.000000   0.000000
   36       15.881074     15.881074   0.000000   0.000000
   37       15.902130     15.902130   0.000000   0.000000
   38       15.902394     15.902394   0.000000   0.000000
   39       15.923406     15.923405   0.000000   0.000000
   40       16.667422     16.667422   0.000000   0.000000
   41       16.794440     16.794440   0.000000   0.000000
   42       16.819550     16.819549   0.000000   0.000000
   43       16.872197     16.872197   0.000000   0.000000
   44       17.063450     17.063450   0.000000   0.000000
   45       17.315268     17.315268   0.000000   0.000000
   46       17.318953     17.318953   0.000000   0.000000
   47       18.029330     18.029330   0.000000   0.000000
   48       18.037055     18.037056   0.000000   0.000000
   49       18.037533     18.037534   0.000000   0.000000
   50       18.045372     18.045372   0.000000   0.000000
   51       18.911850     18.911850   0.000000   0.000000
   52       19.301024     19.301024   0.000000   0.000000
   53       19.304029     19.304029   0.000000   0.000000
   54       19.304531     19.304531   0.000000   0.000000
   55       19.306905     19.306905   0.000000   0.000000
   56       19.317115     19.317115   0.000000   0.000000
   57       21.363256     21.363256   0.000000   0.000000
   58       22.492576     22.492576   0.000000   0.000000
   59       23.210709     23.210709   0.000000   0.000000
   60       23.225057     23.225057   0.000000   0.000000
   61       23.308425     23.308425   0.000000   0.000000
   62       23.314330     23.314330   0.000000   0.000000
   63       23.314382     23.314382   0.000000   0.000000
   64       23.320270     23.320270   0.000000   0.000000
   65       24.114230     24.114230   0.000000   0.000000
   66       24.635956     24.635955   0.000000   0.000000
   67       24.650570     24.650570   0.000000   0.000000
   68       24.650825     24.650825   0.000000   0.000000
   69       24.664722     24.664722   0.000000   0.000000
   70       26.177869     26.177869   0.000000   0.000000
   71       26.179949     26.179949   0.000000   0.000000
   72       26.180185     26.180185   0.000000   0.000000
   73       26.181915     26.181915   0.000000   0.000000
   74       27.037499     27.037499   0.000000   0.000000
   75       27.040798     27.040798   0.000000   0.000000
   76       27.051558     27.051558   0.000000   0.000000
   77       27.223986     27.223986   0.000000   0.000000
   78       27.230446     27.230446   0.000000   0.000000
   79       27.230780     27.230780   0.000000   0.000000
   80       27.235945     27.235945   0.000000   0.000000
   81       27.377318     27.377318   0.000000   0.000000
   82       27.399453     27.399453   0.000000   0.000000
   83       28.278033     28.278033   0.000000   0.000000
   84       28.315131     28.315131   0.000000   0.000000
   85       28.396173     28.396173   0.000000   0.000000
   86       28.541417     28.541417   0.000000   0.000000
   87       29.584135     29.584135   0.000000   0.000000
   88       29.714212     29.714212   0.000000   0.000000
   89       29.718380     29.718380   0.000000   0.000000
   90       29.719204     29.719204   0.000000   0.000000
   91       29.723325     29.723325   0.000000   0.000000
   92       30.955188     30.955188   0.000000   0.000000
   93       31.134047     31.134047   0.000000   0.000000
   94       31.134697     31.134697   0.000000   0.000000
   95       31.395205     31.395205   0.000000   0.000000
   96       34.122016     34.122017   0.000000   0.000000

  0.2857143E+00  0.3742002E-15  0.3742002E-15  0.1749271E-01
    1       -5.847074     -5.847074   1.000000   1.000000
    2       -4.083586     -4.083586   1.000000   1.000000
    3       -2.108093     -2.108093   1.000000   1.000000
    4       -2.095539     -2.095539   1.000000   1.000000
    5       -2.095419     -2.095419   1.000000   1.000000
    6       -2.082893     -2.082893   1.000000   1.000000
    7        0.123010      0.123010   1.000000   1.000000
    8        2.112400      2.112400   1.000000   1.000000
    9        2.112863      2.112863   1.000000   1.000000
   10        2.112978      2.112978   1.000000   1.000000
   11        2.113389      2.113389   1.000000   1.000000
   12        3.038205      3.038205   1.000000   1.000000
   13        3.051927      3.051927   1.000000   1.000000
   14        3.827107      3.827107   1.000000   1.000000
   15        4.532679      4.532679   1.000000   1.000000
   16        4.554458      4.554458   1.000000   1.000000
   17        6.237585      6.237585   0.001057   0.001057
   18        7.304236      7.304236   0.000000   0.000000
   19        7.416981      7.416981   0.000000   0.000000
   20        7.810346      7.810346   0.000000   0.000000
   21        7.822832      7.822832   0.000000   0.000000
   22        7.822918      7.822918   0.000000   0.000000
   23        7.835190      7.835190   0.000000   0.000000
   24        9.407070      9.407070   0.000000   0.000000
   25        9.415044      9.415044   0.000000   0.000000
   26        9.715233      9.715233   0.000000   0.000000
   27       11.894524     11.894524   0.000000   0.000000
   28       12.729512     12.729512   0.000000   0.000000
   29       12.739225     12.739225   0.000000   0.000000
   30       12.739645     12.739645   0.000000   0.000000
   31       12.748970     12.748970   0.000000   0.000000
   32       13.027974     13.027974   0.000000   0.000000
   33       13.029535     13.029534   0.000000   0.000000
   34       13.599689     13.599689   0.000000   0.000000
   35       14.688207     14.688206   0.000000   0.000000
   36       15.446174     15.446174   0.000000   0.000000
   37       15.617104     15.617104   0.000000   0.000000
   38       15.820129     15.820129   0.000000   0.000000
   39       15.838475     15.838475   0.000000   0.000000
   40       15.838562     15.838562   0.000000   0.000000
   41       15.856675     15.856675   0.000000   0.000000
   42       17.243334     17.243334   0.000000   0.000000
   43       17.268958     17.268958   0.000000   0.000000
   44       17.786290     17.786290   0.000000   0.000000
   45       18.136207     18.136207   0.000000   0.000000
   46       18.145197     18.145197   0.000000   0.000000
   47       18.145941     18.145941   0.000000   0.000000
   48       18.153853     18.153853   0.000000   0.000000
   49       18.514678     18.514678   0.000000   0.000000
   50       18.527457     18.527457   0.000000   0.000000
   51       18.655407     18.655407   0.000000   0.000000
   52       20.903289     20.903289   0.000000   0.000000
   53       20.932239     20.932239   0.000000   0.000000
   54       21.176210     21.176210   0.000000   0.000000
   55       21.176984     21.176984   0.000000   0.000000
   56       21.177022     21.177022   0.000000   0.000000
   57       21.177550     21.177550   0.000000   0.000000
   58       21.835855     21.835855   0.000000   0.000000
   59       21.843224     21.843224   0.000000   0.000000
   60       22.488690     22.488690   0.000000   0.000000
   61       22.496433     22.496433   0.000000   0.000000
   62       22.496698     22.496698   0.000000   0.000000
   63       22.504384     22.504384   0.000000   0.000000
   64       22.981022     22.981022   0.000000   0.000000
   65       23.906964     23.906964   0.000000   0.000000
   66       24.139554     24.139554   0.000000   0.000000
   67       24.152375     24.152375   0.000000   0.000000
   68       24.153115     24.153115   0.000000   0.000000
   69       24.164663     24.164663   0.000000   0.000000
   70       25.190257     25.190257   0.000000   0.000000
   71       25.196316     25.196316   0.000000   0.000000
   72       26.479684     26.479684   0.000000   0.000000
   73       26.714163     26.714163   0.000000   0.000000
   74       26.723464     26.723464   0.000000   0.000000
   75       26.723679     26.723679   0.000000   0.000000
   76       26.732485     26.732485   0.000000   0.000000
   77       27.293625     27.293625   0.000000   0.000000
   78       28.209364     28.209364   0.000000   0.000000
   79       28.213193     28.213193   0.000000   0.000000
   80       28.213796     28.213796   0.000000   0.000000
   81       28.217350     28.217350   0.000000   0.000000
   82       28.386530     28.386530   0.000000   0.000000
   83       28.644278     28.644278   0.000000   0.000000
   84       29.027487     29.027487   0.000000   0.000000
   85       29.349171     29.349171   0.000000   0.000000
   86       29.352794     29.352794   0.000000   0.000000
   87       29.354656     29.354656   0.000000   0.000000
   88       29.356296     29.356296   0.000000   0.000000
   89       29.716221     29.716221   0.000000   0.000000
   90       29.737891     29.737891   0.000000   0.000000
   91       30.977357     30.977357   0.000000   0.000000
   92       31.454955     31.454955   0.000000   0.000000
   93       31.783069     31.783069   0.000000   0.000000
   94       31.795444     31.795444   0.000000   0.000000
   95       32.378187     32.378187   0.000000   0.000000
   96       33.349197     33.349197   0.000000   0.000000

  0.4285714E+00  0.3742002E-15  0.3742002E-15  0.1749271E-01
    1       -5.419931     -5.419931   1.000000   1.000000
    2       -4.828768     -4.828768   1.000000   1.000000
    3       -2.055895     -2.055895   1.000000   1.000000
    4       -2.042805     -2.042805   1.000000   1.000000
    5       -2.042680     -2.042680   1.000000   1.000000
    6       -2.029613     -2.029612   1.000000   1.000000
    7        1.357250      1.357250   1.000000   1.000000
    8        1.838162      1.838162   1.000000   1.000000
    9        1.839396      1.839396   1.000000   1.000000
   10        1.839517      1.839517   1.000000   1.000000
   11        1.840695      1.840695   1.000000   1.000000
   12        2.605016      2.605016   1.000000   1.000000
   13        3.415981      3.415981   1.000000   1.000000
   14        3.431096      3.431096   1.000000   1.000000
   15        3.926683      3.926683   1.000000   1.000000
   16        3.944214      3.944214   1.000000   1.000000
   17        6.499752      6.499752   0.000000   0.000000
   18        6.914303      6.914303   0.000000   0.000000
   19        8.165345      8.165345   0.000000   0.000000
   20        9.164420      9.164420   0.000000   0.000000
   21        9.209402      9.209402   0.000000   0.000000
   22        9.220439      9.220438   0.000000   0.000000
   23        9.220807      9.220807   0.000000   0.000000
   24        9.231256      9.231256   0.000000   0.000000
   25       10.532828     10.532828   0.000000   0.000000
   26       10.536742     10.536742   0.000000   0.000000
   27       10.984987     10.984987   0.000000   0.000000
   28       10.993884     10.993884   0.000000   0.000000
   29       10.994085     10.994085   0.000000   0.000000
   30       11.003519     11.003519   0.000000   0.000000
   31       11.752587     11.752587   0.000000   0.000000
   32       11.754578     11.754578   0.000000   0.000000
   33       12.577613     12.577613   0.000000   0.000000
   34       13.963189     13.963189   0.000000   0.000000
   35       14.080948     14.080948   0.000000   0.000000
   36       14.754599     14.754599   0.000000   0.000000
   37       15.820984     15.820984   0.000000   0.000000
   38       15.835713     15.835713   0.000000   0.000000
   39       15.838718     15.838718   0.000000   0.000000
   40       15.856336     15.856336   0.000000   0.000000
   41       16.008498     16.008498   0.000000   0.000000
   42       17.450743     17.450743   0.000000   0.000000
   43       17.949770     17.949770   0.000000   0.000000
   44       17.976116     17.976116   0.000000   0.000000
   45       18.231211     18.231211   0.000000   0.000000
   46       18.240389     18.240389   0.000000   0.000000
   47       18.240729     18.240729   0.000000   0.000000
   48       18.250511     18.250511   0.000000   0.000000
   49       18.615644     18.615644   0.000000   0.000000
   50       18.692817     18.692817   0.000000   0.000000
   51       18.718257     18.718257   0.000000   0.000000
   52       19.641590     19.641590   0.000000   0.000000
   53       21.780292     21.780291   0.000000   0.000000
   54       21.784176     21.784176   0.000000   0.000000
   55       21.784425     21.784425   0.000000   0.000000
   56       21.788493     21.788493   0.000000   0.000000
   57       21.917757     21.917757   0.000000   0.000000
   58       21.922177     21.922177   0.000000   0.000000
   59       22.648771     22.648771   0.000000   0.000000
   60       23.307150     23.307150   0.000000   0.000000
   61       23.308640     23.308640   0.000000   0.000000
   62       23.308989     23.308989   0.000000   0.000000
   63       23.309122     23.309122   0.000000   0.000000
   64       23.365716     23.365716   0.000000   0.000000
   65       23.371075     23.371075   0.000000   0.000000
   66       23.864160     23.864160   0.000000   0.000000
   67       23.875714     23.875714   0.000000   0.000000
   68       23.876211     23.876211   0.000000   0.000000
   69       23.887906     23.887906   0.000000   0.000000
   70       24.527842     24.527842   0.000000   0.000000
   71       24.717394     24.717394   0.000000   0.000000
   72       25.075369     25.075369   0.000000   0.000000
   73       25.421521     25.421521   0.000000   0.000000
   74       25.435662     25.435662   0.000000   0.000000
   75       25.436161     25.436161   0.000000   0.000000
   76       25.450240     25.450240   0.000000   0.000000
   77       25.958701     25.958701   0.000000   0.000000
   78       27.021620     27.021620   0.000000   0.000000
   79       28.642783     28.642783   0.000000   0.000000
   80       28.644176     28.644176   0.000000   0.000000
   81       28.644982     28.644982   0.000000   0.000000
   82       28.645930     28.645930   0.000000   0.000000
   83       29.379271     29.379271   0.000000   0.000000
   84       30.742452     30.742452   0.000000   0.000000
   85       30.792753     30.792753   0.000000   0.000000
   86       31.367371     31.367371   0.000000   0.000000
   87       31.369885     31.369885   0.000000   0.000000
   88       31.370337     31.370336   0.000000   0.000000
   89       31.370662     31.370662   0.000000   0.000000
   90       31.502785     31.502785   0.000000   0.000000
   91       31.748010     31.748010   0.000000   0.000000
   92       31.758978     31.758978   0.000000   0.000000
   93       32.148307     32.148307   0.000000   0.000000
   94       32.161900     32.161900   0.000000   0.000000
   95       33.673191     33.673179   0.000000   0.000000
   96       33.787777     33.787962   0.000000   0.000000

  0.1428571E+00  0.1428571E+00  0.3742002E-15  0.3498542E-01
    1       -6.019579     -6.019579   1.000000   1.000000
    2       -3.151571     -3.151571   1.000000   1.000000
    3       -3.138093     -3.138093   1.000000   1.000000
    4       -2.282787     -2.282787   1.000000   1.000000
    5       -1.994585     -1.994585   1.000000   1.000000
    6       -1.092480     -1.092479   1.000000   1.000000
    7       -1.075990     -1.075990   1.000000   1.000000
    8        1.971551      1.971551   1.000000   1.000000
    9        2.544507      2.544507   1.000000   1.000000
   10        2.546305      2.546305   1.000000   1.000000
   11        2.664355      2.664355   1.000000   1.000000
   12        2.673083      2.673083   1.000000   1.000000
   13        2.872541      2.872541   1.000000   1.000000
   14        4.203518      4.203518   1.000000   1.000000
   15        4.839571      4.839571   1.000000   1.000000
   16        5.376676      5.376676   0.998710   0.998710
   17        6.463995      6.463995   0.000001   0.000001
   18        6.623635      6.623635   0.000000   0.000000
   19        6.635676      6.635676   0.000000   0.000000
   20        7.086270      7.086270   0.000000   0.000000
   21        7.088065      7.088065   0.000000   0.000000
   22        7.673349      7.673349   0.000000   0.000000
   23        8.252036      8.252036   0.000000   0.000000
   24        8.312354      8.312354   0.000000   0.000000
   25        8.351947      8.351947   0.000000   0.000000
   26        9.755801      9.755801   0.000000   0.000000
   27       12.507209     12.507209   0.000000   0.000000
   28       13.065742     13.065742   0.000000   0.000000
   29       13.258209     13.258209   0.000000   0.000000
   30       13.264661     13.264661   0.000000   0.000000
   31       14.049033     14.049033   0.000000   0.000000
   32       14.142728     14.142728   0.000000   0.000000
   33       14.319051     14.319051   0.000000   0.000000
   34       14.337122     14.337122   0.000000   0.000000
   35       14.519373     14.519373   0.000000   0.000000
   36       14.751798     14.751798   0.000000   0.000000
   37       15.112153     15.112153   0.000000   0.000000
   38       15.996773     15.996773   0.000000   0.000000
   39       15.999764     15.999764   0.000000   0.000000
   40       16.504105     16.504105   0.000000   0.000000
   41       16.618454     16.618454   0.000000   0.000000
   42       16.622615     16.622615   0.000000   0.000000
   43       16.975009     16.975009   0.000000   0.000000
   44       17.323692     17.323692   0.000000   0.000000
   45       17.333052     17.333052   0.000000   0.000000
   46       17.954315     17.954315   0.000000   0.000000
   47       18.019345     18.019345   0.000000   0.000000
   48       18.035345     18.035345   0.000000   0.000000
   49       18.903854     18.903854   0.000000   0.000000
   50       19.051122     19.051122   0.000000   0.000000
   51       19.132951     19.132951   0.000000   0.000000
   52       19.139905     19.139905   0.000000   0.000000
   53       19.200910     19.200911   0.000000   0.000000
   54       19.934422     19.934422   0.000000   0.000000
   55       20.463133     20.463133   0.000000   0.000000
   56       20.472639     20.472639   0.000000   0.000000
   57       21.538027     21.538027   0.000000   0.000000
   58       21.547170     21.547170   0.000000   0.000000
   59       21.839917     21.839917   0.000000   0.000000
   60       22.379474     22.379474   0.000000   0.000000
   61       22.810071     22.810071   0.000000   0.000000
   62       22.829870     22.829870   0.000000   0.000000
   63       22.851266     22.851266   0.000000   0.000000
   64       24.506445     24.506445   0.000000   0.000000
   65       24.513773     24.513773   0.000000   0.000000
   66       24.521823     24.521823   0.000000   0.000000
   67       24.525830     24.525830   0.000000   0.000000
   68       24.934210     24.934210   0.000000   0.000000
   69       25.580871     25.580870   0.000000   0.000000
   70       25.716469     25.716469   0.000000   0.000000
   71       25.767281     25.767281   0.000000   0.000000
   72       26.160589     26.160589   0.000000   0.000000
   73       26.164570     26.164570   0.000000   0.000000
   74       26.550279     26.550279   0.000000   0.000000
   75       26.899118     26.899118   0.000000   0.000000
   76       26.901056     26.901056   0.000000   0.000000
   77       26.942495     26.942495   0.000000   0.000000
   78       26.995924     26.995924   0.000000   0.000000
   79       27.365299     27.365299   0.000000   0.000000
   80       28.057154     28.057155   0.000000   0.000000
   81       28.069020     28.069020   0.000000   0.000000
   82       28.506746     28.506746   0.000000   0.000000
   83       28.507625     28.507625   0.000000   0.000000
   84       28.675831     28.675831   0.000000   0.000000
   85       28.821609     28.821609   0.000000   0.000000
   86       28.840290     28.840290   0.000000   0.000000
   87       28.985191     28.985191   0.000000   0.000000
   88       29.033237     29.033237   0.000000   0.000000
   89       29.040234     29.040234   0.000000   0.000000
   90       30.120164     30.120164   0.000000   0.000000
   91       30.760946     30.760946   0.000000   0.000000
   92       30.768893     30.768893   0.000000   0.000000
   93       31.073809     31.073809   0.000000   0.000000
   94       31.165979     31.165979   0.000000   0.000000
   95       31.917522     31.917522   0.000000   0.000000
   96       34.249377     34.249376   0.000000   0.000000

  0.2857143E+00  0.1428571E+00  0.3742002E-15  0.6997085E-01
    1       -5.762937     -5.762937   1.000000   1.000000
    2       -4.017524     -4.017524   1.000000   1.000000
    3       -3.001768     -3.001768   1.000000   1.000000
    4       -2.412959     -2.412959   1.000000   1.000000
    5       -1.781323     -1.781323   1.000000   1.000000
    6       -1.154698     -1.154698   1.000000   1.000000
    7        0.032710      0.032710   1.000000   1.000000
    8        1.557539      1.557539   1.000000   1.000000
    9        2.033886      2.033886   1.000000   1.000000
   10        2.431064      2.431064   1.000000   1.000000
   11        2.746040      2.746040   1.000000   1.000000
   12        2.790109      2.790109   1.000000   1.000000
   13        3.006663      3.006663   1.000000   1.000000
   14        3.244125      3.244125   1.000000   1.000000
   15        4.225411      4.225411   1.000000   1.000000
   16        4.944120      4.944120   1.000000   1.000000
   17        6.716231      6.716231   0.000000   0.000000
   18        7.052485      7.052485   0.000000   0.000000
   19        7.665790      7.665790   0.000000   0.000000
   20        7.736887      7.736887   0.000000   0.000000
   21        7.866245      7.866245   0.000000   0.000000
   22        8.111322      8.111322   0.000000   0.000000
   23        8.789871      8.789871   0.000000   0.000000
   24        8.956009      8.956009   0.000000   0.000000
   25        9.262196      9.262196   0.000000   0.000000
   26       10.373079     10.373079   0.000000   0.000000
   27       11.543305     11.543305   0.000000   0.000000