<?xml version="1.0" encoding="ISO-8859-1"?>
<modeling>
 <generator>
  <i name="program" type="string">vasp </i>
  <i name="version" type="string">5.4.1  </i>
  <i name="subversion" type="string">24Jun15 (build Feb  9 2019 14:16:27) complex                          parallel </i>
  <i name="platform" type="string">IFC91_ompi </i>
  <i name="date" type="string">2020 09 27 </i>
  <i name="time" type="string">03:59:17 </i>
 </generator>
 <incar>
  <i type="string" name="PREC">accurate</i>
  <i type="int" name="ISPIN">     2</i>
  <i type="int" name="NELM">   400</i>
  <i type="int" name="IBRION">     6</i>
  <i name="EDIFF">      0.00000010</i>
  <i type="int" name="NSW">     1</i>
  <i type="int" name="ISIF">     3</i>
  <i name="ENCUT">    650.00000000</i>
  <i type="int" name="NBANDS">    96</i>
  <i name="POTIM">      0.01500000</i>
  <i type="int" name="NEDOS">  5000</i>
  <i type="int" name="ISMEAR">     0</i>
  <i type="logical" name="LWAVE"> F  </i>
  <i type="logical" name="LCHARG"> F  </i>
  <v type="int" name="KPOINT_BSE">    -1     0     0     0</v>
  <i type="int" name="NELM">   400</i>
  <i type="string" name="GGA">BO</i>
  <i name="PARAM1">      0.18333333</i>
  <i name="PARAM2">      0.22000000</i>
  <i type="logical" name="LUSE_VDW"> T  </i>
  <i name="AGGAC">      0.00000000</i>
 </incar>
 <kpoints>
  <generation param="Gamma">
   <v type="int" name="divisions">       7        7        7 </v>
   <v name="usershift">      0.00000000       0.00000000       0.00000000 </v>
   <v name="genvec1">      0.14285714       0.00000000       0.00000000 </v>
   <v name="genvec2">      0.00000000       0.14285714       0.00000000 </v>
   <v name="genvec3">      0.00000000       0.00000000       0.14285714 </v>
   <v name="shift">      0.00000000       0.00000000       0.00000000 </v>
  </generation>
  <varray name="kpointlist" >
   <v>       0.00000000       0.00000000       0.00000000 </v>
   <v>       0.14285714       0.00000000       0.00000000 </v>
   <v>       0.28571429       0.00000000       0.00000000 </v>
   <v>       0.42857143       0.00000000       0.00000000 </v>
   <v>       0.14285714       0.14285714       0.00000000 </v>
   <v>       0.28571429       0.14285714       0.00000000 </v>
   <v>       0.42857143       0.14285714       0.00000000 </v>
   <v>       0.28571429       0.28571429       0.00000000 </v>
   <v>       0.42857143       0.28571429       0.00000000 </v>
   <v>       0.42857143       0.42857143       0.00000000 </v>
   <v>       0.14285714       0.14285714       0.14285714 </v>
   <v>       0.28571429       0.14285714       0.14285714 </v>
   <v>       0.42857143       0.14285714       0.14285714 </v>
   <v>       0.28571429       0.28571429       0.14285714 </v>
   <v>       0.42857143       0.28571429       0.14285714 </v>
   <v>       0.42857143       0.42857143       0.14285714 </v>
   <v>       0.28571429       0.28571429       0.28571429 </v>
   <v>       0.42857143       0.28571429       0.28571429 </v>
   <v>       0.42857143       0.42857143       0.28571429 </v>
   <v>       0.42857143       0.42857143       0.42857143 </v>
  </varray>
  <varray name="weights" >
   <v>       0.00291545 </v>
   <v>       0.01749271 </v>
   <v>       0.01749271 </v>
   <v>       0.01749271 </v>
   <v>       0.03498542 </v>
   <v>       0.06997085 </v>
   <v>       0.06997085 </v>
   <v>       0.03498542 </v>
   <v>       0.06997085 </v>
   <v>       0.03498542 </v>
   <v>       0.02332362 </v>
   <v>       0.06997085 </v>
   <v>       0.06997085 </v>
   <v>       0.06997085 </v>
   <v>       0.13994169 </v>
   <v>       0.06997085 </v>
   <v>       0.02332362 </v>
   <v>       0.06997085 </v>
   <v>       0.06997085 </v>
   <v>       0.02332362 </v>
  </varray>
 </kpoints>
 <parameters>
  <separator name="general" >
   <i type="string" name="SYSTEM">unknown system</i>
   <i type="logical" name="LCOMPAT"> F  </i>
  </separator>
  <separator name="electronic" >
   <i type="string" name="PREC">accura</i>
   <i name="ENMAX">    650.00000000</i>
   <i name="ENAUG">    322.06900000</i>
   <i name="EDIFF">      0.00000010</i>
   <i type="int" name="IALGO">    38</i>
   <i type="int" name="IWAVPR">    11</i>
   <i type="int" name="NBANDS">    96</i>
   <i name="NELECT">     32.00000000</i>
   <i type="int" name="TURBO">     0</i>
   <i type="int" name="IRESTART">     0</i>
   <i type="int" name="NREBOOT">     0</i>
   <i type="int" name="NMIN">     0</i>
   <i name="EREF">      0.00000000</i>
   <separator name="electronic smearing" >
    <i type="int" name="ISMEAR">     0</i>
    <i name="SIGMA">      0.20000000</i>
    <i name="KSPACING">      0.50000000</i>
    <i type="logical" name="KGAMMA"> T  </i>
   </separator>
   <separator name="electronic projectors" >
    <i type="logical" name="LREAL"> F  </i>
    <v name="ROPT">      0.00000000</v>
    <i type="int" name="LMAXPAW">  -100</i>
    <i type="int" name="LMAXMIX">     2</i>
    <i type="logical" name="NLSPLINE"> F  </i>
   </separator>
   <separator name="electronic startup" >
    <i type="int" name="ISTART">     0</i>
    <i type="int" name="ICHARG">     2</i>
    <i type="int" name="INIWAV">     1</i>
   </separator>
   <separator name="electronic spin" >
    <i type="int" name="ISPIN">     2</i>
    <i type="logical" name="LNONCOLLINEAR"> F  </i>
    <v name="MAGMOM">      1.00000000      1.00000000      1.00000000      1.00000000      1.00000000      1.00000000      1.00000000      1.00000000</v>
    <i name="NUPDOWN">     -1.00000000</i>
    <i type="logical" name="LSORBIT"> F  </i>
    <v name="SAXIS">      0.00000000      0.00000000      1.00000000</v>
    <i type="logical" name="LSPIRAL"> F  </i>
    <v name="QSPIRAL">      0.00000000      0.00000000      0.00000000</v>
    <i type="logical" name="LZEROZ"> F  </i>
   </separator>
   <separator name="electronic exchange-correlation" >
    <i type="logical" name="LASPH"> F  </i>
    <i type="logical" name="LMETAGGA"> F  </i>
   </separator>
   <separator name="electronic convergence" >
    <i type="int" name="NELM">   400</i>
    <i type="int" name="NELMDL">    -5</i>
    <i type="int" name="NELMIN">     2</i>
    <i name="ENINI">    650.00000000</i>
    <separator name="electronic convergence detail" >
     <i type="logical" name="LDIAG"> T  </i>
     <i type="logical" name="LSUBROT"> F  </i>
     <i name="WEIMIN">      0.00100000</i>
     <i name="EBREAK">      0.00000000</i>
     <i name="DEPER">      0.30000000</i>
     <i type="int" name="NRMM">     4</i>
     <i name="TIME">      0.40000000</i>
    </separator>
   </separator>
   <separator name="electronic mixer" >
    <i name="AMIX">      0.40000000</i>
    <i name="BMIX">      1.00000000</i>
    <i name="AMIN">      0.10000000</i>
    <i name="AMIX_MAG">      1.60000000</i>
    <i name="BMIX_MAG">      1.00000000</i>
    <separator name="electronic mixer details" >
     <i type="int" name="IMIX">     4</i>
     <i type="logical" name="MIXFIRST"> F  </i>
     <i type="int" name="MAXMIX">   -45</i>
     <i name="WC">    100.00000000</i>
     <i type="int" name="INIMIX">     1</i>
     <i type="int" name="MIXPRE">     1</i>
     <i type="int" name="MREMOVE">     5</i>
    </separator>
   </separator>
   <separator name="electronic dipolcorrection" >
    <i type="logical" name="LDIPOL"> F  </i>
    <i type="logical" name="LMONO"> F  </i>
    <i type="int" name="IDIPOL">     0</i>
    <i name="EPSILON">      1.00000000</i>
    <v name="DIPOL">   -100.00000000   -100.00000000   -100.00000000</v>
    <i name="EFIELD">      0.00000000</i>
   </separator>
  </separator>
  <separator name="grids" >
   <i type="int" name="NGX">    48</i>
   <i type="int" name="NGY">    48</i>
   <i type="int" name="NGZ">    48</i>
   <i type="int" name="NGXF">    96</i>
   <i type="int" name="NGYF">    96</i>
   <i type="int" name="NGZF">    96</i>
   <i type="logical" name="ADDGRID"> F  </i>
  </separator>
  <separator name="ionic" >
   <i type="int" name="NSW">   133</i>
   <i type="int" name="IBRION">     6</i>
   <i type="int" name="ISIF">     3</i>
   <i name="PSTRESS">      0.00000000</i>
   <i name="EDIFFG">      0.00000100</i>
   <i type="int" name="NFREE">     2</i>
   <i name="POTIM">      0.01500000</i>
   <i name="SMASS">     -3.00000000</i>
   <i name="SCALEE">      1.00000000</i>
  </separator>
  <separator name="ionic md" >
   <i name="TEBEG">      0.00010000</i>
   <i name="TEEND">      0.00010000</i>
   <i type="int" name="NBLOCK">     1</i>
   <i type="int" name="KBLOCK">     1</i>
   <i type="int" name="NPACO">   256</i>
   <i name="APACO">     16.00000000</i>
  </separator>
  <separator name="symmetry" >
   <i type="int" name="ISYM">     2</i>
   <i name="SYMPREC">      0.00001000</i>
  </separator>
  <separator name="dos" >
   <i type="logical" name="LORBIT"> T  </i>
   <v name="RWIGS">     -1.00000000</v>
   <i type="int" name="NEDOS">  5000</i>
   <i name="EMIN">     10.00000000</i>
   <i name="EMAX">    -10.00000000</i>
   <i name="EFERMI">      0.00000000</i>
  </separator>
  <separator name="writing" >
   <i type="int" name="NWRITE">     2</i>
   <i type="logical" name="LWAVE"> F  </i>
   <i type="logical" name="LCHARG"> F  </i>
   <i type="logical" name="LPARD"> F  </i>
   <i type="logical" name="LVTOT"> F  </i>
   <i type="logical" name="LVHAR"> F  </i>
   <i type="logical" name="LELF"> F  </i>
   <i type="logical" name="LOPTICS"> F  </i>
   <v name="STM">      0.00000000      0.00000000      0.00000000      0.00000000      0.00000000      0.00000000      0.00000000</v>
  </separator>
  <separator name="performance" >
   <i type="int" name="NPAR">    16</i>
   <i type="int" name="NSIM">     4</i>
   <i type="int" name="NBLK">    -1</i>
   <i type="logical" name="LPLANE"> T  </i>
   <i type="logical" name="LSCALAPACK"> T  </i>
   <i type="logical" name="LSCAAWARE"> F  </i>
   <i type="logical" name="LSCALU"> F  </i>
   <i type="logical" name="LASYNC"> F  </i>
   <i type="logical" name="LORBITALREAL"> F  </i>
  </separator>
  <separator name="miscellaneous" >
   <i type="int" name="IDIOT">     3</i>
   <i type="logical" name="LMUSIC"> F  </i>
   <v name="POMASS">     28.08500000</v>
   <v name="DARWINR">      0.00000000</v>
   <v name="DARWINV">      1.00000000</v>
   <i type="logical" name="LCORR"> T  </i>
  </separator>
  <i type="logical" name="GGA_COMPAT"> T  </i>
  <i type="logical" name="LBERRY"> F  </i>
  <i type="int" name="ICORELEVEL">     0</i>
  <i type="logical" name="LDAU"> F  </i>
  <i type="int" name="I_CONSTRAINED_M">     0</i>
  <separator name="electronic exchange-correlation" >
   <i type="string" name="GGA">BO</i>
   <i type="int" name="VOSKOWN">     0</i>
   <i type="logical" name="LHFCALC"> F  </i>
   <i type="string" name="PRECFOCK"></i>
   <i type="logical" name="LSYMGRAD"> F  </i>
   <i type="logical" name="LHFONE"> F  </i>
   <i type="logical" name="LRHFCALC"> F  </i>
   <i type="logical" name="LTHOMAS"> F  </i>
   <i type="logical" name="LMODELHF"> F  </i>
   <i name="ENCUT4O">     -1.00000000</i>
   <i type="int" name="EXXOEP">     0</i>
   <i type="int" name="FOURORBIT">     0</i>
   <i name="AEXX">      0.00000000</i>
   <i name="HFALPHA">      0.00000000</i>
   <i name="MCALPHA">      0.00000000</i>
   <i name="ALDAX">      1.00000000</i>
   <i name="AGGAX">      1.00000000</i>
   <i name="ALDAC">      1.00000000</i>
   <i name="AGGAC">      0.00000000</i>
   <i type="int" name="NKREDX">     1</i>
   <i type="int" name="NKREDY">     1</i>
   <i type="int" name="NKREDZ">     1</i>
   <i type="logical" name="SHIFTRED"> F  </i>
   <i type="logical" name="ODDONLY"> F  </i>
   <i type="logical" name="EVENONLY"> F  </i>
   <i type="int" name="LMAXFOCK">     0</i>
   <i type="int" name="NMAXFOCKAE">     0</i>
   <i type="logical" name="LFOCKAEDFT"> F  </i>
   <i name="HFSCREEN">      0.00000000</i>
   <i name="HFSCREENC">      0.00000000</i>
   <i type="int" name="NBANDSGWLOW">     0</i>
  </separator>
  <separator name="vdW DFT" >
   <i type="logical" name="LUSE_VDW"> T  </i>
   <i name="Zab_VDW">     -0.84910000</i>
   <i name="PARAM1">      0.18333333</i>
   <i name="PARAM2">      0.22000000</i>
   <i name="PARAM3">      0.00000000</i>
  </separator>
  <separator name="model GW" >
   <i type="int" name="MODEL_GW">     0</i>
   <i name="MODEL_EPS0">     12.43488729</i>
   <i name="MODEL_ALPHA">      1.00000000</i>
  </separator>
  <separator name="linear response parameters" >
   <i type="logical" name="LEPSILON"> F  </i>
   <i type="logical" name="LRPA"> F  </i>
   <i type="logical" name="LNABLA"> F  </i>
   <i type="logical" name="LVEL"> F  </i>
   <i type="int" name="KINTER">     0</i>
   <i name="CSHIFT">      0.10000000</i>
   <i name="OMEGAMAX">     -1.00000000</i>
   <i name="DEG_THRESHOLD">      0.00200000</i>
  </separator>
  <separator name="orbital magnetization" >
   <i type="logical" name="NUCIND"> F  </i>
   <v name="MAGPOS">      0.00000000      0.00000000      0.00000000</v>
   <i type="logical" name="LNICSALL"> T  </i>
   <i type="logical" name="ORBITALMAG"> F  </i>
   <i type="logical" name="LMAGBLOCH"> F  </i>
   <i type="logical" name="LCHIMAG"> F  </i>
   <i type="logical" name="LGAUGE"> T  </i>
   <i type="int" name="MAGATOM">     0</i>
   <v name="MAGDIPOL">      0.00000000      0.00000000      0.00000000</v>
   <v name="AVECCONST">      0.00000000      0.00000000      0.00000000</v>
  </separator>
  <separator name="response functions" >
   <i type="logical" name="LADDER"> F  </i>
   <i type="logical" name="LFXC"> F  </i>
   <i type="logical" name="LHARTREE"> T  </i>
   <i type="int" name="IBSE">     0</i>
   <v type="int" name="KPOINT">    -1     0     0     0</v>
   <i type="logical" name="LTCTE"> F  </i>
   <i type="logical" name="LTETE"> F  </i>
   <i type="logical" name="LTRIPLET"> F  </i>
   <i type="logical" name="LFXCEPS"> F  </i>
   <i type="logical" name="LFXHEG"> F  </i>
   <i type="int" name="NATURALO">     0</i>
   <i type="logical" name="L2ORDER"> F  </i>
   <i type="logical" name="LUSEW"> F  </i>
   <i name="ENCUTGW">     -2.00000000</i>
   <i name="ENCUTGWSOFT">     -2.00000000</i>
   <i name="ENCUTLF">     -1.00000000</i>
   <i type="int" name="LMAXMP2">    -1</i>
   <i name="SCISSOR">      0.00000000</i>
   <i type="int" name="NOMEGA">     0</i>
   <i type="int" name="NOMEGAR">     0</i>
   <i type="int" name="NBANDSGW">    -1</i>
   <i type="int" name="NBANDSO">    -1</i>
   <i type="int" name="NBANDSV">    -1</i>
   <i type="int" name="NELM">   400</i>
   <i type="int" name="NELMHF">     1</i>
   <i type="int" name="DIM">     3</i>
   <i type="int" name="ANTIRES">     0</i>
   <i name="OMEGAMAX">    -30.00000000</i>
   <i name="OMEGAMIN">    -30.00000000</i>
   <i name="OMEGATL">   -200.00000000</i>
   <i type="int" name="OMEGAGRID">     0</i>
   <i name="CSHIFT">     -0.10000000</i>
   <i type="logical" name="SELFENERGY"> F  </i>
   <i type="logical" name="LSPECTRAL"> F  </i>
   <i type="logical" name="LSPECTRALGW"> F  </i>
   <i type="logical" name="LSINGLES"> F  </i>
   <i type="logical" name="LFERMIGW"> F  </i>
   <i type="logical" name="ODDONLYGW"> F  </i>
   <i type="logical" name="EVENONLYGW"> F  </i>
   <i type="int" name="NKREDLFX">     1</i>
   <i type="int" name="NKREDLFY">     1</i>
   <i type="int" name="NKREDLFZ">     1</i>
   <i type="int" name="MAXMEM">  1800</i>
   <i type="int" name="TELESCOPE">     0</i>
   <i type="int" name="TAUPAR">     1</i>
   <i type="int" name="OMEGAPAR">    -1</i>
   <i name="LAMBDA">      1.00000000</i>
  </separator>
  <separator name="External order field" >
   <i name="OFIELD_KAPPA">      0.00000000</i>
   <v name="OFIELD_K">      0.00000000      0.00000000      0.00000000</v>
   <i name="OFIELD_Q6_NEAR">      0.00000000</i>
   <i name="OFIELD_Q6_FAR">      0.00000000</i>
   <i name="OFIELD_A">      0.00000000</i>
  </separator>
 </parameters>
 <atominfo>
  <atoms>       8 </atoms>
  <types>       1 </types>
  <array name="atoms" >
   <dimension dim="1">ion</dimension>
   <field type="string">element</field>
   <field type="int">atomtype</field>
   <set>
    <rc><c>Si</c><c>   1</c></rc>
    <rc><c>Si</c><c>   1</c></rc>
    <rc><c>Si</c><c>   1</c></rc>
    <rc><c>Si</c><c>   1</c></rc>
    <rc><c>Si</c><c>   1</c></rc>
    <rc><c>Si</c><c>   1</c></rc>
    <rc><c>Si</c><c>   1</c></rc>
    <rc><c>Si</c><c>   1</c></rc>
   </set>
  </array>
  <array name="atomtypes" >
   <dimension dim="1">type</dimension>
   <field type="int">atomspertype</field>
   <field type="string">element</field>
   <field>mass</field>
   <field>valence</field>
   <field type="string">pseudopotential</field>
   <set>
    <rc><c>   8</c><c>Si</c><c>     28.08500000</c><c>      4.00000000</c><c>  PAW_PBE Si 05Jan2001                  </c></rc>
   </set>
  </array>
 </atominfo>
 <structure name="initialpos" >
  <crystal>
   <varray name="basis" >
    <v>       5.49364000       0.00000000       0.00000000 </v>
    <v>       0.00000000       5.49364000       0.00000000 </v>
    <v>       0.00000000       0.00000000       5.49364000 </v>
   </varray>
   <i name="volume">    165.79849716 </i>
   <varray name="rec_basis" >
    <v>       0.18202867       0.00000000       0.00000000 </v>
    <v>       0.00000000       0.18202867       0.00000000 </v>
    <v>       0.00000000       0.00000000       0.18202867 </v>
   </varray>
  </crystal>
  <varray name="positions" >
   <v>       0.25000000       0.25000000       0.25000000 </v>
   <v>       0.50000000       0.00000000       0.50000000 </v>
   <v>       0.25000000       0.75000000       0.75000000 </v>
   <v>       0.50000000       0.50000000       0.00000000 </v>
   <v>       0.75000000       0.25000000       0.75000000 </v>
   <v>       0.00000000       0.00000000       0.00000000 </v>
   <v>       0.75000000       0.75000000       0.25000000 </v>
   <v>       0.00000000       0.50000000       0.50000000 </v>
  </varray>
 </structure>
 <calculation>
  <scstep>
   <time name="dav">   14.78   14.78</time>
   <time name="total">   23.03   23.02</time>
   <energy>
    <i name="alphaZ">     12.99432991 </i>
    <i name="ewald">   -903.66313405 </i>
    <i name="hartreedc">    -46.12781029 </i>
    <i name="XCdc">    -80.27082148 </i>
    <i name="pawpsdc">    756.74277154 </i>
    <i name="pawaedc">   -609.61392414 </i>
    <i name="eentropy">     -0.01938947 </i>
    <i name="bandstr">    106.32889379 </i>
    <i name="atom">    834.37766373 </i>
    <i name="e_fr_energy">     70.74857955 </i>
    <i name="e_wo_entrp">     70.76796902 </i>
    <i name="e_0_energy">     70.75827429 </i>
   </energy>
  </scstep>
  <scstep>
   <time name="dav">   18.32   18.31</time>
   <time name="total">   18.33   18.63</time>
   <energy>
    <i name="e_fr_energy">    -28.12569596 </i>
    <i name="e_wo_entrp">    -28.11866322 </i>
    <i name="e_0_energy">    -28.12217959 </i>
   </energy>
  </scstep>
  <scstep>
   <time name="dav">   18.79   18.78</time>
   <time name="total">   18.80   18.87</time>
   <energy>
    <i name="e_fr_energy">    -31.57840612 </i>
    <i name="e_wo_entrp">    -31.57257055 </i>
    <i name="e_0_energy">    -31.57548834 </i>
   </energy>
  </scstep>
  <scstep>
   <time name="dav">   17.78   17.78</time>
   <time name="total">   17.79   17.86</time>
   <energy>
    <i name="e_fr_energy">    -31.59717719 </i>
    <i name="e_wo_entrp">    -31.59134743 </i>
    <i name="e_0_energy">    -31.59426231 </i>
   </energy>
  </scstep>
  <scstep>
   <time name="dav">   17.29   17.28</time>
   <time name="total">   17.95   17.97</time>
   <energy>
    <i name="e_fr_energy">    -31.59726692 </i>
    <i name="e_wo_entrp">    -31.59143719 </i>
    <i name="e_0_energy">    -31.59435205 </i>
   </energy>
  </scstep>
  <scstep>
   <time name="dav">   16.94   16.94</time>
   <time name="total">   25.33   25.35</time>
   <energy>
    <i name="e_fr_energy">    -33.33944670 </i>
    <i name="e_wo_entrp">    -33.33936555 </i>
    <i name="e_0_energy">    -33.33940612 </i>
   </energy>
  </scstep>
  <scstep>
   <time name="dav">   16.65   16.65</time>
   <time name="total">   25.04   25.29</time>
   <energy>
    <i name="e_fr_energy">    -33.36370355 </i>
    <i name="e_wo_entrp">    -33.36357981 </i>
    <i name="e_0_energy">    -33.36364168 </i>
   </energy>
  </scstep>
  <scstep>
   <time name="dav">   17.22   17.21</time>
   <time name="total">   25.60   25.64</time>
   <energy>
    <i name="e_fr_energy">    -33.38413430 </i>
    <i name="e_wo_entrp">    -33.38392824 </i>
    <i name="e_0_energy">    -33.38403127 </i>
   </energy>
  </scstep>
  <scstep>
   <time name="dav">   16.77   16.77</time>
   <time name="total">   25.16   25.39</time>
   <energy>
    <i name="e_fr_energy">    -33.38146018 </i>
    <i name="e_wo_entrp">    -33.38124770 </i>
    <i name="e_0_energy">    -33.38135394 </i>
   </energy>
  </scstep>
  <scstep>
   <time name="dav">   16.91   16.90</time>
   <time name="total">   25.28   25.31</time>
   <energy>
    <i name="e_fr_energy">    -33.37002910 </i>
    <i name="e_wo_entrp">    -33.36982667 </i>
    <i name="e_0_energy">    -33.36992788 </i>
   </energy>
  </scstep>
  <scstep>
   <time name="dav">   16.60   16.60</time>
   <time name="total">   24.97   25.22</time>
   <energy>
    <i name="e_fr_energy">    -33.35761359 </i>
    <i name="e_wo_entrp">    -33.35742185 </i>
    <i name="e_0_energy">    -33.35751772 </i>
   </energy>
  </scstep>
  <scstep>
   <time name="dav">   16.86   16.85</time>
   <time name="total">   25.21   25.25</time>
   <energy>
    <i name="e_fr_energy">    -33.35387715 </i>
    <i name="e_wo_entrp">    -33.35368870 </i>
    <i name="e_0_energy">    -33.35378293 </i>
   </energy>
  </scstep>
  <scstep>
   <time name="dav">   17.12   17.12</time>
   <time name="total">   25.41   25.66</time>
   <energy>
    <i name="e_fr_energy">    -33.35388811 </i>
    <i name="e_wo_entrp">    -33.35369965 </i>
    <i name="e_0_energy">    -33.35379388 </i>
   </energy>
  </scstep>
  <scstep>
   <time name="dav">   16.63   16.63</time>
   <time name="total">   24.56   24.59</time>
   <energy>
    <i name="e_fr_energy">    -33.35417780 </i>
    <i name="e_wo_entrp">    -33.35398901 </i>
    <i name="e_0_energy">    -33.35408341 </i>
   </energy>
  </scstep>
  <scstep>
   <time name="dav">   16.64   16.63</time>
   <time name="total">   24.56   24.85</time>
   <energy>
    <i name="e_fr_energy">    -33.35417495 </i>
    <i name="e_wo_entrp">    -33.35398615 </i>
    <i name="e_0_energy">    -33.35408055 </i>
   </energy>
  </scstep>
  <scstep>
   <time name="dav">   15.10   15.09</time>
   <time name="total">   23.02   23.06</time>
   <energy>
    <i name="e_fr_energy">    -33.35415529 </i>
    <i name="e_wo_entrp">    -33.35396652 </i>
    <i name="e_0_energy">    -33.35406091 </i>
   </energy>
  </scstep>
  <scstep>
   <time name="dav">   15.25   15.24</time>
   <time name="total">   23.19   23.37</time>
   <energy>
    <i name="e_fr_energy">    -33.35415737 </i>
    <i name="e_wo_entrp">    -33.35396862 </i>
    <i name="e_0_energy">    -33.35406299 </i>
   </energy>
  </scstep>
  <scstep>
   <time name="dav">   11.98   11.98</time>
   <time name="total">   19.94   20.21</time>
   <energy>
    <i name="e_fr_energy">    -33.35416198 </i>
    <i name="e_wo_entrp">    -33.35397323 </i>
    <i name="e_0_energy">    -33.35406761 </i>
   </energy>
  </scstep>
  <scstep>
   <time name="dav">   11.92   11.91</time>
   <time name="total">   19.87   19.97</time>
   <energy>
    <i name="e_fr_energy">    -33.35416265 </i>
    <i name="e_wo_entrp">    -33.35397390 </i>
    <i name="e_0_energy">    -33.35406828 </i>
   </energy>
  </scstep>
  <scstep>
   <time name="dav">   11.66   11.65</time>
   <time name="total">   19.62   19.87</time>
   <energy>
    <i name="e_fr_energy">    -33.35416307 </i>
    <i name="e_wo_entrp">    -33.35397432 </i>
    <i name="e_0_energy">    -33.35406870 </i>
   </energy>
  </scstep>
  <scstep>
   <time name="dav">   11.63   11.63</time>
   <time name="total">   18.93   18.98</time>
   <energy>
    <i name="alphaZ">     12.99432991 </i>
    <i name="ewald">   -903.66313405 </i>
    <i name="hartreedc">    -62.12685500 </i>
    <i name="XCdc">    -78.54776568 </i>
    <i name="pawpsdc">   2090.25701636 </i>
    <i name="pawaedc">  -1944.04718561 </i>
    <i name="eentropy">     -0.00018875 </i>
    <i name="bandstr">     17.40195606 </i>
    <i name="atom">    834.37766373 </i>
    <i name="e_fr_energy">    -33.35416302 </i>
    <i name="e_wo_entrp">    -33.35397427 </i>
    <i name="e_0_energy">    -33.35406865 </i>
   </energy>
  </scstep>
  <structure>
   <crystal>
    <varray name="basis" >
     <v>       5.49364000       0.00000000       0.00000000 </v>
     <v>       0.00000000       5.49364000       0.00000000 </v>
     <v>       0.00000000       0.00000000       5.49364000 </v>
    </varray>
    <i name="volume">    165.79849716 </i>
    <varray name="rec_basis" >
     <v>       0.18202867       0.00000000       0.00000000 </v>
     <v>       0.00000000       0.18202867       0.00000000 </v>
     <v>       0.00000000       0.00000000       0.18202867 </v>
    </varray>
   </crystal>
   <varray name="positions" >
    <v>       0.25000000       0.25000000       0.25000000 </v>
    <v>       0.50000000       0.00000000       0.50000000 </v>
    <v>       0.25000000       0.75000000       0.75000000 </v>
    <v>       0.50000000       0.50000000       0.00000000 </v>
    <v>       0.75000000       0.25000000       0.75000000 </v>
    <v>       0.00000000       0.00000000       0.00000000 </v>
    <v>       0.75000000       0.75000000       0.25000000 </v>
    <v>       0.00000000       0.50000000       0.50000000 </v>
   </varray>
  </structure>
  <varray name="forces" >
   <v>      -0.00000000      -0.00000000       0.00000000 </v>
   <v>      -0.00000000      -0.00000000       0.00000000 </v>
   <v>       0.00000000      -0.00000000       0.00000000 </v>
   <v>       0.00000000       0.00000000      -0.00000000 </v>
   <v>       0.00000000       0.00000000       0.00000000 </v>
   <v>      -0.00000000       0.00000000      -0.00000000 </v>
   <v>       0.00000000       0.00000000      -0.00000000 </v>
   <v>      -0.00000000      -0.00000000      -0.00000000 </v>
  </varray>
  <varray name="stress" >
   <v>       0.07849958      -0.00000000      -0.00000000 </v>
   <v>      -0.00000000       0.07849958       0.00000000 </v>
   <v>      -0.00000000      -0.00000000       0.07849958 </v>
  </varray>
  <energy>
   <i name="e_fr_energy">    -33.35416302 </i>
   <i name="e_wo_entrp">    -33.35406865 </i>
   <i name="e_0_energy">     -0.00018875 </i>
  </energy>
  <kpoints>
   <generation param="Gamma">
    <v type="int" name="divisions">       7        7        7 </v>
    <v name="usershift">      0.00000000       0.00000000       0.00000000 </v>
    <v name="genvec1">      0.14285714       0.00000000       0.00000000 </v>
    <v name="genvec2">      0.00000000       0.14285714       0.00000000 </v>
    <v name="genvec3">      0.00000000       0.00000000       0.14285714 </v>
    <v name="shift">      0.00000000       0.00000000       0.00000000 </v>
   </generation>
   <varray name="kpointlist" >
    <v>       0.00000000       0.00000000       0.00000000 </v>
    <v>       0.14285714       0.00000000       0.00000000 </v>
    <v>       0.28571429       0.00000000       0.00000000 </v>
    <v>       0.42857143       0.00000000       0.00000000 </v>
    <v>       0.00000000       0.14285714       0.00000000 </v>
    <v>       0.14285714       0.14285714       0.00000000 </v>
    <v>       0.28571429       0.14285714       0.00000000 </v>
    <v>       0.42857143       0.14285714       0.00000000 </v>
    <v>       0.00000000       0.28571429       0.00000000 </v>
    <v>       0.14285714       0.28571429       0.00000000 </v>
    <v>       0.28571429       0.28571429       0.00000000 </v>
    <v>       0.42857143       0.28571429       0.00000000 </v>
    <v>       0.00000000       0.42857143       0.00000000 </v>
    <v>       0.14285714       0.42857143       0.00000000 </v>
    <v>       0.28571429       0.42857143       0.00000000 </v>
    <v>       0.42857143       0.42857143       0.00000000 </v>
    <v>       0.00000000       0.14285714       0.14285714 </v>
    <v>       0.14285714       0.14285714       0.14285714 </v>
    <v>       0.28571429       0.14285714       0.14285714 </v>
    <v>       0.42857143       0.14285714       0.14285714 </v>
    <v>       0.00000000       0.28571429       0.14285714 </v>
    <v>       0.14285714       0.28571429       0.14285714 </v>
    <v>       0.28571429       0.28571429       0.14285714 </v>
    <v>       0.42857143       0.28571429       0.14285714 </v>
    <v>       0.00000000       0.42857143       0.14285714 </v>
    <v>       0.14285714       0.42857143       0.14285714 </v>
    <v>       0.28571429       0.42857143       0.14285714 </v>
    <v>       0.42857143       0.42857143       0.14285714 </v>
    <v>       0.00000000       0.28571429       0.28571429 </v>
    <v>       0.14285714       0.28571429       0.28571429 </v>
    <v>       0.28571429       0.28571429       0.28571429 </v>
    <v>       0.42857143       0.28571429       0.28571429 </v>
    <v>       0.00000000       0.42857143       0.28571429 </v>
    <v>       0.14285714       0.42857143       0.28571429 </v>
    <v>       0.28571429       0.42857143       0.28571429 </v>
    <v>       0.42857143       0.42857143       0.28571429 </v>
    <v>       0.00000000       0.42857143       0.42857143 </v>
    <v>       0.14285714       0.42857143       0.42857143 </v>
    <v>       0.28571429       0.42857143       0.42857143 </v>
    <v>       0.42857143       0.42857143       0.42857143 </v>
   </varray>
   <varray name="weights" >
    <v>       0.00291545 </v>
    <v>       0.00583090 </v>
    <v>       0.00583090 </v>
    <v>       0.00583090 </v>
    <v>       0.01166181 </v>
    <v>       0.02332362 </v>
    <v>       0.02332362 </v>
    <v>       0.02332362 </v>
    <v>       0.01166181 </v>
    <v>       0.02332362 </v>
    <v>       0.02332362 </v>
    <v>       0.02332362 </v>
    <v>       0.01166181 </v>
    <v>       0.02332362 </v>
    <v>       0.02332362 </v>
    <v>       0.02332362 </v>
    <v>       0.01166181 </v>
    <v>       0.02332362 </v>
    <v>       0.02332362 </v>
    <v>       0.02332362 </v>
    <v>       0.02332362 </v>
    <v>       0.04664723 </v>
    <v>       0.04664723 </v>
    <v>       0.04664723 </v>
    <v>       0.02332362 </v>
    <v>       0.04664723 </v>
    <v>       0.04664723 </v>
    <v>       0.04664723 </v>
    <v>       0.01166181 </v>
    <v>       0.02332362 </v>
    <v>       0.02332362 </v>
    <v>       0.02332362 </v>
    <v>       0.02332362 </v>
    <v>       0.04664723 </v>
    <v>       0.04664723 </v>
    <v>       0.04664723 </v>
    <v>       0.01166181 </v>
    <v>       0.02332362 </v>
    <v>       0.02332362 </v>
    <v>       0.02332362 </v>
   </varray>
  </kpoints>
  <time name="totalsc">  499.70  502.83</time>
 </calculation>
 <calculation>
  <scstep>
   <time name="dav">   34.58   34.57</time>
   <time name="total">   43.10   43.08</time>
   <energy>
    <i name="alphaZ">     12.80229548 </i>
    <i name="ewald">   -899.21993451 </i>
    <i name="hartreedc">    -61.81354319 </i>
    <i name="XCdc">    -78.81426464 </i>
    <i name="pawpsdc">   2090.25739493 </i>
    <i name="pawaedc">  -1944.04756423 </i>
    <i name="eentropy">     -0.00016506 </i>
    <i name="bandstr">     13.11789974 </i>
    <i name="atom">    834.37766373 </i>
    <i name="e_fr_energy">    -33.34021775 </i>
    <i name="e_wo_entrp">    -33.34005269 </i>
    <i name="e_0_energy">    -33.34013522 </i>
   </energy>
  </scstep>
  <scstep>
   <time name="dav">   34.24   34.24</time>
   <time name="total">   42.68   43.13</time>
   <energy>
    <i name="e_fr_energy">    -33.33373167 </i>
    <i name="e_wo_entrp">    -33.33354727 </i>
    <i name="e_0_energy">    -33.33363947 </i>
   </energy>
  </scstep>
  <scstep>
   <time name="dav">   35.69   35.68</time>
   <time name="total">   44.15   44.39</time>
   <energy>
    <i name="e_fr_energy">    -33.32426551 </i>
    <i name="e_wo_entrp">    -33.32405569 </i>
    <i name="e_0_energy">    -33.32416060 </i>
   </energy>
  </scstep>
  <scstep>
   <time name="dav">   35.56   35.55</time>
   <time name="total">   44.02   44.09</time>
   <energy>
    <i name="e_fr_energy">    -33.32175784 </i>
    <i name="e_wo_entrp">    -33.32154500 </i>
    <i name="e_0_energy">    -33.32165142 </i>
   </energy>
  </scstep>
  <scstep>
   <time name="dav">   33.77   33.76</time>
   <time name="total">   42.21   42.44</time>
   <energy>
    <i name="e_fr_energy">    -33.31934258 </i>
    <i name="e_wo_entrp">    -33.31913057 </i>
    <i name="e_0_energy">    -33.31923657 </i>
   </energy>
  </scstep>
  <scstep>
   <time name="dav">   36.25   36.24</time>
   <time name="total">   44.71   45.16</time>
   <energy>
    <i name="e_fr_energy">    -33.31930514 </i>
    <i name="e_wo_entrp">    -33.31909302 </i>
    <i name="e_0_energy">    -33.31919908 </i>
   </energy>
  </scstep>
  <scstep>
   <time name="dav">   24.99   24.98</time>
   <time name="total">   33.44   34.12</time>
   <energy>
    <i name="e_fr_energy">    -33.31934958 </i>
    <i name="e_wo_entrp">    -33.31913745 </i>
    <i name="e_0_energy">    -33.31924352 </i>
   </energy>
  </scstep>
  <scstep>
   <time name="dav">   31.45   31.44</time>
   <time name="total">   39.87   39.90</time>
   <energy>
    <i name="e_fr_energy">    -33.31951992 </i>
    <i name="e_wo_entrp">    -33.31930775 </i>
    <i name="e_0_energy">    -33.31941383 </i>
   </energy>
  </scstep>
  <scstep>
   <time name="dav">   23.97   23.96</time>
   <time name="total">   32.38   32.45</time>
   <energy>
    <i name="e_fr_energy">    -33.31952198 </i>
    <i name="e_wo_entrp">    -33.31930981 </i>
    <i name="e_0_energy">    -33.31941589 </i>
   </energy>
  </scstep>
  <scstep>
   <time name="dav">   24.21   24.20</time>
   <time name="total">   32.65   32.68</time>
   <energy>
    <i name="e_fr_energy">    -33.31951644 </i>
    <i name="e_wo_entrp">    -33.31930427 </i>
    <i name="e_0_energy">    -33.31941035 </i>
   </energy>
  </scstep>
  <scstep>
   <time name="dav">   23.68   23.67</time>
   <time name="total">   32.11   32.12</time>
   <energy>
    <i name="e_fr_energy">    -33.31951395 </i>
    <i name="e_wo_entrp">    -33.31930179 </i>
    <i name="e_0_energy">    -33.31940787 </i>
   </energy>
  </scstep>
  <scstep>
   <time name="dav">   23.32   23.31</time>
   <time name="total">   31.76   31.79</time>
   <energy>
    <i name="e_fr_energy">    -33.31951433 </i>
    <i name="e_wo_entrp">    -33.31930216 </i>
    <i name="e_0_energy">    -33.31940825 </i>
   </energy>
  </scstep>
  <scstep>
   <time name="dav">   21.18   21.17</time>
   <time name="total">   28.88   28.94</time>
   <energy>
    <i name="alphaZ">     12.80229548 </i>
    <i name="ewald">   -899.21993451 </i>
    <i name="hartreedc">    -62.80248812 </i>
    <i name="XCdc">    -78.81268953 </i>
    <i name="pawpsdc">   2024.85239738 </i>
    <i name="pawaedc">  -1878.57594511 </i>
    <i name="eentropy">     -0.00021217 </i>
    <i name="bandstr">     14.05939861 </i>
    <i name="atom">    834.37766373 </i>
    <i name="e_fr_energy">    -33.31951424 </i>
    <i name="e_wo_entrp">    -33.31930207 </i>
    <i name="e_0_energy">    -33.31940816 </i>
   </energy>
  </scstep>
  <structure>
   <crystal>
    <varray name="basis" >
     <v>       5.57604460       0.00000000       0.00000000 </v>
     <v>       0.00000000       5.49364000       0.00000000 </v>
     <v>       0.00000000       0.00000000       5.49364000 </v>
    </varray>
    <i name="volume">    168.28547462 </i>
    <varray name="rec_basis" >
     <v>       0.17933859       0.00000000       0.00000000 </v>
     <v>       0.00000000       0.18202867       0.00000000 </v>
     <v>       0.00000000       0.00000000       0.18202867 </v>
    </varray>
   </crystal>
   <varray name="positions" >
    <v>       0.25000000       0.25000000       0.25000000 </v>
    <v>       0.50000000       0.00000000       0.50000000 </v>
    <v>       0.25000000       0.75000000       0.75000000 </v>
    <v>       0.50000000       0.50000000       0.00000000 </v>
    <v>       0.75000000       0.25000000       0.75000000 </v>
    <v>       0.00000000       0.00000000       0.00000000 </v>
    <v>       0.75000000       0.75000000       0.25000000 </v>
    <v>       0.00000000       0.50000000       0.50000000 </v>
   </varray>
  </structure>
  <varray name="forces" >
   <v>       0.00000000      -0.00000000      -0.00000000 </v>
   <v>      -0.00000000       0.00000000       0.00000000 </v>
   <v>       0.00000000      -0.00000000      -0.00000000 </v>
   <v>      -0.00000000       0.00000000       0.00000000 </v>
   <v>      -0.00000000      -0.00000000      -0.00000000 </v>
   <v>       0.00000000      -0.00000000      -0.00000000 </v>
   <v>      -0.00000000      -0.00000000       0.00000000 </v>
   <v>       0.00000000       0.00000000       0.00000000 </v>
  </varray>
  <varray name="stress" >
   <v>     -22.09710979       0.00000000       0.00000000 </v>
   <v>       0.00000000      -7.77198957       0.00000000 </v>
   <v>       0.00000000       0.00000000      -7.77198957 </v>
  </varray>
  <energy>
   <i name="e_fr_energy">    -33.31951424 </i>
   <i name="e_wo_entrp">    -33.31940816 </i>
   <i name="e_0_energy">     -0.00021217 </i>
  </energy>
  <kpoints>
   <generation param="Gamma">
    <v type="int" name="divisions">       7        7        7 </v>
    <v name="usershift">      0.00000000       0.00000000       0.00000000 </v>
    <v name="genvec1">      0.14285714       0.00000000       0.00000000 </v>
    <v name="genvec2">      0.00000000       0.14285714       0.00000000 </v>
    <v name="genvec3">      0.00000000       0.00000000       0.14285714 </v>
    <v name="shift">      0.00000000       0.00000000       0.00000000 </v>
   </generation>
   <varray name="kpointlist" >
    <v>       0.00000000       0.00000000       0.00000000 </v>
    <v>       0.14285714       0.00000000       0.00000000 </v>
    <v>       0.28571429       0.00000000       0.00000000 </v>
    <v>       0.42857143       0.00000000       0.00000000 </v>
    <v>       0.00000000       0.14285714       0.00000000 </v>
    <v>       0.14285714       0.14285714       0.00000000 </v>
    <v>       0.28571429       0.14285714       0.00000000 </v>
    <v>       0.42857143       0.14285714       0.00000000 </v>
    <v>       0.00000000       0.28571429       0.00000000 </v>
    <v>       0.14285714       0.28571429       0.00000000 </v>
    <v>       0.28571429       0.28571429       0.00000000 </v>
    <v>       0.42857143       0.28571429       0.00000000 </v>
    <v>       0.00000000       0.42857143       0.00000000 </v>
    <v>       0.14285714       0.42857143       0.00000000 </v>
    <v>       0.28571429       0.42857143       0.00000000 </v>
    <v>       0.42857143       0.42857143       0.00000000 </v>
    <v>       0.00000000       0.14285714       0.14285714 </v>
    <v>       0.14285714       0.14285714       0.14285714 </v>
    <v>       0.28571429       0.14285714       0.14285714 </v>
    <v>       0.42857143       0.14285714       0.14285714 </v>
    <v>       0.00000000       0.28571429       0.14285714 </v>
    <v>       0.14285714       0.28571429       0.14285714 </v>
    <v>       0.28571429       0.28571429       0.14285714 </v>
    <v>       0.42857143       0.28571429       0.14285714 </v>
    <v>       0.00000000       0.42857143       0.14285714 </v>
    <v>       0.14285714       0.42857143       0.14285714 </v>
    <v>       0.28571429       0.42857143       0.14285714 </v>
    <v>       0.42857143       0.42857143       0.14285714 </v>
    <v>       0.00000000       0.28571429       0.28571429 </v>
    <v>       0.14285714       0.28571429       0.28571429 </v>
    <v>       0.28571429       0.28571429       0.28571429 </v>
    <v>       0.42857143       0.28571429       0.28571429 </v>
    <v>       0.00000000       0.42857143       0.28571429 </v>
    <v>       0.14285714       0.42857143       0.28571429 </v>
    <v>       0.28571429       0.42857143       0.28571429 </v>
    <v>       0.42857143       0.42857143       0.28571429 </v>
    <v>       0.00000000       0.42857143       0.42857143 </v>
    <v>       0.14285714       0.42857143       0.42857143 </v>
    <v>       0.28571429       0.42857143       0.42857143 </v>
    <v>       0.42857143       0.42857143       0.42857143 </v>
   </varray>
   <varray name="weights" >
    <v>       0.00291545 </v>
    <v>       0.00583090 </v>
    <v>       0.00583090 </v>
    <v>       0.00583090 </v>
    <v>       0.01166181 </v>
    <v>       0.02332362 </v>
    <v>       0.02332362 </v>
    <v>       0.02332362 </v>
    <v>       0.01166181 </v>
    <v>       0.02332362 </v>
    <v>       0.02332362 </v>
    <v>       0.02332362 </v>
    <v>       0.01166181 </v>
    <v>       0.02332362 </v>
    <v>       0.02332362 </v>
    <v>       0.02332362 </v>
    <v>       0.01166181 </v>
    <v>       0.02332362 </v>
    <v>       0.02332362 </v>
    <v>       0.02332362 </v>
    <v>       0.02332362 </v>
    <v>       0.04664723 </v>
    <v>       0.04664723 </v>
    <v>       0.04664723 </v>
    <v>       0.02332362 </v>
    <v>       0.04664723 </v>
    <v>       0.04664723 </v>
    <v>       0.04664723 </v>
    <v>       0.01166181 </v>
    <v>       0.02332362 </v>
    <v>       0.02332362 </v>
    <v>       0.02332362 </v>
    <v>       0.02332362 </v>
    <v>       0.04664723 </v>
    <v>       0.04664723 </v>
    <v>       0.04664723 </v>
    <v>       0.01166181 </v>
    <v>       0.02332362 </v>
    <v>       0.02332362 </v>
    <v>       0.02332362 </v>
   </varray>
  </kpoints>
  <time name="totalsc">  530.12  533.39</time>
 </calculation>
 <calculation>
  <scstep>
   <time name="dav">   33.70   33.69</time>
   <time name="total">   41.86   41.85</time>
   <energy>
    <i name="alphaZ">     13.19221311 </i>
    <i name="ewald">   -908.25887404 </i>
    <i name="hartreedc">    -63.43285632 </i>
    <i name="XCdc">    -78.27871747 </i>
    <i name="pawpsdc">   2024.84871806 </i>
    <i name="pawaedc">  -1878.57226553 </i>
    <i name="eentropy">     -0.00051972 </i>
    <i name="bandstr">     22.79069994 </i>
    <i name="atom">    834.37766373 </i>
    <i name="e_fr_energy">    -33.33393824 </i>
    <i name="e_wo_entrp">    -33.33341852 </i>
    <i name="e_0_energy">    -33.33367838 </i>
   </energy>
  </scstep>
  <scstep>
   <time name="dav">   35.10   35.08</time>
   <time name="total">   43.23   43.27</time>
   <energy>
    <i name="e_fr_energy">    -33.33407207 </i>
    <i name="e_wo_entrp">    -33.33363943 </i>
    <i name="e_0_energy">    -33.33385575 </i>
   </energy>
  </scstep>
  <scstep>
   <time name="dav">   34.38   34.37</time>
   <time name="total">   42.45   42.74</time>
   <energy>
    <i name="e_fr_energy">    -33.34620644 </i>
    <i name="e_wo_entrp">    -33.34586583 </i>
    <i name="e_0_energy">    -33.34603613 </i>
   </energy>
  </scstep>
  <scstep>
   <time name="dav">   33.82   33.80</time>
   <time name="total">   41.87   41.91</time>
   <energy>
    <i name="e_fr_energy">    -33.34982206 </i>
    <i name="e_wo_entrp">    -33.34948284 </i>
    <i name="e_0_energy">    -33.34965245 </i>
   </energy>
  </scstep>
  <scstep>
   <time name="dav">   33.50   33.48</time>
   <time name="total">   41.54   41.75</time>
   <energy>
    <i name="e_fr_energy">    -33.35415306 </i>
    <i name="e_wo_entrp">    -33.35381020 </i>
    <i name="e_0_energy">    -33.35398163 </i>
   </energy>
  </scstep>
  <scstep>
   <time name="dav">   35.41   35.40</time>
   <time name="total">   43.79   43.83</time>
   <energy>
    <i name="e_fr_energy">    -33.35483403 </i>
    <i name="e_wo_entrp">    -33.35449085 </i>
    <i name="e_0_energy">    -33.35466244 </i>
   </energy>
  </scstep>
  <scstep>
   <time name="dav">   32.93   32.92</time>
   <time name="total">   41.33   42.14</time>
   <energy>
    <i name="e_fr_energy">    -33.35465536 </i>
    <i name="e_wo_entrp">    -33.35431224 </i>
    <i name="e_0_energy">    -33.35448380 </i>
   </energy>
  </scstep>
  <scstep>
   <time name="dav">   34.78   34.76</time>
   <time name="total">   42.93   42.96</time>
   <energy>
    <i name="e_fr_energy">    -33.35439140 </i>
    <i name="e_wo_entrp">    -33.35404834 </i>
    <i name="e_0_energy">    -33.35421987 </i>
   </energy>
  </scstep>
  <scstep>
   <time name="dav">   23.09   23.09</time>
   <time name="total">   31.41   31.71</time>
   <energy>
    <i name="e_fr_energy">    -33.35439247 </i>
    <i name="e_wo_entrp">    -33.35404941 </i>
    <i name="e_0_energy">    -33.35422094 </i>
   </energy>
  </scstep>
  <scstep>
   <time name="dav">   23.30   23.29</time>
   <time name="total">   31.54   31.58</time>
   <energy>
    <i name="e_fr_energy">    -33.35439923 </i>
    <i name="e_wo_entrp">    -33.35405615 </i>
    <i name="e_0_energy">    -33.35422769 </i>
   </energy>
  </scstep>
  <scstep>
   <time name="dav">   22.88   22.88</time>
   <time name="total">   31.10   31.55</time>
   <energy>
    <i name="e_fr_energy">    -33.35440218 </i>
    <i name="e_wo_entrp">    -33.35405910 </i>
    <i name="e_0_energy">    -33.35423064 </i>
   </energy>
  </scstep>
  <scstep>
   <time name="dav">   22.84   22.83</time>
   <time name="total">   31.04   31.30</time>
   <energy>
    <i name="e_fr_energy">    -33.35440260 </i>
    <i name="e_wo_entrp">    -33.35405951 </i>
    <i name="e_0_energy">    -33.35423106 </i>
   </energy>
  </scstep>
  <scstep>
   <time name="dav">   22.45   22.44</time>
   <time name="total">   30.66   30.71</time>
   <energy>
    <i name="e_fr_energy">    -33.35440329 </i>
    <i name="e_wo_entrp">    -33.35406020 </i>
    <i name="e_0_energy">    -33.35423175 </i>
   </energy>
  </scstep>
  <scstep>
   <time name="dav">   22.21   22.20</time>
   <time name="total">   30.42   30.61</time>
   <energy>
    <i name="e_fr_energy">    -33.35440430 </i>
    <i name="e_wo_entrp">    -33.35406121 </i>
    <i name="e_0_energy">    -33.35423275 </i>
   </energy>
  </scstep>
  <scstep>
   <time name="dav">   21.82   21.82</time>
   <time name="total">   29.49   29.74</time>
   <energy>
    <i name="alphaZ">     13.19221311 </i>
    <i name="ewald">   -908.25887404 </i>
    <i name="hartreedc">    -61.39829397 </i>
    <i name="XCdc">    -78.28138650 </i>
    <i name="pawpsdc">   2157.84931429 </i>
    <i name="pawaedc">  -2011.70804242 </i>
    <i name="eentropy">     -0.00034308 </i>
    <i name="bandstr">     20.87334461 </i>
    <i name="atom">    834.37766373 </i>
    <i name="e_fr_energy">    -33.35440427 </i>
    <i name="e_wo_entrp">    -33.35406119 </i>
    <i name="e_0_energy">    -33.35423273 </i>
   </energy>
  </scstep>
  <structure>
   <crystal>
    <varray name="basis" >
     <v>       5.41123540       0.00000000       0.00000000 </v>
     <v>       0.00000000       5.49364000       0.00000000 </v>
     <v>       0.00000000       0.00000000       5.49364000 </v>
    </varray>
    <i name="volume">    163.31151970 </i>
    <varray name="rec_basis" >
     <v>       0.18480068       0.00000000       0.00000000 </v>
     <v>       0.00000000       0.18202867       0.00000000 </v>
     <v>       0.00000000       0.00000000       0.18202867 </v>
    </varray>
   </crystal>
   <varray name="positions" >
    <v>       0.25000000       0.25000000       0.25000000 </v>
    <v>       0.50000000       0.00000000       0.50000000 </v>
    <v>       0.25000000       0.75000000       0.75000000 </v>
    <v>       0.50000000       0.50000000       0.00000000 </v>
    <v>       0.75000000       0.25000000       0.75000000 </v>
    <v>       0.00000000       0.00000000       0.00000000 </v>
    <v>       0.75000000       0.75000000       0.25000000 </v>
    <v>       0.00000000       0.50000000       0.50000000 </v>
   </varray>
  </structure>
  <varray name="forces" >
   <v>       0.00000000      -0.00000000       0.00000000 </v>
   <v>      -0.00000000      -0.00000000      -0.00000000 </v>
   <v>       0.00000000      -0.00000000      -0.00000000 </v>
   <v>      -0.00000000      -0.00000000       0.00000000 </v>
   <v>       0.00000000       0.00000000      -0.00000000 </v>
   <v>      -0.00000000       0.00000000      -0.00000000 </v>
   <v>       0.00000000       0.00000000       0.00000000 </v>
   <v>      -0.00000000       0.00000000      -0.00000000 </v>
  </varray>
  <varray name="stress" >
   <v>      22.93366869       0.00000000       0.00000000 </v>
   <v>       0.00000000       9.00972432       0.00000000 </v>
   <v>       0.00000000       0.00000000       9.00972432 </v>
  </varray>
  <energy>
   <i name="e_fr_energy">    -33.35440427 </i>
   <i name="e_wo_entrp">    -33.35423273 </i>
   <i name="e_0_energy">     -0.00034308 </i>
  </energy>
  <kpoints>
   <generation param="Gamma">
    <v type="int" name="divisions">       7        7        7 </v>
    <v name="usershift">      0.00000000       0.00000000       0.00000000 </v>
    <v name="genvec1">      0.14285714       0.00000000       0.00000000 </v>
    <v name="genvec2">      0.00000000       0.14285714       0.00000000 </v>
    <v name="genvec3">      0.00000000       0.00000000       0.14285714 </v>
    <v name="shift">      0.00000000       0.00000000       0.00000000 </v>
   </generation>
   <varray name="kpointlist" >
    <v>       0.00000000       0.00000000       0.00000000 </v>
    <v>       0.14285714       0.00000000       0.00000000 </v>
    <v>       0.28571429       0.00000000       0.00000000 </v>
    <v>       0.42857143       0.00000000       0.00000000 </v>
    <v>       0.00000000       0.14285714       0.00000000 </v>
    <v>       0.14285714       0.14285714       0.00000000 </v>
    <v>       0.28571429       0.14285714       0.00000000 </v>
    <v>       0.42857143       0.14285714       0.00000000 </v>
    <v>       0.00000000       0.28571429       0.00000000 </v>
    <v>       0.14285714       0.28571429       0.00000000 </v>
    <v>       0.28571429       0.28571429       0.00000000 </v>
    <v>       0.42857143       0.28571429       0.00000000 </v>
    <v>       0.00000000       0.42857143       0.00000000 </v>
    <v>       0.14285714       0.42857143       0.00000000 </v>
    <v>       0.28571429       0.42857143       0.00000000 </v>
    <v>       0.42857143       0.42857143       0.00000000 </v>
    <v>       0.14285714       0.00000000       0.14285714 </v>
    <v>       0.28571429       0.00000000       0.14285714 </v>
    <v>       0.42857143       0.00000000       0.14285714 </v>
    <v>       0.14285714       0.14285714       0.14285714 </v>
    <v>       0.28571429       0.14285714       0.14285714 </v>
    <v>       0.42857143       0.14285714       0.14285714 </v>
    <v>       0.14285714       0.28571429       0.14285714 </v>
    <v>       0.28571429       0.28571429       0.14285714 </v>
    <v>       0.42857143       0.28571429       0.14285714 </v>
    <v>       0.14285714       0.42857143       0.14285714 </v>
    <v>       0.28571429       0.42857143       0.14285714 </v>
    <v>       0.42857143       0.42857143       0.14285714 </v>
    <v>       0.28571429       0.00000000       0.28571429 </v>
    <v>       0.42857143       0.00000000       0.28571429 </v>
    <v>       0.28571429       0.14285714       0.28571429 </v>
    <v>       0.42857143       0.14285714       0.28571429 </v>
    <v>       0.28571429       0.28571429       0.28571429 </v>
    <v>       0.42857143       0.28571429       0.28571429 </v>
    <v>       0.28571429       0.42857143       0.28571429 </v>
    <v>       0.42857143       0.42857143       0.28571429 </v>
    <v>       0.42857143       0.00000000       0.42857143 </v>
    <v>       0.42857143       0.14285714       0.42857143 </v>
    <v>       0.42857143       0.28571429       0.42857143 </v>
    <v>       0.42857143       0.42857143       0.42857143 </v>
   </varray>
   <varray name="weights" >
    <v>       0.00291545 </v>
    <v>       0.01166181 </v>
    <v>       0.01166181 </v>
    <v>       0.01166181 </v>
    <v>       0.00583090 </v>
    <v>       0.02332362 </v>
    <v>       0.02332362 </v>
    <v>       0.02332362 </v>
    <v>       0.00583090 </v>
    <v>       0.02332362 </v>
    <v>       0.02332362 </v>
    <v>       0.02332362 </v>
    <v>       0.00583090 </v>
    <v>       0.02332362 </v>
    <v>       0.02332362 </v>
    <v>       0.02332362 </v>
    <v>       0.01166181 </v>
    <v>       0.02332362 </v>
    <v>       0.02332362 </v>
    <v>       0.02332362 </v>
    <v>       0.04664723 </v>
    <v>       0.04664723 </v>
    <v>       0.02332362 </v>
    <v>       0.04664723 </v>
    <v>       0.04664723 </v>
    <v>       0.02332362 </v>
    <v>       0.04664723 </v>
    <v>       0.04664723 </v>
    <v>       0.01166181 </v>
    <v>       0.02332362 </v>
    <v>       0.02332362 </v>
    <v>       0.04664723 </v>
    <v>       0.02332362 </v>
    <v>       0.04664723 </v>
    <v>       0.02332362 </v>
    <v>       0.04664723 </v>
    <v>       0.01166181 </v>
    <v>       0.02332362 </v>
    <v>       0.02332362 </v>
    <v>       0.02332362 </v>
   </varray>
  </kpoints>
  <time name="totalsc">  593.16  597.37</time>
 </calculation>
 <calculation>
  <scstep>
   <time name="dav">   33.66   33.65</time>
   <time name="total">   41.68   41.67</time>
   <energy>
    <i name="alphaZ">     12.80229548 </i>
    <i name="ewald">   -899.21993451 </i>
    <i name="hartreedc">    -60.78736153 </i>
    <i name="XCdc">    -78.81996310 </i>
    <i name="pawpsdc">   2157.84837703 </i>
    <i name="pawaedc">  -2011.70710492 </i>
    <i name="eentropy">     -0.00012909 </i>
    <i name="bandstr">     12.13352872 </i>
    <i name="atom">    834.37766373 </i>
    <i name="e_fr_energy">    -33.37262820 </i>
    <i name="e_wo_entrp">    -33.37249911 </i>
    <i name="e_0_energy">    -33.37256366 </i>
   </energy>
  </scstep>
  <scstep>
   <time name="dav">   33.13   33.12</time>
   <time name="total">   41.13   41.17</time>
   <energy>
    <i name="e_fr_energy">    -33.35259243 </i>
    <i name="e_wo_entrp">    -33.35243068 </i>
    <i name="e_0_energy">    -33.35251155 </i>
   </energy>
  </scstep>
  <scstep>
   <time name="dav">   33.80   33.79</time>
   <time name="total">   41.80   41.85</time>
   <energy>
    <i name="e_fr_energy">    -33.32717037 </i>
    <i name="e_wo_entrp">    -33.32695568 </i>
    <i name="e_0_energy">    -33.32706302 </i>
   </energy>
  </scstep>
  <scstep>
   <time name="dav">   33.10   33.09</time>
   <time name="total">   41.09   41.09</time>
   <energy>
    <i name="e_fr_energy">    -33.32428494 </i>
    <i name="e_wo_entrp">    -33.32407086 </i>
    <i name="e_0_energy">    -33.32417790 </i>
   </energy>
  </scstep>
  <scstep>
   <time name="dav">   34.09   34.07</time>
   <time name="total">   42.24   42.26</time>
   <energy>
    <i name="e_fr_energy">    -33.32011803 </i>
    <i name="e_wo_entrp">    -33.31990564 </i>
    <i name="e_0_energy">    -33.32001184 </i>
   </energy>
  </scstep>
  <scstep>
   <time name="dav">   35.01   35.00</time>
   <time name="total">   43.16   43.19</time>
   <energy>
    <i name="e_fr_energy">    -33.31912525 </i>
    <i name="e_wo_entrp">    -33.31891319 </i>
    <i name="e_0_energy">    -33.31901922 </i>
   </energy>
  </scstep>
  <scstep>
   <time name="dav">   31.83   31.81</time>
   <time name="total">   39.98   40.24</time>
   <energy>
    <i name="e_fr_energy">    -33.31923278 </i>
    <i name="e_wo_entrp">    -33.31902068 </i>
    <i name="e_0_energy">    -33.31912673 </i>
   </energy>
  </scstep>
  <scstep>
   <time name="dav">   32.10   32.09</time>
   <time name="total">   40.26   40.29</time>
   <energy>
    <i name="e_fr_energy">    -33.31952248 </i>
    <i name="e_wo_entrp">    -33.31931030 </i>
    <i name="e_0_energy">    -33.31941639 </i>
   </energy>
  </scstep>
  <scstep>
   <time name="dav">   24.22   24.21</time>
   <time name="total">   32.69   33.14</time>
   <energy>
    <i name="e_fr_energy">    -33.31951404 </i>
    <i name="e_wo_entrp">    -33.31930187 </i>
    <i name="e_0_energy">    -33.31940795 </i>
   </energy>
  </scstep>
  <scstep>
   <time name="dav">   23.80   23.79</time>
   <time name="total">   32.24   32.91</time>
   <energy>
    <i name="e_fr_energy">    -33.31951438 </i>
    <i name="e_wo_entrp">    -33.31930221 </i>
    <i name="e_0_energy">    -33.31940830 </i>
   </energy>
  </scstep>
  <scstep>
   <time name="dav">   22.80   22.80</time>
   <time name="total">   31.26   31.26</time>
   <energy>
    <i name="e_fr_energy">    -33.31951521 </i>
    <i name="e_wo_entrp">    -33.31930304 </i>
    <i name="e_0_energy">    -33.31940913 </i>
   </energy>
  </scstep>
  <scstep>
   <time name="dav">   22.45   22.44</time>
   <time name="total">   30.90   30.95</time>
   <energy>
    <i name="e_fr_energy">    -33.31951507 </i>
    <i name="e_wo_entrp">    -33.31930291 </i>
    <i name="e_0_energy">    -33.31940899 </i>
   </energy>
  </scstep>
  <scstep>
   <time name="dav">   22.00   21.99</time>
   <time name="total">   30.46   30.51</time>
   <energy>
    <i name="e_fr_energy">    -33.31951446 </i>
    <i name="e_wo_entrp">    -33.31930229 </i>
    <i name="e_0_energy">    -33.31940838 </i>
   </energy>
  </scstep>
  <scstep>
   <time name="dav">   21.89   21.88</time>
   <time name="total">   30.32   30.34</time>
   <energy>
    <i name="e_fr_energy">    -33.31951404 </i>
    <i name="e_wo_entrp">    -33.31930188 </i>
    <i name="e_0_energy">    -33.31940796 </i>
   </energy>
  </scstep>
  <scstep>
   <time name="dav">   21.36   21.35</time>
   <time name="total">   28.97   28.97</time>
   <energy>
    <i name="alphaZ">     12.80229548 </i>
    <i name="ewald">   -899.21993451 </i>
    <i name="hartreedc">    -62.80248833 </i>
    <i name="XCdc">    -78.81269024 </i>
    <i name="pawpsdc">   2024.84924400 </i>
    <i name="pawaedc">  -1878.57279148 </i>
    <i name="eentropy">     -0.00021217 </i>
    <i name="bandstr">     14.05939946 </i>
    <i name="atom">    834.37766373 </i>
    <i name="e_fr_energy">    -33.31951406 </i>
    <i name="e_wo_entrp">    -33.31930189 </i>
    <i name="e_0_energy">    -33.31940798 </i>
   </energy>
  </scstep>
  <structure>
   <crystal>
    <varray name="basis" >
     <v>       5.49364000       0.00000000       0.00000000 </v>
     <v>       0.00000000       5.57604460       0.00000000 </v>
     <v>       0.00000000       0.00000000       5.49364000 </v>
    </varray>
    <i name="volume">    168.28547462 </i>
    <varray name="rec_basis" >
     <v>       0.18202867       0.00000000       0.00000000 </v>
     <v>       0.00000000       0.17933859       0.00000000 </v>
     <v>       0.00000000       0.00000000       0.18202867 </v>
    </varray>
   </crystal>
   <varray name="positions" >
    <v>       0.25000000       0.25000000       0.25000000 </v>
    <v>       0.50000000       0.00000000       0.50000000 </v>
    <v>       0.25000000       0.75000000       0.75000000 </v>
    <v>       0.50000000       0.50000000       0.00000000 </v>
    <v>       0.75000000       0.25000000       0.75000000 </v>
    <v>       0.00000000       0.00000000       0.00000000 </v>
    <v>       0.75000000       0.75000000       0.25000000 </v>
    <v>       0.00000000       0.50000000       0.50000000 </v>
   </varray>
  </structure>
  <varray name="forces" >
   <v>      -0.00000000       0.00000000      -0.00000000 </v>
   <v>       0.00000000      -0.00000000       0.00000000 </v>
   <v>      -0.00000000      -0.00000000      -0.00000000 </v>
   <v>       0.00000000      -0.00000000       0.00000000 </v>
   <v>       0.00000000      -0.00000000      -0.00000000 </v>
   <v>      -0.00000000       0.00000000       0.00000000 </v>
   <v>       0.00000000      -0.00000000      -0.00000000 </v>
   <v>       0.00000000       0.00000000       0.00000000 </v>
  </varray>
  <varray name="stress" >
   <v>      -7.77201171       0.00000000       0.00000000 </v>
   <v>       0.00000000     -22.09712977       0.00000000 </v>
   <v>       0.00000000       0.00000000      -7.77201171 </v>
  </varray>
  <energy>
   <i name="e_fr_energy">    -33.31951406 </i>
   <i name="e_wo_entrp">    -33.31940798 </i>
   <i name="e_0_energy">     -0.00021217 </i>
  </energy>
  <kpoints>
   <generation param="Gamma">
    <v type="int" name="divisions">       7        7        7 </v>
    <v name="usershift">      0.00000000       0.00000000       0.00000000 </v>
    <v name="genvec1">      0.14285714       0.00000000       0.00000000 </v>
    <v name="genvec2">      0.00000000       0.14285714       0.00000000 </v>
    <v name="genvec3">      0.00000000       0.00000000       0.14285714 </v>
    <v name="shift">      0.00000000       0.00000000       0.00000000 </v>
   </generation>
   <varray name="kpointlist" >
    <v>       0.00000000       0.00000000       0.00000000 </v>
    <v>       0.14285714       0.00000000       0.00000000 </v>
    <v>       0.28571429       0.00000000       0.00000000 </v>
    <v>       0.42857143       0.00000000       0.00000000 </v>
    <v>       0.00000000       0.14285714       0.00000000 </v>
    <v>       0.14285714       0.14285714       0.00000000 </v>
    <v>       0.28571429       0.14285714       0.00000000 </v>
    <v>       0.42857143       0.14285714       0.00000000 </v>
    <v>       0.00000000       0.28571429       0.00000000 </v>
    <v>       0.14285714       0.28571429       0.00000000 </v>
    <v>       0.28571429       0.28571429       0.00000000 </v>
    <v>       0.42857143       0.28571429       0.00000000 </v>
    <v>       0.00000000       0.42857143       0.00000000 </v>
    <v>       0.14285714       0.42857143       0.00000000 </v>
    <v>       0.28571429       0.42857143       0.00000000 </v>
    <v>       0.42857143       0.42857143       0.00000000 </v>
    <v>       0.14285714       0.00000000       0.14285714 </v>
    <v>       0.28571429       0.00000000       0.14285714 </v>
    <v>       0.42857143       0.00000000       0.14285714 </v>
    <v>       0.14285714       0.14285714       0.14285714 </v>
    <v>       0.28571429       0.14285714       0.14285714 </v>
    <v>       0.42857143       0.14285714       0.14285714 </v>
    <v>       0.14285714       0.28571429       0.14285714 </v>
    <v>       0.28571429       0.28571429       0.14285714 </v>
    <v>       0.42857143       0.28571429       0.14285714 </v>
    <v>       0.14285714       0.42857143       0.14285714 </v>
    <v>       0.28571429       0.42857143       0.14285714 </v>
    <v>       0.42857143       0.42857143       0.14285714 </v>
    <v>       0.28571429       0.00000000       0.28571429 </v>
    <v>       0.42857143       0.00000000       0.28571429 </v>
    <v>       0.28571429       0.14285714       0.28571429 </v>
    <v>       0.42857143       0.14285714       0.28571429 </v>
    <v>       0.28571429       0.28571429       0.28571429 </v>
    <v>       0.42857143       0.28571429       0.28571429 </v>
    <v>       0.28571429       0.42857143       0.28571429 </v>
    <v>       0.42857143       0.42857143       0.28571429 </v>
    <v>       0.42857143       0.00000000       0.42857143 </v>
    <v>       0.42857143       0.14285714       0.42857143 </v>
    <v>       0.42857143       0.28571429       0.42857143 </v>
    <v>       0.42857143       0.42857143       0.42857143 </v>
   </varray>
   <varray name="weights" >
    <v>       0.00291545 </v>
    <v>       0.01166181 </v>
    <v>       0.01166181 </v>
    <v>       0.01166181 </v>
    <v>       0.00583090 </v>
    <v>       0.02332362 </v>
    <v>       0.02332362 </v>
    <v>       0.02332362 </v>
    <v>       0.00583090 </v>
    <v>       0.02332362 </v>
    <v>       0.02332362 </v>
    <v>       0.02332362 </v>
    <v>       0.00583090 </v>
    <v>       0.02332362 </v>
    <v>       0.02332362 </v>
    <v>       0.02332362 </v>
    <v>       0.01166181 </v>
    <v>       0.02332362 </v>
    <v>       0.02332362 </v>
    <v>       0.02332362 </v>
    <v>       0.04664723 </v>
    <v>       0.04664723 </v>
    <v>       0.02332362 </v>
    <v>       0.04664723 </v>
    <v>       0.04664723 </v>
    <v>       0.02332362 </v>
    <v>       0.04664723 </v>
    <v>       0.04664723 </v>
    <v>       0.01166181 </v>
    <v>       0.02332362 </v>
    <v>       0.02332362 </v>
    <v>       0.04664723 </v>
    <v>       0.02332362 </v>
    <v>       0.04664723 </v>
    <v>       0.02332362 </v>
    <v>       0.04664723 </v>
    <v>       0.01166181 </v>
    <v>       0.02332362 </v>
    <v>       0.02332362 </v>
    <v>       0.02332362 </v>
   </varray>
  </kpoints>
  <time name="totalsc">  586.52  589.13</time>
 </calculation>
 <calculation>
  <scstep>
   <time name="dav">   34.16   34.14</time>
   <time name="total">   42.39   42.38</time>
   <energy>
    <i name="alphaZ">     13.19221311 </i>
    <i name="ewald">   -908.25887404 </i>
    <i name="hartreedc">    -63.43285613 </i>
    <i name="XCdc">    -78.27871738 </i>
    <i name="pawpsdc">   2024.84938125 </i>
    <i name="pawaedc">  -1878.57292887 </i>
    <i name="eentropy">     -0.00051979 </i>
    <i name="bandstr">     22.79100312 </i>
    <i name="atom">    834.37766373 </i>
    <i name="e_fr_energy">    -33.33363500 </i>
    <i name="e_wo_entrp">    -33.33311521 </i>
    <i name="e_0_energy">    -33.33337510 </i>
   </energy>
  </scstep>
  <scstep>
   <time name="dav">   34.75   34.74</time>
   <time name="total">   42.91   42.90</time>
   <energy>
    <i name="e_fr_energy">    -33.33410839 </i>
    <i name="e_wo_entrp">    -33.33367571 </i>
    <i name="e_0_energy">    -33.33389205 </i>
   </energy>
  </scstep>
  <scstep>
   <time name="dav">   35.23   35.23</time>
   <time name="total">   43.38   43.64</time>
   <energy>
    <i name="e_fr_energy">    -33.34596289 </i>
    <i name="e_wo_entrp">    -33.34562117 </i>
    <i name="e_0_energy">    -33.34579203 </i>
   </energy>
  </scstep>
  <scstep>
   <time name="dav">   35.04   35.03</time>
   <time name="total">   43.19   43.21</time>
   <energy>
    <i name="e_fr_energy">    -33.34982124 </i>
    <i name="e_wo_entrp">    -33.34948189 </i>
    <i name="e_0_energy">    -33.34965157 </i>
   </energy>
  </scstep>
  <scstep>
   <time name="dav">   34.01   34.00</time>
   <time name="total">   42.22   42.46</time>
   <energy>
    <i name="e_fr_energy">    -33.35426086 </i>
    <i name="e_wo_entrp">    -33.35391790 </i>
    <i name="e_0_energy">    -33.35408938 </i>
   </energy>
  </scstep>
  <scstep>
   <time name="dav">   36.34   36.33</time>
   <time name="total">   44.82   44.84</time>
   <energy>
    <i name="e_fr_energy">    -33.35483280 </i>
    <i name="e_wo_entrp">    -33.35448963 </i>
    <i name="e_0_energy">    -33.35466122 </i>
   </energy>
  </scstep>
  <scstep>
   <time name="dav">   33.85   33.84</time>
   <time name="total">   42.36   42.37</time>
   <energy>
    <i name="e_fr_energy">    -33.35451070 </i>
    <i name="e_wo_entrp">    -33.35416763 </i>
    <i name="e_0_energy">    -33.35433917 </i>
   </energy>
  </scstep>
  <scstep>
   <time name="dav">   26.08   26.07</time>
   <time name="total">   34.56   34.80</time>
   <energy>
    <i name="e_fr_energy">    -33.35439035 </i>
    <i name="e_wo_entrp">    -33.35404729 </i>
    <i name="e_0_energy">    -33.35421882 </i>
   </energy>
  </scstep>
  <scstep>
   <time name="dav">   23.60   23.59</time>
   <time name="total">   32.06   32.10</time>
   <energy>
    <i name="e_fr_energy">    -33.35439134 </i>
    <i name="e_wo_entrp">    -33.35404828 </i>
    <i name="e_0_energy">    -33.35421981 </i>
   </energy>
  </scstep>
  <scstep>
   <time name="dav">   23.54   23.53</time>
   <time name="total">   32.03   32.09</time>
   <energy>
    <i name="e_fr_energy">    -33.35440256 </i>
    <i name="e_wo_entrp">    -33.35405948 </i>
    <i name="e_0_energy">    -33.35423102 </i>
   </energy>
  </scstep>
  <scstep>
   <time name="dav">   23.35   23.34</time>
   <time name="total">   31.52   31.55</time>
   <energy>
    <i name="e_fr_energy">    -33.35440238 </i>
    <i name="e_wo_entrp">    -33.35405930 </i>
    <i name="e_0_energy">    -33.35423084 </i>
   </energy>
  </scstep>
  <scstep>
   <time name="dav">   23.16   23.16</time>
   <time name="total">   31.33   31.56</time>
   <energy>
    <i name="e_fr_energy">    -33.35440254 </i>
    <i name="e_wo_entrp">    -33.35405946 </i>
    <i name="e_0_energy">    -33.35423100 </i>
   </energy>
  </scstep>
  <scstep>
   <time name="dav">   22.50   22.50</time>
   <time name="total">   30.67   30.71</time>
   <energy>
    <i name="e_fr_energy">    -33.35440379 </i>
    <i name="e_wo_entrp">    -33.35406070 </i>
    <i name="e_0_energy">    -33.35423224 </i>
   </energy>
  </scstep>
  <scstep>
   <time name="dav">   20.34   20.33</time>
   <time name="total">   28.46   28.53</time>
   <energy>
    <i name="e_fr_energy">    -33.35440446 </i>
    <i name="e_wo_entrp">    -33.35406138 </i>
    <i name="e_0_energy">    -33.35423292 </i>
   </energy>
  </scstep>
  <scstep>
   <time name="dav">   21.60   21.59</time>
   <time name="total">   28.97   29.01</time>
   <energy>
    <i name="alphaZ">     13.19221311 </i>
    <i name="ewald">   -908.25887404 </i>
    <i name="hartreedc">    -61.39829396 </i>
    <i name="XCdc">    -78.28138611 </i>
    <i name="pawpsdc">   2157.85216365 </i>
    <i name="pawaedc">  -2011.71089195 </i>
    <i name="eentropy">     -0.00034308 </i>
    <i name="bandstr">     20.87334424 </i>
    <i name="atom">    834.37766373 </i>
    <i name="e_fr_energy">    -33.35440441 </i>
    <i name="e_wo_entrp">    -33.35406132 </i>
    <i name="e_0_energy">    -33.35423286 </i>
   </energy>
  </scstep>
  <structure>
   <crystal>
    <varray name="basis" >
     <v>       5.49364000       0.00000000       0.00000000 </v>
     <v>       0.00000000       5.41123540       0.00000000 </v>
     <v>       0.00000000       0.00000000       5.49364000 </v>
    </varray>
    <i name="volume">    163.31151970 </i>
    <varray name="rec_basis" >
     <v>       0.18202867       0.00000000       0.00000000 </v>
     <v>       0.00000000       0.18480068       0.00000000 </v>
     <v>       0.00000000       0.00000000       0.18202867 </v>
    </varray>
   </crystal>
   <varray name="positions" >
    <v>       0.25000000       0.25000000       0.25000000 </v>
    <v>       0.50000000       0.00000000       0.50000000 </v>
    <v>       0.25000000       0.75000000       0.75000000 </v>
    <v>       0.50000000       0.50000000       0.00000000 </v>
    <v>       0.75000000       0.25000000       0.75000000 </v>
    <v>       0.00000000       0.00000000       0.00000000 </v>
    <v>       0.75000000       0.75000000       0.25000000 </v>
    <v>       0.00000000       0.50000000       0.50000000 </v>
   </varray>
  </structure>
  <varray name="forces" >
   <v>       0.00000000       0.00000000      -0.00000000 </v>
   <v>      -0.00000000      -0.00000000       0.00000000 </v>
   <v>       0.00000000       0.00000000      -0.00000000 </v>
   <v>       0.00000000      -0.00000000       0.00000000 </v>
   <v>      -0.00000000      -0.00000000       0.00000000 </v>
   <v>       0.00000000       0.00000000       0.00000000 </v>
   <v>      -0.00000000       0.00000000      -0.00000000 </v>
   <v>       0.00000000      -0.00000000       0.00000000 </v>
  </varray>
  <varray name="stress" >
   <v>       9.00973615       0.00000000       0.00000000 </v>
   <v>       0.00000000      22.93368012       0.00000000 </v>
   <v>       0.00000000       0.00000000       9.00973615 </v>
  </varray>
  <energy>
   <i name="e_fr_energy">    -33.35440441 </i>
   <i name="e_wo_entrp">    -33.35423286 </i>
   <i name="e_0_energy">     -0.00034308 </i>
  </energy>
  <kpoints>
   <generation param="Gamma">
    <v type="int" name="divisions">       7        7        7 </v>
    <v name="usershift">      0.00000000       0.00000000       0.00000000 </v>
    <v name="genvec1">      0.14285714       0.00000000       0.00000000 </v>
    <v name="genvec2">      0.00000000       0.14285714       0.00000000 </v>
    <v name="genvec3">      0.00000000       0.00000000       0.14285714 </v>
    <v name="shift">      0.00000000       0.00000000       0.00000000 </v>
   </generation>
   <varray name="kpointlist" >
    <v>       0.00000000       0.00000000       0.00000000 </v>
    <v>       0.14285714       0.00000000       0.00000000 </v>
    <v>       0.28571429       0.00000000       0.00000000 </v>
    <v>       0.42857143       0.00000000       0.00000000 </v>
    <v>       0.14285714       0.14285714       0.00000000 </v>
    <v>       0.28571429       0.14285714       0.00000000 </v>
    <v>       0.42857143       0.14285714       0.00000000 </v>
    <v>       0.28571429       0.28571429       0.00000000 </v>
    <v>       0.42857143       0.28571429       0.00000000 </v>
    <v>       0.42857143       0.42857143       0.00000000 </v>
    <v>       0.00000000       0.00000000       0.14285714 </v>
    <v>       0.14285714       0.00000000       0.14285714 </v>
    <v>       0.28571429       0.00000000       0.14285714 </v>
    <v>       0.42857143       0.00000000       0.14285714 </v>
    <v>       0.14285714       0.14285714       0.14285714 </v>
    <v>       0.28571429       0.14285714       0.14285714 </v>
    <v>       0.42857143       0.14285714       0.14285714 </v>
    <v>       0.28571429       0.28571429       0.14285714 </v>
    <v>       0.42857143       0.28571429       0.14285714 </v>
    <v>       0.42857143       0.42857143       0.14285714 </v>
    <v>       0.00000000       0.00000000       0.28571429 </v>
    <v>       0.14285714       0.00000000       0.28571429 </v>
    <v>       0.28571429       0.00000000       0.28571429 </v>
    <v>       0.42857143       0.00000000       0.28571429 </v>
    <v>       0.14285714       0.14285714       0.28571429 </v>
    <v>       0.28571429       0.14285714       0.28571429 </v>
    <v>       0.42857143       0.14285714       0.28571429 </v>
    <v>       0.28571429       0.28571429       0.28571429 </v>
    <v>       0.42857143       0.28571429       0.28571429 </v>
    <v>       0.42857143       0.42857143       0.28571429 </v>
    <v>       0.00000000       0.00000000       0.42857143 </v>
    <v>       0.14285714       0.00000000       0.42857143 </v>
    <v>       0.28571429       0.00000000       0.42857143 </v>
    <v>       0.42857143       0.00000000       0.42857143 </v>
    <v>       0.14285714       0.14285714       0.42857143 </v>
    <v>       0.28571429       0.14285714       0.42857143 </v>
    <v>       0.42857143       0.14285714       0.42857143 </v>
    <v>       0.28571429       0.28571429       0.42857143 </v>
    <v>       0.42857143       0.28571429       0.42857143 </v>
    <v>       0.42857143       0.42857143       0.42857143 </v>
   </varray>
   <varray name="weights" >
    <v>       0.00291545 </v>
    <v>       0.01166181 </v>
    <v>       0.01166181 </v>
    <v>       0.01166181 </v>
    <v>       0.01166181 </v>
    <v>       0.02332362 </v>
    <v>       0.02332362 </v>
    <v>       0.01166181 </v>
    <v>       0.02332362 </v>
    <v>       0.01166181 </v>
    <v>       0.00583090 </v>
    <v>       0.02332362 </v>
    <v>       0.02332362 </v>
    <v>       0.02332362 </v>
    <v>       0.02332362 </v>
    <v>       0.04664723 </v>
    <v>       0.04664723 </v>
    <v>       0.02332362 </v>
    <v>       0.04664723 </v>
    <v>       0.02332362 </v>
    <v>       0.00583090 </v>
    <v>       0.02332362 </v>
    <v>       0.02332362 </v>
    <v>       0.02332362 </v>
    <v>       0.02332362 </v>
    <v>       0.04664723 </v>
    <v>       0.04664723 </v>
    <v>       0.02332362 </v>
    <v>       0.04664723 </v>
    <v>       0.02332362 </v>
    <v>       0.00583090 </v>
    <v>       0.02332362 </v>
    <v>       0.02332362 </v>
    <v>       0.02332362 </v>
    <v>       0.02332362 </v>
    <v>       0.04664723 </v>
    <v>       0.04664723 </v>
    <v>       0.02332362 </v>
    <v>       0.04664723 </v>
    <v>       0.02332362 </v>
   </varray>
  </kpoints>
  <time name="totalsc">  589.14  590.81</time>
 </calculation>
 <calculation>
  <scstep>
   <time name="dav">   32.80   32.78</time>
   <time name="total">   40.75   40.73</time>
   <energy>
    <i name="alphaZ">     12.80229548 </i>
    <i name="ewald">   -899.21993451 </i>
    <i name="hartreedc">    -60.78736142 </i>
    <i name="XCdc">    -78.81996295 </i>
    <i name="pawpsdc">   2157.84945953 </i>
    <i name="pawaedc">  -2011.70818755 </i>
    <i name="eentropy">     -0.00012541 </i>
    <i name="bandstr">     12.13359971 </i>
    <i name="atom">    834.37766373 </i>
    <i name="e_fr_energy">    -33.37255339 </i>
    <i name="e_wo_entrp">    -33.37242797 </i>
    <i name="e_0_energy">    -33.37249068 </i>
   </energy>
  </scstep>
  <scstep>
   <time name="dav">   32.30   32.29</time>
   <time name="total">   40.66   40.90</time>
   <energy>
    <i name="e_fr_energy">    -33.35245052 </i>
    <i name="e_wo_entrp">    -33.35229156 </i>
    <i name="e_0_energy">    -33.35237104 </i>
   </energy>
  </scstep>
  <scstep>
   <time name="dav">   33.54   33.53</time>
   <time name="total">   41.88   41.92</time>
   <energy>
    <i name="e_fr_energy">    -33.32705019 </i>
    <i name="e_wo_entrp">    -33.32683572 </i>
    <i name="e_0_energy">    -33.32694295 </i>
   </energy>
  </scstep>
  <scstep>
   <time name="dav">   32.78   32.76</time>
   <time name="total">   41.13   41.39</time>
   <energy>
    <i name="e_fr_energy">    -33.32430309 </i>
    <i name="e_wo_entrp">    -33.32408941 </i>
    <i name="e_0_energy">    -33.32419625 </i>
   </energy>
  </scstep>
  <scstep>
   <time name="dav">   33.08   33.07</time>
   <time name="total">   41.44   41.67</time>
   <energy>
    <i name="e_fr_energy">    -33.32023827 </i>
    <i name="e_wo_entrp">    -33.32002597 </i>
    <i name="e_0_energy">    -33.32013212 </i>
   </energy>
  </scstep>
  <scstep>
   <time name="dav">   33.16   33.15</time>
   <time name="total">   41.48   41.75</time>
   <energy>
    <i name="e_fr_energy">    -33.31912463 </i>
    <i name="e_wo_entrp">    -33.31891257 </i>
    <i name="e_0_energy">    -33.31901860 </i>
   </energy>
  </scstep>
  <scstep>
   <time name="dav">   31.79   31.78</time>
   <time name="total">   40.12   40.56</time>
   <energy>
    <i name="e_fr_energy">    -33.31930669 </i>
    <i name="e_wo_entrp">    -33.31909457 </i>
    <i name="e_0_energy">    -33.31920063 </i>
   </energy>
  </scstep>
  <scstep>
   <time name="dav">   28.66   28.65</time>
   <time name="total">   36.54   36.80</time>
   <energy>
    <i name="e_fr_energy">    -33.31951856 </i>
    <i name="e_wo_entrp">    -33.31930638 </i>
    <i name="e_0_energy">    -33.31941247 </i>
   </energy>
  </scstep>
  <scstep>
   <time name="dav">   23.36   23.35</time>
   <time name="total">   31.25   31.50</time>
   <energy>
    <i name="e_fr_energy">    -33.31951316 </i>
    <i name="e_wo_entrp">    -33.31930098 </i>
    <i name="e_0_energy">    -33.31940707 </i>
   </energy>
  </scstep>
  <scstep>
   <time name="dav">   23.26   23.26</time>
   <time name="total">   31.18   31.46</time>
   <energy>
    <i name="e_fr_energy">    -33.31951497 </i>
    <i name="e_wo_entrp">    -33.31930280 </i>
    <i name="e_0_energy">    -33.31940889 </i>
   </energy>
  </scstep>
  <scstep>
   <time name="dav">   22.95   22.94</time>
   <time name="total">   30.88   31.12</time>
   <energy>
    <i name="e_fr_energy">    -33.31951543 </i>
    <i name="e_wo_entrp">    -33.31930326 </i>
    <i name="e_0_energy">    -33.31940934 </i>
   </energy>
  </scstep>
  <scstep>
[...]
       <r>    32.8721     2.1092    94.7442 </r>
       <r>    32.8810     2.0995    94.7629 </r>
       <r>    32.8899     2.0914    94.7815 </r>
       <r>    32.8988     2.0846    94.8000 </r>
       <r>    32.9077     2.0790    94.8185 </r>
       <r>    32.9166     2.0743    94.8370 </r>
       <r>    32.9255     2.0705    94.8554 </r>
       <r>    32.9344     2.0673    94.8738 </r>
       <r>    32.9433     2.0648    94.8922 </r>
       <r>    32.9522     2.0626    94.9105 </r>
       <r>    32.9611     2.0609    94.9289 </r>
       <r>    32.9700     2.0594    94.9472 </r>
       <r>    32.9789     2.0581    94.9655 </r>
       <r>    32.9878     2.0570    94.9838 </r>
       <r>    32.9967     2.0559    95.0021 </r>
       <r>    33.0056     2.0548    95.0204 </r>
       <r>    33.0145     2.0536    95.0387 </r>
       <r>    33.0234     2.0524    95.0570 </r>
       <r>    33.0323     2.0510    95.0752 </r>
       <r>    33.0412     2.0493    95.0934 </r>
       <r>    33.0501     2.0474    95.1117 </r>
       <r>    33.0589     2.0451    95.1299 </r>
       <r>    33.0678     2.0424    95.1480 </r>
       <r>    33.0767     2.0392    95.1662 </r>
       <r>    33.0856     2.0355    95.1843 </r>
       <r>    33.0945     2.0311    95.2024 </r>
       <r>    33.1034     2.0259    95.2204 </r>
       <r>    33.1123     2.0199    95.2384 </r>
       <r>    33.1212     2.0130    95.2563 </r>
       <r>    33.1301     2.0051    95.2741 </r>
       <r>    33.1390     1.9961    95.2919 </r>
       <r>    33.1479     1.9860    95.3096 </r>
       <r>    33.1568     1.9746    95.3271 </r>
       <r>    33.1657     1.9620    95.3446 </r>
       <r>    33.1746     1.9479    95.3619 </r>
       <r>    33.1835     1.9324    95.3791 </r>
       <r>    33.1924     1.9155    95.3962 </r>
       <r>    33.2013     1.8970    95.4131 </r>
       <r>    33.2102     1.8771    95.4298 </r>
       <r>    33.2191     1.8555    95.4463 </r>
       <r>    33.2280     1.8325    95.4626 </r>
       <r>    33.2369     1.8080    95.4787 </r>
       <r>    33.2458     1.7819    95.4945 </r>
       <r>    33.2547     1.7545    95.5101 </r>
       <r>    33.2636     1.7256    95.5255 </r>
       <r>    33.2725     1.6954    95.5406 </r>
       <r>    33.2814     1.6639    95.5554 </r>
       <r>    33.2903     1.6312    95.5699 </r>
       <r>    33.2992     1.5974    95.5841 </r>
       <r>    33.3081     1.5625    95.5980 </r>
       <r>    33.3170     1.5268    95.6116 </r>
       <r>    33.3259     1.4901    95.6249 </r>
       <r>    33.3348     1.4527    95.6378 </r>
       <r>    33.3437     1.4147    95.6504 </r>
       <r>    33.3526     1.3760    95.6626 </r>
       <r>    33.3615     1.3369    95.6745 </r>
       <r>    33.3704     1.2975    95.6861 </r>
       <r>    33.3793     1.2577    95.6973 </r>
       <r>    33.3882     1.2176    95.7081 </r>
       <r>    33.3971     1.1775    95.7186 </r>
       <r>    33.4060     1.1373    95.7287 </r>
       <r>    33.4149     1.0972    95.7385 </r>
       <r>    33.4238     1.0571    95.7479 </r>
       <r>    33.4327     1.0172    95.7569 </r>
       <r>    33.4416     0.9776    95.7656 </r>
       <r>    33.4505     0.9383    95.7740 </r>
       <r>    33.4594     0.8994    95.7820 </r>
       <r>    33.4683     0.8610    95.7896 </r>
       <r>    33.4772     0.8231    95.7970 </r>
       <r>    33.4861     0.7858    95.8040 </r>
       <r>    33.4950     0.7492    95.8106 </r>
       <r>    33.5039     0.7134    95.8170 </r>
       <r>    33.5128     0.6783    95.8230 </r>
       <r>    33.5217     0.6441    95.8287 </r>
       <r>    33.5306     0.6109    95.8342 </r>
       <r>    33.5395     0.5786    95.8393 </r>
       <r>    33.5484     0.5474    95.8442 </r>
       <r>    33.5573     0.5173    95.8488 </r>
       <r>    33.5662     0.4883    95.8531 </r>
       <r>    33.5751     0.4605    95.8572 </r>
       <r>    33.5840     0.4339    95.8611 </r>
       <r>    33.5929     0.4085    95.8647 </r>
       <r>    33.6018     0.3843    95.8682 </r>
       <r>    33.6107     0.3614    95.8714 </r>
       <r>    33.6196     0.3398    95.8744 </r>
       <r>    33.6285     0.3193    95.8772 </r>
       <r>    33.6374     0.3001    95.8799 </r>
       <r>    33.6463     0.2821    95.8824 </r>
       <r>    33.6552     0.2653    95.8848 </r>
       <r>    33.6641     0.2495    95.8870 </r>
       <r>    33.6730     0.2349    95.8891 </r>
       <r>    33.6819     0.2213    95.8911 </r>
       <r>    33.6908     0.2087    95.8929 </r>
       <r>    33.6997     0.1970    95.8947 </r>
       <r>    33.7086     0.1862    95.8963 </r>
       <r>    33.7175     0.1763    95.8979 </r>
       <r>    33.7264     0.1670    95.8994 </r>
       <r>    33.7353     0.1586    95.9008 </r>
       <r>    33.7442     0.1507    95.9021 </r>
       <r>    33.7531     0.1435    95.9034 </r>
       <r>    33.7620     0.1369    95.9046 </r>
       <r>    33.7709     0.1307    95.9058 </r>
       <r>    33.7798     0.1251    95.9069 </r>
       <r>    33.7887     0.1199    95.9080 </r>
       <r>    33.7976     0.1152    95.9090 </r>
       <r>    33.8065     0.1109    95.9100 </r>
       <r>    33.8154     0.1069    95.9109 </r>
       <r>    33.8243     0.1034    95.9119 </r>
       <r>    33.8332     0.1002    95.9128 </r>
       <r>    33.8421     0.0974    95.9136 </r>
       <r>    33.8509     0.0950    95.9145 </r>
       <r>    33.8598     0.0930    95.9153 </r>
       <r>    33.8687     0.0914    95.9161 </r>
       <r>    33.8776     0.0901    95.9169 </r>
       <r>    33.8865     0.0893    95.9177 </r>
       <r>    33.8954     0.0889    95.9185 </r>
       <r>    33.9043     0.0889    95.9193 </r>
       <r>    33.9132     0.0893    95.9201 </r>
       <r>    33.9221     0.0902    95.9209 </r>
       <r>    33.9310     0.0916    95.9217 </r>
       <r>    33.9399     0.0934    95.9225 </r>
       <r>    33.9488     0.0956    95.9234 </r>
       <r>    33.9577     0.0983    95.9243 </r>
       <r>    33.9666     0.1014    95.9252 </r>
       <r>    33.9755     0.1049    95.9261 </r>
       <r>    33.9844     0.1088    95.9271 </r>
       <r>    33.9933     0.1131    95.9281 </r>
       <r>    34.0022     0.1177    95.9291 </r>
       <r>    34.0111     0.1226    95.9302 </r>
       <r>    34.0200     0.1278    95.9313 </r>
       <r>    34.0289     0.1331    95.9325 </r>
       <r>    34.0378     0.1387    95.9338 </r>
       <r>    34.0467     0.1443    95.9350 </r>
       <r>    34.0556     0.1500    95.9364 </r>
       <r>    34.0645     0.1557    95.9378 </r>
       <r>    34.0734     0.1613    95.9392 </r>
       <r>    34.0823     0.1668    95.9407 </r>
       <r>    34.0912     0.1722    95.9422 </r>
       <r>    34.1001     0.1773    95.9438 </r>
       <r>    34.1090     0.1821    95.9454 </r>
       <r>    34.1179     0.1865    95.9471 </r>
       <r>    34.1268     0.1906    95.9488 </r>
       <r>    34.1357     0.1942    95.9505 </r>
       <r>    34.1446     0.1973    95.9523 </r>
       <r>    34.1535     0.1999    95.9540 </r>
       <r>    34.1624     0.2019    95.9558 </r>
       <r>    34.1713     0.2033    95.9576 </r>
       <r>    34.1802     0.2041    95.9595 </r>
       <r>    34.1891     0.2043    95.9613 </r>
       <r>    34.1980     0.2039    95.9631 </r>
       <r>    34.2069     0.2028    95.9649 </r>
       <r>    34.2158     0.2011    95.9667 </r>
       <r>    34.2247     0.1988    95.9684 </r>
       <r>    34.2336     0.1958    95.9702 </r>
       <r>    34.2425     0.1923    95.9719 </r>
       <r>    34.2514     0.1883    95.9736 </r>
       <r>    34.2603     0.1838    95.9752 </r>
       <r>    34.2692     0.1788    95.9768 </r>
       <r>    34.2781     0.1733    95.9783 </r>
       <r>    34.2870     0.1675    95.9798 </r>
       <r>    34.2959     0.1613    95.9813 </r>
       <r>    34.3048     0.1549    95.9827 </r>
       <r>    34.3137     0.1482    95.9840 </r>
       <r>    34.3226     0.1414    95.9852 </r>
       <r>    34.3315     0.1344    95.9864 </r>
       <r>    34.3404     0.1273    95.9876 </r>
       <r>    34.3493     0.1202    95.9886 </r>
       <r>    34.3582     0.1131    95.9896 </r>
       <r>    34.3671     0.1061    95.9906 </r>
       <r>    34.3760     0.0992    95.9915 </r>
       <r>    34.3849     0.0924    95.9923 </r>
       <r>    34.3938     0.0858    95.9930 </r>
       <r>    34.4027     0.0794    95.9938 </r>
       <r>    34.4116     0.0732    95.9944 </r>
       <r>    34.4205     0.0672    95.9950 </r>
       <r>    34.4294     0.0616    95.9955 </r>
       <r>    34.4383     0.0562    95.9960 </r>
       <r>    34.4472     0.0511    95.9965 </r>
       <r>    34.4561     0.0463    95.9969 </r>
       <r>    34.4650     0.0418    95.9973 </r>
       <r>    34.4739     0.0376    95.9976 </r>
       <r>    34.4828     0.0337    95.9979 </r>
       <r>    34.4917     0.0301    95.9982 </r>
       <r>    34.5006     0.0268    95.9984 </r>
       <r>    34.5095     0.0238    95.9986 </r>
       <r>    34.5184     0.0210    95.9988 </r>
       <r>    34.5273     0.0185    95.9990 </r>
       <r>    34.5362     0.0162    95.9991 </r>
       <r>    34.5451     0.0142    95.9993 </r>
       <r>    34.5540     0.0123    95.9994 </r>
       <r>    34.5629     0.0107    95.9995 </r>
       <r>    34.5718     0.0093    95.9995 </r>
       <r>    34.5807     0.0080    95.9996 </r>
       <r>    34.5896     0.0068    95.9997 </r>
       <r>    34.5985     0.0059    95.9997 </r>
       <r>    34.6074     0.0050    95.9998 </r>
       <r>    34.6163     0.0042    95.9998 </r>
       <r>    34.6252     0.0036    95.9998 </r>
       <r>    34.6341     0.0030    95.9999 </r>
       <r>    34.6430     0.0025    95.9999 </r>
       <r>    34.6518     0.0021    95.9999 </r>
       <r>    34.6607     0.0018    95.9999 </r>
       <r>    34.6696     0.0015    95.9999 </r>
       <r>    34.6785     0.0012    96.0000 </r>
       <r>    34.6874     0.0010    96.0000 </r>
       <r>    34.6963     0.0008    96.0000 </r>
       <r>    34.7052     0.0007    96.0000 </r>
       <r>    34.7141     0.0005    96.0000 </r>
       <r>    34.7230     0.0004    96.0000 </r>
       <r>    34.7319     0.0004    96.0000 </r>
       <r>    34.7408     0.0003    96.0000 </r>
       <r>    34.7497     0.0002    96.0000 </r>
       <r>    34.7586     0.0002    96.0000 </r>
       <r>    34.7675     0.0001    96.0000 </r>
       <r>    34.7764     0.0001    96.0000 </r>
       <r>    34.7853     0.0001    96.0000 </r>
       <r>    34.7942     0.0001    96.0000 </r>
       <r>    34.8031     0.0001    96.0000 </r>
       <r>    34.8120     0.0000    96.0000 </r>
       <r>    34.8209     0.0000    96.0000 </r>
       <r>    34.8298     0.0000    96.0000 </r>
       <r>    34.8387     0.0000    96.0000 </r>
       <r>    34.8476     0.0000    96.0000 </r>
       <r>    34.8565     0.0000    96.0000 </r>
       <r>    34.8654     0.0000    96.0000 </r>
       <r>    34.8743     0.0000    96.0000 </r>
       <r>    34.8832     0.0000    96.0000 </r>
       <r>    34.8921     0.0000    96.0000 </r>
       <r>    34.9010     0.0000    96.0000 </r>
       <r>    34.9099     0.0000    96.0000 </r>
       <r>    34.9188     0.0000    96.0000 </r>
       <r>    34.9277     0.0000    96.0000 </r>
       <r>    34.9366     0.0000    96.0000 </r>
       <r>    34.9455     0.0000    96.0000 </r>
       <r>    34.9544     0.0000    96.0000 </r>
       <r>    34.9633     0.0000    96.0000 </r>
       <r>    34.9722     0.0000    96.0000 </r>
       <r>    34.9811     0.0000    96.0000 </r>
       <r>    34.9900     0.0000    96.0000 </r>
       <r>    34.9989     0.0000    96.0000 </r>
       <r>    35.0078     0.0000    96.0000 </r>
       <r>    35.0167     0.0000    96.0000 </r>
       <r>    35.0256     0.0000    96.0000 </r>
       <r>    35.0345     0.0000    96.0000 </r>
       <r>    35.0434     0.0000    96.0000 </r>
       <r>    35.0523     0.0000    96.0000 </r>
       <r>    35.0612     0.0000    96.0000 </r>
       <r>    35.0701     0.0000    96.0000 </r>
       <r>    35.0790     0.0000    96.0000 </r>
       <r>    35.0879     0.0000    96.0000 </r>
       <r>    35.0968     0.0000    96.0000 </r>
       <r>    35.1057     0.0000    96.0000 </r>
       <r>    35.1146     0.0000    96.0000 </r>
       <r>    35.1235     0.0000    96.0000 </r>
       <r>    35.1324     0.0000    96.0000 </r>
       <r>    35.1413     0.0000    96.0000 </r>
       <r>    35.1502     0.0000    96.0000 </r>
       <r>    35.1591     0.0000    96.0000 </r>
       <r>    35.1680     0.0000    96.0000 </r>
       <r>    35.1769     0.0000    96.0000 </r>
       <r>    35.1858     0.0000    96.0000 </r>
       <r>    35.1947     0.0000    96.0000 </r>
       <r>    35.2036     0.0000    96.0000 </r>
       <r>    35.2125     0.0000    96.0000 </r>
       <r>    35.2214     0.0000    96.0000 </r>
       <r>    35.2303     0.0000    96.0000 </r>
       <r>    35.2392     0.0000    96.0000 </r>
       <r>    35.2481     0.0000    96.0000 </r>
       <r>    35.2570     0.0000    96.0000 </r>
       <r>    35.2659     0.0000    96.0000 </r>
       <r>    35.2748     0.0000    96.0000 </r>
       <r>    35.2837     0.0000    96.0000 </r>
       <r>    35.2926     0.0000    96.0000 </r>
       <r>    35.3015     0.0000    96.0000 </r>
       <r>    35.3104     0.0000    96.0000 </r>
       <r>    35.3193     0.0000    96.0000 </r>
       <r>    35.3282     0.0000    96.0000 </r>
       <r>    35.3371     0.0000    96.0000 </r>
       <r>    35.3460     0.0000    96.0000 </r>
       <r>    35.3549     0.0000    96.0000 </r>
       <r>    35.3638     0.0000    96.0000 </r>
       <r>    35.3727     0.0000    96.0000 </r>
       <r>    35.3816     0.0000    96.0000 </r>
       <r>    35.3905     0.0000    96.0000 </r>
       <r>    35.3994     0.0000    96.0000 </r>
       <r>    35.4083     0.0000    96.0000 </r>
       <r>    35.4172     0.0000    96.0000 </r>
       <r>    35.4261     0.0000    96.0000 </r>
       <r>    35.4350     0.0000    96.0000 </r>
       <r>    35.4438     0.0000    96.0000 </r>
       <r>    35.4527     0.0000    96.0000 </r>
       <r>    35.4616     0.0000    96.0000 </r>
       <r>    35.4705     0.0000    96.0000 </r>
       <r>    35.4794     0.0000    96.0000 </r>
       <r>    35.4883     0.0000    96.0000 </r>
       <r>    35.4972     0.0000    96.0000 </r>
       <r>    35.5061     0.0000    96.0000 </r>
       <r>    35.5150     0.0000    96.0000 </r>
       <r>    35.5239     0.0000    96.0000 </r>
       <r>    35.5328     0.0000    96.0000 </r>
       <r>    35.5417     0.0000    96.0000 </r>
       <r>    35.5506     0.0000    96.0000 </r>
       <r>    35.5595     0.0000    96.0000 </r>
       <r>    35.5684     0.0000    96.0000 </r>
       <r>    35.5773     0.0000    96.0000 </r>
       <r>    35.5862     0.0000    96.0000 </r>
       <r>    35.5951     0.0000    96.0000 </r>
       <r>    35.6040     0.0000    96.0000 </r>
       <r>    35.6129     0.0000    96.0000 </r>
       <r>    35.6218     0.0000    96.0000 </r>
       <r>    35.6307     0.0000    96.0000 </r>
       <r>    35.6396     0.0000    96.0000 </r>
       <r>    35.6485     0.0000    96.0000 </r>
       <r>    35.6574     0.0000    96.0000 </r>
       <r>    35.6663     0.0000    96.0000 </r>
       <r>    35.6752     0.0000    96.0000 </r>
       <r>    35.6841     0.0000    96.0000 </r>
       <r>    35.6930     0.0000    96.0000 </r>
       <r>    35.7019     0.0000    96.0000 </r>
       <r>    35.7108     0.0000    96.0000 </r>
       <r>    35.7197     0.0000    96.0000 </r>
       <r>    35.7286     0.0000    96.0000 </r>
       <r>    35.7375     0.0000    96.0000 </r>
       <r>    35.7464     0.0000    96.0000 </r>
       <r>    35.7553     0.0000    96.0000 </r>
       <r>    35.7642     0.0000    96.0000 </r>
       <r>    35.7731     0.0000    96.0000 </r>
       <r>    35.7820     0.0000    96.0000 </r>
       <r>    35.7909     0.0000    96.0000 </r>
       <r>    35.7998     0.0000    96.0000 </r>
       <r>    35.8087     0.0000    96.0000 </r>
       <r>    35.8176     0.0000    96.0000 </r>
       <r>    35.8265     0.0000    96.0000 </r>
       <r>    35.8354     0.0000    96.0000 </r>
       <r>    35.8443     0.0000    96.0000 </r>
       <r>    35.8532     0.0000    96.0000 </r>
       <r>    35.8621     0.0000    96.0000 </r>
       <r>    35.8710     0.0000    96.0000 </r>
       <r>    35.8799     0.0000    96.0000 </r>
       <r>    35.8888     0.0000    96.0000 </r>
       <r>    35.8977     0.0000    96.0000 </r>
       <r>    35.9066     0.0000    96.0000 </r>
       <r>    35.9155     0.0000    96.0000 </r>
       <r>    35.9244     0.0000    96.0000 </r>
       <r>    35.9333     0.0000    96.0000 </r>
       <r>    35.9422     0.0000    96.0000 </r>
       <r>    35.9511     0.0000    96.0000 </r>
       <r>    35.9600     0.0000    96.0000 </r>
       <r>    35.9689     0.0000    96.0000 </r>
       <r>    35.9778     0.0000    96.0000 </r>
       <r>    35.9867     0.0000    96.0000 </r>
       <r>    35.9956     0.0000    96.0000 </r>
       <r>    36.0045     0.0000    96.0000 </r>
       <r>    36.0134     0.0000    96.0000 </r>
       <r>    36.0223     0.0000    96.0000 </r>
       <r>    36.0312     0.0000    96.0000 </r>
       <r>    36.0401     0.0000    96.0000 </r>
       <r>    36.0490     0.0000    96.0000 </r>
       <r>    36.0579     0.0000    96.0000 </r>
       <r>    36.0668     0.0000    96.0000 </r>
       <r>    36.0757     0.0000    96.0000 </r>
       <r>    36.0846     0.0000    96.0000 </r>
       <r>    36.0935     0.0000    96.0000 </r>
       <r>    36.1024     0.0000    96.0000 </r>
       <r>    36.1113     0.0000    96.0000 </r>
       <r>    36.1202     0.0000    96.0000 </r>
       <r>    36.1291     0.0000    96.0000 </r>
       <r>    36.1380     0.0000    96.0000 </r>
       <r>    36.1469     0.0000    96.0000 </r>
       <r>    36.1558     0.0000    96.0000 </r>
       <r>    36.1647     0.0000    96.0000 </r>
       <r>    36.1736     0.0000    96.0000 </r>
       <r>    36.1825     0.0000    96.0000 </r>
       <r>    36.1914     0.0000    96.0000 </r>
       <r>    36.2003     0.0000    96.0000 </r>
       <r>    36.2092     0.0000    96.0000 </r>
       <r>    36.2181     0.0000    96.0000 </r>
       <r>    36.2270     0.0000    96.0000 </r>
       <r>    36.2358     0.0000    96.0000 </r>
       <r>    36.2447     0.0000    96.0000 </r>
       <r>    36.2536     0.0000    96.0000 </r>
       <r>    36.2625     0.0000    96.0000 </r>
       <r>    36.2714     0.0000    96.0000 </r>
      </set>
     </set>
    </array>
   </total>
  </dos>
 </calculation>
 <structure name="finalpos" >
  <crystal>
   <varray name="basis" >
    <v>       5.49364000       0.00000000       0.00000000 </v>
    <v>       0.00000000       5.49364000       0.00000000 </v>
    <v>       0.00000000       0.00000000       5.49364000 </v>
   </varray>
   <i name="volume">    165.79849716 </i>
   <varray name="rec_basis" >
    <v>       0.18202867       0.00000000       0.00000000 </v>
    <v>       0.00000000       0.18202867       0.00000000 </v>
    <v>       0.00000000       0.00000000       0.18202867 </v>
   </varray>
  </crystal>
  <varray name="positions" >
   <v>       0.24726957       0.25000000       0.25000000 </v>
   <v>       0.50000000       0.00000000       0.50000000 </v>
   <v>       0.25000000       0.75000000       0.75000000 </v>
   <v>       0.50000000       0.50000000       0.00000000 </v>
   <v>       0.75000000       0.25000000       0.75000000 </v>
   <v>       0.00000000       0.00000000       0.00000000 </v>
   <v>       0.75000000       0.75000000       0.25000000 </v>
   <v>       0.00000000       0.50000000       0.50000000 </v>
  </varray>
 </structure>
</modeling>
