   2   2   0   0
  0.2072484E+02  0.3884592E-09  0.3884592E-09  0.3884592E-09  0.5000000E-15
   1.0000000000000000E-004
  CAR 
 unknown system                          
     30.18041820     -8.17847685  301      5.80916176      1.00000000
     -8.178  0.0000E+00  0.0000E+00
     -8.051  0.0000E+00  0.0000E+00
     -7.923  0.0000E+00  0.0000E+00
     -7.795  0.0000E+00  0.0000E+00
     -7.667  0.0000E+00  0.0000E+00
     -7.539  0.0000E+00  0.0000E+00
     -7.411  0.0000E+00  0.0000E+00
     -7.283  0.3473E-15  0.4441E-16
     -7.156  0.3048E-12  0.3902E-13
     -7.028  0.1194E-09  0.1531E-10
     -6.900  0.2104E-07  0.2705E-08
     -6.772  0.1673E-05  0.2166E-06
     -6.644  0.6041E-04  0.7941E-05
     -6.516  0.9964E-03  0.1353E-03
     -6.388  0.7558E-02  0.1102E-02
     -6.261  0.2655E-01  0.4497E-02
     -6.133  0.4394E-01  0.1011E-01
     -6.005  0.4277E-01  0.1558E-01
     -5.877  0.8361E-01  0.2627E-01
     -5.749  0.2575E+00  0.5920E-01
     -5.621  0.4712E+00  0.1194E+00
     -5.493  0.4947E+00  0.1827E+00
     -5.365  0.3127E+00  0.2227E+00
     -5.238  0.1198E+00  0.2380E+00
     -5.110  0.8476E-01  0.2488E+00
     -4.982  0.2638E+00  0.2826E+00
     -4.854  0.5025E+00  0.3468E+00
     -4.726  0.4811E+00  0.4083E+00
     -4.598  0.4442E+00  0.4651E+00
     -4.470  0.9107E+00  0.5816E+00
     -4.343  0.1386E+01  0.7588E+00
     -4.215  0.1027E+01  0.8901E+00
     -4.087  0.3588E+00  0.9360E+00
     -3.959  0.6660E-01  0.9445E+00
     -3.831  0.9403E-01  0.9565E+00
     -3.703  0.4642E+00  0.1016E+01
     -3.575  0.1118E+01  0.1159E+01
     -3.448  0.1287E+01  0.1323E+01
     -3.320  0.8980E+00  0.1438E+01
     -3.192  0.9024E+00  0.1553E+01
     -3.064  0.1064E+01  0.1690E+01
     -2.936  0.6863E+00  0.1777E+01
     -2.808  0.2115E+00  0.1804E+01
     -2.680  0.6130E-01  0.1812E+01
     -2.553  0.1744E+00  0.1834E+01
     -2.425  0.4332E+00  0.1890E+01
     -2.297  0.5070E+00  0.1955E+01
     -2.169  0.2824E+00  0.1991E+01
     -2.041  0.1284E+00  0.2007E+01
     -1.913  0.2574E+00  0.2040E+01
     -1.785  0.4940E+00  0.2103E+01
     -1.657  0.4554E+00  0.2162E+01
     -1.530  0.1966E+00  0.2187E+01
     -1.402  0.5711E-01  0.2194E+01
     -1.274  0.1737E+00  0.2216E+01
     -1.146  0.7729E+00  0.2315E+01
     -1.018  0.1729E+01  0.2536E+01
     -0.890  0.1952E+01  0.2786E+01
     -0.762  0.1245E+01  0.2945E+01
     -0.635  0.7719E+00  0.3044E+01
     -0.507  0.6376E+00  0.3125E+01
     -0.379  0.3525E+00  0.3170E+01
     -0.251  0.9598E-01  0.3182E+01
     -0.123  0.1730E-01  0.3185E+01
      0.005  0.6179E-01  0.3192E+01
      0.133  0.3359E+00  0.3235E+01
      0.260  0.8568E+00  0.3345E+01
      0.388  0.1018E+01  0.3475E+01
      0.516  0.5633E+00  0.3547E+01
      0.644  0.1460E+00  0.3566E+01
      0.772  0.3362E-01  0.3570E+01
      0.900  0.1130E+00  0.3585E+01
      1.028  0.3553E+00  0.3630E+01
      1.156  0.5250E+00  0.3697E+01
      1.283  0.3815E+00  0.3746E+01
      1.411  0.2939E+00  0.3783E+01
      1.539  0.7364E+00  0.3878E+01
      1.667  0.1419E+01  0.4059E+01
      1.795  0.1375E+01  0.4235E+01
      1.923  0.7249E+00  0.4327E+01
      2.051  0.5562E+00  0.4399E+01
      2.178  0.9509E+00  0.4520E+01
      2.306  0.1061E+01  0.4656E+01
      2.434  0.9702E+00  0.4780E+01
      2.562  0.1515E+01  0.4974E+01
      2.690  0.2125E+01  0.5245E+01
      2.818  0.2213E+01  0.5528E+01
      2.946  0.2404E+01  0.5836E+01
      3.073  0.2143E+01  0.6110E+01
      3.201  0.1095E+01  0.6250E+01
      3.329  0.3912E+00  0.6300E+01
      3.457  0.5362E+00  0.6368E+01
      3.585  0.1083E+01  0.6507E+01
      3.713  0.1372E+01  0.6682E+01
      3.841  0.1427E+01  0.6865E+01
      3.969  0.1319E+01  0.7033E+01
      4.096  0.9896E+00  0.7160E+01
      4.224  0.7096E+00  0.7251E+01
      4.352  0.7224E+00  0.7343E+01
      4.480  0.8436E+00  0.7451E+01
      4.608  0.8131E+00  0.7555E+01
      4.736  0.7955E+00  0.7656E+01
      4.864  0.8424E+00  0.7764E+01
      4.991  0.8064E+00  0.7867E+01
      5.119  0.4910E+00  0.7930E+01
      5.247  0.1681E+00  0.7952E+01
      5.375  0.9143E-01  0.7963E+01
      5.503  0.1284E+00  0.7980E+01
      5.631  0.1079E+00  0.7993E+01
      5.759  0.4377E-01  0.7999E+01
      5.886  0.2152E-01  0.8002E+01
      6.014  0.7900E-01  0.8012E+01
      6.142  0.2085E+00  0.8039E+01
      6.270  0.2662E+00  0.8073E+01
      6.398  0.2241E+00  0.8101E+01
      6.526  0.3315E+00  0.8144E+01
      6.654  0.5466E+00  0.8214E+01
      6.781  0.5917E+00  0.8289E+01
      6.909  0.6689E+00  0.8375E+01
      7.037  0.8812E+00  0.8487E+01
      7.165  0.9901E+00  0.8614E+01
      7.293  0.1174E+01  0.8764E+01
      7.421  0.1414E+01  0.8945E+01
      7.549  0.1569E+01  0.9146E+01
      7.677  0.1530E+01  0.9341E+01
      7.804  0.9431E+00  0.9462E+01
      7.932  0.3375E+00  0.9505E+01
      8.060  0.1769E+00  0.9528E+01
      8.188  0.2743E+00  0.9563E+01
      8.316  0.4834E+00  0.9624E+01
      8.444  0.6405E+00  0.9706E+01
      8.572  0.7277E+00  0.9799E+01
      8.699  0.1152E+01  0.9947E+01
      8.827  0.2036E+01  0.1021E+02
      8.955  0.2557E+01  0.1053E+02
      9.083  0.1945E+01  0.1078E+02
      9.211  0.1376E+01  0.1096E+02
      9.339  0.1681E+01  0.1117E+02
      9.467  0.2069E+01  0.1144E+02
      9.594  0.2181E+01  0.1172E+02
      9.722  0.2142E+01  0.1199E+02
      9.850  0.2173E+01  0.1227E+02
      9.978  0.2203E+01  0.1255E+02
     10.106  0.2092E+01  0.1282E+02
     10.234  0.2396E+01  0.1312E+02
     10.362  0.2775E+01  0.1348E+02
     10.490  0.1934E+01  0.1373E+02
     10.617  0.7417E+00  0.1382E+02
     10.745  0.5168E+00  0.1389E+02
     10.873  0.9784E+00  0.1401E+02
     11.001  0.1213E+01  0.1417E+02
     11.129  0.1066E+01  0.1430E+02
     11.257  0.8820E+00  0.1442E+02
     11.385  0.6206E+00  0.1450E+02
     11.512  0.4395E+00  0.1455E+02
     11.640  0.5134E+00  0.1462E+02
     11.768  0.4958E+00  0.1468E+02
     11.896  0.2435E+00  0.1471E+02
     12.024  0.6224E-01  0.1472E+02
     12.152  0.5566E-01  0.1473E+02
     12.280  0.2012E+00  0.1475E+02
     12.407  0.4809E+00  0.1481E+02
     12.535  0.7675E+00  0.1491E+02
     12.663  0.8010E+00  0.1501E+02
     12.791  0.7061E+00  0.1511E+02
     12.919  0.1042E+01  0.1524E+02
     13.047  0.1599E+01  0.1544E+02
     13.175  0.1839E+01  0.1568E+02
     13.303  0.1681E+01  0.1589E+02
     13.430  0.1358E+01  0.1607E+02
     13.558  0.1373E+01  0.1624E+02
     13.686  0.2281E+01  0.1653E+02
     13.814  0.3664E+01  0.1700E+02
     13.942  0.3925E+01  0.1750E+02
     14.070  0.2705E+01  0.1785E+02
     14.198  0.1290E+01  0.1801E+02
     14.325  0.9002E+00  0.1813E+02
     14.453  0.1329E+01  0.1830E+02
     14.581  0.1380E+01  0.1848E+02
     14.709  0.7686E+00  0.1857E+02
     14.837  0.2251E+00  0.1860E+02
     14.965  0.4273E-01  0.1861E+02
     15.093  0.7583E-01  0.1862E+02
     15.220  0.3307E+00  0.1866E+02
     15.348  0.1001E+01  0.1879E+02
     15.476  0.2132E+01  0.1906E+02
     15.604  0.2914E+01  0.1943E+02
     15.732  0.2555E+01  0.1976E+02
     15.860  0.1814E+01  0.1999E+02
     15.988  0.1911E+01  0.2024E+02
     16.115  0.2369E+01  0.2054E+02
     16.243  0.2018E+01  0.2080E+02
     16.371  0.1289E+01  0.2096E+02
     16.499  0.6765E+00  0.2105E+02
     16.627  0.3151E+00  0.2109E+02
     16.755  0.2979E+00  0.2113E+02
     16.883  0.6282E+00  0.2121E+02
     17.011  0.1054E+01  0.2134E+02
     17.138  0.1005E+01  0.2147E+02
     17.266  0.7351E+00  0.2157E+02
     17.394  0.5878E+00  0.2164E+02
     17.522  0.3710E+00  0.2169E+02
     17.650  0.3513E+00  0.2173E+02
     17.778  0.7916E+00  0.2183E+02
     17.906  0.1258E+01  0.2199E+02
     18.033  0.1390E+01  0.2217E+02
     18.161  0.1307E+01  0.2234E+02
     18.289  0.1103E+01  0.2248E+02
     18.417  0.1453E+01  0.2267E+02
     18.545  0.2182E+01  0.2295E+02
     18.673  0.2208E+01  0.2323E+02
     18.801  0.1777E+01  0.2346E+02
     18.928  0.1584E+01  0.2366E+02
     19.056  0.1883E+01  0.2390E+02
     19.184  0.2133E+01  0.2417E+02
     19.312  0.2052E+01  0.2443E+02
     19.440  0.1955E+01  0.2468E+02
     19.568  0.2104E+01  0.2495E+02
     19.696  0.3016E+01  0.2534E+02
     19.824  0.3650E+01  0.2580E+02
     19.951  0.2937E+01  0.2618E+02
     20.079  0.1937E+01  0.2643E+02
     20.207  0.1921E+01  0.2667E+02
     20.335  0.2523E+01  0.2700E+02
     20.463  0.2193E+01  0.2728E+02
     20.591  0.1228E+01  0.2743E+02
     20.719  0.1101E+01  0.2757E+02
     20.846  0.1482E+01  0.2776E+02
     20.974  0.1247E+01  0.2792E+02
     21.102  0.5686E+00  0.2800E+02
     21.230  0.1480E+00  0.2802E+02
     21.358  0.1175E+00  0.2803E+02
     21.486  0.5300E+00  0.2810E+02
     21.614  0.1555E+01  0.2830E+02
     21.741  0.2545E+01  0.2862E+02
     21.869  0.2315E+01  0.2892E+02
     21.997  0.1489E+01  0.2911E+02
     22.125  0.1427E+01  0.2929E+02
     22.253  0.1678E+01  0.2951E+02
     22.381  0.1649E+01  0.2972E+02
     22.509  0.1413E+01  0.2990E+02
     22.637  0.8782E+00  0.3001E+02
     22.764  0.3483E+00  0.3005E+02
     22.892  0.1714E+00  0.3008E+02
     23.020  0.4882E+00  0.3014E+02
     23.148  0.1194E+01  0.3029E+02
     23.276  0.1544E+01  0.3049E+02
     23.404  0.1219E+01  0.3064E+02
     23.532  0.7926E+00  0.3075E+02
     23.659  0.7189E+00  0.3084E+02
     23.787  0.1082E+01  0.3098E+02
     23.915  0.1380E+01  0.3115E+02
     24.043  0.1123E+01  0.3130E+02
     24.171  0.7249E+00  0.3139E+02
     24.299  0.6523E+00  0.3147E+02
     24.427  0.6253E+00  0.3155E+02
     24.554  0.6088E+00  0.3163E+02
     24.682  0.8978E+00  0.3174E+02
     24.810  0.1051E+01  0.3188E+02
     24.938  0.6243E+00  0.3196E+02
     25.066  0.1743E+00  0.3198E+02
     25.194  0.2256E-01  0.3198E+02
     25.322  0.1342E-02  0.3198E+02
     25.449  0.3647E-04  0.3198E+02
     25.577  0.4498E-06  0.3198E+02
     25.705  0.2505E-08  0.3198E+02
     25.833  0.6271E-11  0.3198E+02
     25.961  0.7002E-14  0.3198E+02
     26.089  0.0000E+00  0.3198E+02
     26.217  0.0000E+00  0.3198E+02
     26.345  0.0000E+00  0.3198E+02
     26.472  0.0000E+00  0.3198E+02
     26.600  0.0000E+00  0.3198E+02
     26.728  0.0000E+00  0.3198E+02
     26.856  0.0000E+00  0.3198E+02
     26.984  0.0000E+00  0.3198E+02
     27.112  0.2584E-14  0.3198E+02
     27.240  0.1797E-11  0.3198E+02
     27.367  0.5610E-09  0.3198E+02
     27.495  0.7883E-07  0.3198E+02
     27.623  0.5010E-05  0.3198E+02
     27.751  0.1448E-03  0.3198E+02
     27.879  0.1914E-02  0.3198E+02
     28.007  0.1166E-01  0.3199E+02
     28.135  0.3295E-01  0.3199E+02
     28.262  0.4331E-01  0.3200E+02
     28.390  0.2653E-01  0.3200E+02
     28.518  0.7558E-02  0.3200E+02
     28.646  0.9964E-03  0.3200E+02
     28.774  0.6041E-04  0.3200E+02
     28.902  0.1673E-05  0.3200E+02
     29.030  0.2104E-07  0.3200E+02
     29.158  0.1194E-09  0.3200E+02
     29.285  0.3048E-12  0.3200E+02
     29.413  0.3473E-15  0.3200E+02
     29.541  0.0000E+00  0.3200E+02
     29.669  0.0000E+00  0.3200E+02
     29.797  0.0000E+00  0.3200E+02
     29.925  0.0000E+00  0.3200E+02
     30.053  0.0000E+00  0.3200E+02
     30.180  0.0000E+00  0.3200E+02
