    2    2    1    1
  0.2072484E+02  0.3884592E-09  0.3884592E-09  0.3884592E-09  0.5000000E-15
   1.0000000000000000E-004
  CAR 
 unknown system                          
      8     10     16

  0.3742002E-15  0.3742002E-15  0.3742002E-15  0.8000000E-02
    1       -6.178477   1.000000
    2        5.475616   0.990826
    3        5.475616   0.990826
    4        5.475616   0.990826
    5        8.084970   0.000000
    6        8.084970   0.000000
    7        8.084970   0.000000
    8        8.549398   0.000000
    9       13.222297   0.000000
   10       13.222297   0.000000
   11       13.355513   0.000000
   12       16.659907   0.000000
   13       16.659907   0.000000
   14       16.659907   0.000000
   15       20.755478   0.000000
   16       28.180418   0.000000

  0.2000000E+00  0.3747003E-15  0.3747003E-15  0.6400000E-01
    1       -5.677429   1.000000
    2        2.548133   1.000000
    3        4.926377   1.000000
    4        4.926377   1.000000
    5        7.649188   0.000000
    6        8.856663   0.000000
    7        8.856663   0.000000
    8       11.284838   0.000000
    9       12.565610   0.000000
   10       12.565610   0.000000
   11       14.557636   0.000000
   12       16.324849   0.000000
   13       19.084322   0.000000
   14       19.084322   0.000000
   15       23.127806   0.000000
   16       24.223190   0.000000

  0.4000000E+00  0.3885781E-15  0.3885781E-15  0.6400000E-01
    1       -4.365374   1.000000
    2       -0.608362   1.000000
    3        4.396393   1.000000
    4        4.396393   1.000000
    5        7.046424   0.000000
    6        8.951305   0.000000
    7        8.951305   0.000000
    8       13.312202   0.000000
    9       14.408729   0.000000
   10       14.408729   0.000000
   11       15.297485   0.000000
   12       18.492446   0.000000
   13       18.492446   0.000000
   14       19.123869   0.000000
   15       22.116482   0.000000
   16       24.373212   0.000000

  0.2000000E+00  0.2000000E+00  0.3742002E-15  0.4800000E-01
    1       -5.504655   1.000000
    2        2.870254   1.000000
    3        4.064981   1.000000
    4        4.064981   1.000000
    5        7.020135   0.000000
    6        9.360971   0.000000
    7       10.314286   0.000000
    8       10.314286   0.000000
    9       12.359844   0.000000
   10       13.978160   0.000000
   11       15.733460   0.000000
   12       17.811894   0.000000
   13       17.811894   0.000000
   14       18.443814   0.000000
   15       23.729021   0.000000
   16       23.729021   0.000000

  0.4000000E+00  0.2000000E+00  0.3885781E-15  0.1920000E+00
    1       -4.402082   1.000000
    2        0.289305   1.000000
    3        2.964011   1.000000
    4        3.573010   1.000000
    5        7.325607   0.000000
    6        9.581506   0.000000
    7       10.326657   0.000000
    8       10.882696   0.000000
    9       15.518452   0.000000
   10       15.681496   0.000000
   11       16.064886   0.000000
   12       18.099065   0.000000
   13       18.750529   0.000000
   14       20.366111   0.000000
   15       21.716268   0.000000
   16       23.187884   0.000000

 -0.4000000E+00  0.2000000E+00  0.3885781E-15  0.1920000E+00
    1       -3.557487   1.000000
    2       -1.042627   1.000000
    3        2.186458   1.000000
    4        3.839698   1.000000
    5        7.592661   0.000000
    6       10.018460   0.000000
    7       10.289262   0.000000
    8       12.957779   0.000000
    9       13.709421   0.000000
   10       13.866873   0.000000
   11       16.984404   0.000000
   12       19.334307   0.000000
   13       19.748628   0.000000
   14       20.297229   0.000000
   15       22.415310   0.000000
   16       24.725032   0.000000

 -0.2000000E+00  0.2000000E+00  0.3885781E-15  0.9600000E-01
    1       -4.873533   1.000000
    2        1.092660   1.000000
    3        2.622434   1.000000
    4        4.666897   1.000000
    5        8.359346   0.000000
    6        9.477937   0.000000
    7        9.737787   0.000000
    8       11.132511   0.000000
    9       11.650688   0.000000
   10       16.017884   0.000000
   11       16.046468   0.000000
   12       17.314898   0.000000
   13       19.062323   0.000000
   14       20.241754   0.000000
   15       22.197366   0.000000
   16       23.407951   0.000000

  0.4000000E+00  0.4000000E+00  0.3742002E-15  0.4800000E-01
    1       -3.552422   1.000000
    2       -0.582454   1.000000
    3        2.901419   1.000000
    4        2.901419   1.000000
    5        6.177636   0.004587
    6        6.909307   0.000000
    7       13.826592   0.000000
    8       13.826592   0.000000
    9       16.233844   0.000000
   10       16.332398   0.000000
   11       17.855223   0.000000
   12       17.855223   0.000000
   13       18.975394   0.000000
   14       19.941008   0.000000
   15       21.848420   0.000000
   16       22.574804   0.000000

 -0.4000000E+00  0.4000000E+00  0.2775558E-15  0.9600000E-01
    1       -2.398401   1.000000
    2       -1.798822   1.000000
    3        1.608084   1.000000
    4        3.014567   1.000000
    5        6.621272   0.000000
    6        8.666605   0.000000
    7       13.456500   0.000000
    8       13.987262   0.000000
    9       13.996260   0.000000
   10       14.484673   0.000000
   11       19.426227   0.000000
   12       19.669947   0.000000
   13       19.999049   0.000000
   14       20.904690   0.000000
   15       21.583815   0.000000
   16       22.136234   0.000000

 -0.4000000E+00  0.4000000E+00  0.2000000E+00  0.1920000E+00
    1       -3.134812   1.000000
    2       -0.954517   1.000000
    3        1.685491   1.000000
    4        2.633408   1.000000
    5        8.892161   0.000000
    6        9.297233   0.000000
    7        9.861575   0.000000
    8       13.160747   0.000000
    9       13.785469   0.000000
   10       15.505530   0.000000
   11       18.523168   0.000000
   12       19.690092   0.000000
   13       19.834251   0.000000
   14       20.778307   0.000000
   15       21.736252   0.000000
   16       23.899974   0.000000
