       N       E                     dE             d eps       ncg     rms          rms(c)
DAV:   1     0.363254290236E+01    0.36325E+01   -0.38300E+03   320   0.410E+02
DAV:   2    -0.827711224036E+01   -0.11910E+02   -0.11759E+02   464   0.409E+01
DAV:   3    -0.835669981432E+01   -0.79588E-01   -0.79588E-01   400   0.431E+00
DAV:   4    -0.835691279340E+01   -0.21298E-03   -0.21298E-03   560   0.248E-01
DAV:   5    -0.835691281188E+01   -0.18475E-07   -0.18548E-07   416   0.179E-03    0.371E+00
DAV:   6    -0.830281037349E+01    0.54102E-01   -0.87922E-02   464   0.876E-01    0.227E+00
DAV:   7    -0.829450279198E+01    0.83076E-02   -0.20304E-01   464   0.131E+00    0.190E-01
DAV:   8    -0.827774984355E+01    0.16753E-01   -0.50735E-03   384   0.248E-01    0.967E-02
DAV:   9    -0.827885927380E+01   -0.11094E-02   -0.58985E-04   416   0.849E-02    0.529E-02
DAV:  10    -0.827889225723E+01   -0.32983E-04   -0.24872E-05   400   0.221E-02    0.985E-03
DAV:  11    -0.827869325719E+01    0.19900E-03   -0.33212E-07   544   0.268E-03    0.180E-03
DAV:  12    -0.827868036571E+01    0.12891E-04   -0.73670E-08   432   0.137E-03    0.239E-04
DAV:  13    -0.827867891991E+01    0.14458E-05   -0.24879E-09   400   0.224E-04    0.101E-04
DAV:  14    -0.827867931775E+01   -0.39784E-06   -0.14622E-10   192   0.578E-05    0.919E-06
DAV:  15    -0.827867909156E+01    0.22619E-06   -0.86159E-12   160   0.119E-05    0.152E-06
DAV:  16    -0.827867911383E+01   -0.22274E-07   -0.36080E-12   160   0.438E-06
   1 F= -.82786791E+01 E0= -.82785043E+01  d E =-.827868E+01
