 vasp.5.4.1 24Jun15 (build Feb  9 2019 14:16:27) complex                         
 executed on           IFC91_ompi date 2020.09.26  22:27:46
 running on   16 total cores
 distrk:  each k-point on   16 cores,    1 groups
 distr:  one band on NCORES_PER_BAND=   1 cores,   16 groups


--------------------------------------------------------------------------------------------------------


 INCAR:
 POTCAR:    PAW_PBE Si 05Jan2001                  

 ----------------------------------------------------------------------------- 
|                                                                             |
|           W    W    AA    RRRRR   N    N  II  N    N   GGGG   !!!           |
|           W    W   A  A   R    R  NN   N  II  NN   N  G    G  !!!           |
|           W    W  A    A  R    R  N N  N  II  N N  N  G       !!!           |
|           W WW W  AAAAAA  RRRRR   N  N N  II  N  N N  G  GGG   !            |
|           WW  WW  A    A  R   R   N   NN  II  N   NN  G    G                |
|           W    W  A    A  R    R  N    N  II  N    N   GGGG   !!!           |
|                                                                             |
|      For optimal performance we recommend to set                            |
|        NCORE= 4 - approx SQRT( number of cores)                             |
|      NCORE specifies how many cores store one orbital (NPAR=cpu/NCORE).     |
|      This setting can  greatly improve the performance of VASP for DFT.     |
|      The default, NPAR=number of cores might be grossly inefficient         |
|      on modern multi-core architectures or massively parallel machines.     |
|      Do your own testing !!!!                                               |
|      Unfortunately you need to use the default for GW and RPA calculations. |
|      (for HF NCORE is supported but not extensively tested yet)             |
|                                                                             |
 ----------------------------------------------------------------------------- 


 ----------------------------------------------------------------------------- 
|                                                                             |
|  ADVICE TO THIS USER RUNNING 'VASP/VAMP'   (HEAR YOUR MASTER'S VOICE ...):  |
|                                                                             |
|      You have switched on vdW-DFT.                                          |
|      This routine was written and supplied by Jiri Klimes.                  |
|      We recommed that you carefully read and cite the following             |
|      publication                                                            |
|      J. Klimes, D.R. Bowler, A. Michelides                                  |
|        J. Phys.: Cond Matt. 22 022201 (2010)                                |
|      J. Klimes, D.R. Bowler, A. Michelides                                  |
|        Phys. Rev. B. 83, 195131 (2011)                                      |
|      and references therein.                                                |
|                                                                             |
 ----------------------------------------------------------------------------- 

 POTCAR:    PAW_PBE Si 05Jan2001                  
   VRHFIN =Si: s2p2                                                             
   LEXCH  = PE                                                                  
   EATOM  =   103.0669 eV,    7.5752 Ry                                         
                                                                                
   TITEL  = PAW_PBE Si 05Jan2001                                                
   LULTRA =        F    use ultrasoft PP ?                                      
   IUNSCR =        1    unscreen: 0-lin 1-nonlin 2-no                           
   RPACOR =    1.500    partial core radius                                     
   POMASS =   28.085; ZVAL   =    4.000    mass and valenz                      
   RCORE  =    1.900    outmost cutoff radius                                   
   RWIGS  =    2.480; RWIGS  =    1.312    wigner-seitz radius (au A)           
   ENMAX  =  245.345; ENMIN  =  184.009 eV                                      
   ICORE  =        2    local potential                                         
   LCOR   =        T    correct aug charges                                     
   LPAW   =        T    paw PP                                                  
   EAUG   =  322.069                                                            
   DEXC   =    0.000                                                            
   RMAX   =    1.950    core radius for proj-oper                               
   RAUG   =    1.300    factor for augmentation sphere                          
   RDEP   =    1.993    radius for radial grids                                 
   RDEPT  =    1.837    core radius for aug-charge                              
                                                                                
   Atomic configuration                                                         
    6 entries                                                                   
     n  l   j            E        occ.                                          
     1  0  0.50     -1785.8828   2.0000                                         
     2  0  0.50      -139.4969   2.0000                                         
     2  1  1.50       -95.5546   6.0000                                         
     3  0  0.50       -10.8127   2.0000                                         
     3  1  0.50        -4.0811   2.0000                                         
     3  2  1.50        -4.0817   0.0000                                         
   Description                                                                  
     l       E           TYP  RCUT    TYP  RCUT                                 
     0    -10.8127223     23  1.900                                             
     0     -7.6451159     23  1.900                                             
     1     -4.0811372     23  1.900                                             
     1      2.4879257     23  1.900                                             
     2     -4.0817478      7  1.900                                             
  local pseudopotential read in
  partial core-charges read in
  partial kinetic energy density read in
  atomic valenz-charges read in
  non local Contribution for L=           0  read in
    real space projection operators read in
  non local Contribution for L=           0  read in
    real space projection operators read in
  non local Contribution for L=           1  read in
    real space projection operators read in
  non local Contribution for L=           1  read in
    real space projection operators read in
    PAW grid and wavefunctions read in

   number of l-projection  operators is LMAX  =           4
   number of lm-projection operators is LMMAX =           8


 ----------------------------------------------------------------------------- 
|                                                                             |
|  ADVICE TO THIS USER RUNNING 'VASP/VAMP'   (HEAR YOUR MASTER'S VOICE ...):  |
|                                                                             |
|      You enforced a specific xc-type in the INCAR file,                     |
|      a different type was found on the POTCAR file                          |
|          I HOPE YOU KNOW, WHAT YOU ARE  DOING                               |
|                                                                             |
 ----------------------------------------------------------------------------- 

  PAW_PBE Si 05Jan2001                  :
 energy of atom  1       EATOM= -103.0669
 kinetic energy error for atom=    0.0006 (will be added to EATOM!!)


 POSCAR: bulk@JVASP-1002                         
  positions in direct lattice
  No initial velocities read in
 exchange correlation table for  LEXCH =       42
   RHO(1)=    0.500       N(1)  =     2000
   RHO(2)=  100.500       N(2)  =     4000



--------------------------------------------------------------------------------------------------------


 ion  position               nearest neighbor table
   1  0.750  0.750  0.750-   2 2.38   2 2.38   2 2.38   2 2.38
   2  0.500  0.500  0.500-   1 2.38   1 2.38   1 2.38   1 2.38

  LATTYP: Found a face centered cubic cell.
 ALAT       =     5.4936422752
  
  Lattice vectors:
  
 A1 = (   0.0000000000,   2.7468211376,   2.7468211376)
 A2 = (   2.7468211376,   0.0000000000,   2.7468211376)
 A3 = (   2.7468211376,   2.7468211376,   0.0000000000)


Analysis of symmetry for initial positions (statically):
=====================================================================
 Subroutine PRICEL returns:
 Original cell was already a primitive cell.
 

 Routine SETGRP: Setting up the symmetry group for a 
 face centered cubic supercell.


 Subroutine GETGRP returns: Found 48 space group operations
 (whereof 24 operations were pure point group operations)
 out of a pool of 48 trial point group operations.


The static configuration has the point symmetry T_d .
 The point group associated with its full space group is O_h .


Analysis of symmetry for dynamics (positions and initial velocities):
=====================================================================
 Subroutine PRICEL returns:
 Original cell was already a primitive cell.
 

 Routine SETGRP: Setting up the symmetry group for a 
 face centered cubic supercell.


 Subroutine GETGRP returns: Found 48 space group operations
 (whereof 24 operations were pure point group operations)
 out of a pool of 48 trial point group operations.


The dynamic configuration has the point symmetry T_d .
 The point group associated with its full space group is O_h .


 KPOINTS: Automatic kpoint scheme                 

Automatic generation of k-mesh.
Space group operators:
 irot       det(A)        alpha          n_x          n_y          n_z        tau_x        tau_y        tau_z
    1     1.000000     0.000000     1.000000     0.000000     0.000000     0.000000     0.000000     0.000000
    2     1.000000   120.000000    -0.577350    -0.577350    -0.577350     0.000000     0.000000     0.000000
    3     1.000000   120.000000     0.577350     0.577350     0.577350     0.000000     0.000000     0.000000
    4    -1.000000    90.000000     0.000000     0.000000    -1.000000     0.000000     0.000000     0.000000
    5    -1.000000   180.000000     0.000000     0.707107     0.707107     0.000000     0.000000     0.000000
    6    -1.000000    90.000000     0.000000     1.000000     0.000000     0.000000     0.000000     0.000000
    7     1.000000   180.000000     0.000000     0.000000     1.000000     0.000000     0.000000     0.000000
    8     1.000000   120.000000    -0.577350     0.577350     0.577350     0.000000     0.000000     0.000000
    9     1.000000   120.000000    -0.577350     0.577350    -0.577350     0.000000     0.000000     0.000000
   10    -1.000000    90.000000     0.000000     0.000000     1.000000     0.000000     0.000000     0.000000
   11    -1.000000    90.000000    -1.000000     0.000000     0.000000     0.000000     0.000000     0.000000
   12    -1.000000   180.000000     0.707107     0.000000     0.707107     0.000000     0.000000     0.000000
   13     1.000000   120.000000     0.577350    -0.577350     0.577350     0.000000     0.000000     0.000000
   14     1.000000   120.000000    -0.577350    -0.577350     0.577350     0.000000     0.000000     0.000000
   15     1.000000   180.000000     1.000000     0.000000     0.000000     0.000000     0.000000     0.000000
   16    -1.000000    90.000000     0.000000    -1.000000     0.000000     0.000000     0.000000     0.000000
   17    -1.000000   180.000000     0.707107     0.707107     0.000000     0.000000     0.000000     0.000000
   18    -1.000000    90.000000     1.000000     0.000000     0.000000     0.000000     0.000000     0.000000
   19     1.000000   120.000000     0.577350    -0.577350    -0.577350     0.000000     0.000000     0.000000
   20     1.000000   180.000000     0.000000     1.000000     0.000000     0.000000     0.000000     0.000000
   21     1.000000   120.000000     0.577350     0.577350    -0.577350     0.000000     0.000000     0.000000
   22    -1.000000   180.000000     0.000000    -0.707107     0.707107     0.000000     0.000000     0.000000
   23    -1.000000   180.000000     0.707107    -0.707107     0.000000     0.000000     0.000000     0.000000
   24    -1.000000   180.000000     0.707107     0.000000    -0.707107     0.000000     0.000000     0.000000
   25    -1.000000     0.000000     1.000000     0.000000     0.000000     0.250000     0.250000     0.250000
   26    -1.000000   120.000000    -0.577350    -0.577350    -0.577350     0.250000     0.250000     0.250000
   27    -1.000000   120.000000     0.577350     0.577350     0.577350     0.250000     0.250000     0.250000
   28     1.000000    90.000000     0.000000     0.000000    -1.000000     0.250000     0.250000     0.250000
   29     1.000000   180.000000     0.000000     0.707107     0.707107     0.250000     0.250000     0.250000
   30     1.000000    90.000000     0.000000     1.000000     0.000000     0.250000     0.250000     0.250000
   31    -1.000000   180.000000     0.000000     0.000000     1.000000     0.250000     0.250000     0.250000
   32    -1.000000   120.000000    -0.577350     0.577350     0.577350     0.250000     0.250000     0.250000
   33    -1.000000   120.000000    -0.577350     0.577350    -0.577350     0.250000     0.250000     0.250000
   34     1.000000    90.000000     0.000000     0.000000     1.000000     0.250000     0.250000     0.250000
   35     1.000000    90.000000    -1.000000     0.000000     0.000000     0.250000     0.250000     0.250000
   36     1.000000   180.000000     0.707107     0.000000     0.707107     0.250000     0.250000     0.250000
   37    -1.000000   120.000000     0.577350    -0.577350     0.577350     0.250000     0.250000     0.250000
   38    -1.000000   120.000000    -0.577350    -0.577350     0.577350     0.250000     0.250000     0.250000
   39    -1.000000   180.000000     1.000000     0.000000     0.000000     0.250000     0.250000     0.250000
   40     1.000000    90.000000     0.000000    -1.000000     0.000000     0.250000     0.250000     0.250000
   41     1.000000   180.000000     0.707107     0.707107     0.000000     0.250000     0.250000     0.250000
   42     1.000000    90.000000     1.000000     0.000000     0.000000     0.250000     0.250000     0.250000
   43    -1.000000   120.000000     0.577350    -0.577350    -0.577350     0.250000     0.250000     0.250000
   44    -1.000000   180.000000     0.000000     1.000000     0.000000     0.250000     0.250000     0.250000
   45    -1.000000   120.000000     0.577350     0.577350    -0.577350     0.250000     0.250000     0.250000
   46     1.000000   180.000000     0.000000    -0.707107     0.707107     0.250000     0.250000     0.250000
   47     1.000000   180.000000     0.707107    -0.707107     0.000000     0.250000     0.250000     0.250000
   48     1.000000   180.000000     0.707107     0.000000    -0.707107     0.250000     0.250000     0.250000
 
 Subroutine IBZKPT returns following result:
 ===========================================
 
 Found     10 irreducible k-points:
 
 Following reciprocal coordinates:
            Coordinates               Weight
  0.000000  0.000000  0.000000      1.000000
  0.200000  0.000000  0.000000      8.000000
  0.400000  0.000000  0.000000      8.000000
  0.200000  0.200000  0.000000      6.000000
  0.400000  0.200000  0.000000     24.000000
 -0.400000  0.200000  0.000000     24.000000
 -0.200000  0.200000  0.000000     12.000000
  0.400000  0.400000  0.000000      6.000000
 -0.400000  0.400000  0.000000     12.000000
 -0.400000  0.400000  0.200000     24.000000
 
 Following cartesian coordinates:
            Coordinates               Weight
  0.000000  0.000000  0.000000      1.000000
 -0.036406  0.036406  0.036406      8.000000
 -0.072811  0.072811  0.072811      8.000000
  0.000000  0.000000  0.072811      6.000000
 -0.036406  0.036406  0.109217     24.000000
  0.109217 -0.109217 -0.036406     24.000000
  0.072811 -0.072811  0.000000     12.000000
  0.000000  0.000000  0.145623      6.000000
  0.145623 -0.145623  0.000000     12.000000
  0.182029 -0.109217 -0.036406     24.000000
 


--------------------------------------------------------------------------------------------------------




 Dimension of arrays:
   k-points           NKPTS =       10   k-points in BZ     NKDIM =       10   number of bands    NBANDS=     16
   number of dos      NEDOS =    301   number of ions     NIONS =      2
   non local maximal  LDIM  =      4   non local SUM 2l+1 LMDIM =      8
   total plane-waves  NPLWV =  21952
   max r-space proj   IRMAX =      1   max aug-charges    IRDMAX=  17905
   dimension x,y,z NGX =    28 NGY =   28 NGZ =   28
   dimension x,y,z NGXF=    56 NGYF=   56 NGZF=   56
   support grid    NGXF=    56 NGYF=   56 NGZF=   56
   ions per type =               2
 NGX,Y,Z   is equivalent  to a cutoff of  11.98, 11.98, 11.98 a.u.
 NGXF,Y,Z  is equivalent  to a cutoff of  23.97, 23.97, 23.97 a.u.


 I would recommend the setting:
   dimension x,y,z NGX =    28 NGY =   28 NGZ =   28
 SYSTEM =  unknown system                          
 POSCAR =  bulk@JVASP-1002                         

 Startparameter for this run:
   NWRITE =      2    write-flag & timer
   PREC   = accura    normal or accurate (medium, high low for compatibility)
   ISTART =      0    job   : 0-new  1-cont  2-samecut
   ICHARG =      2    charge: 1-file 2-atom 10-const
   ISPIN  =      1    spin polarized calculation?
   LNONCOLLINEAR =      F non collinear calculations
   LSORBIT =      F    spin-orbit coupling
   INIWAV =      1    electr: 0-lowe 1-rand  2-diag
   LASPH  =      F    aspherical Exc in radial PAW
   METAGGA=      F    non-selfconsistent MetaGGA calc.

 Electronic Relaxation 1
   ENCUT  =  500.0 eV  36.75 Ry    6.06 a.u.   7.08  7.08  7.08*2*pi/ulx,y,z
   ENINI  =  500.0     initial cutoff
   ENAUG  =  322.1 eV  augmentation charge cutoff
   NELM   =    400;   NELMIN=  2; NELMDL= -5     # of ELM steps 
   EDIFF  = 0.1E-06   stopping-criterion for ELM
   LREAL  =      F    real-space projection
   NLSPLINE    = F    spline interpolate recip. space projectors
   LCOMPAT=      F    compatible to vasp.4.4
   GGA_COMPAT  = T    GGA compatible to vasp.4.4-vasp.4.6
   LMAXPAW     = -100 max onsite density
   LMAXMIX     =    2 max onsite mixed and CHGCAR
   VOSKOWN=      0    Vosko Wilk Nusair interpolation
   ROPT   =    0.00000
 Ionic relaxation
   EDIFFG = 0.1E-05   stopping-criterion for IOM
   NSW    =      1    number of steps for IOM
   NBLOCK =      1;   KBLOCK =      1    inner block; outer block 
   IBRION =      2    ionic relax: 0-MD 1-quasi-New 2-CG
   NFREE  =      1    steps in history (QN), initial steepest desc. (CG)
   ISIF   =      2    stress and relaxation
   IWAVPR =     11    prediction:  0-non 1-charg 2-wave 3-comb
   ISYM   =      2    0-nonsym 1-usesym 2-fastsym
   LCORR  =      T    Harris-Foulkes like correction to forces

   POTIM  = 0.5000    time-step for ionic-motion
   TEIN   =    0.0    initial temperature
   TEBEG  =    0.0;   TEEND  =   0.0 temperature during run
   SMASS  =  -3.00    Nose mass-parameter (am)
   estimated Nose-frequenzy (Omega)   =  0.10E-29 period in steps =****** mass=  -0.345E-27a.u.
   SCALEE = 1.0000    scale energy and forces
   NPACO  =    256;   APACO  = 16.0  distance and # of slots for P.C.
   PSTRESS=    0.0 pullay stress

  Mass of Ions in am
   POMASS =  28.09
  Ionic Valenz
   ZVAL   =   4.00
  Atomic Wigner-Seitz radii
   RWIGS  =  -1.00
  virtual crystal weights 
   VCA    =   1.00
   NELECT =       8.0000    total number of electrons
   NUPDOWN=      -1.0000    fix difference up-down

 DOS related values:
   EMIN   =  10.00;   EMAX   =-10.00  energy-range for DOS
   EFERMI =   0.00
   ISMEAR =     0;   SIGMA  =   0.20  broadening in eV -4-tet -1-fermi 0-gaus

 Electronic relaxation 2 (details)
   IALGO  =     38    algorithm
   LDIAG  =      T    sub-space diagonalisation (order eigenvalues)
   LSUBROT=      F    optimize rotation matrix (better conditioning)
   TURBO    =      0    0=normal 1=particle mesh
   IRESTART =      0    0=no restart 2=restart with 2 vectors
   NREBOOT  =      0    no. of reboots
   NMIN     =      0    reboot dimension
   EREF     =   0.00    reference energy to select bands
   IMIX   =      4    mixing-type and parameters
     AMIX     =   0.40;   BMIX     =  1.00
     AMIX_MAG =   1.60;   BMIX_MAG =  1.00
     AMIN     =   0.10
     WC   =   100.;   INIMIX=   1;  MIXPRE=   1;  MAXMIX= -45

 Intra band minimization:
   WEIMIN = 0.0010     energy-eigenvalue tresh-hold
   EBREAK =  0.16E-08  absolut break condition
   DEPER  =   0.30     relativ break condition  

   TIME   =   0.40     timestep for ELM

  volume/ion in A,a.u.               =      20.72       139.86
  Fermi-wavevector in a.u.,A,eV,Ry     =   0.946087  1.787845 12.178313  0.895081
  Thomas-Fermi vector in A             =   2.074051

 Write flags
   LWAVE  =      F    write WAVECAR
   LCHARG =      F    write CHGCAR
   LVTOT  =      F    write LOCPOT, total local potential
   LVHAR  =      F    write LOCPOT, Hartree potential only
   LELF   =      F    write electronic localiz. function (ELF)
   LORBIT =      0    0 simple, 1 ext, 2 COOP (PROOUT)


 Dipole corrections
   LMONO  =      F    monopole corrections only (constant potential shift)
   LDIPOL =      F    correct potential (dipole corrections)
   IDIPOL =      0    1-x, 2-y, 3-z, 4-all directions 
   EPSILON=  1.0000000 bulk dielectric constant

 Exchange correlation treatment:
   GGA     =    BO    GGA type
   LEXCH   =    42    internal setting for exchange type
   VOSKOWN=      0    Vosko Wilk Nusair interpolation
   LHFCALC =     F    Hartree Fock is set to
   LHFONE  =     F    Hartree Fock one center treatment
   AEXX    =    0.0000 exact exchange contribution

 vdW DFT:
   LUSE_VDW   =     T    switch on vdW DFT
   Zab_VDW    =-.8491    correlation parameter
   PARAM1     =0.1833
   PARAM2     =0.2200
   PARAM3     =0.0000

 Linear response parameters
   LEPSILON=     F    determine dielectric tensor
   LRPA    =     F    only Hartree local field effects (RPA)
   LNABLA  =     F    use nabla operator in PAW spheres
   LVEL    =     F    velocity operator in full k-point grid
   LINTERFAST=   F  fast interpolation
   KINTER  =     0    interpolate to denser k-point grid
   CSHIFT  =0.1000    complex shift for real part using Kramers Kronig
   OMEGAMAX=  -1.0    maximum frequency
   DEG_THRESHOLD= 0.2000000E-02 threshold for treating states as degnerate
   RTIME   =    0.100 relaxation time in fs

 Orbital magnetization related:
   ORBITALMAG=     F  switch on orbital magnetization
   LCHIMAG   =     F  perturbation theory with respect to B field
   DQ        =  0.001000  dq finite difference perturbation B field



--------------------------------------------------------------------------------------------------------


 conjugate gradient relaxation of ions
 charge density and potential will be updated during run
 non-spin polarized calculation
 Variant of blocked Davidson
 Davidson routine will perform the subspace rotation
 perform sub-space diagonalisation
    after iterative eigenvector-optimisation
 modified Broyden-mixing scheme, WC =      100.0
 initial mixing is a Kerker type mixing with AMIX =  0.4000 and BMIX =      1.0000
 Hartree-type preconditioning will be used
 using additional bands           12
 reciprocal scheme for non local part
 use partial core corrections
 calculate Harris-corrections to forces   (improved forces if not selfconsistent)
 use gradient corrections 
 use of overlap-Matrix (Vanderbilt PP)
 Gauss-broadening in eV      SIGMA  =   0.20


--------------------------------------------------------------------------------------------------------


  energy-cutoff  :      500.00
  volume of cell :       41.45
      direct lattice vectors                 reciprocal lattice vectors
     0.000000000  2.746821138  2.746821138    -0.182028598  0.182028598  0.182028598
     2.746821138  0.000000000  2.746821138     0.182028598 -0.182028598  0.182028598
     2.746821138  2.746821138  0.000000000     0.182028598  0.182028598 -0.182028598

  length of vectors
     3.884591706  3.884591706  3.884591706     0.315282780  0.315282780  0.315282780



 k-points in units of 2pi/SCALE and weight: Automatic kpoint scheme                 
   0.00000000  0.00000000  0.00000000       0.008
  -0.03640572  0.03640572  0.03640572       0.064
  -0.07281144  0.07281144  0.07281144       0.064
   0.00000000  0.00000000  0.07281144       0.048
  -0.03640572  0.03640572  0.10921716       0.192
   0.10921716 -0.10921716 -0.03640572       0.192
   0.07281144 -0.07281144  0.00000000       0.096
   0.00000000  0.00000000  0.14562288       0.048
   0.14562288 -0.14562288  0.00000000       0.096
   0.18202860 -0.10921716 -0.03640572       0.192

 k-points in reciprocal lattice and weights: Automatic kpoint scheme                 
   0.00000000  0.00000000  0.00000000       0.008
   0.20000000  0.00000000  0.00000000       0.064
   0.40000000  0.00000000  0.00000000       0.064
   0.20000000  0.20000000  0.00000000       0.048
   0.40000000  0.20000000  0.00000000       0.192
  -0.40000000  0.20000000  0.00000000       0.192
  -0.20000000  0.20000000  0.00000000       0.096
   0.40000000  0.40000000  0.00000000       0.048
  -0.40000000  0.40000000  0.00000000       0.096
  -0.40000000  0.40000000  0.20000000       0.192

 position of ions in fractional coordinates (direct lattice) 
   0.75000000  0.75000000  0.75000000
   0.50000000  0.50000000  0.50000000

 position of ions in cartesian coordinates  (Angst):
   4.12023171  4.12023171  4.12023171
   2.74682114  2.74682114  2.74682114



--------------------------------------------------------------------------------------------------------


 k-point  1 :   0.0000 0.0000 0.0000  plane waves:    1067
 k-point  2 :   0.2000 0.0000 0.0000  plane waves:    1046
 k-point  3 :   0.4000 0.0000 0.0000  plane waves:    1050
 k-point  4 :   0.2000 0.2000 0.0000  plane waves:    1054
 k-point  5 :   0.4000 0.2000 0.0000  plane waves:    1046
 k-point  6 :  -0.4000 0.2000 0.0000  plane waves:    1073
 k-point  7 :  -0.2000 0.2000 0.0000  plane waves:    1057
 k-point  8 :   0.4000 0.4000 0.0000  plane waves:    1042
 k-point  9 :  -0.4000 0.4000 0.0000  plane waves:    1057
 k-point 10 :  -0.4000 0.4000 0.2000  plane waves:    1052

 maximum and minimum number of plane-waves per node :      1073     1042

 maximum number of plane-waves:      1073
 maximum index in each direction: 
   IXMAX=    7   IYMAX=    7   IZMAX=    7
   IXMIN=   -7   IYMIN=   -7   IZMIN=   -7

 WARNING: aliasing errors must be expected set NGX to  30 to avoid them
 WARNING: aliasing errors must be expected set NGY to  30 to avoid them
 WARNING: aliasing errors must be expected set NGZ to  30 to avoid them
 aliasing errors are usually negligible using standard VASP settings
 and one can safely disregard these warnings

 serial   3D FFT for wavefunctions
 parallel 3D FFT for charge:
    minimum data exchange during FFTs selected (reduces bandwidth)


 total amount of memory used by VASP on root node    32937. kBytes
========================================================================

   base      :      30000. kBytes
   nonl-proj :        731. kBytes
   fftplans  :        517. kBytes
   grid      :       1507. kBytes
   one-center:          6. kBytes
   wavefun   :        176. kBytes

     INWAV:  cpu time    0.0000: real time    0.0000
 Broyden mixing: mesh for mixing (old mesh)
   NGX = 15   NGY = 15   NGZ = 15
  (NGX  = 56   NGY  = 56   NGZ  = 56)
  gives a total of   3375 points

 initial charge density was supplied:
 charge density of overlapping atoms calculated
 number of electron       8.0000000 magnetization 
 keeping initial charge density in first step


--------------------------------------------------------------------------------------------------------


 Maximum index for augmentation-charges         1417 (set IRDMAX)


--------------------------------------------------------------------------------------------------------


 First call to EWALD:  gamma=   0.512
 Maximum number of real-space cells 3x 3x 3
 Maximum number of reciprocal cells 3x 3x 3

 FEWALD executed in parallel
    FEWALD:  cpu time    0.0000: real time    0.0010


----------------------------------------- Iteration    1(   1)  ---------------------------------------


vdW kernel read from vdw_kernel.bindat
  0.0000  0.2424  0.5071  0.7962  1.1119  1.4567  1.8333  2.2446  2.6937  3.1842
  3.7199  4.3049  4.9438  5.6415  6.4036  7.2358  8.1446  9.1372 10.2212 11.4050
 12.6979 14.1099 15.6519 17.3360 19.1751 21.1837 23.3773 25.7729 28.3892 31.2465
 34.3669 37.7748 41.4965 45.5611 50.0000

    POTLOK:  cpu time    2.1800: real time    2.1800
    SETDIJ:  cpu time    0.0040: real time    0.0021
     EDDAV:  cpu time    0.1200: real time    0.1191
       DOS:  cpu time    0.0000: real time    0.0004
    --------------------------------------------
      LOOP:  cpu time    2.3040: real time    2.3033

 eigenvalue-minimisations  :   320
 total energy-change (2. order) : 0.3632543E+01  (-0.3830001E+03)
 number of electron       8.0000000 magnetization 
 augmentation part        8.0000000 magnetization 

 Free energy of the ion-electron system (eV)
  ---------------------------------------------------
  alpha Z        PSCENC =         3.24857844
  Ewald energy   TEWEN  =      -225.91568183
  -Hartree energ DENC   =       -11.53197166
  -exchange      EXHF   =         0.00000000
  -V(xc)+E(xc)   XCENC  =       -20.29573795
  PAW double counting   =       189.40224250     -152.61488262
  entropy T*S    EENTRO =        -0.00969146
  eigenvalues    EBANDS =        12.75594920
  atomic energy  EATOM  =       208.59373829
  Solvation  Ediel_sol  =         0.00000000
  ---------------------------------------------------
  free energy    TOTEN  =         3.63254290 eV

  energy without entropy =        3.64223436  energy(sigma->0) =        3.63738863


--------------------------------------------------------------------------------------------------------




----------------------------------------- Iteration    1(   2)  ---------------------------------------


     EDDAV:  cpu time    0.2200: real time    0.2211
       DOS:  cpu time    0.0000: real time    0.0003
    --------------------------------------------
      LOOP:  cpu time    0.2200: real time    0.5028

 eigenvalue-minimisations  :   464
 total energy-change (2. order) :-0.1190966E+02  (-0.1175865E+02)
 number of electron       8.0000000 magnetization 
 augmentation part        8.0000000 magnetization 

 Free energy of the ion-electron system (eV)
  ---------------------------------------------------
  alpha Z        PSCENC =         3.24857844
  Ewald energy   TEWEN  =      -225.91568183
  -Hartree energ DENC   =       -11.53197166
  -exchange      EXHF   =         0.00000000
  -V(xc)+E(xc)   XCENC  =       -20.29573795
  PAW double counting   =       189.40224250     -152.61488262
  entropy T*S    EENTRO =        -0.00002168
  eigenvalues    EBANDS =         0.83662428
  atomic energy  EATOM  =       208.59373829
  Solvation  Ediel_sol  =         0.00000000
  ---------------------------------------------------
  free energy    TOTEN  =        -8.27711224 eV

  energy without entropy =       -8.27709056  energy(sigma->0) =       -8.27710140


--------------------------------------------------------------------------------------------------------




----------------------------------------- Iteration    1(   3)  ---------------------------------------


     EDDAV:  cpu time    0.1920: real time    0.1892
       DOS:  cpu time    0.0000: real time    0.0003
    --------------------------------------------
      LOOP:  cpu time    0.1920: real time    0.3903

 eigenvalue-minimisations  :   400
 total energy-change (2. order) :-0.7958757E-01  (-0.7958751E-01)
 number of electron       8.0000000 magnetization 
 augmentation part        8.0000000 magnetization 

 Free energy of the ion-electron system (eV)
  ---------------------------------------------------
  alpha Z        PSCENC =         3.24857844
  Ewald energy   TEWEN  =      -225.91568183
  -Hartree energ DENC   =       -11.53197166
  -exchange      EXHF   =         0.00000000
  -V(xc)+E(xc)   XCENC  =       -20.29573795
  PAW double counting   =       189.40224250     -152.61488262
  entropy T*S    EENTRO =        -0.00001865
  eigenvalues    EBANDS =         0.75703368
  atomic energy  EATOM  =       208.59373829
  Solvation  Ediel_sol  =         0.00000000
  ---------------------------------------------------
  free energy    TOTEN  =        -8.35669981 eV

  energy without entropy =       -8.35668116  energy(sigma->0) =       -8.35669049


--------------------------------------------------------------------------------------------------------




----------------------------------------- Iteration    1(   4)  ---------------------------------------


     EDDAV:  cpu time    0.3160: real time    0.3156
       DOS:  cpu time    0.0000: real time    0.0003
    --------------------------------------------
      LOOP:  cpu time    0.3160: real time    0.3556

 eigenvalue-minimisations  :   560
 total energy-change (2. order) :-0.2129791E-03  (-0.2129789E-03)
 number of electron       8.0000000 magnetization 
 augmentation part        8.0000000 magnetization 

 Free energy of the ion-electron system (eV)
  ---------------------------------------------------
  alpha Z        PSCENC =         3.24857844
  Ewald energy   TEWEN  =      -225.91568183
  -Hartree energ DENC   =       -11.53197166
  -exchange      EXHF   =         0.00000000
  -V(xc)+E(xc)   XCENC  =       -20.29573795
  PAW double counting   =       189.40224250     -152.61488262
  entropy T*S    EENTRO =        -0.00001867
  eigenvalues    EBANDS =         0.75682071
  atomic energy  EATOM  =       208.59373829
  Solvation  Ediel_sol  =         0.00000000
  ---------------------------------------------------
  free energy    TOTEN  =        -8.35691279 eV

  energy without entropy =       -8.35689413  energy(sigma->0) =       -8.35690346


--------------------------------------------------------------------------------------------------------




----------------------------------------- Iteration    1(   5)  ---------------------------------------


     EDDAV:  cpu time    0.2000: real time    0.2007
       DOS:  cpu time    0.0000: real time    0.0003
    CHARGE:  cpu time    0.0240: real time    0.0252
    MIXING:  cpu time    0.0040: real time    0.0004
    --------------------------------------------
      LOOP:  cpu time    0.2280: real time    0.3236

 eigenvalue-minimisations  :   416
 total energy-change (2. order) :-0.1847516E-07  (-0.1854815E-07)
 number of electron       7.9999999 magnetization 
 augmentation part       -0.4806355 magnetization 

 Broyden mixing:
  rms(total) = 0.37135E+00    rms(broyden)= 0.37135E+00
  rms(prec ) = 0.90087E+00
  weight for this iteration     100.00

 Free energy of the ion-electron system (eV)
  ---------------------------------------------------
  alpha Z        PSCENC =         3.24857844
  Ewald energy   TEWEN  =      -225.91568183
  -Hartree energ DENC   =       -11.53197166
  -exchange      EXHF   =         0.00000000
  -V(xc)+E(xc)   XCENC  =       -20.29573795
  PAW double counting   =       189.40224250     -152.61488262
  entropy T*S    EENTRO =        -0.00001867
  eigenvalues    EBANDS =         0.75682069
  atomic energy  EATOM  =       208.59373829
  Solvation  Ediel_sol  =         0.00000000
  ---------------------------------------------------
  free energy    TOTEN  =        -8.35691281 eV

  energy without entropy =       -8.35689414  energy(sigma->0) =       -8.35690348


--------------------------------------------------------------------------------------------------------




----------------------------------------- Iteration    1(   6)  ---------------------------------------


    POTLOK:  cpu time    1.6080: real time    1.6076
    SETDIJ:  cpu time    0.0000: real time    0.0027
     EDDAV:  cpu time    0.1800: real time    0.1786
       DOS:  cpu time    0.0000: real time    0.0003
    CHARGE:  cpu time    0.0200: real time    0.0200
    MIXING:  cpu time    0.0000: real time    0.0005
    --------------------------------------------
      LOOP:  cpu time    1.8080: real time    1.8259

 eigenvalue-minimisations  :   464
 total energy-change (2. order) : 0.5410244E-01  (-0.8792175E-02)
 number of electron       7.9999999 magnetization 
 augmentation part       -0.4737250 magnetization 

 Broyden mixing:
  rms(total) = 0.22738E+00    rms(broyden)= 0.22738E+00
  rms(prec ) = 0.54470E+00
  weight for this iteration     100.00

 eigenvalues of (default mixing * dielectric matrix)
  average eigenvalue GAMMA=   2.5621
  2.5621

 Free energy of the ion-electron system (eV)
  ---------------------------------------------------
  alpha Z        PSCENC =         3.24857844
  Ewald energy   TEWEN  =      -225.91568183
  -Hartree energ DENC   =       -13.09644050
  -exchange      EXHF   =         0.00000000
  -V(xc)+E(xc)   XCENC  =       -20.05600520
  PAW double counting   =       304.97568330     -268.31792923
  entropy T*S    EENTRO =        -0.00007411
  eigenvalues    EBANDS =         2.26532047
  atomic energy  EATOM  =       208.59373829
  Solvation  Ediel_sol  =         0.00000000
  ---------------------------------------------------
  free energy    TOTEN  =        -8.30281037 eV

  energy without entropy =       -8.30273626  energy(sigma->0) =       -8.30277332


--------------------------------------------------------------------------------------------------------




----------------------------------------- Iteration    1(   7)  ---------------------------------------


    POTLOK:  cpu time    1.6560: real time    1.6560
    SETDIJ:  cpu time    0.0040: real time    0.0027
     EDDAV:  cpu time    0.1760: real time    0.1748
       DOS:  cpu time    0.0000: real time    0.0004
    CHARGE:  cpu time    0.0200: real time    0.0199
    MIXING:  cpu time    0.0000: real time    0.0005
    --------------------------------------------
      LOOP:  cpu time    1.8560: real time    2.1380

 eigenvalue-minimisations  :   464
 total energy-change (2. order) : 0.8307582E-02  (-0.2030438E-01)
 number of electron       7.9999999 magnetization 
 augmentation part       -0.4643937 magnetization 

 Broyden mixing:
  rms(total) = 0.19047E-01    rms(broyden)= 0.19047E-01
  rms(prec ) = 0.48530E-01
  weight for this iteration     100.00

 eigenvalues of (default mixing * dielectric matrix)
  average eigenvalue GAMMA=   2.2982
  2.2982  2.2982

 Free energy of the ion-electron system (eV)
  ---------------------------------------------------
  alpha Z        PSCENC =         3.24857844
  Ewald energy   TEWEN  =      -225.91568183
  -Hartree energ DENC   =       -15.75962292
  -exchange      EXHF   =         0.00000000
  -V(xc)+E(xc)   XCENC  =       -19.62455861
  PAW double counting   =       544.25700471     -507.76688549
  entropy T*S    EENTRO =        -0.00045353
  eigenvalues    EBANDS =         4.67337816
  atomic energy  EATOM  =       208.59373829
  Solvation  Ediel_sol  =         0.00000000
  ---------------------------------------------------
  free energy    TOTEN  =        -8.29450279 eV

  energy without entropy =       -8.29404926  energy(sigma->0) =       -8.29427603


--------------------------------------------------------------------------------------------------------




----------------------------------------- Iteration    1(   8)  ---------------------------------------


    POTLOK:  cpu time    1.6400: real time    1.6369
    SETDIJ:  cpu time    0.0000: real time    0.0027
     EDDAV:  cpu time    0.1400: real time    0.1374
       DOS:  cpu time    0.0000: real time    0.0003
    CHARGE:  cpu time    0.0160: real time    0.0191
    MIXING:  cpu time    0.0040: real time    0.0006
    --------------------------------------------
      LOOP:  cpu time    1.8000: real time    1.9940

 eigenvalue-minimisations  :   384
 total energy-change (2. order) : 0.1675295E-01  (-0.5073488E-03)
 number of electron       7.9999999 magnetization 
 augmentation part       -0.4657522 magnetization 

 Broyden mixing:
  rms(total) = 0.96711E-02    rms(broyden)= 0.96711E-02
  rms(prec ) = 0.24223E-01
  weight for this iteration     100.00

 eigenvalues of (default mixing * dielectric matrix)
  average eigenvalue GAMMA=   2.1984
  3.1089  1.7432  1.7432

 Free energy of the ion-electron system (eV)
  ---------------------------------------------------
  alpha Z        PSCENC =         3.24857844
  Ewald energy   TEWEN  =      -225.91568183
  -Hartree energ DENC   =       -15.52911942
  -exchange      EXHF   =         0.00000000
  -V(xc)+E(xc)   XCENC  =       -19.64057398
  PAW double counting   =       522.29653489     -485.74143508
  entropy T*S    EENTRO =        -0.00033014
  eigenvalues    EBANDS =         4.41053900
  atomic energy  EATOM  =       208.59373829
  Solvation  Ediel_sol  =         0.00000000
  ---------------------------------------------------
  free energy    TOTEN  =        -8.27774984 eV

  energy without entropy =       -8.27741970  energy(sigma->0) =       -8.27758477


--------------------------------------------------------------------------------------------------------




----------------------------------------- Iteration    1(   9)  ---------------------------------------


    POTLOK:  cpu time    1.6280: real time    1.6286
    SETDIJ:  cpu time    0.0000: real time    0.0021
     EDDAV:  cpu time    0.1600: real time    0.1565
       DOS:  cpu time    0.0000: real time    0.0003
    CHARGE:  cpu time    0.0160: real time    0.0165
    MIXING:  cpu time    0.0000: real time    0.0006
    --------------------------------------------
      LOOP:  cpu time    1.8040: real time    1.8976

 eigenvalue-minimisations  :   416
 total energy-change (2. order) :-0.1109430E-02  (-0.5898469E-04)
 number of electron       7.9999999 magnetization 
 augmentation part       -0.4654125 magnetization 

 Broyden mixing:
  rms(total) = 0.52857E-02    rms(broyden)= 0.52857E-02
  rms(prec ) = 0.70446E-02
  weight for this iteration     100.00

 eigenvalues of (default mixing * dielectric matrix)
  average eigenvalue GAMMA=   2.2289
  0.9665  2.7756  2.7756  2.3978

 Free energy of the ion-electron system (eV)
  ---------------------------------------------------
  alpha Z        PSCENC =         3.24857844
  Ewald energy   TEWEN  =      -225.91568183
  -Hartree energ DENC   =       -15.67953135
  -exchange      EXHF   =         0.00000000
  -V(xc)+E(xc)   XCENC  =       -19.61519213
  PAW double counting   =       532.48280006     -495.93474752
  entropy T*S    EENTRO =        -0.00035678
  eigenvalues    EBANDS =         4.54153355
  atomic energy  EATOM  =       208.59373829
  Solvation  Ediel_sol  =         0.00000000
  ---------------------------------------------------
  free energy    TOTEN  =        -8.27885927 eV

  energy without entropy =       -8.27850249  energy(sigma->0) =       -8.27868088


--------------------------------------------------------------------------------------------------------




----------------------------------------- Iteration    1(  10)  ---------------------------------------


    POTLOK:  cpu time    1.6440: real time    1.6442
    SETDIJ:  cpu time    0.0040: real time    0.0027
     EDDAV:  cpu time    0.1680: real time    0.1697
       DOS:  cpu time    0.0000: real time    0.0004
    CHARGE:  cpu time    0.0240: real time    0.0202
    MIXING:  cpu time    0.0000: real time    0.0006
    --------------------------------------------
      LOOP:  cpu time    1.8400: real time    1.8967

 eigenvalue-minimisations  :   400
 total energy-change (2. order) :-0.3298343E-04  (-0.2487155E-05)
 number of electron       7.9999999 magnetization 
 augmentation part       -0.4654371 magnetization 

 Broyden mixing:
  rms(total) = 0.98465E-03    rms(broyden)= 0.98465E-03
  rms(prec ) = 0.11293E-02
  weight for this iteration     100.00

 eigenvalues of (default mixing * dielectric matrix)
  average eigenvalue GAMMA=   1.8887
  2.9226  2.4921  2.2744  0.9677  0.7869

 Free energy of the ion-electron system (eV)
  ---------------------------------------------------
  alpha Z        PSCENC =         3.24857844
  Ewald energy   TEWEN  =      -225.91568183
  -Hartree energ DENC   =       -15.65837991
  -exchange      EXHF   =         0.00000000
  -V(xc)+E(xc)   XCENC  =       -19.61959858
  PAW double counting   =       523.73087881     -487.18227573
  entropy T*S    EENTRO =        -0.00035040
  eigenvalues    EBANDS =         4.52419864
  atomic energy  EATOM  =       208.59373829
  Solvation  Ediel_sol  =         0.00000000
  ---------------------------------------------------
  free energy    TOTEN  =        -8.27889226 eV

  energy without entropy =       -8.27854186  energy(sigma->0) =       -8.27871706


--------------------------------------------------------------------------------------------------------




----------------------------------------- Iteration    1(  11)  ---------------------------------------


    POTLOK:  cpu time    1.6120: real time    1.6110
    SETDIJ:  cpu time    0.0000: real time    0.0020
     EDDAV:  cpu time    0.2880: real time    0.2885
       DOS:  cpu time    0.0000: real time    0.0004
    CHARGE:  cpu time    0.0200: real time    0.0202
    MIXING:  cpu time    0.0040: real time    0.0006
    --------------------------------------------
      LOOP:  cpu time    1.9240: real time    2.0024

 eigenvalue-minimisations  :   544
 total energy-change (2. order) : 0.1990000E-03  (-0.3321199E-07)
 number of electron       7.9999999 magnetization 
 augmentation part       -0.4654518 magnetization 

 Broyden mixing:
  rms(total) = 0.18006E-03    rms(broyden)= 0.18006E-03
  rms(prec ) = 0.23507E-03
  weight for this iteration     100.00

 eigenvalues of (default mixing * dielectric matrix)
  average eigenvalue GAMMA=   2.0104
  2.9551  2.4548  2.4548  2.2387  1.0048  0.9542

 Free energy of the ion-electron system (eV)
  ---------------------------------------------------
  alpha Z        PSCENC =         3.24857844
  Ewald energy   TEWEN  =      -225.91568183
  -Hartree energ DENC   =       -15.65842420
  -exchange      EXHF   =         0.00000000
  -V(xc)+E(xc)   XCENC  =       -19.61923374
  PAW double counting   =       524.74407532     -488.19480533
  entropy T*S    EENTRO =        -0.00034983
  eigenvalues    EBANDS =         4.52340963
  atomic energy  EATOM  =       208.59373829
  Solvation  Ediel_sol  =         0.00000000
  ---------------------------------------------------
  free energy    TOTEN  =        -8.27869326 eV

  energy without entropy =       -8.27834343  energy(sigma->0) =       -8.27851834


--------------------------------------------------------------------------------------------------------




----------------------------------------- Iteration    1(  12)  ---------------------------------------


    POTLOK:  cpu time    1.6360: real time    1.6356
    SETDIJ:  cpu time    0.0000: real time    0.0020
     EDDAV:  cpu time    0.1880: real time    0.1884
       DOS:  cpu time    0.0000: real time    0.0004
    CHARGE:  cpu time    0.0200: real time    0.0199
    MIXING:  cpu time    0.0040: real time    0.0006
    --------------------------------------------
      LOOP:  cpu time    1.8480: real time    2.1115

 eigenvalue-minimisations  :   432
 total energy-change (2. order) : 0.1289148E-04  (-0.7367009E-08)
 number of electron       7.9999999 magnetization 
 augmentation part       -0.4654525 magnetization 

 Broyden mixing:
  rms(total) = 0.23938E-04    rms(broyden)= 0.23938E-04
  rms(prec ) = 0.50217E-04
  weight for this iteration     100.00

 eigenvalues of (default mixing * dielectric matrix)
  average eigenvalue GAMMA=   1.9544
  2.8875  2.8875  2.4804  2.2121  1.0078  0.9727  1.2330

 Free energy of the ion-electron system (eV)
  ---------------------------------------------------
  alpha Z        PSCENC =         3.24857844
  Ewald energy   TEWEN  =      -225.91568183
  -Hartree energ DENC   =       -15.65861107
  -exchange      EXHF   =         0.00000000
  -V(xc)+E(xc)   XCENC  =       -19.61921104
  PAW double counting   =       525.04220808     -488.49288404
  entropy T*S    EENTRO =        -0.00034963
  eigenvalues    EBANDS =         4.52353243
  atomic energy  EATOM  =       208.59373829
  Solvation  Ediel_sol  =         0.00000000
  ---------------------------------------------------
  free energy    TOTEN  =        -8.27868037 eV

  energy without entropy =       -8.27833074  energy(sigma->0) =       -8.27850555


--------------------------------------------------------------------------------------------------------




----------------------------------------- Iteration    1(  13)  ---------------------------------------


    POTLOK:  cpu time    1.6120: real time    1.6138
    SETDIJ:  cpu time    0.0040: real time    0.0027
     EDDAV:  cpu time    0.1600: real time    0.1614
       DOS:  cpu time    0.0000: real time    0.0004
    CHARGE:  cpu time    0.0200: real time    0.0199
    MIXING:  cpu time    0.0000: real time    0.0007
    --------------------------------------------
      LOOP:  cpu time    1.7960: real time    1.9012

 eigenvalue-minimisations  :   400
 total energy-change (2. order) : 0.1445799E-05  (-0.2487862E-09)
 number of electron       7.9999999 magnetization 
 augmentation part       -0.4654531 magnetization 

 Broyden mixing:
  rms(total) = 0.10109E-04    rms(broyden)= 0.10109E-04
  rms(prec ) = 0.11426E-04
  weight for this iteration     100.00

 eigenvalues of (default mixing * dielectric matrix)
  average eigenvalue GAMMA=   2.0041
  3.0678  2.8069  2.4959  2.4959  2.1975  1.0141  0.9875  0.9669

 Free energy of the ion-electron system (eV)
  ---------------------------------------------------
  alpha Z        PSCENC =         3.24857844
  Ewald energy   TEWEN  =      -225.91568183
  -Hartree energ DENC   =       -15.65841199
  -exchange      EXHF   =         0.00000000
  -V(xc)+E(xc)   XCENC  =       -19.61925050
  PAW double counting   =       525.03480031     -488.48546552
  entropy T*S    EENTRO =        -0.00034957
  eigenvalues    EBANDS =         4.52336345
  atomic energy  EATOM  =       208.59373829
  Solvation  Ediel_sol  =         0.00000000
  ---------------------------------------------------
  free energy    TOTEN  =        -8.27867892 eV

  energy without entropy =       -8.27832935  energy(sigma->0) =       -8.27850414


--------------------------------------------------------------------------------------------------------




----------------------------------------- Iteration    1(  14)  ---------------------------------------


    POTLOK:  cpu time    1.6360: real time    1.6354
    SETDIJ:  cpu time    0.0000: real time    0.0027
     EDDAV:  cpu time    0.0800: real time    0.0788
       DOS:  cpu time    0.0000: real time    0.0004
    CHARGE:  cpu time    0.0200: real time    0.0203
    MIXING:  cpu time    0.0000: real time    0.0007
    --------------------------------------------
      LOOP:  cpu time    1.7400: real time    1.9999

 eigenvalue-minimisations  :   192
 total energy-change (2. order) :-0.3978441E-06  (-0.1462247E-10)
 number of electron       7.9999999 magnetization 
 augmentation part       -0.4654529 magnetization 

 Broyden mixing:
  rms(total) = 0.91865E-06    rms(broyden)= 0.91865E-06
  rms(prec ) = 0.13215E-05
  weight for this iteration     100.00

 eigenvalues of (default mixing * dielectric matrix)
  average eigenvalue GAMMA=   1.9192
  3.0393  2.8584  2.6475  2.4552  2.1860  0.9808  0.9808  0.9808  1.1441

 Free energy of the ion-electron system (eV)
  ---------------------------------------------------
  alpha Z        PSCENC =         3.24857844
  Ewald energy   TEWEN  =      -225.91568183
  -Hartree energ DENC   =       -15.65844861
  -exchange      EXHF   =         0.00000000
  -V(xc)+E(xc)   XCENC  =       -19.61924650
  PAW double counting   =       525.01782807     -488.46849604
  entropy T*S    EENTRO =        -0.00034957
  eigenvalues    EBANDS =         4.52339844
  atomic energy  EATOM  =       208.59373829
  Solvation  Ediel_sol  =         0.00000000
  ---------------------------------------------------
  free energy    TOTEN  =        -8.27867932 eV

  energy without entropy =       -8.27832975  energy(sigma->0) =       -8.27850453


--------------------------------------------------------------------------------------------------------




----------------------------------------- Iteration    1(  15)  ---------------------------------------


    POTLOK:  cpu time    1.6080: real time    1.6095
    SETDIJ:  cpu time    0.0040: real time    0.0026
     EDDAV:  cpu time    0.0680: real time    0.0677
       DOS:  cpu time    0.0000: real time    0.0004
    CHARGE:  cpu time    0.0200: real time    0.0200
    MIXING:  cpu time    0.0000: real time    0.0007
    --------------------------------------------
      LOOP:  cpu time    1.7000: real time    1.7572

 eigenvalue-minimisations  :   160
 total energy-change (2. order) : 0.2261935E-06  (-0.8615940E-12)
 number of electron       7.9999999 magnetization 
 augmentation part       -0.4654529 magnetization 

 Broyden mixing:
  rms(total) = 0.15216E-06    rms(broyden)= 0.15216E-06
  rms(prec ) = 0.23154E-06
  weight for this iteration     100.00

 eigenvalues of (default mixing * dielectric matrix)
  average eigenvalue GAMMA=   1.9762
  3.1119  2.9551  2.7220  2.4077  2.4077  2.1759  1.0482  0.9826  0.9826  0.9684

 Free energy of the ion-electron system (eV)
  ---------------------------------------------------
  alpha Z        PSCENC =         3.24857844
  Ewald energy   TEWEN  =      -225.91568183
  -Hartree energ DENC   =       -15.65844305
  -exchange      EXHF   =         0.00000000
  -V(xc)+E(xc)   XCENC  =       -19.61924721
  PAW double counting   =       525.01832236     -488.46898953
  entropy T*S    EENTRO =        -0.00034957
  eigenvalues    EBANDS =         4.52339302
  atomic energy  EATOM  =       208.59373829
  Solvation  Ediel_sol  =         0.00000000
  ---------------------------------------------------
  free energy    TOTEN  =        -8.27867909 eV

  energy without entropy =       -8.27832952  energy(sigma->0) =       -8.27850431


--------------------------------------------------------------------------------------------------------




----------------------------------------- Iteration    1(  16)  ---------------------------------------


    POTLOK:  cpu time    1.6120: real time    1.6113
    SETDIJ:  cpu time    0.0040: real time    0.0020
     EDDAV:  cpu time    0.0680: real time    0.0690
       DOS:  cpu time    0.0000: real time    0.0003
    --------------------------------------------
      LOOP:  cpu time    1.6840: real time    1.7309

 eigenvalue-minimisations  :   160
 total energy-change (2. order) :-0.2227449E-07  (-0.3607980E-12)
 number of electron       7.9999999 magnetization 
 augmentation part       -0.4654529 magnetization 

 Free energy of the ion-electron system (eV)
  ---------------------------------------------------
  alpha Z        PSCENC =         3.24857844
  Ewald energy   TEWEN  =      -225.91568183
  -Hartree energ DENC   =       -15.65844324
  -exchange      EXHF   =         0.00000000
  -V(xc)+E(xc)   XCENC  =       -19.61924725
  PAW double counting   =       525.01832903     -488.46899630
  entropy T*S    EENTRO =        -0.00034957
  eigenvalues    EBANDS =         4.52339331
  atomic energy  EATOM  =       208.59373829
  Solvation  Ediel_sol  =         0.00000000
  ---------------------------------------------------
  free energy    TOTEN  =        -8.27867911 eV

  energy without entropy =       -8.27832954  energy(sigma->0) =       -8.27850433


--------------------------------------------------------------------------------------------------------




 average (electrostatic) potential at core
  the test charge radii are     0.9892
  (the norm of the test charge is              1.0000)
       1 -83.8954       2 -83.8954



 E-fermi :   5.8092     XC(G=0):  -9.2503     alpha+bet :-11.5728


 k-point     1 :       0.0000    0.0000    0.0000
  band No.  band energies     occupation 
      1      -6.1785      2.00000
      2       5.4756      1.98165
      3       5.4756      1.98165
      4       5.4756      1.98165
      5       8.0850      0.00000
      6       8.0850      0.00000
      7       8.0850      0.00000
      8       8.5494      0.00000
      9      13.2223      0.00000
     10      13.2223      0.00000
     11      13.3555      0.00000
     12      16.6599      0.00000
     13      16.6599      0.00000
     14      16.6599      0.00000
     15      20.7555      0.00000
     16      28.1804      0.00000

 k-point     2 :       0.2000    0.0000    0.0000
  band No.  band energies     occupation 
      1      -5.6774      2.00000
      2       2.5481      2.00000
      3       4.9264      2.00000
      4       4.9264      2.00000
      5       7.6492      0.00000
      6       8.8567      0.00000
      7       8.8567      0.00000
      8      11.2848      0.00000
      9      12.5656      0.00000
     10      12.5656      0.00000
     11      14.5576      0.00000
     12      16.3248      0.00000
     13      19.0843      0.00000
     14      19.0843      0.00000
     15      23.1278      0.00000
     16      24.2232      0.00000

 k-point     3 :       0.4000    0.0000    0.0000
  band No.  band energies     occupation 
      1      -4.3654      2.00000
      2      -0.6084      2.00000
      3       4.3964      2.00000
      4       4.3964      2.00000
      5       7.0464      0.00000
      6       8.9513      0.00000
      7       8.9513      0.00000
      8      13.3122      0.00000
      9      14.4087      0.00000
     10      14.4087      0.00000
     11      15.2975      0.00000
     12      18.4924      0.00000
     13      18.4924      0.00000
     14      19.1239      0.00000
     15      22.1165      0.00000
     16      24.3732      0.00000

 k-point     4 :       0.2000    0.2000    0.0000
  band No.  band energies     occupation 
      1      -5.5047      2.00000
      2       2.8703      2.00000
      3       4.0650      2.00000
      4       4.0650      2.00000
      5       7.0201      0.00000
      6       9.3610      0.00000
      7      10.3143      0.00000
      8      10.3143      0.00000
      9      12.3598      0.00000
     10      13.9782      0.00000
     11      15.7335      0.00000
     12      17.8119      0.00000
     13      17.8119      0.00000
     14      18.4438      0.00000
     15      23.7290      0.00000
     16      23.7290      0.00000

 k-point     5 :       0.4000    0.2000    0.0000
  band No.  band energies     occupation 
      1      -4.4021      2.00000
      2       0.2893      2.00000
      3       2.9640      2.00000
      4       3.5730      2.00000
      5       7.3256      0.00000
      6       9.5815      0.00000
      7      10.3267      0.00000
      8      10.8827      0.00000
      9      15.5185      0.00000
     10      15.6815      0.00000
     11      16.0649      0.00000
     12      18.0991      0.00000
     13      18.7505      0.00000
     14      20.3661      0.00000
     15      21.7163      0.00000
     16      23.1879      0.00000

 k-point     6 :      -0.4000    0.2000    0.0000
  band No.  band energies     occupation 
      1      -3.5575      2.00000
      2      -1.0426      2.00000
      3       2.1865      2.00000
      4       3.8397      2.00000
      5       7.5927      0.00000
      6      10.0185      0.00000
      7      10.2893      0.00000
      8      12.9578      0.00000
      9      13.7094      0.00000
     10      13.8669      0.00000
     11      16.9844      0.00000
     12      19.3343      0.00000
     13      19.7486      0.00000
     14      20.2972      0.00000
     15      22.4153      0.00000
     16      24.7250      0.00000

 k-point     7 :      -0.2000    0.2000    0.0000
  band No.  band energies     occupation 
      1      -4.8735      2.00000
      2       1.0927      2.00000
      3       2.6224      2.00000
      4       4.6669      2.00000
      5       8.3593      0.00000
      6       9.4779      0.00000
      7       9.7378      0.00000
      8      11.1325      0.00000
      9      11.6507      0.00000
     10      16.0179      0.00000
     11      16.0465      0.00000
     12      17.3149      0.00000
     13      19.0623      0.00000
     14      20.2418      0.00000
     15      22.1974      0.00000
     16      23.4080      0.00000

 k-point     8 :       0.4000    0.4000    0.0000
  band No.  band energies     occupation 
      1      -3.5524      2.00000
      2      -0.5825      2.00000
      3       2.9014      2.00000
      4       2.9014      2.00000
      5       6.1776      0.00917
      6       6.9093      0.00000
      7      13.8266      0.00000
      8      13.8266      0.00000
      9      16.2338      0.00000
     10      16.3324      0.00000
     11      17.8552      0.00000
     12      17.8552      0.00000
     13      18.9754      0.00000
     14      19.9410      0.00000
     15      21.8484      0.00000
     16      22.5748      0.00000

 k-point     9 :      -0.4000    0.4000    0.0000
  band No.  band energies     occupation 
      1      -2.3984      2.00000
      2      -1.7988      2.00000
      3       1.6081      2.00000
      4       3.0146      2.00000
      5       6.6213      0.00000
      6       8.6666      0.00000
      7      13.4565      0.00000
      8      13.9873      0.00000
      9      13.9963      0.00000
     10      14.4847      0.00000
     11      19.4262      0.00000
     12      19.6699      0.00000
     13      19.9990      0.00000
     14      20.9047      0.00000
     15      21.5838      0.00000
     16      22.1362      0.00000

 k-point    10 :      -0.4000    0.4000    0.2000
  band No.  band energies     occupation 
      1      -3.1348      2.00000
      2      -0.9545      2.00000
      3       1.6855      2.00000
      4       2.6334      2.00000
      5       8.8922      0.00000
      6       9.2972      0.00000
      7       9.8616      0.00000
      8      13.1607      0.00000
      9      13.7855      0.00000
     10      15.5055      0.00000
     11      18.5232      0.00000
     12      19.6901      0.00000
     13      19.8343      0.00000
     14      20.7783      0.00000
     15      21.7363      0.00000
     16      23.9000      0.00000


--------------------------------------------------------------------------------------------------------


 soft charge-density along one line, spin component           1
         0         1         2         3         4         5         6         7         8         9
 total charge-density along one line

 pseudopotential strength for first ion, spin component:           1
 18.543  25.867  -0.000  -0.000  -0.000  -0.000  -0.000  -0.000
 25.867  36.087  -0.000  -0.000  -0.000  -0.000  -0.000  -0.000
 -0.000  -0.000   4.200  -0.000  -0.000   7.818  -0.000  -0.000
 -0.000  -0.000  -0.000   4.200  -0.000  -0.000   7.818  -0.000
 -0.000  -0.000  -0.000  -0.000   4.200  -0.000  -0.000   7.818
 -0.000  -0.000   7.818  -0.000  -0.000  14.566  -0.000  -0.000
 -0.000  -0.000  -0.000   7.818  -0.000  -0.000  14.566  -0.000
 -0.000  -0.000  -0.000  -0.000   7.818  -0.000  -0.000  14.566
 total augmentation occupancy for first ion, spin component:           1
  3.166  -0.910   0.000  -0.000  -0.000   0.000   0.000  -0.000
 -0.910   0.451  -0.000  -0.000   0.000   0.000   0.000   0.000
  0.000   0.000   2.228  -0.000   0.000  -0.396  -0.000   0.000
 -0.000  -0.000  -0.000   2.228  -0.000   0.000  -0.396   0.000
 -0.000  -0.000   0.000  -0.000   2.228  -0.000   0.000  -0.396
  0.000   0.000  -0.396   0.000   0.000   0.082   0.000   0.000
  0.000   0.000   0.000  -0.396   0.000   0.000   0.082   0.000
 -0.000   0.000  -0.000   0.000  -0.396  -0.000  -0.000   0.082


------------------------ aborting loop because EDIFF is reached ----------------------------------------


    CHARGE:  cpu time    0.0240: real time    0.0257
    FORLOC:  cpu time    0.0000: real time    0.0006
    FORNL :  cpu time    0.0240: real time    0.0213
    STRESS:  cpu time    0.1680: real time    0.1665
    FORCOR:  cpu time    1.6080: real time    1.6073
    FORHAR:  cpu time    0.0040: real time    0.0040
    MIXING:  cpu time    0.0000: real time    0.0007
    OFIELD:  cpu time    0.0000: real time    0.0000

  FORCE on cell =-STRESS in cart. coord.  units (eV):
  Direction    XX          YY          ZZ          XY          YZ          ZX
  --------------------------------------------------------------------------------------
  Alpha Z     3.24858     3.24858     3.24858
  Ewald     -75.30526   -75.30526   -75.30526     0.00000    -0.00000    -0.00000
  Hartree     5.21948     5.21948     5.21948     0.00000     0.00000     0.00000
  E(xc)     -25.32554   -25.32554   -25.32554    -0.00000    -0.00000    -0.00000
  Local     -29.81052   -29.81052   -29.81052     0.00001     0.00001     0.00001
  n-local    79.04130    79.58496    73.79554     2.45502    -1.01358     0.77686
  augment   -11.91563   -11.91563   -11.91563    -0.00001    -0.00001    -0.00001
  Kinetic    58.33970    56.89839    54.11771     3.72849    -1.05308     0.95822
  Fock        0.00000     0.00000     0.00000     0.00000     0.00000     0.00000
  -------------------------------------------------------------------------------------
  Total       0.03697     0.03697     0.03697     0.00000     0.00000     0.00000
  in kB       1.42916     1.42916     1.42916     0.00000     0.00000     0.00000
  external pressure =        1.43 kB  Pullay stress =        0.00 kB


 VOLUME and BASIS-vectors are now :
 -----------------------------------------------------------------------------
  energy-cutoff  :      500.00
  volume of cell :       41.45
      direct lattice vectors                 reciprocal lattice vectors
     0.000000000  2.746821138  2.746821138    -0.182028598  0.182028598  0.182028598
     2.746821138  0.000000000  2.746821138     0.182028598 -0.182028598  0.182028598
     2.746821138  2.746821138  0.000000000     0.182028598  0.182028598 -0.182028598

  length of vectors
     3.884591706  3.884591706  3.884591706     0.315282780  0.315282780  0.315282780


 FORCES acting on ions
    electron-ion (+dipol)            ewald-force                    non-local-force                 convergence-correction
 -----------------------------------------------------------------------------------------------
   0.989E-08 0.990E-08 0.107E-07   -.313E-14 -.268E-14 -.153E-14   -.104E-15 -.625E-16 -.451E-16   -.620E-12 -.618E-12 -.621E-12
   -.989E-08 -.990E-08 -.107E-07   0.307E-14 0.301E-14 0.222E-14   0.486E-16 0.139E-16 0.416E-16   0.623E-12 0.621E-12 0.620E-12
 -----------------------------------------------------------------------------------------------
   -.155E-14 0.592E-13 -.129E-12   -.615E-16 0.330E-15 0.690E-15   -.555E-16 -.486E-16 -.347E-17   0.340E-14 0.302E-14 -.565E-15


 POSITION                                       TOTAL-FORCE (eV/Angst)
 -----------------------------------------------------------------------------------
      4.12023      4.12023      4.12023         0.000000      0.000000     -0.000000
      2.74682      2.74682      2.74682        -0.000000     -0.000000      0.000000
 -----------------------------------------------------------------------------------
    total drift:                                0.000000      0.000000     -0.000000


--------------------------------------------------------------------------------------------------------



  FREE ENERGIE OF THE ION-ELECTRON SYSTEM (eV)
  ---------------------------------------------------
  free  energy   TOTEN  =        -8.27867911 eV

  energy  without entropy=       -8.27832954  energy(sigma->0) =       -8.27850433



--------------------------------------------------------------------------------------------------------


    POTLOK:  cpu time    1.6120: real time    1.6112


--------------------------------------------------------------------------------------------------------




--------------------------------------------------------------------------------------------------------


  
 reached required accuracy - stopping structural energy minimisation
     LOOP+:  cpu time   26.5040: real time   29.1655
    4ORBIT:  cpu time    0.0000: real time    0.0000

 total amount of memory used by VASP on root node    32937. kBytes
========================================================================

   base      :      30000. kBytes
   nonl-proj :        731. kBytes
   fftplans  :        517. kBytes
   grid      :       1507. kBytes
   one-center:          6. kBytes
   wavefun   :        176. kBytes

  
  
 General timing and accounting informations for this job:
 ========================================================
  
                  Total CPU time used (sec):       27.028
                            User time (sec):       26.800
                          System time (sec):        0.228
                         Elapsed time (sec):       30.864
  
                   Maximum memory used (kb):      111112.
                   Average memory used (kb):           0.
  
                          Minor page faults:       110257
                          Major page faults:            6
                 Voluntary context switches:          296
