 running on   16 total cores
 distrk:  each k-point on   16 cores,    1 groups
 distr:  one band on    1 cores,   16 groups
 using from now: INCAR     
 vasp.5.4.1 24Jun15 (build Feb  9 2019 14:16:27) complex                         
 POSCAR found type information on POSCAR  Si
 POSCAR found :  1 types and       2 ions
 scaLAPACK will be used

 ----------------------------------------------------------------------------- 
|                                                                             |
|           W    W    AA    RRRRR   N    N  II  N    N   GGGG   !!!           |
|           W    W   A  A   R    R  NN   N  II  NN   N  G    G  !!!           |
|           W    W  A    A  R    R  N N  N  II  N N  N  G       !!!           |
|           W WW W  AAAAAA  RRRRR   N  N N  II  N  N N  G  GGG   !            |
|           WW  WW  A    A  R   R   N   NN  II  N   NN  G    G                |
|           W    W  A    A  R    R  N    N  II  N    N   GGGG   !!!           |
|                                                                             |
|      For optimal performance we recommend to set                            |
|        NCORE= 4 - approx SQRT( number of cores)                             |
|      NCORE specifies how many cores store one orbital (NPAR=cpu/NCORE).     |
|      This setting can  greatly improve the performance of VASP for DFT.     |
|      The default, NPAR=number of cores might be grossly inefficient         |
|      on modern multi-core architectures or massively parallel machines.     |
|      Do your own testing !!!!                                               |
|      Unfortunately you need to use the default for GW and RPA calculations. |
|      (for HF NCORE is supported but not extensively tested yet)             |
|                                                                             |
 ----------------------------------------------------------------------------- 


 ----------------------------------------------------------------------------- 
|                                                                             |
|  ADVICE TO THIS USER RUNNING 'VASP/VAMP'   (HEAR YOUR MASTER'S VOICE ...):  |
|                                                                             |
|      You have switched on vdW-DFT.                                          |
|      This routine was written and supplied by Jiri Klimes.                  |
|      We recommed that you carefully read and cite the following             |
|      publication                                                            |
|      J. Klimes, D.R. Bowler, A. Michelides                                  |
|        J. Phys.: Cond Matt. 22 022201 (2010)                                |
|      J. Klimes, D.R. Bowler, A. Michelides                                  |
|        Phys. Rev. B. 83, 195131 (2011)                                      |
|      and references therein.                                                |
|                                                                             |
 ----------------------------------------------------------------------------- 


 ----------------------------------------------------------------------------- 
|                                                                             |
|  ADVICE TO THIS USER RUNNING 'VASP/VAMP'   (HEAR YOUR MASTER'S VOICE ...):  |
|                                                                             |
|      You enforced a specific xc-type in the INCAR file,                     |
|      a different type was found on the POTCAR file                          |
|          I HOPE YOU KNOW, WHAT YOU ARE  DOING                               |
|                                                                             |
 ----------------------------------------------------------------------------- 

 LDA part: xc-table for Pade appr. of Perdew
 POSCAR, INCAR and KPOINTS ok, starting setup
 WARNING: small aliasing (wrap around) errors must be expected
 FFT: planning ...
 WAVECAR not read
 entering main loop
       N       E                     dE             d eps       ncg     rms          rms(c)
Total vdW correction in eV:      1.0901334
DAV:   1     0.363254290236E+01    0.36325E+01   -0.38300E+03   320   0.410E+02
DAV:   2    -0.827711224036E+01   -0.11910E+02   -0.11759E+02   464   0.409E+01
DAV:   3    -0.835669981432E+01   -0.79588E-01   -0.79588E-01   400   0.431E+00
DAV:   4    -0.835691279340E+01   -0.21298E-03   -0.21298E-03   560   0.248E-01
DAV:   5    -0.835691281188E+01   -0.18475E-07   -0.18548E-07   416   0.179E-03    0.371E+00
Total vdW correction in eV:      1.1390308
DAV:   6    -0.830281037349E+01    0.54102E-01   -0.87922E-02   464   0.876E-01    0.227E+00
Total vdW correction in eV:      1.2332443
DAV:   7    -0.829450279198E+01    0.83076E-02   -0.20304E-01   464   0.131E+00    0.190E-01
Total vdW correction in eV:      1.2287270
DAV:   8    -0.827774984355E+01    0.16753E-01   -0.50735E-03   384   0.248E-01    0.967E-02
Total vdW correction in eV:      1.2349164
DAV:   9    -0.827885927380E+01   -0.11094E-02   -0.58985E-04   416   0.849E-02    0.529E-02
Total vdW correction in eV:      1.2345321
DAV:  10    -0.827889225723E+01   -0.32983E-04   -0.24872E-05   400   0.221E-02    0.985E-03
Total vdW correction in eV:      1.2345467
DAV:  11    -0.827869325719E+01    0.19900E-03   -0.33212E-07   544   0.268E-03    0.180E-03
Total vdW correction in eV:      1.2345883
DAV:  12    -0.827868036571E+01    0.12891E-04   -0.73670E-08   432   0.137E-03    0.239E-04
Total vdW correction in eV:      1.2345849
DAV:  13    -0.827867891991E+01    0.14458E-05   -0.24879E-09   400   0.224E-04    0.101E-04
Total vdW correction in eV:      1.2345868
DAV:  14    -0.827867931775E+01   -0.39784E-06   -0.14622E-10   192   0.578E-05    0.919E-06
Total vdW correction in eV:      1.2345865
DAV:  15    -0.827867909156E+01    0.22619E-06   -0.86159E-12   160   0.119E-05    0.152E-06
Total vdW correction in eV:      1.2345865
DAV:  16    -0.827867911383E+01   -0.22274E-07   -0.36080E-12   160   0.438E-06
Total vdW correction in eV:      1.2345865
Total vdW correction in eV:      1.2345865
   1 F= -.82786791E+01 E0= -.82785043E+01  d E =-.827868E+01
 curvature:   0.00 expect dE= 0.000E+00 dE for cont linesearch  0.000E+00
 trial: gam= 0.00000 g(F)=  0.254E-49 g(S)=  0.000E+00 ort = 0.000E+00 (trialstep = 0.100E+01)
 search vector abs. value=  0.100E-09
 reached required accuracy - stopping structural energy minimisation
