<?xml version="1.0" encoding="ISO-8859-1"?>
<modeling>
 <generator>
  <i name="program" type="string">vasp </i>
  <i name="version" type="string">5.4.1  </i>
  <i name="subversion" type="string">24Jun15 (build Feb  9 2019 14:16:27) complex                          parallel </i>
  <i name="platform" type="string">IFC91_ompi </i>
  <i name="date" type="string">2020 09 26 </i>
  <i name="time" type="string">22:27:46 </i>
 </generator>
 <incar>
  <i type="string" name="PREC">accurate</i>
  <i type="int" name="NELM">   400</i>
  <i type="int" name="IBRION">     2</i>
  <i name="EDIFF">      0.00000010</i>
  <i type="int" name="NSW">     1</i>
  <i type="int" name="ISIF">     2</i>
  <i name="ENCUT">    500.00000000</i>
  <i type="int" name="ISMEAR">     0</i>
  <i type="logical" name="LWAVE"> F  </i>
  <i type="logical" name="LCHARG"> F  </i>
  <v type="int" name="KPOINT_BSE">    -1     0     0     0</v>
  <i type="int" name="NELM">   400</i>
  <i type="string" name="GGA">BO</i>
  <i name="PARAM1">      0.18333333</i>
  <i name="PARAM2">      0.22000000</i>
  <i type="logical" name="LUSE_VDW"> T  </i>
  <i name="AGGAC">      0.00000000</i>
 </incar>
 <kpoints>
  <generation param="Gamma">
   <v type="int" name="divisions">       5        5        5 </v>
   <v name="usershift">      0.00000000       0.00000000       0.00000000 </v>
   <v name="genvec1">      0.20000000       0.00000000       0.00000000 </v>
   <v name="genvec2">      0.00000000       0.20000000       0.00000000 </v>
   <v name="genvec3">      0.00000000       0.00000000       0.20000000 </v>
   <v name="shift">      0.00000000       0.00000000       0.00000000 </v>
  </generation>
  <varray name="kpointlist" >
   <v>       0.00000000       0.00000000       0.00000000 </v>
   <v>       0.20000000       0.00000000       0.00000000 </v>
   <v>       0.40000000       0.00000000       0.00000000 </v>
   <v>       0.20000000       0.20000000       0.00000000 </v>
   <v>       0.40000000       0.20000000       0.00000000 </v>
   <v>      -0.40000000       0.20000000       0.00000000 </v>
   <v>      -0.20000000       0.20000000       0.00000000 </v>
   <v>       0.40000000       0.40000000       0.00000000 </v>
   <v>      -0.40000000       0.40000000       0.00000000 </v>
   <v>      -0.40000000       0.40000000       0.20000000 </v>
  </varray>
  <varray name="weights" >
   <v>       0.00800000 </v>
   <v>       0.06400000 </v>
   <v>       0.06400000 </v>
   <v>       0.04800000 </v>
   <v>       0.19200000 </v>
   <v>       0.19200000 </v>
   <v>       0.09600000 </v>
   <v>       0.04800000 </v>
   <v>       0.09600000 </v>
   <v>       0.19200000 </v>
  </varray>
 </kpoints>
 <parameters>
  <separator name="general" >
   <i type="string" name="SYSTEM">unknown system</i>
   <i type="logical" name="LCOMPAT"> F  </i>
  </separator>
  <separator name="electronic" >
   <i type="string" name="PREC">accura</i>
   <i name="ENMAX">    500.00000000</i>
   <i name="ENAUG">    322.06900000</i>
   <i name="EDIFF">      0.00000010</i>
   <i type="int" name="IALGO">    38</i>
   <i type="int" name="IWAVPR">    11</i>
   <i type="int" name="NBANDS">    16</i>
   <i name="NELECT">      8.00000000</i>
   <i type="int" name="TURBO">     0</i>
   <i type="int" name="IRESTART">     0</i>
   <i type="int" name="NREBOOT">     0</i>
   <i type="int" name="NMIN">     0</i>
   <i name="EREF">      0.00000000</i>
   <separator name="electronic smearing" >
    <i type="int" name="ISMEAR">     0</i>
    <i name="SIGMA">      0.20000000</i>
    <i name="KSPACING">      0.50000000</i>
    <i type="logical" name="KGAMMA"> T  </i>
   </separator>
   <separator name="electronic projectors" >
    <i type="logical" name="LREAL"> F  </i>
    <v name="ROPT">      0.00000000</v>
    <i type="int" name="LMAXPAW">  -100</i>
    <i type="int" name="LMAXMIX">     2</i>
    <i type="logical" name="NLSPLINE"> F  </i>
   </separator>
   <separator name="electronic startup" >
    <i type="int" name="ISTART">     0</i>
    <i type="int" name="ICHARG">     2</i>
    <i type="int" name="INIWAV">     1</i>
   </separator>
   <separator name="electronic spin" >
    <i type="int" name="ISPIN">     1</i>
    <i type="logical" name="LNONCOLLINEAR"> F  </i>
    <v name="MAGMOM">      1.00000000      1.00000000</v>
    <i name="NUPDOWN">     -1.00000000</i>
    <i type="logical" name="LSORBIT"> F  </i>
    <v name="SAXIS">      0.00000000      0.00000000      1.00000000</v>
    <i type="logical" name="LSPIRAL"> F  </i>
    <v name="QSPIRAL">      0.00000000      0.00000000      0.00000000</v>
    <i type="logical" name="LZEROZ"> F  </i>
   </separator>
   <separator name="electronic exchange-correlation" >
    <i type="logical" name="LASPH"> F  </i>
    <i type="logical" name="LMETAGGA"> F  </i>
   </separator>
   <separator name="electronic convergence" >
    <i type="int" name="NELM">   400</i>
    <i type="int" name="NELMDL">    -5</i>
    <i type="int" name="NELMIN">     2</i>
    <i name="ENINI">    500.00000000</i>
    <separator name="electronic convergence detail" >
     <i type="logical" name="LDIAG"> T  </i>
     <i type="logical" name="LSUBROT"> F  </i>
     <i name="WEIMIN">      0.00100000</i>
     <i name="EBREAK">      0.00000000</i>
     <i name="DEPER">      0.30000000</i>
     <i type="int" name="NRMM">     4</i>
     <i name="TIME">      0.40000000</i>
    </separator>
   </separator>
   <separator name="electronic mixer" >
    <i name="AMIX">      0.40000000</i>
    <i name="BMIX">      1.00000000</i>
    <i name="AMIN">      0.10000000</i>
    <i name="AMIX_MAG">      1.60000000</i>
    <i name="BMIX_MAG">      1.00000000</i>
    <separator name="electronic mixer details" >
     <i type="int" name="IMIX">     4</i>
     <i type="logical" name="MIXFIRST"> F  </i>
     <i type="int" name="MAXMIX">   -45</i>
     <i name="WC">    100.00000000</i>
     <i type="int" name="INIMIX">     1</i>
     <i type="int" name="MIXPRE">     1</i>
     <i type="int" name="MREMOVE">     5</i>
    </separator>
   </separator>
   <separator name="electronic dipolcorrection" >
    <i type="logical" name="LDIPOL"> F  </i>
    <i type="logical" name="LMONO"> F  </i>
    <i type="int" name="IDIPOL">     0</i>
    <i name="EPSILON">      1.00000000</i>
    <v name="DIPOL">   -100.00000000   -100.00000000   -100.00000000</v>
    <i name="EFIELD">      0.00000000</i>
   </separator>
  </separator>
  <separator name="grids" >
   <i type="int" name="NGX">    28</i>
   <i type="int" name="NGY">    28</i>
   <i type="int" name="NGZ">    28</i>
   <i type="int" name="NGXF">    56</i>
   <i type="int" name="NGYF">    56</i>
   <i type="int" name="NGZF">    56</i>
   <i type="logical" name="ADDGRID"> F  </i>
  </separator>
  <separator name="ionic" >
   <i type="int" name="NSW">     1</i>
   <i type="int" name="IBRION">     2</i>
   <i type="int" name="ISIF">     2</i>
   <i name="PSTRESS">      0.00000000</i>
   <i name="EDIFFG">      0.00000100</i>
   <i type="int" name="NFREE">     1</i>
   <i name="POTIM">      0.50000000</i>
   <i name="SMASS">     -3.00000000</i>
   <i name="SCALEE">      1.00000000</i>
  </separator>
  <separator name="ionic md" >
   <i name="TEBEG">      0.00010000</i>
   <i name="TEEND">      0.00010000</i>
   <i type="int" name="NBLOCK">     1</i>
   <i type="int" name="KBLOCK">     1</i>
   <i type="int" name="NPACO">   256</i>
   <i name="APACO">     16.00000000</i>
  </separator>
  <separator name="symmetry" >
   <i type="int" name="ISYM">     2</i>
   <i name="SYMPREC">      0.00001000</i>
  </separator>
  <separator name="dos" >
   <i type="logical" name="LORBIT"> T  </i>
   <v name="RWIGS">     -1.00000000</v>
   <i type="int" name="NEDOS">   301</i>
   <i name="EMIN">     10.00000000</i>
   <i name="EMAX">    -10.00000000</i>
   <i name="EFERMI">      0.00000000</i>
  </separator>
  <separator name="writing" >
   <i type="int" name="NWRITE">     2</i>
   <i type="logical" name="LWAVE"> F  </i>
   <i type="logical" name="LCHARG"> F  </i>
   <i type="logical" name="LPARD"> F  </i>
   <i type="logical" name="LVTOT"> F  </i>
   <i type="logical" name="LVHAR"> F  </i>
   <i type="logical" name="LELF"> F  </i>
   <i type="logical" name="LOPTICS"> F  </i>
   <v name="STM">      0.00000000      0.00000000      0.00000000      0.00000000      0.00000000      0.00000000      0.00000000</v>
  </separator>
  <separator name="performance" >
   <i type="int" name="NPAR">    16</i>
   <i type="int" name="NSIM">     4</i>
   <i type="int" name="NBLK">    -1</i>
   <i type="logical" name="LPLANE"> T  </i>
   <i type="logical" name="LSCALAPACK"> T  </i>
   <i type="logical" name="LSCAAWARE"> F  </i>
   <i type="logical" name="LSCALU"> F  </i>
   <i type="logical" name="LASYNC"> F  </i>
   <i type="logical" name="LORBITALREAL"> F  </i>
  </separator>
  <separator name="miscellaneous" >
   <i type="int" name="IDIOT">     3</i>
   <i type="logical" name="LMUSIC"> F  </i>
   <v name="POMASS">     28.08500000</v>
   <v name="DARWINR">      0.00000000</v>
   <v name="DARWINV">      1.00000000</v>
   <i type="logical" name="LCORR"> T  </i>
  </separator>
  <i type="logical" name="GGA_COMPAT"> T  </i>
  <i type="logical" name="LBERRY"> F  </i>
  <i type="int" name="ICORELEVEL">     0</i>
  <i type="logical" name="LDAU"> F  </i>
  <i type="int" name="I_CONSTRAINED_M">     0</i>
  <separator name="electronic exchange-correlation" >
   <i type="string" name="GGA">BO</i>
   <i type="int" name="VOSKOWN">     0</i>
   <i type="logical" name="LHFCALC"> F  </i>
   <i type="string" name="PRECFOCK"></i>
   <i type="logical" name="LSYMGRAD"> F  </i>
   <i type="logical" name="LHFONE"> F  </i>
   <i type="logical" name="LRHFCALC"> F  </i>
   <i type="logical" name="LTHOMAS"> F  </i>
   <i type="logical" name="LMODELHF"> F  </i>
   <i name="ENCUT4O">     -1.00000000</i>
   <i type="int" name="EXXOEP">     0</i>
   <i type="int" name="FOURORBIT">     0</i>
   <i name="AEXX">      0.00000000</i>
   <i name="HFALPHA">      0.00000000</i>
   <i name="MCALPHA">      0.00000000</i>
   <i name="ALDAX">      1.00000000</i>
   <i name="AGGAX">      1.00000000</i>
   <i name="ALDAC">      1.00000000</i>
   <i name="AGGAC">      0.00000000</i>
   <i type="int" name="NKREDX">     1</i>
   <i type="int" name="NKREDY">     1</i>
   <i type="int" name="NKREDZ">     1</i>
   <i type="logical" name="SHIFTRED"> F  </i>
   <i type="logical" name="ODDONLY"> F  </i>
   <i type="logical" name="EVENONLY"> F  </i>
   <i type="int" name="LMAXFOCK">     0</i>
   <i type="int" name="NMAXFOCKAE">     0</i>
   <i type="logical" name="LFOCKAEDFT"> F  </i>
   <i name="HFSCREEN">      0.00000000</i>
   <i name="HFSCREENC">      0.00000000</i>
   <i type="int" name="NBANDSGWLOW">     0</i>
  </separator>
  <separator name="vdW DFT" >
   <i type="logical" name="LUSE_VDW"> T  </i>
   <i name="Zab_VDW">     -0.84910000</i>
   <i name="PARAM1">      0.18333333</i>
   <i name="PARAM2">      0.22000000</i>
   <i name="PARAM3">      0.00000000</i>
  </separator>
  <separator name="model GW" >
   <i type="int" name="MODEL_GW">     0</i>
   <i name="MODEL_EPS0">     12.43490274</i>
   <i name="MODEL_ALPHA">      1.00000000</i>
  </separator>
  <separator name="linear response parameters" >
   <i type="logical" name="LEPSILON"> F  </i>
   <i type="logical" name="LRPA"> F  </i>
   <i type="logical" name="LNABLA"> F  </i>
   <i type="logical" name="LVEL"> F  </i>
   <i type="int" name="KINTER">     0</i>
   <i name="CSHIFT">      0.10000000</i>
   <i name="OMEGAMAX">     -1.00000000</i>
   <i name="DEG_THRESHOLD">      0.00200000</i>
  </separator>
  <separator name="orbital magnetization" >
   <i type="logical" name="NUCIND"> F  </i>
   <v name="MAGPOS">      0.00000000      0.00000000      0.00000000</v>
   <i type="logical" name="LNICSALL"> T  </i>
   <i type="logical" name="ORBITALMAG"> F  </i>
   <i type="logical" name="LMAGBLOCH"> F  </i>
   <i type="logical" name="LCHIMAG"> F  </i>
   <i type="logical" name="LGAUGE"> T  </i>
   <i type="int" name="MAGATOM">     0</i>
   <v name="MAGDIPOL">      0.00000000      0.00000000      0.00000000</v>
   <v name="AVECCONST">      0.00000000      0.00000000      0.00000000</v>
  </separator>
  <separator name="response functions" >
   <i type="logical" name="LADDER"> F  </i>
   <i type="logical" name="LFXC"> F  </i>
   <i type="logical" name="LHARTREE"> T  </i>
   <i type="int" name="IBSE">     0</i>
   <v type="int" name="KPOINT">    -1     0     0     0</v>
   <i type="logical" name="LTCTE"> F  </i>
   <i type="logical" name="LTETE"> F  </i>
   <i type="logical" name="LTRIPLET"> F  </i>
   <i type="logical" name="LFXCEPS"> F  </i>
   <i type="logical" name="LFXHEG"> F  </i>
   <i type="int" name="NATURALO">     0</i>
   <i type="logical" name="L2ORDER"> F  </i>
   <i type="logical" name="LUSEW"> F  </i>
   <i name="ENCUTGW">     -2.00000000</i>
   <i name="ENCUTGWSOFT">     -2.00000000</i>
   <i name="ENCUTLF">     -1.00000000</i>
   <i type="int" name="LMAXMP2">    -1</i>
   <i name="SCISSOR">      0.00000000</i>
   <i type="int" name="NOMEGA">     0</i>
   <i type="int" name="NOMEGAR">     0</i>
   <i type="int" name="NBANDSGW">    -1</i>
   <i type="int" name="NBANDSO">    -1</i>
   <i type="int" name="NBANDSV">    -1</i>
   <i type="int" name="NELM">   400</i>
   <i type="int" name="NELMHF">     1</i>
   <i type="int" name="DIM">     3</i>
   <i type="int" name="ANTIRES">     0</i>
   <i name="OMEGAMAX">    -30.00000000</i>
   <i name="OMEGAMIN">    -30.00000000</i>
   <i name="OMEGATL">   -200.00000000</i>
   <i type="int" name="OMEGAGRID">     0</i>
   <i name="CSHIFT">     -0.10000000</i>
   <i type="logical" name="SELFENERGY"> F  </i>
   <i type="logical" name="LSPECTRAL"> F  </i>
   <i type="logical" name="LSPECTRALGW"> F  </i>
   <i type="logical" name="LSINGLES"> F  </i>
   <i type="logical" name="LFERMIGW"> F  </i>
   <i type="logical" name="ODDONLYGW"> F  </i>
   <i type="logical" name="EVENONLYGW"> F  </i>
   <i type="int" name="NKREDLFX">     1</i>
   <i type="int" name="NKREDLFY">     1</i>
   <i type="int" name="NKREDLFZ">     1</i>
   <i type="int" name="MAXMEM">  1800</i>
   <i type="int" name="TELESCOPE">     0</i>
   <i type="int" name="TAUPAR">     1</i>
   <i type="int" name="OMEGAPAR">    -1</i>
   <i name="LAMBDA">      1.00000000</i>
  </separator>
  <separator name="External order field" >
   <i name="OFIELD_KAPPA">      0.00000000</i>
   <v name="OFIELD_K">      0.00000000      0.00000000      0.00000000</v>
   <i name="OFIELD_Q6_NEAR">      0.00000000</i>
   <i name="OFIELD_Q6_FAR">      0.00000000</i>
   <i name="OFIELD_A">      0.00000000</i>
  </separator>
 </parameters>
 <atominfo>
  <atoms>       2 </atoms>
  <types>       1 </types>
  <array name="atoms" >
   <dimension dim="1">ion</dimension>
   <field type="string">element</field>
   <field type="int">atomtype</field>
   <set>
    <rc><c>Si</c><c>   1</c></rc>
    <rc><c>Si</c><c>   1</c></rc>
   </set>
  </array>
  <array name="atomtypes" >
   <dimension dim="1">type</dimension>
   <field type="int">atomspertype</field>
   <field type="string">element</field>
   <field>mass</field>
   <field>valence</field>
   <field type="string">pseudopotential</field>
   <set>
    <rc><c>   2</c><c>Si</c><c>     28.08500000</c><c>      4.00000000</c><c>  PAW_PBE Si 05Jan2001                  </c></rc>
   </set>
  </array>
 </atominfo>
 <structure name="initialpos" >
  <crystal>
   <varray name="basis" >
    <v>       0.00000000       2.74682114       2.74682114 </v>
    <v>       2.74682114       0.00000000       2.74682114 </v>
    <v>       2.74682114       2.74682114       0.00000000 </v>
   </varray>
   <i name="volume">     41.44967579 </i>
   <varray name="rec_basis" >
    <v>      -0.18202860       0.18202860       0.18202860 </v>
    <v>       0.18202860      -0.18202860       0.18202860 </v>
    <v>       0.18202860       0.18202860      -0.18202860 </v>
   </varray>
  </crystal>
  <varray name="positions" >
   <v>       0.75000000       0.75000000       0.75000000 </v>
   <v>       0.50000000       0.50000000       0.50000000 </v>
  </varray>
 </structure>
 <calculation>
  <scstep>
   <time name="dav">    0.12    0.12</time>
   <time name="total">    2.30    2.30</time>
   <energy>
    <i name="alphaZ">      3.24857844 </i>
    <i name="ewald">   -225.91568183 </i>
    <i name="hartreedc">    -11.53197166 </i>
    <i name="XCdc">    -20.29573795 </i>
    <i name="pawpsdc">    189.40224250 </i>
    <i name="pawaedc">   -152.61488262 </i>
    <i name="eentropy">     -0.00969146 </i>
    <i name="bandstr">     12.75594920 </i>
    <i name="atom">    208.59373829 </i>
    <i name="e_fr_energy">      3.63254290 </i>
    <i name="e_wo_entrp">      3.64223436 </i>
    <i name="e_0_energy">      3.63738863 </i>
   </energy>
  </scstep>
  <scstep>
   <time name="dav">    0.22    0.22</time>
   <time name="total">    0.22    0.50</time>
   <energy>
    <i name="e_fr_energy">     -8.27711224 </i>
    <i name="e_wo_entrp">     -8.27709056 </i>
    <i name="e_0_energy">     -8.27710140 </i>
   </energy>
  </scstep>
  <scstep>
   <time name="dav">    0.19    0.19</time>
   <time name="total">    0.19    0.39</time>
   <energy>
    <i name="e_fr_energy">     -8.35669981 </i>
    <i name="e_wo_entrp">     -8.35668116 </i>
    <i name="e_0_energy">     -8.35669049 </i>
   </energy>
  </scstep>
  <scstep>
   <time name="dav">    0.32    0.32</time>
   <time name="total">    0.32    0.36</time>
   <energy>
    <i name="e_fr_energy">     -8.35691279 </i>
    <i name="e_wo_entrp">     -8.35689413 </i>
    <i name="e_0_energy">     -8.35690346 </i>
   </energy>
  </scstep>
  <scstep>
   <time name="dav">    0.20    0.20</time>
   <time name="total">    0.23    0.32</time>
   <energy>
    <i name="e_fr_energy">     -8.35691281 </i>
    <i name="e_wo_entrp">     -8.35689414 </i>
    <i name="e_0_energy">     -8.35690348 </i>
   </energy>
  </scstep>
  <scstep>
   <time name="dav">    0.18    0.18</time>
   <time name="total">    1.81    1.83</time>
   <energy>
    <i name="e_fr_energy">     -8.30281037 </i>
    <i name="e_wo_entrp">     -8.30273626 </i>
    <i name="e_0_energy">     -8.30277332 </i>
   </energy>
  </scstep>
  <scstep>
   <time name="dav">    0.18    0.17</time>
   <time name="total">    1.86    2.14</time>
   <energy>
    <i name="e_fr_energy">     -8.29450279 </i>
    <i name="e_wo_entrp">     -8.29404926 </i>
    <i name="e_0_energy">     -8.29427603 </i>
   </energy>
  </scstep>
  <scstep>
   <time name="dav">    0.14    0.14</time>
   <time name="total">    1.80    1.99</time>
   <energy>
    <i name="e_fr_energy">     -8.27774984 </i>
    <i name="e_wo_entrp">     -8.27741970 </i>
    <i name="e_0_energy">     -8.27758477 </i>
   </energy>
  </scstep>
  <scstep>
   <time name="dav">    0.16    0.16</time>
   <time name="total">    1.80    1.90</time>
   <energy>
    <i name="e_fr_energy">     -8.27885927 </i>
    <i name="e_wo_entrp">     -8.27850249 </i>
    <i name="e_0_energy">     -8.27868088 </i>
   </energy>
  </scstep>
  <scstep>
   <time name="dav">    0.17    0.17</time>
   <time name="total">    1.84    1.90</time>
   <energy>
    <i name="e_fr_energy">     -8.27889226 </i>
    <i name="e_wo_entrp">     -8.27854186 </i>
    <i name="e_0_energy">     -8.27871706 </i>
   </energy>
  </scstep>
  <scstep>
   <time name="dav">    0.29    0.29</time>
   <time name="total">    1.92    2.00</time>
   <energy>
    <i name="e_fr_energy">     -8.27869326 </i>
    <i name="e_wo_entrp">     -8.27834343 </i>
    <i name="e_0_energy">     -8.27851834 </i>
   </energy>
  </scstep>
  <scstep>
   <time name="dav">    0.19    0.19</time>
   <time name="total">    1.85    2.11</time>
   <energy>
    <i name="e_fr_energy">     -8.27868037 </i>
    <i name="e_wo_entrp">     -8.27833074 </i>
    <i name="e_0_energy">     -8.27850555 </i>
   </energy>
  </scstep>
  <scstep>
   <time name="dav">    0.16    0.16</time>
   <time name="total">    1.80    1.90</time>
   <energy>
    <i name="e_fr_energy">     -8.27867892 </i>
    <i name="e_wo_entrp">     -8.27832935 </i>
    <i name="e_0_energy">     -8.27850414 </i>
   </energy>
  </scstep>
  <scstep>
   <time name="dav">    0.08    0.08</time>
   <time name="total">    1.74    2.00</time>
   <energy>
    <i name="e_fr_energy">     -8.27867932 </i>
    <i name="e_wo_entrp">     -8.27832975 </i>
    <i name="e_0_energy">     -8.27850453 </i>
   </energy>
  </scstep>
  <scstep>
   <time name="dav">    0.07    0.07</time>
   <time name="total">    1.70    1.76</time>
   <energy>
    <i name="e_fr_energy">     -8.27867909 </i>
    <i name="e_wo_entrp">     -8.27832952 </i>
    <i name="e_0_energy">     -8.27850431 </i>
   </energy>
  </scstep>
  <scstep>
   <time name="dav">    0.07    0.07</time>
   <time name="total">    1.68    1.73</time>
   <energy>
    <i name="alphaZ">      3.24857844 </i>
    <i name="ewald">   -225.91568183 </i>
    <i name="hartreedc">    -15.65844324 </i>
    <i name="XCdc">    -19.61924725 </i>
    <i name="pawpsdc">    525.01832903 </i>
    <i name="pawaedc">   -488.46899630 </i>
    <i name="eentropy">     -0.00034957 </i>
    <i name="bandstr">      4.52339331 </i>
    <i name="atom">    208.59373829 </i>
    <i name="e_fr_energy">     -8.27867911 </i>
    <i name="e_wo_entrp">     -8.27832954 </i>
    <i name="e_0_energy">     -8.27850433 </i>
   </energy>
  </scstep>
  <structure>
   <crystal>
    <varray name="basis" >
     <v>       0.00000000       2.74682114       2.74682114 </v>
     <v>       2.74682114       0.00000000       2.74682114 </v>
     <v>       2.74682114       2.74682114       0.00000000 </v>
    </varray>
    <i name="volume">     41.44967579 </i>
    <varray name="rec_basis" >
     <v>      -0.18202860       0.18202860       0.18202860 </v>
     <v>       0.18202860      -0.18202860       0.18202860 </v>
     <v>       0.18202860       0.18202860      -0.18202860 </v>
    </varray>
   </crystal>
   <varray name="positions" >
    <v>       0.75000000       0.75000000       0.75000000 </v>
    <v>       0.50000000       0.50000000       0.50000000 </v>
   </varray>
  </structure>
  <varray name="forces" >
   <v>       0.00000000       0.00000000      -0.00000000 </v>
   <v>      -0.00000000      -0.00000000       0.00000000 </v>
  </varray>
  <varray name="stress" >
   <v>       1.42916002       0.00000000       0.00000000 </v>
   <v>       0.00000000       1.42916002       0.00000000 </v>
   <v>       0.00000000       0.00000000       1.42916002 </v>
  </varray>
  <energy>
   <i name="e_fr_energy">     -8.27867911 </i>
   <i name="e_wo_entrp">     -8.27850433 </i>
   <i name="e_0_energy">     -0.00034957 </i>
  </energy>
  <time name="totalsc">   26.50   29.17</time>
  <eigenvalues>
   <array>
    <dimension dim="1">band</dimension>
    <dimension dim="2">kpoint</dimension>
    <dimension dim="3">spin</dimension>
    <field>eigene</field>
    <field>occ</field>
    <set>
     <set comment="spin 1">
      <set comment="kpoint 1">
       <r>   -6.1785    1.0000 </r>
       <r>    5.4756    0.9908 </r>
       <r>    5.4756    0.9908 </r>
       <r>    5.4756    0.9908 </r>
       <r>    8.0850    0.0000 </r>
       <r>    8.0850    0.0000 </r>
       <r>    8.0850    0.0000 </r>
       <r>    8.5494    0.0000 </r>
       <r>   13.2223    0.0000 </r>
       <r>   13.2223    0.0000 </r>
       <r>   13.3555    0.0000 </r>
       <r>   16.6599    0.0000 </r>
       <r>   16.6599    0.0000 </r>
       <r>   16.6599    0.0000 </r>
       <r>   20.7555    0.0000 </r>
       <r>   28.1804    0.0000 </r>
      </set>
      <set comment="kpoint 2">
       <r>   -5.6774    1.0000 </r>
       <r>    2.5481    1.0000 </r>
       <r>    4.9264    1.0000 </r>
       <r>    4.9264    1.0000 </r>
       <r>    7.6492    0.0000 </r>
       <r>    8.8567    0.0000 </r>
       <r>    8.8567    0.0000 </r>
       <r>   11.2848    0.0000 </r>
       <r>   12.5656    0.0000 </r>
       <r>   12.5656    0.0000 </r>
       <r>   14.5576    0.0000 </r>
       <r>   16.3248    0.0000 </r>
       <r>   19.0843    0.0000 </r>
       <r>   19.0843    0.0000 </r>
       <r>   23.1278    0.0000 </r>
       <r>   24.2232    0.0000 </r>
      </set>
      <set comment="kpoint 3">
       <r>   -4.3654    1.0000 </r>
       <r>   -0.6084    1.0000 </r>
       <r>    4.3964    1.0000 </r>
       <r>    4.3964    1.0000 </r>
       <r>    7.0464    0.0000 </r>
       <r>    8.9513    0.0000 </r>
       <r>    8.9513    0.0000 </r>
       <r>   13.3122    0.0000 </r>
       <r>   14.4087    0.0000 </r>
       <r>   14.4087    0.0000 </r>
       <r>   15.2975    0.0000 </r>
       <r>   18.4924    0.0000 </r>
       <r>   18.4924    0.0000 </r>
       <r>   19.1239    0.0000 </r>
       <r>   22.1165    0.0000 </r>
       <r>   24.3732    0.0000 </r>
      </set>
      <set comment="kpoint 4">
       <r>   -5.5047    1.0000 </r>
       <r>    2.8703    1.0000 </r>
       <r>    4.0650    1.0000 </r>
       <r>    4.0650    1.0000 </r>
       <r>    7.0201    0.0000 </r>
       <r>    9.3610    0.0000 </r>
       <r>   10.3143    0.0000 </r>
       <r>   10.3143    0.0000 </r>
       <r>   12.3598    0.0000 </r>
       <r>   13.9782    0.0000 </r>
       <r>   15.7335    0.0000 </r>
       <r>   17.8119    0.0000 </r>
       <r>   17.8119    0.0000 </r>
       <r>   18.4438    0.0000 </r>
       <r>   23.7290    0.0000 </r>
       <r>   23.7290    0.0000 </r>
      </set>
      <set comment="kpoint 5">
       <r>   -4.4021    1.0000 </r>
       <r>    0.2893    1.0000 </r>
       <r>    2.9640    1.0000 </r>
       <r>    3.5730    1.0000 </r>
       <r>    7.3256    0.0000 </r>
       <r>    9.5815    0.0000 </r>
       <r>   10.3267    0.0000 </r>
       <r>   10.8827    0.0000 </r>
       <r>   15.5185    0.0000 </r>
       <r>   15.6815    0.0000 </r>
       <r>   16.0649    0.0000 </r>
       <r>   18.0991    0.0000 </r>
       <r>   18.7505    0.0000 </r>
       <r>   20.3661    0.0000 </r>
       <r>   21.7163    0.0000 </r>
       <r>   23.1879    0.0000 </r>
      </set>
      <set comment="kpoint 6">
       <r>   -3.5575    1.0000 </r>
       <r>   -1.0426    1.0000 </r>
       <r>    2.1865    1.0000 </r>
       <r>    3.8397    1.0000 </r>
       <r>    7.5927    0.0000 </r>
       <r>   10.0185    0.0000 </r>
       <r>   10.2893    0.0000 </r>
       <r>   12.9578    0.0000 </r>
       <r>   13.7094    0.0000 </r>
       <r>   13.8669    0.0000 </r>
       <r>   16.9844    0.0000 </r>
       <r>   19.3343    0.0000 </r>
       <r>   19.7486    0.0000 </r>
       <r>   20.2972    0.0000 </r>
       <r>   22.4153    0.0000 </r>
       <r>   24.7250    0.0000 </r>
      </set>
      <set comment="kpoint 7">
       <r>   -4.8735    1.0000 </r>
       <r>    1.0927    1.0000 </r>
       <r>    2.6224    1.0000 </r>
       <r>    4.6669    1.0000 </r>
       <r>    8.3593    0.0000 </r>
       <r>    9.4779    0.0000 </r>
       <r>    9.7378    0.0000 </r>
       <r>   11.1325    0.0000 </r>
       <r>   11.6507    0.0000 </r>
       <r>   16.0179    0.0000 </r>
       <r>   16.0465    0.0000 </r>
       <r>   17.3149    0.0000 </r>
       <r>   19.0623    0.0000 </r>
       <r>   20.2418    0.0000 </r>
       <r>   22.1974    0.0000 </r>
       <r>   23.4080    0.0000 </r>
      </set>
      <set comment="kpoint 8">
       <r>   -3.5524    1.0000 </r>
       <r>   -0.5825    1.0000 </r>
       <r>    2.9014    1.0000 </r>
       <r>    2.9014    1.0000 </r>
       <r>    6.1776    0.0046 </r>
       <r>    6.9093    0.0000 </r>
       <r>   13.8266    0.0000 </r>
       <r>   13.8266    0.0000 </r>
       <r>   16.2338    0.0000 </r>
       <r>   16.3324    0.0000 </r>
       <r>   17.8552    0.0000 </r>
       <r>   17.8552    0.0000 </r>
       <r>   18.9754    0.0000 </r>
       <r>   19.9410    0.0000 </r>
       <r>   21.8484    0.0000 </r>
       <r>   22.5748    0.0000 </r>
      </set>
      <set comment="kpoint 9">
       <r>   -2.3984    1.0000 </r>
       <r>   -1.7988    1.0000 </r>
       <r>    1.6081    1.0000 </r>
       <r>    3.0146    1.0000 </r>
       <r>    6.6213    0.0000 </r>
       <r>    8.6666    0.0000 </r>
       <r>   13.4565    0.0000 </r>
       <r>   13.9873    0.0000 </r>
       <r>   13.9963    0.0000 </r>
       <r>   14.4847    0.0000 </r>
       <r>   19.4262    0.0000 </r>
       <r>   19.6699    0.0000 </r>
       <r>   19.9990    0.0000 </r>
       <r>   20.9047    0.0000 </r>
       <r>   21.5838    0.0000 </r>
       <r>   22.1362    0.0000 </r>
      </set>
      <set comment="kpoint 10">
       <r>   -3.1348    1.0000 </r>
       <r>   -0.9545    1.0000 </r>
       <r>    1.6855    1.0000 </r>
       <r>    2.6334    1.0000 </r>
       <r>    8.8922    0.0000 </r>
       <r>    9.2972    0.0000 </r>
       <r>    9.8616    0.0000 </r>
       <r>   13.1607    0.0000 </r>
       <r>   13.7855    0.0000 </r>
       <r>   15.5055    0.0000 </r>
       <r>   18.5232    0.0000 </r>
       <r>   19.6901    0.0000 </r>
       <r>   19.8343    0.0000 </r>
       <r>   20.7783    0.0000 </r>
       <r>   21.7363    0.0000 </r>
       <r>   23.9000    0.0000 </r>
      </set>
     </set>
    </set>
   </array>
  </eigenvalues>
  <separator name="orbital magnetization" >
   <v name="MAGDIPOLOUT">      0.00000000      0.00000000      0.00000000</v>
  </separator>
  <dos>
   <i name="efermi">      5.80916176 </i>
   <total>
    <array>
     <dimension dim="1">gridpoints</dimension>
     <dimension dim="2">spin</dimension>
     <field>energy</field>
     <field>total</field>
     <field>integrated</field>
     <set>
      <set comment="spin 1">
       <r>    -8.1785     0.0000     0.0000 </r>
       <r>    -8.0506     0.0000     0.0000 </r>
       <r>    -7.9228     0.0000     0.0000 </r>
       <r>    -7.7949     0.0000     0.0000 </r>
       <r>    -7.6670     0.0000     0.0000 </r>
       <r>    -7.5392     0.0000     0.0000 </r>
       <r>    -7.4113     0.0000     0.0000 </r>
       <r>    -7.2834     0.0000     0.0000 </r>
       <r>    -7.1556     0.0000     0.0000 </r>
       <r>    -7.0277     0.0000     0.0000 </r>
       <r>    -6.8998     0.0000     0.0000 </r>
       <r>    -6.7720     0.0000     0.0000 </r>
       <r>    -6.6441     0.0001     0.0000 </r>
       <r>    -6.5163     0.0010     0.0001 </r>
       <r>    -6.3884     0.0076     0.0011 </r>
       <r>    -6.2605     0.0266     0.0045 </r>
       <r>    -6.1327     0.0439     0.0101 </r>
       <r>    -6.0048     0.0428     0.0156 </r>
       <r>    -5.8769     0.0836     0.0263 </r>
       <r>    -5.7491     0.2575     0.0592 </r>
       <r>    -5.6212     0.4712     0.1194 </r>
       <r>    -5.4934     0.4947     0.1827 </r>
       <r>    -5.3655     0.3127     0.2227 </r>
       <r>    -5.2376     0.1198     0.2380 </r>
       <r>    -5.1098     0.0848     0.2488 </r>
       <r>    -4.9819     0.2638     0.2826 </r>
       <r>    -4.8540     0.5025     0.3468 </r>
       <r>    -4.7262     0.4811     0.4083 </r>
       <r>    -4.5983     0.4442     0.4651 </r>
       <r>    -4.4705     0.9107     0.5816 </r>
       <r>    -4.3426     1.3857     0.7588 </r>
       <r>    -4.2147     1.0270     0.8901 </r>
       <r>    -4.0869     0.3588     0.9360 </r>
       <r>    -3.9590     0.0666     0.9445 </r>
       <r>    -3.8311     0.0940     0.9565 </r>
       <r>    -3.7033     0.4642     1.0158 </r>
       <r>    -3.5754     1.1180     1.1588 </r>
       <r>    -3.4475     1.2866     1.3233 </r>
       <r>    -3.3197     0.8980     1.4381 </r>
       <r>    -3.1918     0.9024     1.5535 </r>
       <r>    -3.0640     1.0640     1.6895 </r>
       <r>    -2.9361     0.6863     1.7773 </r>
       <r>    -2.8082     0.2115     1.8043 </r>
       <r>    -2.6804     0.0613     1.8122 </r>
       <r>    -2.5525     0.1744     1.8345 </r>
       <r>    -2.4246     0.4332     1.8899 </r>
       <r>    -2.2968     0.5070     1.9547 </r>
       <r>    -2.1689     0.2824     1.9908 </r>
       <r>    -2.0411     0.1284     2.0072 </r>
       <r>    -1.9132     0.2574     2.0401 </r>
       <r>    -1.7853     0.4940     2.1033 </r>
       <r>    -1.6575     0.4554     2.1615 </r>
       <r>    -1.5296     0.1966     2.1867 </r>
       <r>    -1.4017     0.0571     2.1940 </r>
       <r>    -1.2739     0.1737     2.2162 </r>
       <r>    -1.1460     0.7729     2.3150 </r>
       <r>    -1.0181     1.7290     2.5361 </r>
       <r>    -0.8903     1.9517     2.7856 </r>
       <r>    -0.7624     1.2451     2.9448 </r>
       <r>    -0.6346     0.7719     3.0435 </r>
       <r>    -0.5067     0.6376     3.1250 </r>
       <r>    -0.3788     0.3525     3.1701 </r>
       <r>    -0.2510     0.0960     3.1824 </r>
       <r>    -0.1231     0.0173     3.1846 </r>
       <r>     0.0048     0.0618     3.1925 </r>
       <r>     0.1326     0.3359     3.2354 </r>
       <r>     0.2605     0.8568     3.3450 </r>
       <r>     0.3883     1.0177     3.4751 </r>
       <r>     0.5162     0.5633     3.5471 </r>
       <r>     0.6441     0.1460     3.5658 </r>
       <r>     0.7719     0.0336     3.5701 </r>
       <r>     0.8998     0.1130     3.5846 </r>
       <r>     1.0277     0.3553     3.6300 </r>
       <r>     1.1555     0.5250     3.6971 </r>
       <r>     1.2834     0.3815     3.7459 </r>
       <r>     1.4112     0.2939     3.7835 </r>
       <r>     1.5391     0.7364     3.8776 </r>
       <r>     1.6670     1.4187     4.0590 </r>
       <r>     1.7948     1.3746     4.2348 </r>
       <r>     1.9227     0.7249     4.3275 </r>
       <r>     2.0506     0.5562     4.3986 </r>
       <r>     2.1784     0.9509     4.5202 </r>
       <r>     2.3063     1.0607     4.6558 </r>
       <r>     2.4342     0.9702     4.7799 </r>
       <r>     2.5620     1.5146     4.9735 </r>
       <r>     2.6899     2.1253     5.2453 </r>
       <r>     2.8177     2.2127     5.5282 </r>
       <r>     2.9456     2.4036     5.8355 </r>
       <r>     3.0735     2.1433     6.1096 </r>
       <r>     3.2013     1.0952     6.2496 </r>
       <r>     3.3292     0.3912     6.2996 </r>
       <r>     3.4571     0.5362     6.3682 </r>
       <r>     3.5849     1.0832     6.5067 </r>
       <r>     3.7128     1.3722     6.6822 </r>
       <r>     3.8406     1.4272     6.8646 </r>
       <r>     3.9685     1.3190     7.0333 </r>
       <r>     4.0964     0.9896     7.1598 </r>
       <r>     4.2242     0.7096     7.2505 </r>
       <r>     4.3521     0.7224     7.3429 </r>
       <r>     4.4800     0.8436     7.4508 </r>
       <r>     4.6078     0.8131     7.5547 </r>
       <r>     4.7357     0.7955     7.6565 </r>
       <r>     4.8635     0.8424     7.7642 </r>
       <r>     4.9914     0.8064     7.8673 </r>
       <r>     5.1193     0.4910     7.9301 </r>
       <r>     5.2471     0.1681     7.9516 </r>
       <r>     5.3750     0.0914     7.9632 </r>
       <r>     5.5029     0.1284     7.9797 </r>
       <r>     5.6307     0.1079     7.9935 </r>
       <r>     5.7586     0.0438     7.9991 </r>
       <r>     5.8865     0.0215     8.0018 </r>
       <r>     6.0143     0.0790     8.0119 </r>
       <r>     6.1422     0.2085     8.0386 </r>
       <r>     6.2700     0.2662     8.0726 </r>
       <r>     6.3979     0.2241     8.1013 </r>
       <r>     6.5258     0.3315     8.1436 </r>
       <r>     6.6536     0.5466     8.2135 </r>
       <r>     6.7815     0.5917     8.2892 </r>
       <r>     6.9094     0.6689     8.3747 </r>
       <r>     7.0372     0.8812     8.4874 </r>
       <r>     7.1651     0.9901     8.6140 </r>
       <r>     7.2929     1.1742     8.7641 </r>
       <r>     7.4208     1.4143     8.9450 </r>
       <r>     7.5487     1.5691     9.1456 </r>
       <r>     7.6765     1.5298     9.3412 </r>
       <r>     7.8044     0.9431     9.4618 </r>
       <r>     7.9323     0.3375     9.5049 </r>
       <r>     8.0601     0.1769     9.5275 </r>
       <r>     8.1880     0.2743     9.5626 </r>
       <r>     8.3158     0.4834     9.6244 </r>
       <r>     8.4437     0.6405     9.7063 </r>
       <r>     8.5716     0.7277     9.7994 </r>
       <r>     8.6994     1.1519     9.9466 </r>
       <r>     8.8273     2.0356    10.2069 </r>
       <r>     8.9552     2.5567    10.5338 </r>
       <r>     9.0830     1.9452    10.7825 </r>
       <r>     9.2109     1.3758    10.9585 </r>
       <r>     9.3388     1.6810    11.1734 </r>
       <r>     9.4666     2.0689    11.4379 </r>
       <r>     9.5945     2.1810    11.7168 </r>
       <r>     9.7223     2.1415    11.9906 </r>
       <r>     9.8502     2.1726    12.2684 </r>
       <r>     9.9781     2.2034    12.5501 </r>
       <r>    10.1059     2.0922    12.8177 </r>
       <r>    10.2338     2.3961    13.1240 </r>
       <r>    10.3617     2.7752    13.4789 </r>
       <r>    10.4895     1.9343    13.7262 </r>
       <r>    10.6174     0.7417    13.8210 </r>
       <r>    10.7452     0.5168    13.8871 </r>
       <r>    10.8731     0.9784    14.0122 </r>
       <r>    11.0010     1.2130    14.1673 </r>
       <r>    11.1288     1.0659    14.3036 </r>
       <r>    11.2567     0.8820    14.4164 </r>
       <r>    11.3846     0.6206    14.4957 </r>
       <r>    11.5124     0.4395    14.5519 </r>
       <r>    11.6403     0.5134    14.6176 </r>
       <r>    11.7681     0.4958    14.6810 </r>
       <r>    11.8960     0.2435    14.7121 </r>
       <r>    12.0239     0.0622    14.7201 </r>
       <r>    12.1517     0.0557    14.7272 </r>
       <r>    12.2796     0.2012    14.7529 </r>
       <r>    12.4075     0.4809    14.8144 </r>
       <r>    12.5353     0.7675    14.9125 </r>
       <r>    12.6632     0.8010    15.0150 </r>
       <r>    12.7911     0.7061    15.1052 </r>
       <r>    12.9189     1.0419    15.2385 </r>
       <r>    13.0468     1.5990    15.4429 </r>
       <r>    13.1746     1.8387    15.6780 </r>
       <r>    13.3025     1.6808    15.8929 </r>
       <r>    13.4304     1.3580    16.0666 </r>
       <r>    13.5582     1.3734    16.2422 </r>
       <r>    13.6861     2.2810    16.5338 </r>
       <r>    13.8140     3.6638    17.0023 </r>
       <r>    13.9418     3.9251    17.5042 </r>
       <r>    14.0697     2.7046    17.8500 </r>
       <r>    14.1975     1.2901    18.0149 </r>
       <r>    14.3254     0.9002    18.1300 </r>
       <r>    14.4533     1.3291    18.3000 </r>
       <r>    14.5811     1.3795    18.4764 </r>
       <r>    14.7090     0.7686    18.5747 </r>
       <r>    14.8369     0.2251    18.6034 </r>
       <r>    14.9647     0.0427    18.6089 </r>
       <r>    15.0926     0.0758    18.6186 </r>
       <r>    15.2204     0.3307    18.6609 </r>
       <r>    15.3483     1.0013    18.7889 </r>
       <r>    15.4762     2.1324    19.0616 </r>
       <r>    15.6040     2.9143    19.4342 </r>
       <r>    15.7319     2.5554    19.7609 </r>
       <r>    15.8598     1.8139    19.9929 </r>
       <r>    15.9876     1.9107    20.2372 </r>
       <r>    16.1155     2.3687    20.5400 </r>
       <r>    16.2434     2.0177    20.7980 </r>
       <r>    16.3712     1.2889    20.9628 </r>
       <r>    16.4991     0.6765    21.0493 </r>
       <r>    16.6269     0.3151    21.0896 </r>
       <r>    16.7548     0.2979    21.1277 </r>
       <r>    16.8827     0.6282    21.2080 </r>
       <r>    17.0105     1.0542    21.3428 </r>
       <r>    17.1384     1.0047    21.4713 </r>
       <r>    17.2663     0.7351    21.5653 </r>
       <r>    17.3941     0.5878    21.6405 </r>
       <r>    17.5220     0.3710    21.6879 </r>
       <r>    17.6498     0.3513    21.7328 </r>
       <r>    17.7777     0.7916    21.8340 </r>
       <r>    17.9056     1.2579    21.9949 </r>
       <r>    18.0334     1.3903    22.1726 </r>
       <r>    18.1613     1.3071    22.3398 </r>
       <r>    18.2892     1.1033    22.4808 </r>
       <r>    18.4170     1.4525    22.6666 </r>
       <r>    18.5449     2.1817    22.9455 </r>
       <r>    18.6727     2.2076    23.2278 </r>
       <r>    18.8006     1.7772    23.4550 </r>
       <r>    18.9285     1.5843    23.6576 </r>
       <r>    19.0563     1.8832    23.8984 </r>
       <r>    19.1842     2.1330    24.1711 </r>
       <r>    19.3121     2.0520    24.4335 </r>
       <r>    19.4399     1.9547    24.6834 </r>
       <r>    19.5678     2.1043    24.9525 </r>
       <r>    19.6957     3.0161    25.3382 </r>
       <r>    19.8235     3.6502    25.8049 </r>
       <r>    19.9514     2.9373    26.1805 </r>
       <r>    20.0792     1.9369    26.4281 </r>
       <r>    20.2071     1.9213    26.6738 </r>
       <r>    20.3350     2.5226    26.9963 </r>
       <r>    20.4628     2.1930    27.2767 </r>
       <r>    20.5907     1.2282    27.4338 </r>
       <r>    20.7186     1.1006    27.5745 </r>
       <r>    20.8464     1.4822    27.7640 </r>
       <r>    20.9743     1.2466    27.9234 </r>
       <r>    21.1021     0.5686    27.9961 </r>
       <r>    21.2300     0.1480    28.0150 </r>
       <r>    21.3579     0.1175    28.0301 </r>
       <r>    21.4857     0.5300    28.0978 </r>
       <r>    21.6136     1.5547    28.2966 </r>
       <r>    21.7415     2.5454    28.6221 </r>
       <r>    21.8693     2.3153    28.9181 </r>
       <r>    21.9972     1.4894    29.1085 </r>
       <r>    22.1251     1.4267    29.2910 </r>
       <r>    22.2529     1.6785    29.5056 </r>
       <r>    22.3808     1.6490    29.7164 </r>
       <r>    22.5086     1.4129    29.8971 </r>
       <r>    22.6365     0.8782    30.0094 </r>
       <r>    22.7644     0.3483    30.0539 </r>
       <r>    22.8922     0.1714    30.0758 </r>
       <r>    23.0201     0.4882    30.1383 </r>
       <r>    23.1480     1.1937    30.2909 </r>
       <r>    23.2758     1.5438    30.4883 </r>
       <r>    23.4037     1.2190    30.6442 </r>
       <r>    23.5315     0.7926    30.7455 </r>
       <r>    23.6594     0.7189    30.8374 </r>
       <r>    23.7873     1.0822    30.9758 </r>
       <r>    23.9151     1.3800    31.1522 </r>
       <r>    24.0430     1.1227    31.2958 </r>
       <r>    24.1709     0.7249    31.3885 </r>
       <r>    24.2987     0.6523    31.4719 </r>
       <r>    24.4266     0.6253    31.5518 </r>
       <r>    24.5544     0.6088    31.6297 </r>
       <r>    24.6823     0.8978    31.7445 </r>
       <r>    24.8102     1.0505    31.8788 </r>
       <r>    24.9380     0.6243    31.9586 </r>
       <r>    25.0659     0.1743    31.9809 </r>
       <r>    25.1938     0.0226    31.9838 </r>
       <r>    25.3216     0.0013    31.9840 </r>
       <r>    25.4495     0.0000    31.9840 </r>
       <r>    25.5774     0.0000    31.9840 </r>
       <r>    25.7052     0.0000    31.9840 </r>
       <r>    25.8331     0.0000    31.9840 </r>
       <r>    25.9609     0.0000    31.9840 </r>
       <r>    26.0888     0.0000    31.9840 </r>
       <r>    26.2167     0.0000    31.9840 </r>
       <r>    26.3445     0.0000    31.9840 </r>
       <r>    26.4724     0.0000    31.9840 </r>
       <r>    26.6003     0.0000    31.9840 </r>
       <r>    26.7281     0.0000    31.9840 </r>
       <r>    26.8560     0.0000    31.9840 </r>
       <r>    26.9838     0.0000    31.9840 </r>
       <r>    27.1117     0.0000    31.9840 </r>
       <r>    27.2396     0.0000    31.9840 </r>
       <r>    27.3674     0.0000    31.9840 </r>
       <r>    27.4953     0.0000    31.9840 </r>
       <r>    27.6232     0.0000    31.9840 </r>
       <r>    27.7510     0.0001    31.9840 </r>
       <r>    27.8789     0.0019    31.9843 </r>
       <r>    28.0067     0.0117    31.9858 </r>
       <r>    28.1346     0.0329    31.9900 </r>
       <r>    28.2625     0.0433    31.9955 </r>
       <r>    28.3903     0.0265    31.9989 </r>
       <r>    28.5182     0.0076    31.9999 </r>
       <r>    28.6461     0.0010    32.0000 </r>
       <r>    28.7739     0.0001    32.0000 </r>
       <r>    28.9018     0.0000    32.0000 </r>
       <r>    29.0297     0.0000    32.0000 </r>
       <r>    29.1575     0.0000    32.0000 </r>
       <r>    29.2854     0.0000    32.0000 </r>
       <r>    29.4132     0.0000    32.0000 </r>
       <r>    29.5411     0.0000    32.0000 </r>
       <r>    29.6690     0.0000    32.0000 </r>
       <r>    29.7968     0.0000    32.0000 </r>
       <r>    29.9247     0.0000    32.0000 </r>
       <r>    30.0526     0.0000    32.0000 </r>
       <r>    30.1804     0.0000    32.0000 </r>
      </set>
     </set>
    </array>
   </total>
  </dos>
 </calculation>
 <structure name="finalpos" >
  <crystal>
   <varray name="basis" >
    <v>       0.00000000       2.74682114       2.74682114 </v>
    <v>       2.74682114       0.00000000       2.74682114 </v>
    <v>       2.74682114       2.74682114       0.00000000 </v>
   </varray>
   <i name="volume">     41.44967579 </i>
   <varray name="rec_basis" >
    <v>      -0.18202860       0.18202860       0.18202860 </v>
    <v>       0.18202860      -0.18202860       0.18202860 </v>
    <v>       0.18202860       0.18202860      -0.18202860 </v>
   </varray>
  </crystal>
  <varray name="positions" >
   <v>       0.75000000       0.75000000       0.75000000 </v>
   <v>       0.50000000       0.50000000       0.50000000 </v>
  </varray>
 </structure>
</modeling>
