LAMMPS data file via write_data, version 13 Jan 2016, timestep = 247

1008 atoms
1 atom types

1.8583682161645229e-01 2.9019128275383551e+01 xlo xhi
1.7390396674533024e-01 2.7614208930254666e+01 ylo yhi
3.5387737660385915e-02 4.7113537390339609e+01 zlo zhi
8.8736686866202401e+00 0.0000000000000000e+00 0.0000000000000000e+00 xy xz yz

Masses

1 26.982

Atoms # charge

1 1 0.0000000000000000e+00 2.4689104527715532e+01 5.2955172205504197e-01 1.6071513834589748e+01 0 0 0
2 1 0.0000000000000000e+00 2.9125938871025664e+01 1.4249704203809708e+01 1.6071513834589744e+01 0 0 0
3 1 0.0000000000000000e+00 1.0272458800831977e+01 5.2955172205503831e-01 1.6071513834589741e+01 0 0 0
4 1 0.0000000000000000e+00 1.4709293144142105e+01 1.4249704203809705e+01 1.6071513834589741e+01 0 0 0
5 1 0.0000000000000000e+00 8.0654168758505378e+00 2.3383629206899919e+01 1.6071517860136940e+01 0 0 0
6 1 0.0000000000000000e+00 3.6285825325403738e+00 9.6634767251452427e+00 1.6071517860136943e+01 0 0 0
7 1 0.0000000000000000e+00 2.2482062602734089e+01 2.3383629206899915e+01 1.6071517860136940e+01 0 0 0
8 1 0.0000000000000000e+00 1.8045228259423919e+01 9.6634767251452427e+00 1.6071517860136940e+01 0 0 0
9 1 0.0000000000000000e+00 1.3981403117203834e+00 1.0560120677336786e+00 1.5049673708866525e+01 0 0 0
10 1 0.0000000000000000e+00 5.8349746550305275e+00 1.4776164549488351e+01 1.5049673708866523e+01 0 0 0
11 1 0.0000000000000000e+00 1.5814786038603943e+01 1.0560120677336804e+00 1.5049673708866523e+01 0 0 0
12 1 0.0000000000000000e+00 2.0251620381914087e+01 1.4776164549488355e+01 1.5049673708866520e+01 0 0 0
13 1 0.0000000000000000e+00 2.1385860862439223e+01 1.6072841911509721e+00 1.4136938995124805e+01 0 0 0
14 1 0.0000000000000000e+00 2.5822695205749365e+01 1.5327436672905643e+01 1.4136938995124805e+01 0 0 0
15 1 0.0000000000000000e+00 6.9692151355556629e+00 1.6072841911509665e+00 1.4136938995124805e+01 0 0 0
16 1 0.0000000000000000e+00 1.1406049478865814e+01 1.5327436672905637e+01 1.4136938995124801e+01 0 0 0
17 1 0.0000000000000000e+00 3.3578019659329620e+01 2.4474011172977260e+01 1.4134638388515940e+01 0 0 0
18 1 0.0000000000000000e+00 2.9141185316019460e+01 1.0753858691222590e+01 1.4134638388515944e+01 0 0 0
19 1 0.0000000000000000e+00 1.9161373932446072e+01 2.4474011172977260e+01 1.4134638388515938e+01 0 0 0
20 1 0.0000000000000000e+00 1.4724539589135917e+01 1.0753858691222588e+01 1.4134638388515940e+01 0 0 0
21 1 0.0000000000000000e+00 8.0739516084234673e+00 1.9908263661605844e+01 1.4136940359180102e+01 0 0 0
22 1 0.0000000000000000e+00 3.6371172651132824e+00 6.1881111798511688e+00 1.4136940359180105e+01 0 0 0
23 1 0.0000000000000000e+00 2.2490597335307026e+01 1.9908263661605844e+01 1.4136940359180102e+01 0 0 0
24 1 0.0000000000000000e+00 1.8053762991996834e+01 6.1881111798511723e+00 1.4136940359180105e+01 0 0 0
25 1 0.0000000000000000e+00 2.8035684650781047e+01 2.0439949452310636e+01 1.3391291142683013e+01 0 0 0
26 1 0.0000000000000000e+00 2.3598850307470837e+01 6.7197969705559863e+00 1.3391291142683009e+01 0 0 0
27 1 0.0000000000000000e+00 1.3619038923897495e+01 2.0439949452310632e+01 1.3391291142683009e+01 0 0 0
28 1 0.0000000000000000e+00 9.1822045805872872e+00 6.7197969705559801e+00 1.3391291142683007e+01 0 0 0
29 1 0.0000000000000000e+00 2.8001823312449538e+01 2.3873647222002386e+01 1.4993636795260727e+01 0 0 0
30 1 0.0000000000000000e+00 2.3564988969139375e+01 1.0153494740247728e+01 1.4993636795260722e+01 0 0 0
31 1 0.0000000000000000e+00 1.3585177585565978e+01 2.3873647222002386e+01 1.4993636795260725e+01 0 0 0
32 1 0.0000000000000000e+00 9.1483432422558177e+00 1.0153494740247721e+01 1.4993636795260722e+01 0 0 0
33 1 0.0000000000000000e+00 3.1290488805831817e+01 1.9352177010420704e+01 1.4993438798491459e+01 0 0 0
34 1 0.0000000000000000e+00 2.6853654462521639e+01 5.6320245286660366e+00 1.4993438798491464e+01 0 0 0
35 1 0.0000000000000000e+00 1.6873843078948259e+01 1.9352177010420704e+01 1.4993438798491455e+01 0 0 0
36 1 0.0000000000000000e+00 1.2437008735638083e+01 5.6320245286660340e+00 1.4993438798491461e+01 0 0 0
37 1 0.0000000000000000e+00 2.8566006386438595e+01 3.3457525749684418e+00 1.5047486863064718e+01 0 0 0
38 1 0.0000000000000000e+00 3.3002840729748769e+01 1.7065905056723118e+01 1.5047486863064716e+01 0 0 0
39 1 0.0000000000000000e+00 1.4149360659555049e+01 3.3457525749684409e+00 1.5047486863064716e+01 0 0 0
40 1 0.0000000000000000e+00 1.8586195002865221e+01 1.7065905056723107e+01 1.5047486863064716e+01 0 0 0
41 1 0.0000000000000000e+00 1.1937336825307749e+01 2.6206662109057387e+01 1.5047483086938671e+01 0 0 0
42 1 0.0000000000000000e+00 7.5005024819976196e+00 1.2486509627302722e+01 1.5047483086938668e+01 0 0 0
43 1 0.0000000000000000e+00 2.6353982552191308e+01 2.6206662109057387e+01 1.5047483086938668e+01 0 0 0
44 1 0.0000000000000000e+00 2.1917148208881173e+01 1.2486509627302729e+01 1.5047483086938671e+01 0 0 0
45 1 0.0000000000000000e+00 5.3350149064017938e+00 3.9208363105303130e+00 1.4126675743799936e+01 0 0 0
46 1 0.0000000000000000e+00 9.7718492497119662e+00 1.7640988792284993e+01 1.4126675743799932e+01 0 0 0
47 1 0.0000000000000000e+00 1.9751660633285347e+01 3.9208363105303174e+00 1.4126675743799936e+01 0 0 0
48 1 0.0000000000000000e+00 2.4188494976595521e+01 1.7640988792284997e+01 1.4126675743799936e+01 0 0 0
49 1 0.0000000000000000e+00 2.3024333958217440e+01 2.8130282661049697e+00 1.6071604762553985e+01 0 0 0
50 1 0.0000000000000000e+00 2.7461168301527604e+01 1.6533180747859632e+01 1.6071604762553985e+01 0 0 0
51 1 0.0000000000000000e+00 8.6076882313338938e+00 2.8130282661049666e+00 1.6071604762553985e+01 0 0 0
52 1 0.0000000000000000e+00 1.3044522574644052e+01 1.6533180747859632e+01 1.6071604762553985e+01 0 0 0
53 1 0.0000000000000000e+00 3.5227811789836160e+01 2.5674608377811296e+01 1.6075358860184370e+01 0 0 0
54 1 0.0000000000000000e+00 3.0790977446526021e+01 1.1954455896056624e+01 1.6075358860184370e+01 0 0 0
55 1 0.0000000000000000e+00 2.0811166062952612e+01 2.5674608377811293e+01 1.6075358860184370e+01 0 0 0
56 1 0.0000000000000000e+00 1.6374331719642470e+01 1.1954455896056624e+01 1.6075358860184370e+01 0 0 0
57 1 0.0000000000000000e+00 9.7252238885179345e+00 2.1096530923948006e+01 1.6071577128021847e+01 0 0 0
58 1 0.0000000000000000e+00 5.2883895452077541e+00 7.3763784421933360e+00 1.6071577128021847e+01 0 0 0
59 1 0.0000000000000000e+00 2.4141869615401486e+01 2.1096530923948009e+01 1.6071577128021847e+01 0 0 0
60 1 0.0000000000000000e+00 1.9705035272091305e+01 7.3763784421933378e+00 1.6071577128021847e+01 0 0 0
61 1 0.0000000000000000e+00 2.9705419911846075e+01 2.1655995687235272e+01 1.5120639438072766e+01 0 0 0
62 1 0.0000000000000000e+00 2.5268585568535897e+01 7.9358432054806034e+00 1.5120639438072761e+01 0 0 0
63 1 0.0000000000000000e+00 1.5288774184962520e+01 2.1655995687235269e+01 1.5120639438072766e+01 0 0 0
64 1 0.0000000000000000e+00 1.0851939841652340e+01 7.9358432054805990e+00 1.5120639438072756e+01 0 0 0
65 1 0.0000000000000000e+00 3.1920177643515036e+01 2.6769565735684761e+01 1.4133224767145583e+01 0 0 0
66 1 0.0000000000000000e+00 2.7483343300204911e+01 1.3049413253930096e+01 1.4133224767145583e+01 0 0 0
67 1 0.0000000000000000e+00 1.7503531916631484e+01 2.6769565735684761e+01 1.4133224767145579e+01 0 0 0
68 1 0.0000000000000000e+00 1.3066697573321363e+01 1.3049413253930089e+01 1.4133224767145579e+01 0 0 0
69 1 0.0000000000000000e+00 3.5251416647295549e+01 2.2189769794649226e+01 1.4133223594162477e+01 0 0 0
70 1 0.0000000000000000e+00 3.0814582303985375e+01 8.4696173128945471e+00 1.4133223594162477e+01 0 0 0
71 1 0.0000000000000000e+00 2.0834770920412005e+01 2.2189769794649226e+01 1.4133223594162471e+01 0 0 0
72 1 0.0000000000000000e+00 1.6397936577101827e+01 8.4696173128945471e+00 1.4133223594162477e+01 0 0 0
73 1 0.0000000000000000e+00 2.5798752244377884e+01 3.0907346761982595e+00 1.5514992743590335e+01 0 0 0
74 1 0.0000000000000000e+00 3.0235586587688037e+01 1.6810887157952934e+01 1.5514992743590327e+01 0 0 0
75 1 0.0000000000000000e+00 1.1382106517494325e+01 3.0907346761982568e+00 1.5514992743590332e+01 0 0 0
76 1 0.0000000000000000e+00 1.5818940860804489e+01 1.6810887157952930e+01 1.5514992743590330e+01 0 0 0
77 1 0.0000000000000000e+00 9.1717150417733286e+00 2.5945100309145026e+01 1.5516553519728188e+01 0 0 0
78 1 0.0000000000000000e+00 4.7348806984631926e+00 1.2224947827390361e+01 1.5516553519728173e+01 0 0 0
79 1 0.0000000000000000e+00 2.3588360768656880e+01 2.5945100309145026e+01 1.5516553519728186e+01 0 0 0
80 1 0.0000000000000000e+00 1.9151526425346741e+01 1.2224947827390361e+01 1.5516553519728170e+01 0 0 0
81 1 0.0000000000000000e+00 2.5397168453135492e+00 3.6302426075268897e+00 1.4594353163049725e+01 0 0 0
82 1 0.0000000000000000e+00 6.9765511886237217e+00 1.7350395089281566e+01 1.4594353163049725e+01 0 0 0
83 1 0.0000000000000000e+00 1.6956362572197104e+01 3.6302426075268919e+00 1.4594353163049725e+01 0 0 0
84 1 0.0000000000000000e+00 2.1393196915507275e+01 1.7350395089281569e+01 1.4594353163049725e+01 0 0 0
85 1 0.0000000000000000e+00 2.2506411865496492e+01 4.1634317749595349e+00 1.3735764247815574e+01 0 0 0
86 1 0.0000000000000000e+00 2.6943246208806666e+01 1.7883584256714201e+01 1.3735764247815577e+01 0 0 0
87 1 0.0000000000000000e+00 8.0897661386129407e+00 4.1634317749595287e+00 1.3735764247815574e+01 0 0 0
88 1 0.0000000000000000e+00 1.2526600481923115e+01 1.7883584256714201e+01 1.3735764247815574e+01 0 0 0
89 1 0.0000000000000000e+00 3.4675302249722947e+01 2.7025659292149079e+01 1.3758571679873389e+01 0 0 0
90 1 0.0000000000000000e+00 3.0238467906412822e+01 1.3305506810394409e+01 1.3758571679873388e+01 0 0 0
91 1 0.0000000000000000e+00 2.0258656522839399e+01 2.7025659292149076e+01 1.3758571679873391e+01 0 0 0
92 1 0.0000000000000000e+00 1.5821822179529271e+01 1.3305506810394409e+01 1.3758571679873388e+01 0 0 0
93 1 0.0000000000000000e+00 9.2051908852368811e+00 2.2448599695400727e+01 1.3745401238445776e+01 0 0 0
94 1 0.0000000000000000e+00 4.7683565419267007e+00 8.7284472136460423e+00 1.3745401238445776e+01 0 0 0
95 1 0.0000000000000000e+00 2.3621836612120429e+01 2.2448599695400727e+01 1.3745401238445773e+01 0 0 0
96 1 0.0000000000000000e+00 1.9185002268810262e+01 8.7284472136460476e+00 1.3745401238445773e+01 0 0 0
97 1 0.0000000000000000e+00 2.6885776561039226e+01 2.1386324501189979e+01 1.5615362596527083e+01 0 0 0
98 1 0.0000000000000000e+00 2.2448942217729034e+01 7.6661720194353125e+00 1.5615362596527083e+01 0 0 0
99 1 0.0000000000000000e+00 1.2469130834155667e+01 2.1386324501189968e+01 1.5615362596527083e+01 0 0 0
100 1 0.0000000000000000e+00 8.0322964908454821e+00 7.6661720194353080e+00 1.5615362596527087e+01 0 0 0
101 1 0.0000000000000000e+00 2.9141878826964483e+01 2.6486867943885635e+01 1.4595482566222113e+01 0 0 0
102 1 0.0000000000000000e+00 2.4705044483654362e+01 1.2766715462130978e+01 1.4595482566222113e+01 0 0 0
103 1 0.0000000000000000e+00 1.4725233100080938e+01 2.6486867943885631e+01 1.4595482566222111e+01 0 0 0
104 1 0.0000000000000000e+00 1.0288398756770810e+01 1.2766715462130977e+01 1.4595482566222111e+01 0 0 0
105 1 0.0000000000000000e+00 3.2455387957551821e+01 2.1913375722367615e+01 1.4578589584426533e+01 0 0 0
106 1 0.0000000000000000e+00 2.8018553614241632e+01 8.1932232406129515e+00 1.4578589584426535e+01 0 0 0
107 1 0.0000000000000000e+00 1.8038742230668259e+01 2.1913375722367615e+01 1.4578589584426533e+01 0 0 0
108 1 0.0000000000000000e+00 1.3601907887358085e+01 8.1932232406129515e+00 1.4578589584426535e+01 0 0 0
109 1 0.0000000000000000e+00 2.7465952174167015e+01 7.9437132686148382e-01 1.5516558769641346e+01 0 0 0
110 1 0.0000000000000000e+00 3.1902786517477150e+01 1.4514523808616152e+01 1.5516558769641332e+01 0 0 0
111 1 0.0000000000000000e+00 1.3049306447283460e+01 7.9437132686148260e-01 1.5516558769641344e+01 0 0 0
112 1 0.0000000000000000e+00 1.7486140790593591e+01 1.4514523808616152e+01 1.5516558769641332e+01 0 0 0
113 1 0.0000000000000000e+00 1.0843022491442937e+01 2.3651721914588187e+01 1.5515018490428409e+01 0 0 0
114 1 0.0000000000000000e+00 6.4061881481327729e+00 9.9315694328335251e+00 1.5515018490428400e+01 0 0 0
115 1 0.0000000000000000e+00 2.5259668218326489e+01 2.3651721914588187e+01 1.5515018490428412e+01 0 0 0
116 1 0.0000000000000000e+00 2.0822833875016332e+01 9.9315694328335304e+00 1.5515018490428400e+01 0 0 0
117 1 0.0000000000000000e+00 4.1981935911710062e+00 1.3501637471318122e+00 1.4594354150832425e+01 0 0 0
118 1 0.0000000000000000e+00 8.6350279344811547e+00 1.5070316228886490e+01 1.4594354150832421e+01 0 0 0
119 1 0.0000000000000000e+00 1.8614839318054560e+01 1.3501637471318155e+00 1.4594354150832425e+01 0 0 0
120 1 0.0000000000000000e+00 2.3051673661364713e+01 1.5070316228886490e+01 1.4594354150832425e+01 0 0 0
121 1 0.0000000000000000e+00 2.4150786627644930e+01 1.9015448580515384e+00 1.3745399886641867e+01 0 0 0
122 1 0.0000000000000000e+00 2.8587620970955079e+01 1.5621697339806197e+01 1.3745399886641867e+01 0 0 0
123 1 0.0000000000000000e+00 9.7341409007613784e+00 1.9015448580515353e+00 1.3745399886641867e+01 0 0 0
124 1 0.0000000000000000e+00 1.4170975244071528e+01 1.5621697339806193e+01 1.3745399886641867e+01 0 0 0
125 1 0.0000000000000000e+00 3.6343280309004250e+01 2.4732511259974679e+01 1.3758568322280258e+01 0 0 0
126 1 0.0000000000000000e+00 3.1906445965694079e+01 1.1012358778219989e+01 1.3758568322280254e+01 0 0 0
127 1 0.0000000000000000e+00 2.1926634582120688e+01 2.4732511259974675e+01 1.3758568322280258e+01 0 0 0
128 1 0.0000000000000000e+00 1.7489800238810528e+01 1.1012358778219987e+01 1.3758568322280253e+01 0 0 0
129 1 0.0000000000000000e+00 1.0850534473686732e+01 2.0187499468617865e+01 1.3735662513066488e+01 0 0 0
130 1 0.0000000000000000e+00 6.4137001303765393e+00 6.4673469868631939e+00 1.3735662513066492e+01 0 0 0
131 1 0.0000000000000000e+00 2.5267180200570284e+01 2.0187499468617869e+01 1.3735662513066492e+01 0 0 0
132 1 0.0000000000000000e+00 2.0830345857260088e+01 6.4673469868631983e+00 1.3735662513066492e+01 0 0 0
133 1 0.0000000000000000e+00 2.8581134079813591e+01 1.9055463810079978e+01 1.5615756773662126e+01 0 0 0
134 1 0.0000000000000000e+00 2.4144299736503402e+01 5.3353113283253126e+00 1.5615756773662117e+01 0 0 0
135 1 0.0000000000000000e+00 1.4164488352930029e+01 1.9055463810079964e+01 1.5615756773662126e+01 0 0 0
136 1 0.0000000000000000e+00 9.7276540096198527e+00 5.3353113283253046e+00 1.5615756773662119e+01 0 0 0
137 1 0.0000000000000000e+00 3.0796669538670120e+01 2.4193845073789443e+01 1.4578644362016773e+01 0 0 0
138 1 0.0000000000000000e+00 2.6359835195359960e+01 1.0473692592034780e+01 1.4578644362016773e+01 0 0 0
139 1 0.0000000000000000e+00 1.6380023811786565e+01 2.4193845073789443e+01 1.4578644362016771e+01 0 0 0
140 1 0.0000000000000000e+00 1.1943189468476408e+01 1.0473692592034780e+01 1.4578644362016773e+01 0 0 0
141 1 0.0000000000000000e+00 3.4127322369356406e+01 1.9632821787288584e+01 1.4595503111893755e+01 0 0 0
142 1 0.0000000000000000e+00 2.9690488026046225e+01 5.9126693055339139e+00 1.4595503111893757e+01 0 0 0
143 1 0.0000000000000000e+00 1.9710676642472858e+01 1.9632821787288584e+01 1.4595503111893752e+01 0 0 0
144 1 0.0000000000000000e+00 1.5273842299162677e+01 5.9126693055339130e+00 1.4595503111893755e+01 0 0 0
145 1 0.0000000000000000e+00 3.1366819283063133e+01 2.6360042625450156e+01 1.8924741787442517e+01 0 0 0
146 1 0.0000000000000000e+00 2.6929984939753002e+01 1.2639890143695490e+01 1.8924741787442514e+01 0 0 0
147 1 0.0000000000000000e+00 1.6950173556179578e+01 2.6360042625450152e+01 1.8924741787442510e+01 0 0 0
148 1 0.0000000000000000e+00 1.2513339212869450e+01 1.2639890143695483e+01 1.8924741787442514e+01 0 0 0
149 1 0.0000000000000000e+00 3.4691419040224424e+01 2.1789397267784892e+01 1.8924723793269816e+01 0 0 0
150 1 0.0000000000000000e+00 3.0254584696914247e+01 8.0692447860302305e+00 1.8924723793269816e+01 0 0 0
151 1 0.0000000000000000e+00 2.0274773313340866e+01 2.1789397267784889e+01 1.8924723793269813e+01 0 0 0
152 1 0.0000000000000000e+00 1.5837938970030699e+01 8.0692447860302305e+00 1.8924723793269816e+01 0 0 0
153 1 0.0000000000000000e+00 3.6934814359830540e+01 2.6917003906257044e+01 1.7921389492459809e+01 0 0 0
154 1 0.0000000000000000e+00 3.2497980016520415e+01 1.3196851424502375e+01 1.7921389492459799e+01 0 0 0
155 1 0.0000000000000000e+00 2.2518168632946992e+01 2.6917003906257044e+01 1.7921389492459806e+01 0 0 0
156 1 0.0000000000000000e+00 1.8081334289636860e+01 1.3196851424502375e+01 1.7921389492459799e+01 0 0 0
157 1 0.0000000000000000e+00 2.8043731496723058e+01 2.7444033724579253e+01 1.6961478924098493e+01 0 0 0
158 1 0.0000000000000000e+00 2.3606897153412941e+01 1.3723881242824584e+01 1.6961478924098493e+01 0 0 0
159 1 0.0000000000000000e+00 1.3627085769839503e+01 2.7444033724579253e+01 1.6961478924098493e+01 0 0 0
160 1 0.0000000000000000e+00 9.1902514265293895e+00 1.3723881242824582e+01 1.6961478924098493e+01 0 0 0
161 1 0.0000000000000000e+00 3.1391572580169619e+01 2.2883022623462768e+01 1.6979551576831469e+01 0 0 0
162 1 0.0000000000000000e+00 2.6954738236859455e+01 9.1628701417081011e+00 1.6979551576831465e+01 0 0 0
163 1 0.0000000000000000e+00 1.6974926853286075e+01 2.2883022623462764e+01 1.6979551576831465e+01 0 0 0
164 1 0.0000000000000000e+00 1.2538092509975897e+01 9.1628701417080940e+00 1.6979551576831462e+01 0 0 0
165 1 0.0000000000000000e+00 3.4699879871604814e+01 1.8293234782209900e+01 1.6961492374680329e+01 0 0 0
166 1 0.0000000000000000e+00 3.0263045528294647e+01 4.5730823004552281e+00 1.6961492374680333e+01 0 0 0
167 1 0.0000000000000000e+00 2.0283234144721270e+01 1.8293234782209890e+01 1.6961492374680329e+01 0 0 0
168 1 0.0000000000000000e+00 1.5846399801411103e+01 4.5730823004552290e+00 1.6961492374680329e+01 0 0 0
169 1 0.0000000000000000e+00 2.5814406120330272e+01 1.8824284360213323e+01 1.6057536144568182e+01 0 0 0
170 1 0.0000000000000000e+00 2.1377571777020098e+01 5.1041318784586585e+00 1.6057536144568179e+01 0 0 0
171 1 0.0000000000000000e+00 1.1397760393446720e+01 1.8824284360213326e+01 1.6057536144568179e+01 0 0 0
172 1 0.0000000000000000e+00 6.9609260501365471e+00 5.1041318784586549e+00 1.6057536144568182e+01 0 0 0
173 1 0.0000000000000000e+00 2.5825356234449316e+01 2.2357212331520032e+01 1.7965961983899629e+01 0 0 0
174 1 0.0000000000000000e+00 2.1388521891139145e+01 8.6370598497653681e+00 1.7965961983899621e+01 0 0 0
175 1 0.0000000000000000e+00 1.1408710507565766e+01 2.2357212331520032e+01 1.7965961983899625e+01 0 0 0
176 1 0.0000000000000000e+00 6.9718761642555958e+00 8.6370598497653663e+00 1.7965961983899621e+01 0 0 0
177 1 0.0000000000000000e+00 2.9178357598068100e+01 1.7747514175894260e+01 1.7966090314519015e+01 0 0 0
178 1 0.0000000000000000e+00 2.4741523254757933e+01 4.0273616941395955e+00 1.7966090314519015e+01 0 0 0
179 1 0.0000000000000000e+00 1.4761711871184550e+01 1.7747514175894256e+01 1.7966090314519011e+01 0 0 0
180 1 0.0000000000000000e+00 1.0324877527874380e+01 4.0273616941395911e+00 1.7966090314519011e+01 0 0 0
181 1 0.0000000000000000e+00 2.6400381946347835e+01 1.7603894404340001e+00 1.7922262665098177e+01 0 0 0
182 1 0.0000000000000000e+00 3.0837216289657977e+01 1.5480541922188669e+01 1.7922262665098170e+01 0 0 0
183 1 0.0000000000000000e+00 1.1983736219464289e+01 1.7603894404339990e+00 1.7922262665098174e+01 0 0 0
184 1 0.0000000000000000e+00 1.6420570562774429e+01 1.5480541922188666e+01 1.7922262665098170e+01 0 0 0
185 1 0.0000000000000000e+00 9.7627507762910497e+00 2.4633650140953907e+01 1.7922261066272398e+01 0 0 0
186 1 0.0000000000000000e+00 5.3259164329808932e+00 1.0913497659199242e+01 1.7922261066272387e+01 0 0 0
187 1 0.0000000000000000e+00 2.4179396503174605e+01 2.4633650140953907e+01 1.7922261066272394e+01 0 0 0
188 1 0.0000000000000000e+00 1.9742562159864452e+01 1.0913497659199248e+01 1.7922261066272387e+01 0 0 0
189 1 0.0000000000000000e+00 3.0888373904780524e+00 2.2864112081498158e+00 1.6963044565545790e+01 0 0 0
190 1 0.0000000000000000e+00 7.5256717337882018e+00 1.6006563689904485e+01 1.6963044565545790e+01 0 0 0
191 1 0.0000000000000000e+00 1.7505483117361610e+01 2.2864112081498198e+00 1.6963044565545790e+01 0 0 0
192 1 0.0000000000000000e+00 2.1942317460671749e+01 1.6006563689904489e+01 1.6963044565545786e+01 0 0 0
193 1 0.0000000000000000e+00 2.0830536272734459e+01 1.2079331754610581e+00 1.8930188329664315e+01 0 0 0
194 1 0.0000000000000000e+00 2.5267370616044598e+01 1.4928085657215727e+01 1.8930188329664318e+01 0 0 0
195 1 0.0000000000000000e+00 6.4138905458509123e+00 1.2079331754610556e+00 1.8930188329664315e+01 0 0 0
196 1 0.0000000000000000e+00 1.0850724889161048e+01 1.4928085657215723e+01 1.8930188329664311e+01 0 0 0
197 1 0.0000000000000000e+00 3.3039509956172616e+01 2.4082279548164028e+01 1.8932459976817356e+01 0 0 0
198 1 0.0000000000000000e+00 2.8602675612862459e+01 1.0362127066409370e+01 1.8932459976817356e+01 0 0 0
199 1 0.0000000000000000e+00 1.8622864229289060e+01 2.4082279548164028e+01 1.8932459976817356e+01 0 0 0
200 1 0.0000000000000000e+00 1.4186029885978899e+01 1.0362127066409368e+01 1.8932459976817356e+01 0 0 0
201 1 0.0000000000000000e+00 7.5230729551904831e+00 1.9502899587937598e+01 1.8930190037799484e+01 0 0 0
202 1 0.0000000000000000e+00 3.0862386118803120e+00 5.7827471061829288e+00 1.8930190037799484e+01 0 0 0
203 1 0.0000000000000000e+00 2.1939718682074034e+01 1.9502899587937598e+01 1.8930190037799484e+01 0 0 0
204 1 0.0000000000000000e+00 1.7502884338763860e+01 5.7827471061829305e+00 1.8930190037799484e+01 0 0 0
205 1 0.0000000000000000e+00 2.7505195015108026e+01 2.0054876228261321e+01 1.7954514977288003e+01 0 0 0
206 1 0.0000000000000000e+00 2.3068360671797841e+01 6.3347237465066613e+00 1.7954514977287999e+01 0 0 0
207 1 0.0000000000000000e+00 1.3088549288224471e+01 2.0054876228261318e+01 1.7954514977288003e+01 0 0 0
208 1 0.0000000000000000e+00 8.6517149449142963e+00 6.3347237465066568e+00 1.7954514977287999e+01 0 0 0
209 1 0.0000000000000000e+00 2.9701244594731254e+01 2.5149070736872634e+01 1.6949107394894597e+01 0 0 0
210 1 0.0000000000000000e+00 2.5264410251421111e+01 1.1428918255117976e+01 1.6949107394894597e+01 0 0 0
211 1 0.0000000000000000e+00 1.5284598867847709e+01 2.5149070736872631e+01 1.6949107394894597e+01 0 0 0
212 1 0.0000000000000000e+00 1.0847764524537560e+01 1.1428918255117972e+01 1.6949107394894593e+01 0 0 0
213 1 0.0000000000000000e+00 3.3026887032363419e+01 2.0576963918731757e+01 1.6949066266983781e+01 0 0 0
214 1 0.0000000000000000e+00 2.8590052689053238e+01 6.8568114369770887e+00 1.6949066266983785e+01 0 0 0
215 1 0.0000000000000000e+00 1.8610241305479871e+01 2.0576963918731753e+01 1.6949066266983781e+01 0 0 0
216 1 0.0000000000000000e+00 1.4173406962169688e+01 6.8568114369770852e+00 1.6949066266983781e+01 0 0 0
217 1 0.0000000000000000e+00 2.3611579855573481e+01 1.4808850143674073e+00 1.8460927321857213e+01 0 0 0
218 1 0.0000000000000000e+00 2.8048414198883616e+01 1.5201037496122069e+01 1.8460927321857213e+01 0 0 0
219 1 0.0000000000000000e+00 9.1949341286899244e+00 1.4808850143674048e+00 1.8460927321857213e+01 0 0 0
220 1 0.0000000000000000e+00 1.3631768472000061e+01 1.5201037496122069e+01 1.8460927321857213e+01 0 0 0
221 1 0.0000000000000000e+00 3.5814760223208090e+01 2.4352244417457843e+01 1.8454916655935406e+01 0 0 0
222 1 0.0000000000000000e+00 3.1377925879897937e+01 1.0632091935703173e+01 1.8454916655935406e+01 0 0 0
223 1 0.0000000000000000e+00 2.1398114496324538e+01 2.4352244417457843e+01 1.8454916655935406e+01 0 0 0
224 1 0.0000000000000000e+00 1.6961280153014386e+01 1.0632091935703173e+01 1.8454916655935403e+01 0 0 0
225 1 0.0000000000000000e+00 2.9168453326172372e+01 2.0303425707412432e+00 1.7449477162018336e+01 0 0 0
226 1 0.0000000000000000e+00 3.3605287669482536e+01 1.5750495052495907e+01 1.7449477162018336e+01 0 0 0
227 1 0.0000000000000000e+00 1.4751807599288821e+01 2.0303425707412388e+00 1.7449477162018336e+01 0 0 0
228 1 0.0000000000000000e+00 1.9188641942598966e+01 1.5750495052495907e+01 1.7449477162018333e+01 0 0 0
229 1 0.0000000000000000e+00 2.0274444502146601e+01 2.5568823194553985e+00 1.6490302222617117e+01 0 0 0
230 1 0.0000000000000000e+00 2.4711278845456757e+01 1.6277034801210064e+01 1.6490302222617114e+01 0 0 0
231 1 0.0000000000000000e+00 5.8577987752630483e+00 2.5568823194553931e+00 1.6490302222617114e+01 0 0 0
232 1 0.0000000000000000e+00 1.0294633118573202e+01 1.6277034801210064e+01 1.6490302222617114e+01 0 0 0
233 1 0.0000000000000000e+00 3.2476675335011691e+01 2.5425292375600019e+01 1.6480167737028953e+01 0 0 0
234 1 0.0000000000000000e+00 2.8039840991701539e+01 1.1705139893845351e+01 1.6480167737028950e+01 0 0 0
235 1 0.0000000000000000e+00 1.8060029608128122e+01 2.5425292375600005e+01 1.6480167737028946e+01 0 0 0
236 1 0.0000000000000000e+00 1.3623195264817982e+01 1.1705139893845347e+01 1.6480167737028946e+01 0 0 0
237 1 0.0000000000000000e+00 6.9699858739254310e+00 2.0846905227628142e+01 1.6489284374167582e+01 0 0 0
238 1 0.0000000000000000e+00 2.5331515306152506e+00 7.1267527458734747e+00 1.6489284374167582e+01 0 0 0
239 1 0.0000000000000000e+00 2.1386631600808986e+01 2.0846905227628142e+01 1.6489284374167582e+01 0 0 0
240 1 0.0000000000000000e+00 1.6949797257498798e+01 7.1267527458734747e+00 1.6489284374167585e+01 0 0 0
241 1 0.0000000000000000e+00 2.4720608656305465e+01 1.9776582658705124e+01 1.8463889423944774e+01 0 0 0
242 1 0.0000000000000000e+00 2.0283774312995291e+01 6.0564301769504647e+00 1.8463889423944771e+01 0 0 0
243 1 0.0000000000000000e+00 1.0303962929421914e+01 1.9776582658705124e+01 1.8463889423944771e+01 0 0 0
244 1 0.0000000000000000e+00 5.8671285861117388e+00 6.0564301769504594e+00 1.8463889423944771e+01 0 0 0
245 1 0.0000000000000000e+00 2.6955066591768055e+01 2.4895883292556906e+01 1.7438651207934466e+01 0 0 0
246 1 0.0000000000000000e+00 2.2518232248457903e+01 1.1175730810802245e+01 1.7438651207934463e+01 0 0 0
247 1 0.0000000000000000e+00 1.2538420864884497e+01 2.4895883292556906e+01 1.7438651207934466e+01 0 0 0
248 1 0.0000000000000000e+00 8.1015865215743474e+00 1.1175730810802238e+01 1.7438651207934463e+01 0 0 0
249 1 0.0000000000000000e+00 3.0282695134708575e+01 2.0319016685252816e+01 1.7458588209227731e+01 0 0 0
250 1 0.0000000000000000e+00 2.5845860791398405e+01 6.5988642034981506e+00 1.7458588209227731e+01 0 0 0
251 1 0.0000000000000000e+00 1.5866049407825029e+01 2.0319016685252816e+01 1.7458588209227731e+01 0 0 0
252 1 0.0000000000000000e+00 1.1429215064514846e+01 6.5988642034981488e+00 1.7458588209227727e+01 0 0 0
253 1 0.0000000000000000e+00 3.4150466859633539e+01 2.6640302250569281e+01 1.8454917616703902e+01 0 0 0
254 1 0.0000000000000000e+00 2.9713632516323411e+01 1.2920149768814618e+01 1.8454917616703902e+01 0 0 0
255 1 0.0000000000000000e+00 1.9733821132749991e+01 2.6640302250569281e+01 1.8454917616703899e+01 0 0 0
256 1 0.0000000000000000e+00 1.5296986789439863e+01 1.2920149768814616e+01 1.8454917616703902e+01 0 0 0
257 1 0.0000000000000000e+00 8.6386597080671752e+00 2.2065510799585052e+01 1.8460915614593215e+01 0 0 0
258 1 0.0000000000000000e+00 4.2018253647570036e+00 8.3453583178303816e+00 1.8460915614593219e+01 0 0 0
259 1 0.0000000000000000e+00 2.3055305434950725e+01 2.2065510799585052e+01 1.8460915614593219e+01 0 0 0
260 1 0.0000000000000000e+00 1.8618471091640554e+01 8.3453583178303816e+00 1.8460915614593219e+01 0 0 0
261 1 0.0000000000000000e+00 1.0871449052141530e+01 2.7184887646969390e+01 1.7449472382957591e+01 0 0 0
262 1 0.0000000000000000e+00 6.4346147088314032e+00 1.3464735165214726e+01 1.7449472382957588e+01 0 0 0
263 1 0.0000000000000000e+00 2.5288094779025077e+01 2.7184887646969390e+01 1.7449472382957591e+01 0 0 0
264 1 0.0000000000000000e+00 2.0851260435714956e+01 1.3464735165214726e+01 1.7449472382957588e+01 0 0 0
265 1 0.0000000000000000e+00 2.1938826966774347e+01 2.6788337345588575e-01 1.6489285636888852e+01 0 0 0
266 1 0.0000000000000000e+00 2.6375661310084471e+01 1.3988035855210551e+01 1.6489285636888855e+01 0 0 0
267 1 0.0000000000000000e+00 7.5221812398907959e+00 2.6788337345588004e-01 1.6489285636888852e+01 0 0 0
268 1 0.0000000000000000e+00 1.1959015583200923e+01 1.3988035855210548e+01 1.6489285636888855e+01 0 0 0
269 1 0.0000000000000000e+00 3.4143851621633686e+01 2.3133267378573191e+01 1.6480152339948582e+01 0 0 0
270 1 0.0000000000000000e+00 2.9707017278323509e+01 9.4131148968185254e+00 1.6480152339948582e+01 0 0 0
271 1 0.0000000000000000e+00 1.9727205894750131e+01 2.3133267378573191e+01 1.6480152339948578e+01 0 0 0
272 1 0.0000000000000000e+00 1.5290371551439959e+01 9.4131148968185236e+00 1.6480152339948578e+01 0 0 0
273 1 0.0000000000000000e+00 8.6351445170686922e+00 1.8558483161692120e+01 1.6490300999884330e+01 0 0 0
274 1 0.0000000000000000e+00 4.1983101737585198e+00 4.8383306799374566e+00 1.6490300999884333e+01 0 0 0
275 1 0.0000000000000000e+00 2.3051790243952244e+01 1.8558483161692131e+01 1.6490300999884333e+01 0 0 0
276 1 0.0000000000000000e+00 1.8614955900642070e+01 4.8383306799374575e+00 1.6490300999884333e+01 0 0 0
277 1 0.0000000000000000e+00 2.6383596286199531e+01 1.7490357194567039e+01 1.8463871409600504e+01 0 0 0
278 1 0.0000000000000000e+00 2.1946761942889363e+01 3.7702047128123728e+00 1.8463871409600504e+01 0 0 0
279 1 0.0000000000000000e+00 1.1966950559315972e+01 1.7490357194567036e+01 1.8463871409600504e+01 0 0 0
280 1 0.0000000000000000e+00 7.5301162160058102e+00 3.7702047128123657e+00 1.8463871409600504e+01 0 0 0
281 1 0.0000000000000000e+00 2.8611290886366493e+01 2.2616824844477929e+01 1.7458586191053929e+01 0 0 0
282 1 0.0000000000000000e+00 2.4174456543056326e+01 8.8966723627232653e+00 1.7458586191053925e+01 0 0 0
283 1 0.0000000000000000e+00 1.4194645159482938e+01 2.2616824844477929e+01 1.7458586191053925e+01 0 0 0
284 1 0.0000000000000000e+00 9.7578108161727695e+00 8.8966723627232636e+00 1.7458586191053922e+01 0 0 0
285 1 0.0000000000000000e+00 3.1940892465992409e+01 1.8041424932231113e+01 1.7438594675085291e+01 0 0 0