datafile (written by JARVIS-FF) 

1008 	 atoms 
1  atom types
0.0 29.204965097  xlo xhi
0.0 27.788112897  ylo yhi
0.0 47.148925128  zlo zhi
8.986143106 0E-9 0E-9  xy xz yz


Atoms 

     1   1 0.000000 24.836701087 0.363243306 16.043731468
     2   1 0.000000 29.329772640 14.257299754 16.043731468
     3   1 0.000000 10.234218538 0.363243306 16.043731468
     4   1 0.000000 14.727290092 14.257299754 16.043731468
     5   1 0.000000 7.987682762 23.520004054 16.043731468
     6   1 0.000000 3.494611208 9.625947605 16.043731468
     7   1 0.000000 22.590165310 23.520004054 16.043731468
     8   1 0.000000 18.097093757 9.625947605 16.043731468
     9   1 0.000000 1.248075432 0.908108265 15.061462194
    10   1 0.000000 5.741146985 14.802164713 15.061462194
    11   1 0.000000 15.850557980 0.908108265 15.061462194
    12   1 0.000000 20.343629533 14.802164713 15.061462194
    13   1 0.000000 21.466897422 1.452973223 14.079192920
    14   1 0.000000 25.959968975 15.347029672 14.079192920
    15   1 0.000000 6.864414873 1.452973223 14.079192920
    16   1 0.000000 11.357486427 15.347029672 14.079192920
    17   1 0.000000 33.822844194 24.609733971 14.079192920
    18   1 0.000000 29.329772640 10.715677522 14.079192920
    19   1 0.000000 19.220361645 24.609733971 14.079192920
    20   1 0.000000 14.727290092 10.715677522 14.079192920
    21   1 0.000000 7.987682762 19.978381822 14.079192920
    22   1 0.000000 3.494611208 6.084325373 14.079192920
    23   1 0.000000 22.590165310 19.978381822 14.079192920
    24   1 0.000000 18.097093757 6.084325373 14.079192920
    25   1 0.000000 28.206504752 20.523246780 13.096923647
    26   1 0.000000 23.713433199 6.629190332 13.096923647
    27   1 0.000000 13.604022203 20.523246780 13.096923647
    28   1 0.000000 9.110950650 6.629190332 13.096923647
    29   1 0.000000 28.206504752 24.064869012 15.061462194
    30   1 0.000000 23.713433199 10.170812564 15.061462194
    31   1 0.000000 13.604022203 24.064869012 15.061462194
    32   1 0.000000 9.110950650 10.170812564 15.061462194
    33   1 0.000000 31.576308417 19.433516863 15.061462194
    34   1 0.000000 27.083236864 5.539460414 15.061462194
    35   1 0.000000 16.973825868 19.433516863 15.061462194
    36   1 0.000000 12.480754315 5.539460414 15.061462194
    37   1 0.000000 28.768138696 3.223784339 15.061462194
    38   1 0.000000 33.261210250 17.117840788 15.061462194
    39   1 0.000000 14.165656148 3.223784339 15.061462194
    40   1 0.000000 18.658727701 17.117840788 15.061462194
    41   1 0.000000 11.919120371 26.380545087 15.061462194
    42   1 0.000000 7.426048817 12.486488638 15.061462194
    43   1 0.000000 26.521602919 26.380545087 15.061462194
    44   1 0.000000 22.028531366 12.486488638 15.061462194
    45   1 0.000000 5.179513041 3.768649298 14.079192920
    46   1 0.000000 9.672584594 17.662705747 14.079192920
    47   1 0.000000 19.781995589 3.768649298 14.079192920
    48   1 0.000000 24.275067143 17.662705747 14.079192920
    49   1 0.000000 23.151799254 2.678919381 16.043731468
    50   1 0.000000 27.644870808 16.572975829 16.043731468
    51   1 0.000000 8.549316706 2.678919381 16.043731468
    52   1 0.000000 13.042388259 16.572975829 16.043731468
    53   1 0.000000 35.507746026 25.835680128 16.043731468
    54   1 0.000000 31.014674473 11.941623680 16.043731468
    55   1 0.000000 20.905263478 25.835680128 16.043731468
    56   1 0.000000 16.412191924 11.941623680 16.043731468
    57   1 0.000000 9.672584594 21.204327979 16.043731468
    58   1 0.000000 5.179513041 7.310271530 16.043731468
    59   1 0.000000 24.275067143 21.204327979 16.043731468
    60   1 0.000000 19.781995589 7.310271530 16.043731468
    61   1 0.000000 29.891406584 21.749192938 15.061462194
    62   1 0.000000 25.398335031 7.855136489 15.061462194
    63   1 0.000000 15.288924036 21.749192938 15.061462194
    64   1 0.000000 10.795852482 7.855136489 15.061462194
    65   1 0.000000 32.137942361 26.925410046 14.079192920
    66   1 0.000000 27.644870808 13.031353597 14.079192920
    67   1 0.000000 17.535459813 26.925410046 14.079192920
    68   1 0.000000 13.042388259 13.031353597 14.079192920
    69   1 0.000000 35.507746026 22.294057896 14.079192920
    70   1 0.000000 31.014674473 8.400001448 14.079192920
    71   1 0.000000 20.905263478 22.294057896 14.079192920
    72   1 0.000000 16.412191924 8.400001448 14.079192920
    73   1 0.000000 25.959968975 2.951351860 15.552596831
    74   1 0.000000 30.453040529 16.845408309 15.552596831
    75   1 0.000000 11.357486427 2.951351860 15.552596831
    76   1 0.000000 15.850557980 16.845408309 15.552596831
    77   1 0.000000 9.110950650 26.108112608 15.552596831
    78   1 0.000000 4.617879097 12.214056159 15.552596831
    79   1 0.000000 23.713433199 26.108112608 15.552596831
    80   1 0.000000 19.220361645 12.214056159 15.552596831
    81   1 0.000000 2.371343320 3.496216819 14.570327557
    82   1 0.000000 6.864414873 17.390273267 14.570327557
    83   1 0.000000 16.973825868 3.496216819 14.570327557
    84   1 0.000000 21.466897422 17.390273267 14.570327557
    85   1 0.000000 22.590165310 4.041081778 13.588058284
    86   1 0.000000 27.083236864 17.935138226 13.588058284
    87   1 0.000000 7.987682762 4.041081778 13.588058284
    88   1 0.000000 12.480754315 17.935138226 13.588058284
    89   1 0.000000 34.946112082 27.197842525 13.588058284
    90   1 0.000000 30.453040529 13.303786077 13.588058284
    91   1 0.000000 20.343629533 27.197842525 13.588058284
    92   1 0.000000 15.850557980 13.303786077 13.588058284
    93   1 0.000000 9.110950650 22.566490376 13.588058284
    94   1 0.000000 4.617879097 8.672433927 13.588058284
    95   1 0.000000 23.713433199 22.566490376 13.588058284
    96   1 0.000000 19.220361645 8.672433927 13.588058284
    97   1 0.000000 27.083236864 21.476760458 15.552596831
    98   1 0.000000 22.590165310 7.582704010 15.552596831
    99   1 0.000000 12.480754315 21.476760458 15.552596831
   100   1 0.000000 7.987682762 7.582704010 15.552596831
   101   1 0.000000 29.329772640 26.652977566 14.570327557
   102   1 0.000000 24.836701087 12.758921118 14.570327557
   103   1 0.000000 14.727290092 26.652977566 14.570327557
   104   1 0.000000 10.234218538 12.758921118 14.570327557
   105   1 0.000000 32.699576305 22.021625417 14.570327557
   106   1 0.000000 28.206504752 8.127568968 14.570327557
   107   1 0.000000 18.097093757 22.021625417 14.570327557
   108   1 0.000000 13.604022203 8.127568968 14.570327557
   109   1 0.000000 27.644870808 0.635675785 15.552596831
   110   1 0.000000 32.137942361 14.529732234 15.552596831
   111   1 0.000000 13.042388259 0.635675785 15.552596831
   112   1 0.000000 17.535459813 14.529732234 15.552596831
   113   1 0.000000 10.795852482 23.792436533 15.552596831
   114   1 0.000000 6.302780929 9.898380084 15.552596831
   115   1 0.000000 25.398335031 23.792436533 15.552596831
   116   1 0.000000 20.905263478 9.898380084 15.552596831
   117   1 0.000000 4.056245152 1.180540744 14.570327557
   118   1 0.000000 8.549316706 15.074597193 14.570327557
   119   1 0.000000 18.658727701 1.180540744 14.570327557
   120   1 0.000000 23.151799254 15.074597193 14.570327557
   121   1 0.000000 24.275067143 1.725405703 13.588058284
   122   1 0.000000 28.768138696 15.619462151 13.588058284
   123   1 0.000000 9.672584594 1.725405703 13.588058284
   124   1 0.000000 14.165656148 15.619462151 13.588058284
   125   1 0.000000 36.631013915 24.882166450 13.588058284
   126   1 0.000000 32.137942361 10.988110002 13.588058284
   127   1 0.000000 22.028531366 24.882166450 13.588058284
   128   1 0.000000 17.535459813 10.988110002 13.588058284
   129   1 0.000000 10.795852482 20.250814301 13.588058284
   130   1 0.000000 6.302780929 6.356757852 13.588058284
   131   1 0.000000 25.398335031 20.250814301 13.588058284
   132   1 0.000000 20.905263478 6.356757852 13.588058284
   133   1 0.000000 28.768138696 19.161084383 15.552596831
   134   1 0.000000 24.275067143 5.267027935 15.552596831
   135   1 0.000000 14.165656148 19.161084383 15.552596831
   136   1 0.000000 9.672584594 5.267027935 15.552596831
   137   1 0.000000 31.014674473 24.337301492 14.570327557
   138   1 0.000000 26.521602919 10.443245043 14.570327557
   139   1 0.000000 16.412191924 24.337301492 14.570327557
   140   1 0.000000 11.919120371 10.443245043 14.570327557
   141   1 0.000000 34.384478138 19.705949342 14.570327557
   142   1 0.000000 29.891406584 5.811892894 14.570327557
   143   1 0.000000 19.781995589 19.705949342 14.570327557
   144   1 0.000000 15.288924036 5.811892894 14.570327557
   145   1 0.000000 31.576308417 26.516761327 18.990539288
   146   1 0.000000 27.083236864 12.622704878 18.990539288
   147   1 0.000000 16.973825868 26.516761327 18.990539288
   148   1 0.000000 12.480754315 12.622704878 18.990539288
   149   1 0.000000 34.946112082 21.885409177 18.990539288
   150   1 0.000000 30.453040529 7.991352729 18.990539288
   151   1 0.000000 20.343629533 21.885409177 18.990539288
   152   1 0.000000 15.850557980 7.991352729 18.990539288
   153   1 0.000000 37.192647859 27.061626286 18.008270015
   154   1 0.000000 32.699576305 13.167569837 18.008270015
   155   1 0.000000 22.590165310 27.061626286 18.008270015
   156   1 0.000000 18.097093757 13.167569837 18.008270015
   157   1 0.000000 28.206504752 27.606491244 17.026000741
   158   1 0.000000 23.713433199 13.712434796 17.026000741
   159   1 0.000000 13.604022203 27.606491244 17.026000741
   160   1 0.000000 9.110950650 13.712434796 17.026000741
   161   1 0.000000 31.576308417 22.975139095 17.026000741
   162   1 0.000000 27.083236864 9.081082646 17.026000741
   163   1 0.000000 16.973825868 22.975139095 17.026000741
   164   1 0.000000 12.480754315 9.081082646 17.026000741
   165   1 0.000000 34.946112082 18.343786945 17.026000741
   166   1 0.000000 30.453040529 4.449730497 17.026000741
   167   1 0.000000 20.343629533 18.343786945 17.026000741
   168   1 0.000000 15.850557980 4.449730497 17.026000741
   169   1 0.000000 25.959968975 18.888651904 16.043731468
   170   1 0.000000 21.466897422 4.994595455 16.043731468
   171   1 0.000000 11.357486427 18.888651904 16.043731468
   172   1 0.000000 6.864414873 4.994595455 16.043731468
   173   1 0.000000 25.959968975 22.430274136 18.008270015
   174   1 0.000000 21.466897422 8.536217687 18.008270015
   175   1 0.000000 11.357486427 22.430274136 18.008270015
   176   1 0.000000 6.864414873 8.536217687 18.008270015
   177   1 0.000000 29.329772640 17.798921986 18.008270015
   178   1 0.000000 24.836701087 3.904865538 18.008270015
   179   1 0.000000 14.727290092 17.798921986 18.008270015
   180   1 0.000000 10.234218538 3.904865538 18.008270015
   181   1 0.000000 26.521602919 1.589189463 18.008270015
   182   1 0.000000 31.014674473 15.483245912 18.008270015
   183   1 0.000000 11.919120371 1.589189463 18.008270015
   184   1 0.000000 16.412191924 15.483245912 18.008270015
   185   1 0.000000 9.672584594 24.745950211 18.008270015
   186   1 0.000000 5.179513041 10.851893762 18.008270015
   187   1 0.000000 24.275067143 24.745950211 18.008270015
   188   1 0.000000 19.781995589 10.851893762 18.008270015
   189   1 0.000000 2.932977264 2.134054422 17.026000741
   190   1 0.000000 7.426048817 16.028110870 17.026000741
   191   1 0.000000 17.535459813 2.134054422 17.026000741
   192   1 0.000000 22.028531366 16.028110870 17.026000741
   193   1 0.000000 20.905263478 1.044324504 18.990539288
   194   1 0.000000 25.398335031 14.938380953 18.990539288
   195   1 0.000000 6.302780929 1.044324504 18.990539288
   196   1 0.000000 10.795852482 14.938380953 18.990539288
   197   1 0.000000 33.261210250 24.201085252 18.990539288
   198   1 0.000000 28.768138696 10.307028803 18.990539288
   199   1 0.000000 18.658727701 24.201085252 18.990539288
   200   1 0.000000 14.165656148 10.307028803 18.990539288
   201   1 0.000000 7.426048817 19.569733102 18.990539288
   202   1 0.000000 2.932977264 5.675676654 18.990539288
   203   1 0.000000 22.028531366 19.569733102 18.990539288
   204   1 0.000000 17.535459813 5.675676654 18.990539288
   205   1 0.000000 27.644870808 20.114598061 18.008270015
   206   1 0.000000 23.151799254 6.220541613 18.008270015
   207   1 0.000000 13.042388259 20.114598061 18.008270015
   208   1 0.000000 8.549316706 6.220541613 18.008270015
   209   1 0.000000 29.891406584 25.290815170 17.026000741
   210   1 0.000000 25.398335031 11.396758721 17.026000741
   211   1 0.000000 15.288924036 25.290815170 17.026000741
   212   1 0.000000 10.795852482 11.396758721 17.026000741
   213   1 0.000000 33.261210250 20.659463020 17.026000741
   214   1 0.000000 28.768138696 6.765406571 17.026000741
   215   1 0.000000 18.658727701 20.659463020 17.026000741
   216   1 0.000000 14.165656148 6.765406571 17.026000741
   217   1 0.000000 23.713433199 1.316756984 18.499404651
   218   1 0.000000 28.206504752 15.210813432 18.499404651
   219   1 0.000000 9.110950650 1.316756984 18.499404651
   220   1 0.000000 13.604022203 15.210813432 18.499404651
   221   1 0.000000 36.069379970 24.473517731 18.499404651
   222   1 0.000000 31.576308417 10.579461283 18.499404651
   223   1 0.000000 21.466897422 24.473517731 18.499404651
   224   1 0.000000 16.973825868 10.579461283 18.499404651
   225   1 0.000000 29.329772640 1.861621942 17.517135378
   226   1 0.000000 33.822844194 15.755678391 17.517135378
   227   1 0.000000 14.727290092 1.861621942 17.517135378
   228   1 0.000000 19.220361645 15.755678391 17.517135378
   229   1 0.000000 20.343629533 2.406486901 16.534866104
   230   1 0.000000 24.836701087 16.300543350 16.534866104
   231   1 0.000000 5.741146985 2.406486901 16.534866104
   232   1 0.000000 10.234218538 16.300543350 16.534866104
   233   1 0.000000 32.699576305 25.563247649 16.534866104
   234   1 0.000000 28.206504752 11.669191200 16.534866104
   235   1 0.000000 18.097093757 25.563247649 16.534866104
   236   1 0.000000 13.604022203 11.669191200 16.534866104
   237   1 0.000000 6.864414873 20.931895499 16.534866104
   238   1 0.000000 2.371343320 7.037839051 16.534866104
   239   1 0.000000 21.466897422 20.931895499 16.534866104
   240   1 0.000000 16.973825868 7.037839051 16.534866104
   241   1 0.000000 24.836701087 19.842165582 18.499404651
   242   1 0.000000 20.343629533 5.948109133 18.499404651
   243   1 0.000000 10.234218538 19.842165582 18.499404651
   244   1 0.000000 5.741146985 5.948109133 18.499404651
   245   1 0.000000 27.083236864 25.018382690 17.517135378
   246   1 0.000000 22.590165310 11.124326242 17.517135378
   247   1 0.000000 12.480754315 25.018382690 17.517135378
   248   1 0.000000 7.987682762 11.124326242 17.517135378
   249   1 0.000000 30.453040529 20.387030541 17.517135378
   250   1 0.000000 25.959968975 6.492974092 17.517135378
   251   1 0.000000 15.850557980 20.387030541 17.517135378
   252   1 0.000000 11.357486427 6.492974092 17.517135378
   253   1 0.000000 34.384478138 26.789193806 18.499404651
   254   1 0.000000 29.891406584 12.895137358 18.499404651
   255   1 0.000000 19.781995589 26.789193806 18.499404651
   256   1 0.000000 15.288924036 12.895137358 18.499404651
   257   1 0.000000 8.549316706 22.157841657 18.499404651
   258   1 0.000000 4.056245152 8.263785208 18.499404651
   259   1 0.000000 23.151799254 22.157841657 18.499404651
   260   1 0.000000 18.658727701 8.263785208 18.499404651
   261   1 0.000000 10.795852482 27.334058765 17.517135378
   262   1 0.000000 6.302780929 13.440002316 17.517135378
   263   1 0.000000 25.398335031 27.334058765 17.517135378
   264   1 0.000000 20.905263478 13.440002316 17.517135378
   265   1 0.000000 22.028531366 0.090810826 16.534866104
   266   1 0.000000 26.521602919 13.984867275 16.534866104
   267   1 0.000000 7.426048817 0.090810826 16.534866104
   268   1 0.000000 11.919120371 13.984867275 16.534866104
   269   1 0.000000 34.384478138 23.247571574 16.534866104
   270   1 0.000000 29.891406584 9.353515126 16.534866104
   271   1 0.000000 19.781995589 23.247571574 16.534866104
   272   1 0.000000 15.288924036 9.353515126 16.534866104
   273   1 0.000000 8.549316706 18.616219425 16.534866104
   274   1 0.000000 4.056245152 4.722162976 16.534866104
   275   1 0.000000 23.151799254 18.616219425 16.534866104
   276   1 0.000000 18.658727701 4.722162976 16.534866104
   277   1 0.000000 26.521602919 17.526489507 18.499404651
   278   1 0.000000 22.028531366 3.632433058 18.499404651
   279   1 0.000000 11.919120371 17.526489507 18.499404651
   280   1 0.000000 7.426048817 3.632433058 18.499404651
   281   1 0.000000 28.768138696 22.702706615 17.517135378
   282   1 0.000000 24.275067143 8.808650167 17.517135378
   283   1 0.000000 14.165656148 22.702706615 17.517135378
   284   1 0.000000 9.672584594 8.808650167 17.517135378
   285   1 0.000000 32.137942361 18.071354466 17.517135378
   286   1 0.000000 27.644870808 4.177298017 17.517135378
   287   1 0.000000 17.535459813 18.071354466 17.517135378
   288   1 0.000000 13.042388259 4.177298017 17.517135378
   289   1 0.000000 29.329772640 24.882166450 21.937347109
   290   1 0.000000 24.836701087 10.988110002 21.937347109
   291   1 0.000000 14.727290092 24.882166450 21.937347109
   292   1 0.000000 10.234218538 10.988110002 21.937347109
   293   1 0.000000 32.699576305 20.250814301 21.937347109
   294   1 0.000000 28.206504752 6.356757852 21.937347109
   295   1 0.000000 18.097093757 20.250814301 21.937347109
   296   1 0.000000 13.604022203 6.356757852 21.937347109
   297   1 0.000000 34.946112082 25.427031409 20.955077835
   298   1 0.000000 30.453040529 11.532974961 20.955077835
   299   1 0.000000 20.343629533 25.427031409 20.955077835
   300   1 0.000000 15.850557980 11.532974961 20.955077835
   301   1 0.000000 25.959968975 25.971896368 19.972808562
   302   1 0.000000 21.466897422 12.077839919 19.972808562
   303   1 0.000000 11.357486427 25.971896368 19.972808562
   304   1 0.000000 6.864414873 12.077839919 19.972808562
   305   1 0.000000 29.329772640 21.340544218 19.972808562
   306   1 0.000000 24.836701087 7.446487770 19.972808562
   307   1 0.000000 14.727290092 21.340544218 19.972808562
   308   1 0.000000 10.234218538 7.446487770 19.972808562
   309   1 0.000000 32.699576305 16.709192069 19.972808562
   310   1 0.000000 28.206504752 2.815135620 19.972808562
   311   1 0.000000 18.097093757 16.709192069 19.972808562
   312   1 0.000000 13.604022203 2.815135620 19.972808562
   313   1 0.000000 23.713433199 17.254057028 18.990539288
   314   1 0.000000 19.220361645 3.360000579 18.990539288
   315   1 0.000000 9.110950650 17.254057028 18.990539288
   316   1 0.000000 4.617879097 3.360000579 18.990539288
   317   1 0.000000 23.713433199 20.795679260 20.955077835
   318   1 0.000000 19.220361645 6.901622811 20.955077835
   319   1 0.000000 9.110950650 20.795679260 20.955077835
   320   1 0.000000 4.617879097 6.901622811 20.955077835
   321   1 0.000000 27.083236864 16.164327110 20.955077835
   322   1 0.000000 22.590165310 2.270270662 20.955077835
   323   1 0.000000 12.480754315 16.164327110 20.955077835
   324   1 0.000000 7.987682762 2.270270662 20.955077835
   325   1 0.000000 33.261210250 27.742707484 20.955077835
   326   1 0.000000 28.768138696 13.848651035 20.955077835
   327   1 0.000000 18.658727701 27.742707484 20.955077835
   328   1 0.000000 14.165656148 13.848651035 20.955077835
   329   1 0.000000 36.631013915 23.111355334 20.955077835
   330   1 0.000000 32.137942361 9.217298886 20.955077835
   331   1 0.000000 22.028531366 23.111355334 20.955077835
   332   1 0.000000 17.535459813 9.217298886 20.955077835
   333   1 0.000000 0.686441487 0.499459546 19.972808562
   334   1 0.000000 5.179513041 14.393515994 19.972808562
   335   1 0.000000 15.288924036 0.499459546 19.972808562
   336   1 0.000000 19.781995589 14.393515994 19.972808562
   337   1 0.000000 27.644870808 27.197842525 21.937347109
   338   1 0.000000 23.151799254 13.303786077 21.937347109
   339   1 0.000000 13.042388259 27.197842525 21.937347109
   340   1 0.000000 8.549316706 13.303786077 21.937347109
   341   1 0.000000 31.014674473 22.566490376 21.937347109
   342   1 0.000000 26.521602919 8.672433927 21.937347109
   343   1 0.000000 16.412191924 22.566490376 21.937347109
   344   1 0.000000 11.919120371 8.672433927 21.937347109
   345   1 0.000000 34.384478138 17.935138226 21.937347109
   346   1 0.000000 29.891406584 4.041081778 21.937347109
   347   1 0.000000 19.781995589 17.935138226 21.937347109
   348   1 0.000000 15.288924036 4.041081778 21.937347109
   349   1 0.000000 25.398335031 18.480003185 20.955077835
   350   1 0.000000 20.905263478 4.585946736 20.955077835
   351   1 0.000000 10.795852482 18.480003185 20.955077835
   352   1 0.000000 6.302780929 4.585946736 20.955077835
   353   1 0.000000 27.644870808 23.656220293 19.972808562
   354   1 0.000000 23.151799254 9.762163845 19.972808562
   355   1 0.000000 13.042388259 23.656220293 19.972808562
   356   1 0.000000 8.549316706 9.762163845 19.972808562
   357   1 0.000000 31.014674473 19.024868144 19.972808562
   358   1 0.000000 26.521602919 5.130811695 19.972808562
   359   1 0.000000 16.412191924 19.024868144 19.972808562
   360   1 0.000000 11.919120371 5.130811695 19.972808562
   361   1 0.000000 30.453040529 27.470275005 21.446212472
   362   1 0.000000 25.959968975 13.576218556 21.446212472
   363   1 0.000000 15.850557980 27.470275005 21.446212472
   364   1 0.000000 11.357486427 13.576218556 21.446212472
   365   1 0.000000 33.822844194 22.838922855 21.446212472
   366   1 0.000000 29.329772640 8.944866406 21.446212472
   367   1 0.000000 19.220361645 22.838922855 21.446212472
   368   1 0.000000 14.727290092 8.944866406 21.446212472
   369   1 0.000000 27.083236864 0.227027066 20.463943198
   370   1 0.000000 31.576308417 14.121083515 20.463943198
   371   1 0.000000 12.480754315 0.227027066 20.463943198
   372   1 0.000000 16.973825868 14.121083515 20.463943198
   373   1 0.000000 18.097093757 0.771892025 19.481673925
   374   1 0.000000 22.590165310 14.665948474 19.481673925
   375   1 0.000000 3.494611208 0.771892025 19.481673925
   376   1 0.000000 7.987682762 14.665948474 19.481673925
   377   1 0.000000 30.453040529 23.928652773 19.481673925
   378   1 0.000000 25.959968975 10.034596324 19.481673925
   379   1 0.000000 15.850557980 23.928652773 19.481673925
   380   1 0.000000 11.357486427 10.034596324 19.481673925
   381   1 0.000000 33.822844194 19.297300623 19.481673925
   382   1 0.000000 29.329772640 5.403244174 19.481673925
   383   1 0.000000 19.220361645 19.297300623 19.481673925
   384   1 0.000000 14.727290092 5.403244174 19.481673925
   385   1 0.000000 22.590165310 18.207570706 21.446212472
   386   1 0.000000 18.097093757 4.313514257 21.446212472
   387   1 0.000000 7.987682762 18.207570706 21.446212472
   388   1 0.000000 3.494611208 4.313514257 21.446212472
   389   1 0.000000 24.836701087 23.383787814 20.463943198
   390   1 0.000000 20.343629533 9.489731365 20.463943198
   391   1 0.000000 10.234218538 23.383787814 20.463943198
   392   1 0.000000 5.741146985 9.489731365 20.463943198
   393   1 0.000000 28.206504752 18.752435664 20.463943198
   394   1 0.000000 23.713433199 4.858379216 20.463943198
   395   1 0.000000 13.604022203 18.752435664 20.463943198
   396   1 0.000000 9.110950650 4.858379216 20.463943198
   397   1 0.000000 32.137942361 25.154598930 21.446212472
   398   1 0.000000 27.644870808 11.260542481 21.446212472
   399   1 0.000000 17.535459813 25.154598930 21.446212472
   400   1 0.000000 13.042388259 11.260542481 21.446212472
   401   1 0.000000 35.507746026 20.523246780 21.446212472
   402   1 0.000000 31.014674473 6.629190332 21.446212472
   403   1 0.000000 20.905263478 20.523246780 21.446212472
   404   1 0.000000 16.412191924 6.629190332 21.446212472
   405   1 0.000000 8.549316706 25.699463889 20.463943198
   406   1 0.000000 4.056245152 11.805407440 20.463943198
   407   1 0.000000 23.151799254 25.699463889 20.463943198
   408   1 0.000000 18.658727701 11.805407440 20.463943198
   409   1 0.000000 28.768138696 26.244328847 19.481673925
   410   1 0.000000 24.275067143 12.350272399 19.481673925
   411   1 0.000000 14.165656148 26.244328847 19.481673925
   412   1 0.000000 9.672584594 12.350272399 19.481673925
   413   1 0.000000 32.137942361 21.612976698 19.481673925
   414   1 0.000000 27.644870808 7.718920249 19.481673925
   415   1 0.000000 17.535459813 21.612976698 19.481673925
   416   1 0.000000 13.042388259 7.718920249 19.481673925
   417   1 0.000000 6.302780929 16.981624548 19.481673925
   418   1 0.000000 1.809709376 3.087568100 19.481673925
   419   1 0.000000 20.905263478 16.981624548 19.481673925
   420   1 0.000000 16.412191924 3.087568100 19.481673925
   421   1 0.000000 24.275067143 15.891894631 21.446212472
   422   1 0.000000 19.781995589 1.997838182 21.446212472
   423   1 0.000000 9.672584594 15.891894631 21.446212472
   424   1 0.000000 5.179513041 1.997838182 21.446212472
   425   1 0.000000 26.521602919 21.068111739 20.463943198
   426   1 0.000000 22.028531366 7.174055290 20.463943198
   427   1 0.000000 11.919120371 21.068111739 20.463943198
   428   1 0.000000 7.426048817 7.174055290 20.463943198
   429   1 0.000000 29.891406584 16.436759590 20.463943198
   430   1 0.000000 25.398335031 2.542703141 20.463943198
   431   1 0.000000 15.288924036 16.436759590 20.463943198
   432   1 0.000000 10.795852482 2.542703141 20.463943198
   433   1 0.000000 27.083236864 23.247571574 24.884154929
   434   1 0.000000 22.590165310 9.353515126 24.884154929
   435   1 0.000000 12.480754315 23.247571574 24.884154929
   436   1 0.000000 7.987682762 9.353515126 24.884154929
   437   1 0.000000 30.453040529 18.616219425 24.884154929
   438   1 0.000000 25.959968975 4.722162976 24.884154929
   439   1 0.000000 15.850557980 18.616219425 24.884154929
   440   1 0.000000 11.357486427 4.722162976 24.884154929
   441   1 0.000000 32.699576305 23.792436533 23.901885656
   442   1 0.000000 28.206504752 9.898380084 23.901885656
   443   1 0.000000 18.097093757 23.792436533 23.901885656
   444   1 0.000000 13.604022203 9.898380084 23.901885656
   445   1 0.000000 23.713433199 24.337301492 22.919616382
   446   1 0.000000 19.220361645 10.443245043 22.919616382
   447   1 0.000000 9.110950650 24.337301492 22.919616382
   448   1 0.000000 4.617879097 10.443245043 22.919616382
   449   1 0.000000 27.083236864 19.705949342 22.919616382
   450   1 0.000000 22.590165310 5.811892894 22.919616382
   451   1 0.000000 12.480754315 19.705949342 22.919616382
   452   1 0.000000 7.987682762 5.811892894 22.919616382
   453   1 0.000000 30.453040529 15.074597193 22.919616382
   454   1 0.000000 25.959968975 1.180540744 22.919616382
   455   1 0.000000 15.850557980 15.074597193 22.919616382
   456   1 0.000000 11.357486427 1.180540744 22.919616382
   457   1 0.000000 21.466897422 15.619462151 21.937347109
   458   1 0.000000 16.973825868 1.725405703 21.937347109
   459   1 0.000000 6.864414873 15.619462151 21.937347109
   460   1 0.000000 2.371343320 1.725405703 21.937347109
   461   1 0.000000 21.466897422 19.161084383 23.901885656
   462   1 0.000000 16.973825868 5.267027935 23.901885656
   463   1 0.000000 6.864414873 19.161084383 23.901885656
   464   1 0.000000 2.371343320 5.267027935 23.901885656
   465   1 0.000000 24.836701087 14.529732234 23.901885656
   466   1 0.000000 20.343629533 0.635675785 23.901885656
   467   1 0.000000 10.234218538 14.529732234 23.901885656
   468   1 0.000000 5.741146985 0.635675785 23.901885656
   469   1 0.000000 31.014674473 26.108112608 23.901885656
   470   1 0.000000 26.521602919 12.214056159 23.901885656
   471   1 0.000000 16.412191924 26.108112608 23.901885656
   472   1 0.000000 11.919120371 12.214056159 23.901885656
   473   1 0.000000 34.384478138 21.476760458 23.901885656
   474   1 0.000000 29.891406584 7.582704010 23.901885656
   475   1 0.000000 19.781995589 21.476760458 23.901885656
   476   1 0.000000 15.288924036 7.582704010 23.901885656
   477   1 0.000000 36.631013915 26.652977566 22.919616382
   478   1 0.000000 32.137942361 12.758921118 22.919616382
   479   1 0.000000 22.028531366 26.652977566 22.919616382
   480   1 0.000000 17.535459813 12.758921118 22.919616382
   481   1 0.000000 25.398335031 25.563247649 24.884154929
   482   1 0.000000 20.905263478 11.669191200 24.884154929
   483   1 0.000000 10.795852482 25.563247649 24.884154929
   484   1 0.000000 6.302780929 11.669191200 24.884154929
   485   1 0.000000 28.768138696 20.931895499 24.884154929
   486   1 0.000000 24.275067143 7.037839051 24.884154929
   487   1 0.000000 14.165656148 20.931895499 24.884154929
   488   1 0.000000 9.672584594 7.037839051 24.884154929
   489   1 0.000000 32.137942361 16.300543350 24.884154929
   490   1 0.000000 27.644870808 2.406486901 24.884154929
   491   1 0.000000 17.535459813 16.300543350 24.884154929
   492   1 0.000000 13.042388259 2.406486901 24.884154929
   493   1 0.000000 23.151799254 16.845408309 23.901885656
   494   1 0.000000 18.658727701 2.951351860 23.901885656
   495   1 0.000000 8.549316706 16.845408309 23.901885656
   496   1 0.000000 4.056245152 2.951351860 23.901885656
   497   1 0.000000 25.398335031 22.021625417 22.919616382
   498   1 0.000000 20.905263478 8.127568968 22.919616382
   499   1 0.000000 10.795852482 22.021625417 22.919616382
   500   1 0.000000 6.302780929 8.127568968 22.919616382
   501   1 0.000000 28.768138696 17.390273267 22.919616382
   502   1 0.000000 24.275067143 3.496216819 22.919616382
   503   1 0.000000 14.165656148 17.390273267 22.919616382
   504   1 0.000000 9.672584594 3.496216819 22.919616382
   505   1 0.000000 28.206504752 25.835680128 24.393020292
   506   1 0.000000 23.713433199 11.941623680 24.393020292
   507   1 0.000000 13.604022203 25.835680128 24.393020292
   508   1 0.000000 9.110950650 11.941623680 24.393020292
   509   1 0.000000 31.576308417 21.204327979 24.393020292
   510   1 0.000000 27.083236864 7.310271530 24.393020292