   2   2   0   0
  0.2044415E+02  0.3866974E-09  0.3866975E-09  0.3866975E-09  0.5000000E-15
  1.000000000000000E-004
  CAR 
 unknown system                          
     17.30129049     -8.14713194  301      5.93103552      1.00000000
     -8.147  0.0000E+00  0.0000E+00
     -8.062  0.0000E+00  0.0000E+00
     -7.977  0.0000E+00  0.0000E+00
     -7.893  0.0000E+00  0.0000E+00
     -7.808  0.0000E+00  0.0000E+00
     -7.723  0.0000E+00  0.0000E+00
     -7.638  0.0000E+00  0.0000E+00
     -7.553  0.0000E+00  0.0000E+00
     -7.469  0.0000E+00  0.0000E+00
     -7.384  0.0000E+00  0.0000E+00
     -7.299  0.1787E-17  0.1516E-18
     -7.214  0.2746E-15  0.2345E-16
     -7.129  0.2388E-13  0.2049E-14
     -7.044  0.1481E-11  0.1277E-12
     -6.960  0.6565E-10  0.5697E-11
     -6.875  0.2091E-08  0.1831E-09
     -6.790  0.4806E-07  0.4260E-08
     -6.705  0.8002E-06  0.7214E-07
     -6.620  0.9685E-05  0.8937E-06
     -6.535  0.8546E-04  0.8143E-05
     -6.451  0.5517E-03  0.5494E-04
     -6.366  0.2622E-02  0.2774E-03
     -6.281  0.9284E-02  0.1065E-02
     -6.196  0.2500E-01  0.3185E-02
     -6.111  0.5279E-01  0.7663E-02
     -6.026  0.9073E-01  0.1536E-01
     -5.942  0.1318E+00  0.2654E-01
     -5.857  0.1686E+00  0.4084E-01
     -5.772  0.2007E+00  0.5786E-01
     -5.687  0.2319E+00  0.7753E-01
     -5.602  0.2595E+00  0.9954E-01
     -5.517  0.2773E+00  0.1231E+00
     -5.433  0.2925E+00  0.1479E+00
     -5.348  0.3194E+00  0.1750E+00
     -5.263  0.3539E+00  0.2050E+00
     -5.178  0.3742E+00  0.2367E+00
     -5.093  0.3744E+00  0.2685E+00
     -5.008  0.3777E+00  0.3005E+00
     -4.924  0.4087E+00  0.3352E+00
     -4.839  0.4593E+00  0.3742E+00
     -4.754  0.4919E+00  0.4159E+00
     -4.669  0.4864E+00  0.4572E+00
     -4.584  0.4707E+00  0.4971E+00
     -4.500  0.4866E+00  0.5384E+00
     -4.415  0.5396E+00  0.5841E+00
     -4.330  0.6003E+00  0.6351E+00
     -4.245  0.6411E+00  0.6894E+00
     -4.160  0.6531E+00  0.7448E+00
     -4.075  0.6510E+00  0.8001E+00
     -3.991  0.6737E+00  0.8572E+00
     -3.906  0.7482E+00  0.9207E+00
     -3.821  0.8453E+00  0.9924E+00
     -3.736  0.9002E+00  0.1069E+01
     -3.651  0.8801E+00  0.1143E+01
     -3.566  0.8137E+00  0.1212E+01
     -3.482  0.7599E+00  0.1277E+01
     -3.397  0.7460E+00  0.1340E+01
     -3.312  0.7444E+00  0.1403E+01
     -3.227  0.7270E+00  0.1465E+01
     -3.142  0.7030E+00  0.1525E+01
     -3.057  0.6765E+00  0.1582E+01
     -2.973  0.6277E+00  0.1635E+01
     -2.888  0.5592E+00  0.1683E+01
     -2.803  0.5097E+00  0.1726E+01
     -2.718  0.5057E+00  0.1769E+01
     -2.633  0.5212E+00  0.1813E+01
     -2.548  0.5000E+00  0.1855E+01
     -2.464  0.4218E+00  0.1891E+01
     -2.379  0.3268E+00  0.1919E+01
     -2.294  0.2642E+00  0.1941E+01
     -2.209  0.2401E+00  0.1962E+01
     -2.124  0.2259E+00  0.1981E+01
     -2.040  0.2000E+00  0.1998E+01
     -1.955  0.1681E+00  0.2012E+01
     -1.870  0.1482E+00  0.2025E+01
     -1.785  0.1536E+00  0.2038E+01
     -1.700  0.1953E+00  0.2054E+01
     -1.615  0.2788E+00  0.2078E+01
     -1.531  0.3861E+00  0.2111E+01
     -1.446  0.4778E+00  0.2151E+01
     -1.361  0.5414E+00  0.2197E+01
     -1.276  0.6240E+00  0.2250E+01
     -1.191  0.7823E+00  0.2316E+01
     -1.106  0.9996E+00  0.2401E+01
     -1.022  0.1180E+01  0.2501E+01
     -0.937  0.1234E+01  0.2606E+01
     -0.852  0.1151E+01  0.2704E+01
     -0.767  0.9887E+00  0.2788E+01
     -0.682  0.8178E+00  0.2857E+01
     -0.597  0.6889E+00  0.2915E+01
     -0.513  0.6255E+00  0.2968E+01
     -0.428  0.6226E+00  0.3021E+01
     -0.343  0.6433E+00  0.3076E+01
     -0.258  0.6267E+00  0.3129E+01
     -0.173  0.5457E+00  0.3175E+01
     -0.088  0.4550E+00  0.3214E+01
     -0.004  0.4211E+00  0.3250E+01
      0.081  0.4257E+00  0.3286E+01
      0.166  0.4091E+00  0.3320E+01
      0.251  0.3808E+00  0.3353E+01
      0.336  0.3911E+00  0.3386E+01
      0.421  0.4208E+00  0.3422E+01
      0.505  0.4026E+00  0.3456E+01
      0.590  0.3322E+00  0.3484E+01
      0.675  0.2692E+00  0.3507E+01
      0.760  0.2498E+00  0.3528E+01
      0.845  0.2569E+00  0.3550E+01
      0.929  0.2644E+00  0.3572E+01
      1.014  0.2736E+00  0.3595E+01
      1.099  0.2944E+00  0.3620E+01
      1.184  0.3209E+00  0.3648E+01
      1.269  0.3510E+00  0.3677E+01
      1.354  0.4125E+00  0.3712E+01
      1.438  0.5460E+00  0.3759E+01
      1.523  0.7567E+00  0.3823E+01
      1.608  0.9770E+00  0.3906E+01
      1.693  0.1103E+01  0.3999E+01
      1.778  0.1102E+01  0.4093E+01
      1.863  0.1057E+01  0.4182E+01
      1.947  0.1068E+01  0.4273E+01
      2.032  0.1130E+01  0.4369E+01
      2.117  0.1153E+01  0.4467E+01
      2.202  0.1107E+01  0.4560E+01
      2.287  0.1060E+01  0.4650E+01
      2.372  0.1067E+01  0.4741E+01
      2.456  0.1114E+01  0.4835E+01
      2.541  0.1167E+01  0.4934E+01
      2.626  0.1211E+01  0.5037E+01
      2.711  0.1256E+01  0.5144E+01
      2.796  0.1320E+01  0.5256E+01
      2.881  0.1408E+01  0.5375E+01
      2.965  0.1492E+01  0.5502E+01
      3.050  0.1548E+01  0.5633E+01
      3.135  0.1583E+01  0.5767E+01
      3.220  0.1588E+01  0.5902E+01
      3.305  0.1522E+01  0.6031E+01
      3.389  0.1407E+01  0.6150E+01
      3.474  0.1330E+01  0.6263E+01
      3.559  0.1316E+01  0.6375E+01
      3.644  0.1318E+01  0.6487E+01
      3.729  0.1312E+01  0.6598E+01
      3.814  0.1317E+01  0.6710E+01
      3.898  0.1335E+01  0.6823E+01
      3.983  0.1322E+01  0.6935E+01
      4.068  0.1282E+01  0.7044E+01
      4.153  0.1259E+01  0.7151E+01
      4.238  0.1246E+01  0.7256E+01
      4.323  0.1184E+01  0.7357E+01
      4.407  0.1071E+01  0.7448E+01
      4.492  0.9514E+00  0.7528E+01
      4.577  0.8298E+00  0.7599E+01
      4.662  0.7123E+00  0.7659E+01
      4.747  0.6334E+00  0.7713E+01
      4.832  0.5972E+00  0.7763E+01
      4.916  0.5635E+00  0.7811E+01
      5.001  0.5032E+00  0.7854E+01
      5.086  0.4225E+00  0.7890E+01
      5.171  0.3410E+00  0.7919E+01
      5.256  0.2710E+00  0.7942E+01
      5.341  0.2138E+00  0.7960E+01
      5.425  0.1675E+00  0.7974E+01
      5.510  0.1280E+00  0.7985E+01
      5.595  0.8975E-01  0.7993E+01
      5.680  0.5271E-01  0.7997E+01
      5.765  0.2424E-01  0.7999E+01
      5.850  0.8491E-02  0.8000E+01
      5.934  0.2667E-02  0.8000E+01
      6.019  0.2788E-02  0.8000E+01
      6.104  0.8643E-02  0.8001E+01
      6.189  0.2386E-01  0.8003E+01
      6.274  0.5312E-01  0.8008E+01
      6.358  0.9876E-01  0.8016E+01
      6.443  0.1567E+00  0.8029E+01
      6.528  0.2146E+00  0.8047E+01
      6.613  0.2617E+00  0.8070E+01
      6.698  0.3053E+00  0.8095E+01
      6.783  0.3663E+00  0.8127E+01
      6.867  0.4501E+00  0.8165E+01
      6.952  0.5431E+00  0.8211E+01
      7.037  0.6365E+00  0.8265E+01
      7.122  0.7187E+00  0.8326E+01
      7.207  0.7665E+00  0.8391E+01
      7.292  0.7827E+00  0.8457E+01
      7.376  0.8092E+00  0.8526E+01
      7.461  0.8803E+00  0.8600E+01
      7.546  0.9919E+00  0.8685E+01
      7.631  0.1112E+01  0.8779E+01
      7.716  0.1206E+01  0.8881E+01
      7.801  0.1274E+01  0.8989E+01
      7.885  0.1355E+01  0.9104E+01
      7.970  0.1477E+01  0.9230E+01
      8.055  0.1595E+01  0.9365E+01
      8.140  0.1647E+01  0.9505E+01
      8.225  0.1615E+01  0.9642E+01
      8.310  0.1505E+01  0.9769E+01
      8.394  0.1330E+01  0.9882E+01
      8.479  0.1146E+01  0.9979E+01
      8.564  0.1068E+01  0.1007E+02
      8.649  0.1168E+01  0.1017E+02
      8.734  0.1361E+01  0.1028E+02
      8.818  0.1511E+01  0.1041E+02
      8.903  0.1608E+01  0.1055E+02
      8.988  0.1702E+01  0.1069E+02
      9.073  0.1756E+01  0.1084E+02
      9.158  0.1699E+01  0.1099E+02
      9.243  0.1582E+01  0.1112E+02
      9.327  0.1546E+01  0.1125E+02
      9.412  0.1646E+01  0.1139E+02
      9.497  0.1795E+01  0.1154E+02
      9.582  0.1856E+01  0.1170E+02
      9.667  0.1757E+01  0.1185E+02
      9.752  0.1527E+01  0.1198E+02
      9.836  0.1290E+01  0.1209E+02
      9.921  0.1181E+01  0.1219E+02
     10.006  0.1223E+01  0.1229E+02
     10.091  0.1315E+01  0.1240E+02
     10.176  0.1347E+01  0.1252E+02
     10.261  0.1296E+01  0.1263E+02
     10.345  0.1205E+01  0.1273E+02
     10.430  0.1126E+01  0.1283E+02
     10.515  0.1087E+01  0.1292E+02
     10.600  0.1070E+01  0.1301E+02
     10.685  0.1047E+01  0.1310E+02
     10.770  0.1034E+01  0.1319E+02
     10.854  0.1079E+01  0.1328E+02
     10.939  0.1207E+01  0.1338E+02
     11.024  0.1394E+01  0.1350E+02
     11.109  0.1547E+01  0.1363E+02
     11.194  0.1570E+01  0.1376E+02
     11.278  0.1453E+01  0.1389E+02
     11.363  0.1280E+01  0.1399E+02
     11.448  0.1129E+01  0.1409E+02
     11.533  0.1013E+01  0.1418E+02
     11.618  0.9061E+00  0.1425E+02
     11.703  0.8145E+00  0.1432E+02
     11.787  0.7655E+00  0.1439E+02
     11.872  0.7639E+00  0.1445E+02
     11.957  0.7807E+00  0.1452E+02
     12.042  0.7826E+00  0.1458E+02
     12.127  0.7712E+00  0.1465E+02
     12.212  0.7921E+00  0.1472E+02
     12.296  0.8766E+00  0.1479E+02
     12.381  0.9932E+00  0.1488E+02
     12.466  0.1092E+01  0.1497E+02
     12.551  0.1139E+01  0.1507E+02
     12.636  0.1096E+01  0.1516E+02
     12.721  0.9464E+00  0.1524E+02
     12.805  0.7437E+00  0.1530E+02
     12.890  0.5635E+00  0.1535E+02
     12.975  0.4431E+00  0.1539E+02
     13.060  0.3905E+00  0.1542E+02
     13.145  0.4003E+00  0.1545E+02
     13.230  0.4455E+00  0.1549E+02
     13.314  0.4873E+00  0.1553E+02
     13.399  0.5050E+00  0.1558E+02
     13.484  0.5065E+00  0.1562E+02
     13.569  0.5084E+00  0.1566E+02
     13.654  0.5120E+00  0.1571E+02
     13.739  0.5015E+00  0.1575E+02
     13.823  0.4726E+00  0.1579E+02
     13.908  0.4465E+00  0.1583E+02
     13.993  0.4318E+00  0.1586E+02
     14.078  0.3944E+00  0.1590E+02
     14.163  0.3009E+00  0.1592E+02
     14.247  0.1763E+00  0.1594E+02
     14.332  0.7607E-01  0.1594E+02
     14.417  0.2368E-01  0.1594E+02
     14.502  0.5310E-02  0.1595E+02
     14.587  0.1203E-02  0.1595E+02
     14.672  0.2227E-02  0.1595E+02
     14.756  0.8774E-02  0.1595E+02
     14.841  0.2605E-01  0.1595E+02
     14.926  0.5679E-01  0.1595E+02
     15.011  0.9267E-01  0.1596E+02
     15.096  0.1162E+00  0.1597E+02
     15.181  0.1157E+00  0.1598E+02
     15.265  0.9478E-01  0.1599E+02
     15.350  0.6558E-01  0.1599E+02
     15.435  0.3814E-01  0.1600E+02
     15.520  0.1797E-01  0.1600E+02
     15.605  0.6541E-02  0.1600E+02
     15.690  0.1769E-02  0.1600E+02
     15.774  0.3466E-03  0.1600E+02
     15.859  0.4853E-04  0.1600E+02
     15.944  0.4819E-05  0.1600E+02
     16.029  0.3379E-06  0.1600E+02
     16.114  0.1669E-07  0.1600E+02
     16.199  0.5795E-09  0.1600E+02
     16.283  0.1414E-10  0.1600E+02
     16.368  0.2422E-12  0.1600E+02
     16.453  0.2902E-14  0.1600E+02
     16.538  0.2859E-16  0.1600E+02
     16.623  0.0000E+00  0.1600E+02
     16.707  0.0000E+00  0.1600E+02
     16.792  0.0000E+00  0.1600E+02
     16.877  0.0000E+00  0.1600E+02
     16.962  0.0000E+00  0.1600E+02
     17.047  0.0000E+00  0.1600E+02
     17.132  0.0000E+00  0.1600E+02
     17.216  0.0000E+00  0.1600E+02
     17.301  0.0000E+00  0.1600E+02
