    2    2    1    1
  0.2044415E+02  0.3866974E-09  0.3866975E-09  0.3866975E-09  0.5000000E-15
  1.000000000000000E-004
  CAR 
 unknown system                          
    8   84    8
 
  0.0000000E+00  0.0000000E+00  0.0000000E+00  0.4551661E-03
   1       -6.147132
   2        5.593623
   3        5.593623
   4        5.593625
   5        8.216263
   6        8.216266
   7        8.216268
   8        8.821520
 
  0.7692308E-01  0.1040834E-16  0.0000000E+00  0.3641329E-02
   1       -6.071113
   2        4.859472
   3        5.475981
   4        5.475983
   5        8.238466
   6        8.391453
   7        8.391456
   8        9.406814
 
  0.1538462E+00  0.2775558E-16  0.0000000E+00  0.3641329E-02
   1       -5.845095
   2        3.505325
   3        5.211831
   4        5.211833
   5        8.001885
   6        8.777702
   7        8.777705
   8       10.693945
 
  0.2307692E+00  0.2775558E-16  0.0000000E+00  0.3641329E-02
   1       -5.476614
   2        2.096624
   3        4.928491
   4        4.928493
   5        7.699019
   6        9.098417
   7        9.098420
   8       12.059045
 
  0.3076923E+00  0.4163336E-16  0.0000000E+00  0.3641329E-02
   1       -4.984610
   2        0.781390
   3        4.691948
   4        4.691951
   5        7.433382
   6        9.175704
   7        9.175707
   8       13.227400
 
  0.3846154E+00  0.5551115E-16  0.0000000E+00  0.3641329E-02
   1       -4.421064
   2       -0.345560
   3        4.527820
   4        4.527823
   5        7.244516
   6        9.096128
   7        9.096130
   8       13.491849
 
  0.4615385E+00  0.5551115E-16  0.0000000E+00  0.3641329E-02
   1       -3.952865
   2       -1.099092
   3        4.444634
   4        4.444637
   5        7.147579
   6        9.017898
   7        9.017900
   8       13.389774
 
  0.7692308E-01  0.7692308E-01  0.0000000E+00  0.2730997E-02
   1       -6.045662
   2        4.989945
   3        5.238072
   4        5.238072
   5        7.984684
   6        8.696440
   7        8.696440
   8        9.388931
 
  0.1538462E+00  0.7692308E-01  0.0000000E+00  0.1092399E-01
   1       -5.869275
   2        3.901521
   3        4.918630
   4        5.093090
   5        7.988715
   6        8.754978
   7        9.168963
   8       10.291098
 
  0.2307692E+00  0.7692308E-01  0.0000000E+00  0.1092399E-01
   1       -5.547262
   2        2.542875
   3        4.625288
   4        4.820339
   5        8.074421
   6        8.762960
   7        9.563784
   8       11.013474
 
  0.3076923E+00  0.7692308E-01  0.0000000E+00  0.1092399E-01
   1       -5.093469
   2        1.214206
   3        4.408032
   4        4.504807
   5        7.919070
   6        8.912947
   7        9.679117
   8       11.486432
 
  0.3846154E+00  0.7692308E-01  0.0000000E+00  0.1092399E-01
   1       -4.543993
   2        0.026210
   3        4.224860
   4        4.285914
   5        7.736305
   6        8.927913
   7        9.557528
   8       12.327743
 
  0.4615385E+00  0.7692308E-01  0.0000000E+00  0.1092399E-01
   1       -4.010677
   2       -0.879319
   3        4.013465
   4        4.263286
   5        7.619272
   6        8.909473
   7        9.375858
   8       13.287168
 
 -0.4615385E+00  0.7692308E-01  0.0000000E+00  0.1092399E-01
   1       -3.815791
   2       -1.167599
   3        3.887111
   4        4.336583
   5        7.590856
   6        8.963803
   7        9.243877
   8       13.624774
 
 -0.3846154E+00  0.7692308E-01  0.0000000E+00  0.1092399E-01
   1       -4.173584
   2       -0.621780
   3        3.856631
   4        4.497042
   5        7.655400
   6        9.110333
   7        9.190272
   8       13.502119
 
 -0.3076923E+00  0.7692308E-01  0.0000000E+00  0.1092399E-01
   1       -4.734620
   2        0.402583
   3        3.929902
   4        4.730688
   5        7.808842
   6        9.169283
   7        9.294250
   8       12.775889
 
 -0.2307692E+00  0.7692308E-01  0.0000000E+00  0.1092399E-01
   1       -5.258712
   2        1.646177
   3        4.112317
   4        5.014168
   5        8.037851
   6        9.048520
   7        9.350112
   8       11.901238
 
 -0.1538462E+00  0.7692308E-01  0.0000000E+00  0.1092399E-01
   1       -5.670728
   2        2.982554
   3        4.410636
   4        5.301182
   5        8.307797
   6        8.737997
   7        9.058668
   8       11.114830
 
 -0.7692308E-01  0.7692308E-01  0.0000000E+00  0.5461994E-02
   1       -5.944941
   2        4.200349
   3        4.878188
   4        5.496864
   5        8.425431
   6        8.511419
   7        8.539304
   8       10.147612
 
  0.1538462E+00  0.1538462E+00  0.0000000E+00  0.2730997E-02
   1       -5.742581
   2        3.791412
   3        4.565989
   4        4.565989
   5        7.470419
   6        9.737391
   7        9.737391
   8        9.941447
 
  0.2307692E+00  0.1538462E+00  0.0000000E+00  0.1092399E-01
   1       -5.468516
   2        2.803878
   3        4.253664
   4        4.276791
   5        7.461595
   6        9.575077
   7       10.206552
   8       10.262008
 
  0.3076923E+00  0.1538462E+00  0.0000000E+00  0.1092399E-01
   1       -5.057024
   2        1.594613
   3        3.899220
   4        4.028799
   5        7.684356
   6        9.594411
   7       10.132931
   8       10.504553
 
  0.3846154E+00  0.1538462E+00  0.0000000E+00  0.1092399E-01
   1       -4.533312
   2        0.423109
   3        3.508315
   4        3.910982
   5        7.748685
   6        9.667971
   7       10.423268
   8       10.550815
 
  0.4615385E+00  0.1538462E+00  0.0000000E+00  0.1092399E-01
   1       -3.971343
   2       -0.563075
   3        3.178896
   4        3.905984
   5        7.741977
   6        9.547071
   7       10.200032
   8       11.649951
 
 -0.4615385E+00  0.1538462E+00  0.0000000E+00  0.1092399E-01
   1       -3.613530
   2       -1.091468
   3        2.944564
   4        4.011077
   5        7.800593
   6        9.481032
   7        9.981618
   8       12.989458
 
 -0.3846154E+00  0.1538462E+00  0.0000000E+00  0.1092399E-01
   1       -3.816612
   2       -0.796527
   3        2.825574
   4        4.216145
   5        7.958046
   6        9.508111
   7        9.820620
   8       13.618390
 
 -0.3076923E+00  0.1538462E+00  0.0000000E+00  0.1092399E-01
   1       -4.353096
   2        0.084819
   3        2.841597
   4        4.501647
   5        8.197372
   6        9.608575
   7        9.686792
   8       12.482375
 
 -0.2307692E+00  0.1538462E+00  0.0000000E+00  0.1092399E-01
   1       -4.900699
   2        1.186105
   3        3.029713
   4        4.831711
   5        8.471352
   6        9.451646
   7        9.632251
   8       11.550478
 
 -0.1538462E+00  0.1538462E+00  0.0000000E+00  0.5461994E-02
   1       -5.351477
   2        2.245957
   3        3.507976
   4        5.137929
   5        8.657987
   6        9.050770
   7        9.277753
   8       11.220350
 
  0.2307692E+00  0.2307692E+00  0.0000000E+00  0.2730997E-02
   1       -5.242153
   2        2.458564
   3        3.918896
   4        3.918896
   5        6.934536
   6        9.082674
   7       10.986049
   8       10.986049
 
  0.3076923E+00  0.2307692E+00  0.0000000E+00  0.1092399E-01
   1       -4.875123
   2        1.614682
   3        3.526728
   4        3.672415
   5        6.975489
   6        8.714220
   7       11.256861
   8       11.468542
 
  0.3846154E+00  0.2307692E+00  0.0000000E+00  0.1092399E-01
   1       -4.384953
   2        0.631967
   3        2.996613
   4        3.536881
   5        7.202669
   6        8.962504
   7       11.138209
   8       11.532025
 
  0.4615385E+00  0.2307692E+00  0.0000000E+00  0.1092399E-01
   1       -3.820347
   2       -0.306153
   3        2.504548
   4        3.520533
   5        7.284415
   6        9.887878
   7       10.969199
   8       11.331765
 
 -0.4615385E+00  0.2307692E+00  0.0000000E+00  0.1092399E-01
   1       -3.348387
   2       -0.969203
   3        2.133880
   4        3.622843
   5        7.385812
   6       10.737261
   7       11.071172
   8       11.292395
 
 -0.3846154E+00  0.2307692E+00  0.0000000E+00  0.1092399E-01
   1       -3.372544
   2       -0.930488
   3        1.921475
   4        3.835479
   5        7.597628
   6       10.698229
   7       10.830715
   8       12.749390
 
 -0.3076923E+00  0.2307692E+00  0.0000000E+00  0.1092399E-01
   1       -3.860347
   2       -0.246810
   3        1.914591
   4        4.139486
   5        7.917988
   6       10.564853
   7       10.660176
   8       12.338685
 
 -0.2307692E+00  0.2307692E+00  0.0000000E+00  0.5461994E-02
   1       -4.419592
   2        0.569290
   3        2.233148
   4        4.496747
   5        8.283892
   6       10.084510
   7       10.366691
   8       11.511973
 
  0.3076923E+00  0.3076923E+00  0.0000000E+00  0.2730997E-02
   1       -4.552032
   2        1.103770
   3        3.398943
   4        3.398943
   5        6.521385
   6        8.002329
   7       12.331155
   8       12.331155
 
  0.3846154E+00  0.3076923E+00  0.0000000E+00  0.1092399E-01
   1       -4.099596
   2        0.366016
   3        2.978002
   4        3.235681
   5        6.634659
   6        7.780769
   7       12.631526
   8       12.734966
 
  0.4615385E+00  0.3076923E+00  0.0000000E+00  0.1092399E-01
   1       -3.549542
   2       -0.399369
   3        2.343343
   4        3.193777
   5        6.830495
   6        8.333966
   7       12.539220
   8       12.657704
 
 -0.4615385E+00  0.3076923E+00  0.0000000E+00  0.1092399E-01
   1       -3.011234
   2       -1.044013
   3        1.780084
   4        3.275052
   5        6.948999
   6        9.503848
   7       12.383741
   8       12.394428
 
 -0.3846154E+00  0.3076923E+00  0.0000000E+00  0.1092399E-01
   1       -2.874898
   2       -1.183562
   3        1.435054
   4        3.473557
   5        7.165172
   6       10.927945
   7       12.069137
   8       12.281074
 
 -0.3076923E+00  0.3076923E+00  0.0000000E+00  0.5461994E-02
   1       -3.307084
   2       -0.722023
   3        1.429712
   4        3.773159
   5        7.504473
   6       11.507516
   7       11.716850
   8       12.510051
 
  0.3846154E+00  0.3846154E+00  0.0000000E+00  0.2730997E-02
   1       -3.684186
   2       -0.226780
   3        3.040891
   4        3.040891
   5        6.301285
   6        7.151877
   7       13.735256
   8       13.735256
 
  0.4615385E+00  0.3846154E+00  0.0000000E+00  0.1092399E-01
   1       -3.158308
   2       -0.883055
   3        2.649972
   4        2.967085
   5        6.478967
   6        7.139846
   7       14.053396
   8       14.063530
 
 -0.4615385E+00  0.3846154E+00  0.0000000E+00  0.1092399E-01
   1       -2.590616
   2       -1.471139
   3        2.016626
   4        3.018500
   5        6.629945
   6        8.021803
   7       13.852618
   8       13.993384
 
 -0.3846154E+00  0.3846154E+00  0.0000000E+00  0.5461994E-02
   1       -2.424274
   2       -1.594922
   3        1.520105
   4        3.191604
   5        6.830842
   6        9.378443
   7       13.267411
   8       13.768392
 
  0.4615385E+00  0.4615385E+00  0.0000000E+00  0.2730997E-02
   1       -2.656242
   2       -1.492928
   3        2.859077
   4        2.859077
   5        6.314791
   6        6.591023
   7       15.143945
   8       15.143945
 
 -0.4615385E+00  0.4615385E+00  0.0000000E+00  0.5461994E-02
   1       -2.113745
   2       -2.034549
   3        2.541071
   4        2.876605
   5        6.465262
   6        6.885013
   7       15.120418
   8       15.301290
 
  0.2307692E+00  0.1538462E+00  0.7692308E-01  0.1092399E-01
   1       -5.644278
   2        3.163175
   3        4.198195
   4        5.002304
   5        7.995560
   6        9.047820
   7        9.570854
   8       10.575303
 
  0.3076923E+00  0.1538462E+00  0.7692308E-01  0.2184797E-01
   1       -5.277379
   2        2.026831
   3        3.707743
   4        4.773165
   5        8.228743
   6        9.039337
   7        9.982718
   8       10.612248
 
  0.3846154E+00  0.1538462E+00  0.7692308E-01  0.2184797E-01
   1       -4.786940
   2        0.812464
   3        3.433800
   4        4.479525
   5        8.255788
   6        9.025318
   7       10.091074
   8       11.050450
 
  0.4615385E+00  0.1538462E+00  0.7692308E-01  0.2184797E-01
   1       -4.223486
   2       -0.271438
   3        3.284688
   4        4.229820
   5        8.166707
   6        8.912637
   7       10.022882
   8       12.015435
 
 -0.4615385E+00  0.1538462E+00  0.7692308E-01  0.2184797E-01
   1       -3.751850
   2       -1.011247
   3        3.222284
   4        4.086966
   5        8.107071
   6        8.813485
   7        9.949045
   8       13.229271
 
  0.3076923E+00  0.2307692E+00  0.7692308E-01  0.1092399E-01
   1       -5.148497
   2        2.066005
   3        3.549385
   4        4.193940
   5        7.484091
   6        9.359553
   7       10.270247
   8       10.872690
 
  0.3846154E+00  0.2307692E+00  0.7692308E-01  0.2184797E-01
   1       -4.697341
   2        1.080085
   3        3.057689
   4        3.944938
   5        7.778631
   6        9.457394
   7       10.060498
   8       11.254624
 
  0.4615385E+00  0.2307692E+00  0.7692308E-01  0.2184797E-01
   1       -4.149103
   2        0.056600
   3        2.729127
   4        3.718318
   5        7.909278
   6        9.769363
   7       10.236274
   8       11.279307
 
 -0.4615385E+00  0.2307692E+00  0.7692308E-01  0.2184797E-01
   1       -3.611849
   2       -0.777693
   3        2.492242
   4        3.628629
   5        7.982323
   6        9.505322
   7       11.176340
   8       11.463538
 
 -0.3846154E+00  0.2307692E+00  0.7692308E-01  0.2184797E-01
   1       -3.417572
   2       -1.044294
   3        2.340177
   4        3.699625
   5        8.134356
   6        9.313148
   7       11.091357
   8       12.877638
 
 -0.3076923E+00  0.2307692E+00  0.7692308E-01  0.2184797E-01
   1       -3.788818
   2       -0.514788
   3        2.303320
   4        3.909106
   5        8.384819
   6        9.201542
   7       11.032078
   8       11.871709
 
 -0.2307692E+00  0.2307692E+00  0.7692308E-01  0.2184797E-01
   1       -4.351387
   2        0.399177
   3        2.436771
   4        4.214594
   5        8.692863
   6        9.095026
   7       10.722290
   8       11.024741
 
 -0.1538462E+00  0.2307692E+00  0.7692308E-01  0.1092399E-01
   1       -4.870766
   2        1.332101
   3        2.861572
   4        4.545674
   5        8.705459
   6        8.991864
   7       10.372361
   8       10.587336
 
  0.3846154E+00  0.3076923E+00  0.7692308E-01  0.1092399E-01
   1       -4.466355
   2        0.907656
   3        3.039383
   4        3.466690
   5        7.079567
   6        8.386357
   7       11.352276
   8       12.272393
 
  0.4615385E+00  0.3076923E+00  0.7692308E-01  0.2184797E-01
   1       -3.945090
   2        0.096768
   3        2.519057
   4        3.247920
   5        7.394633
   6        8.684428
   7       11.116093
   8       12.634894
 
 -0.4615385E+00  0.3076923E+00  0.7692308E-01  0.2184797E-01
   1       -3.380188
   2       -0.676232
   3        2.048843
   4        3.181574
   5        7.527478
   6        9.698027
   7       10.846320
   8       12.611167
 
 -0.3846154E+00  0.3076923E+00  0.7692308E-01  0.2184797E-01
   1       -3.025072
   2       -1.108907
   3        1.717593
   4        3.278943
   5        7.694522
   6       10.479290
   7       11.195282
   8       12.481929
 
 -0.3076923E+00  0.3076923E+00  0.7692308E-01  0.2184797E-01
   1       -3.270124
   2       -0.807727
   3        1.595278
   4        3.513381
   5        7.973765
   6       10.311768
   7       11.810791
   8       12.291698
 
 -0.2307692E+00  0.3076923E+00  0.7692308E-01  0.1092399E-01
   1       -3.816164
   2       -0.154279
   3        1.790479
   4        3.847607
   5        8.347444
   6        9.904371
   7       10.894872
   8       11.886912
 
  0.4615385E+00  0.3846154E+00  0.7692308E-01  0.1092399E-01
   1       -3.612056
   2       -0.294167
   3        2.706991
   4        2.943054
   5        6.852528
   6        7.594375
   7       12.589037
   8       13.721824
 
 -0.4615385E+00  0.3846154E+00  0.7692308E-01  0.2184797E-01
   1       -3.045930
   2       -0.947474
   3        2.149655
   4        2.835420
   5        7.150133
   6        8.191804
   7       12.322314
   8       14.058535
 
 -0.3846154E+00  0.3846154E+00  0.7692308E-01  0.2184797E-01
   1       -2.582786
   2       -1.415707
   3        1.620112
   4        2.932184
   5        7.316215
   6        9.448361
   7       12.040522
   8       13.415464
 
 -0.3076923E+00  0.3846154E+00  0.7692308E-01  0.1092399E-01
   1       -2.747896
   2       -1.237161
   3        1.376558
   4        3.168643
   5        7.588820
   6       10.874181
   7       11.697013
   8       12.131866
 
 -0.4615385E+00  0.4615385E+00  0.7692308E-01  0.1092399E-01
   1       -2.607535
   2       -1.485794
   3        2.571655
   4        2.646618
   5        6.843814
   6        7.083123
   7       13.911527
   8       15.004219
 
 -0.3846154E+00  0.4615385E+00  0.7692308E-01  0.1092399E-01
   1       -2.152739
   2       -1.893801
   3        2.018156
   4        2.703880
   5        7.066943
   6        8.026957
   7       13.546168
   8       13.749081
 
  0.4615385E+00  0.3076923E+00  0.1538462E+00  0.1092399E-01
   1       -4.214881
   2        0.427171
   3        2.374806
   4        3.650107
   5        8.338109
   6        9.418321
   7        9.776301
   8       12.109968
 
 -0.4615385E+00  0.3076923E+00  0.1538462E+00  0.2184797E-01
   1       -3.654089
   2       -0.344288
   3        2.002435
   4        3.334734
   5        8.700146
   6        9.397305
   7       10.139706
   8       12.510709
 
 -0.3846154E+00  0.3076923E+00  0.1538462E+00  0.2184797E-01
   1       -3.167923
   2       -0.975025
   3        1.857600
   4        3.144659
   5        8.858492
   6        9.099631
   7       11.406218
   8       12.581871
 
 -0.4615385E+00  0.3846154E+00  0.1538462E+00  0.1092399E-01
   1       -3.405699
   2       -0.508193
   3        2.095769
   4        2.842609
   5        8.118391
   6        8.719490
   7       10.793890
   8       13.679938
 
 -0.3846154E+00  0.3846154E+00  0.1538462E+00  0.2184797E-01
   1       -2.857158
   2       -1.095909
   3        1.757335
   4        2.622254
   5        8.454666
   6        9.638787
   7       10.510000
   8       13.112157
 
 -0.3076923E+00  0.3846154E+00  0.1538462E+00  0.2184797E-01
   1       -2.671469
   2       -1.283881
   3        1.550667
   4        2.675658
   5        8.676670
   6       10.089786
   7       11.154625
   8       11.623883
 
 -0.2307692E+00  0.3846154E+00  0.1538462E+00  0.1092399E-01
   1       -3.097943
   2       -0.849587
   3        1.597035
   4        2.940679
   5        8.995323
   6        9.711915
   7       10.338059
   8       12.878333
 
 -0.3846154E+00  0.4615385E+00  0.1538462E+00  0.1092399E-01
   1       -2.479264
   2       -1.490934
   3        2.059015
   4        2.299656
   5        8.090004
   6        8.282371
   7       11.993217
   8       13.345799
 
 -0.3076923E+00  0.4615385E+00  0.1538462E+00  0.1092399E-01
   1       -2.207799
   2       -1.715830
   3        1.688748
   4        2.344571
   5        8.368746
   6        9.528790
   7       11.638713
   8       11.793100
 
 -0.3076923E+00  0.4615385E+00  0.2307692E+00  0.1092399E-01
   1       -2.323928
   2       -1.563211
   3        1.708346
   4        2.166557
   5        9.662873
   6        9.667860
   7       10.329902
   8       11.451628
