       N       E                     dE             d eps       ncg     rms          rms(c)
DAV:   1     0.845195865841E+01    0.84520E+01   -0.32907E+03  1344   0.833E+02
DAV:   2    -0.819910402196E+01   -0.16651E+02   -0.15988E+02  2088   0.787E+01
DAV:   3    -0.841381091758E+01   -0.21471E+00   -0.21471E+00  1728   0.116E+01
DAV:   4    -0.841473624850E+01   -0.92533E-03   -0.92533E-03  2152   0.842E-01
DAV:   5    -0.841473713311E+01   -0.88461E-06   -0.88420E-06  1832   0.234E-02    0.374E+00
DAV:   6    -0.836144887867E+01    0.53288E-01   -0.88842E-02  1632   0.176E+00    0.229E+00
DAV:   7    -0.835613179738E+01    0.53171E-02   -0.20252E-01  1752   0.263E+00    0.186E-01
DAV:   8    -0.833939233137E+01    0.16739E-01   -0.61748E-03  1664   0.546E-01    0.982E-02
DAV:   9    -0.834103889568E+01   -0.16466E-02   -0.58659E-04  1896   0.162E-01    0.728E-02
DAV:  10    -0.834034170454E+01    0.69719E-03   -0.38862E-05  1768   0.535E-02    0.288E-02
DAV:  11    -0.834030817277E+01    0.33532E-04   -0.76982E-07  1920   0.802E-03    0.294E-03
DAV:  12    -0.834030730067E+01    0.87209E-06   -0.72563E-08  1688   0.268E-03    0.886E-04
DAV:  13    -0.834030362620E+01    0.36745E-05   -0.22153E-09  1072   0.422E-04    0.567E-05
DAV:  14    -0.834030339888E+01    0.22731E-06   -0.24171E-10   896   0.166E-04    0.173E-05
DAV:  15    -0.834030316446E+01    0.23443E-06   -0.22962E-11   856   0.422E-05    0.105E-05
DAV:  16    -0.834030321264E+01   -0.48179E-07   -0.50545E-12   768   0.196E-05
   1 F= -.83403032E+01 E0= -.83402841E+01  d E =-.834030E+01
