
:LABEL1: Calculations in /mnt/wk22/subhasish/Fe-SC/PM/FeSe
:LABEL2: on rupc05 at Wed Apr  3 19:48:28 EDT 2019
:LABEL3: using WIEN2k_14.2 (Release 15/10/2014) in /home/subhasish/softwares/wien2k_14
:LABEL4: using the command: run_lapw -ec 0.0001 -cc 0.0001


            ---------
:ITE001:  1. ITERATION
            ---------

:NATO :    2 INDEPENDENT AND    4 TOTAL ATOMS IN UNITCELL
       SUBSTANCE: FeSe                                                        

       LATTICE                      = P   
:POT  : POTENTIAL OPTION EX_PBE EC_PBE VX_PBE VC_PBE
:LAT  : LATTICE CONSTANTS=  7.12881  7.12881 10.43450    1.571    1.571    1.571
:VOL  : UNIT CELL VOLUME =     530.28024
       MODE OF CALCULATION IS       = RELA
       NON-SPINPOLARIZED CALCULATION
:IFFT  : FFT-parameters:   60   60   80 Factor: 2.00
       ATOMNUMBER=  1 Fe         VCOUL-ZERO =  0.24503E+00
:EFG001:                        EFG         =    -0.08929   *10**21  V / m**2
                               V20  TOT/SRF=    -0.07733    -0.11298
                               V22  TOT/SRF=     0.00000     0.00000
                               V22M TOT/SRF=     0.00000     0.00000
                               V21  TOT/SRF=     0.00000     0.00000
                               V21M TOT/SRF=     0.00000     0.00000

              0.04464    0.00000    0.00000        0.04464    0.00000    0.00000
              0.00000    0.04464    0.00000        0.00000    0.04464    0.00000
              0.00000    0.00000   -0.08929        0.00000    0.00000   -0.08929

         MAIN DIRECTIONS OF THE EFG   1.0000  0.0000  0.0000
                                      0.0000  1.0000  0.0000
                                      0.0000  0.0000  1.0000
:ANG001:  ANGLE WITH OLD X-AXIS =         0.0

:ETA001:                         ASYMM. ETA =     0.00000


       ATOMNUMBER=  2 Se         VCOUL-ZERO =  0.18770E+00
:EFG002:                        EFG         =     0.03124   *10**21  V / m**2
                               V20  TOT/SRF=     0.02705     0.04127
                               V22  TOT/SRF=     0.00000     0.00000
                               V22M TOT/SRF=     0.00000     0.00000
                               V21  TOT/SRF=     0.00000     0.00000
                               V21M TOT/SRF=     0.00000     0.00000

             -0.01562    0.00000    0.00000       -0.01562    0.00000    0.00000
              0.00000   -0.01562    0.00000        0.00000   -0.01562    0.00000
              0.00000    0.00000    0.03124        0.00000    0.00000    0.03124

         MAIN DIRECTIONS OF THE EFG   1.0000  0.0000  0.0000
                                      0.0000  1.0000  0.0000
                                      0.0000  0.0000  1.0000
:ANG002:  ANGLE WITH OLD X-AXIS =         0.0

:ETA002:                         ASYMM. ETA =     0.00000


     HELLMANN-FEYNMAN-FORCE IN mRy/a.u. = |F|  Fx       Fy             Fz
:FHF001:   1.ATOM      0.000000000      0.000000000      0.000000000      0.000000000

     HELLMANN-FEYNMAN-FORCE IN mRy/a.u. = |F|  Fx       Fy             Fz
:FHF002:   2.ATOM   1743.787463376      0.000000000      0.000000000   1743.787463376

:FIT001: LUSE= 13 SIGMA OF V-XC FIT FOR ATOM  1  0.6116393E-02
:FIT001: LUSE= 13 SIGMA OF V-XC FIT FOR ATOM  1  0.6116393E-02
:FIT002: LUSE= 13 SIGMA OF V-XC FIT FOR ATOM  2  0.1329910E-02
:FIT002: LUSE= 13 SIGMA OF V-XC FIT FOR ATOM  2  0.1329910E-02
:DEN  : DENSITY INTEGRAL  =         -6231.07918503   (Ry)
       ELS_POTENTIAL_AT Z=0 and Z=0.5:  -0.76396   0.71097
       ELS_POTENTIAL_AT Y=0 and Y=0.5:   0.00000   0.00000
:VZERO:v0,v0c,v0x  -1.62899  -0.76396  -0.86503 v5,v5c,v5x   0.21388   0.71097  -0.49709
:VZERY:v0,v0c,v0x  -0.71660   0.00000  -0.71660 v5,v5c,v5x  -0.71660   0.00000  -0.71660
:VZERX:v0,v0c,v0x   0.10837   0.75553  -0.64716 v5,v5c,v5x   0.10837   0.75553  -0.64716

          ATOMIC SPHERE DEPENDENT PARAMETERS FOR ATOM  Fe        
:e__0001: OVERALL ENERGY PARAMETER IS    0.3000
          OVERALL BASIS SET ON ATOM IS LAPW
:E0_0001: E( 0)=    0.3000
             APW+lo
:E0_0001: E( 0)=   -5.9427   E(BOTTOM)=   -5.962   E(TOP)=   -5.924  2  3   156
             LOCAL ORBITAL
:E1_0001: E( 1)=    0.3000
             APW+lo
:E1_0001: E( 1)=   -3.4638   E(BOTTOM)=   -3.516   E(TOP)=   -3.411  1  2   149
             LOCAL ORBITAL
:E2_0001: E( 2)=    0.3227   E(BOTTOM)=    0.030   E(TOP)=    0.615  0  1   131
             APW+lo

          ATOMIC SPHERE DEPENDENT PARAMETERS FOR ATOM  Se        
:e__0002: OVERALL ENERGY PARAMETER IS    0.3000
          OVERALL BASIS SET ON ATOM IS LAPW
:E2_0002: E( 2)=    0.3000
             APW+lo
:E2_0002: E( 2)=   -3.1147   E(BOTTOM)=   -3.140   E(TOP)=   -3.089  0  1   147
             LOCAL ORBITAL
:E0_0002: E( 0)=   -0.3053   E(BOTTOM)=   -1.471   E(TOP)=    0.860  3  4   226
             APW+lo
:E0_0002: E( 0)=    0.7000
             LOCAL ORBITAL
:E1_0002: E( 1)=    0.3000
             APW+lo

       K=   0.04545   0.04545   0.07143            1
:RKM  : MATRIX SIZE   357LOs:  56  RKM= 7.00  WEIGHT= 8.00  PGR:    
       EIGENVALUES ARE:
:EIG00001:      -5.9400830   -5.9381302   -3.4591984   -3.4589950   -3.4500986
:EIG00006:      -3.4498685   -3.4498370   -3.4478668   -3.1088494   -3.1088176
:EIG00011:      -3.1086533   -3.1086458   -3.1085054   -3.1083929   -3.1081585
:EIG00016:      -3.1078994   -3.1072194   -3.1071599   -0.6666379   -0.5793022
:EIG00021:      -0.0239433    0.1089078    0.1228131    0.1275283    0.1645979
:EIG00026:       0.1694717    0.2196044    0.3610919    0.3628254    0.4036515
:EIG00031:       0.4191611    0.4193921    0.4618224    0.4769445    0.5595191
:EIG00036:       0.5714878    0.6176825    0.7740272    0.8341803    0.9025712
:EIG00041:       0.9100064    0.9352073    1.2764759    1.2895272    1.3411566
:EIG00046:       1.3700230    1.3735021    1.3812950    1.4278410    1.4638661
 
:EIG00051:       1.4904418    1.5097541    1.6108085    1.6212130    1.7213827
:EIG00056:       1.7578513    1.8483927    1.9831686    1.9947560
       ********************************************************

:KPT   :      NUMBER OF K-POINTS:    84
:GAP  : -99999.   Ry = -9999.    eV  ( metallic )
         Bandranges (emin - emax) and occupancy:
:BAN00024:  24    0.098489    0.156028  2.00000000
:BAN00025:  25    0.129123    0.186159  2.00000000
:BAN00026:  26    0.149651    0.190725  2.00000000
:BAN00027:  27    0.219604    0.311014  2.00000000
:BAN00028:  28    0.270682    0.366166  2.00000000
:BAN00029:  29    0.277955    0.368377  2.00000000
:BAN00030:  30    0.277955    0.406737  2.00000000
:BAN00031:  31    0.349086    0.419278  1.87096216
:BAN00032:  32    0.349086    0.425790  1.85065692
:BAN00033:  33    0.393657    0.500614  0.15901073
:BAN00034:  34    0.395260    0.500614  0.11937019
:BAN00035:  35    0.481405    0.559519  0.00000000
:BAN00036:  36    0.481405    0.571488  0.00000000
:BAN00037:  37    0.617683    0.873892  0.00000000
:BAN00038:  38    0.731533    0.879072  0.00000000
:BAN00039:  39    0.807206    0.992468  0.00000000
        Energy to separate low and high energystates:   -0.07548


:NOE  : NUMBER OF ELECTRONS          =  64.000

:FER  : F E R M I - ENERGY(TETRAH.M.)=   0.4097378679
:GMA  : POTENTIAL AND CHARGE CUT-OFF  12.00 Ry**.5




:POS001: ATOM   -1 X,Y,Z = 0.25000 0.75000 0.00000  MULT= 2  ZZ= 26.000  Fe        

       LMMAX  8
       LM=   0 0  2 0 -3 2  4 0  4 4 -5 2  6 0  6 4

:CHA001: TOTAL VALENCE CHARGE INSIDE SPHERE   1 =  14.9241    (RMT=  2.3100 )
:PCS001: PARTIAL CHARGES SPHERE =  1 S,P,D,F,PZ,PXY,,D-Z2,D-XY,D-X2Y2,D-XZ,YZ 
:QTL001: 2.3383 6.3697 6.1793 0.0291 2.0995 4.2703 0.0000 1.4083 1.2783 1.1378 2.3549 0.0000
        Q-s-low E-s-low   Q-p-low E-p-low   Q-d-low E-d-low   Q-f-low E-f-low
:EPL001:  2.0549 -5.7934    6.0350 -3.4271    0.0490 -0.6228    0.0054 -0.7439
        Q-s-hi  E-s-hi    Q-p-hi  E-p-hi    Q-d-hi  E-d-hi    Q-f-hi  E-f-hi 
:EPH001:  0.2834  0.0423    0.3347  0.1617    6.1303  0.2932    0.0236  0.1779
:VZZ001: EFG INSIDE SPHERE   1 =    -1.765550      UP TO R =   2.31000




:POS002: ATOM   -2 X,Y,Z = 0.25000 0.25000 0.26730  MULT= 2  ZZ= 34.000  Se        

       LMMAX 10
       LM=   0 0  1 0  2 0  3 0  4 0  4 4  5 0  5 4  6 0  6 4

:CHA002: TOTAL VALENCE CHARGE INSIDE SPHERE   2 =  13.8307    (RMT=  2.1900 )
:PCS002: PARTIAL CHARGES SPHERE =  2 S,P,D,F,PZ,PXY,,D-Z2,D-XY,D-X2Y2,D-XZ,YZ 
:QTL002: 1.4811 2.251510.0763 0.0175 0.7725 1.4790 0.0000 2.0152 2.0137 2.0128 4.0347 0.0000
        Q-s-low E-s-low   Q-p-low E-p-low   Q-d-low E-d-low   Q-f-low E-f-low
:EPL002:  1.3595 -0.5996    0.0260 -0.6893    9.9858 -3.1082    0.0004 -2.9267
        Q-s-hi  E-s-hi    Q-p-hi  E-p-hi    Q-d-hi  E-d-hi    Q-f-hi  E-f-hi 
:EPH002:  0.1216  0.1245    2.2255  0.1214    0.0905  0.2239    0.0171  0.3113
:VZZ002: EFG INSIDE SPHERE   2 =    -5.547499      UP TO R =   2.19000

:CHA  : TOTAL VALENCE CHARGE INSIDE UNIT CELL =      64.000000

:SUM  : SUM OF EIGENVALUES =        -124.555501181


        1.ATOM      Fe                    4 CORE STATES
:1S 001: 1S                -513.305528541 Ry
:2S 001: 2S                 -59.214151125 Ry
:2PP001: 2P*                -50.917514785 Ry
:2P 001: 2P                 -50.000026810 Ry

        2.ATOM      Se                    7 CORE STATES
       CORE-FORCE in mRy/a.u. = |F|      Fx             Fy             Fz
:FCO002:   2.ATOM    976.268751428      0.000000000      0.000000000   -976.268751428

:1S 002: 1S                -918.000394814 Ry
:2S 002: 2S                -117.269615234 Ry
:2PP002: 2P*               -105.116578475 Ry
:2P 002: 2P                -102.047288257 Ry
:3S 002: 3S                 -14.890050642 Ry
:3PP002: 3P*                -10.735086772 Ry
:3P 002: 3P                 -10.303760101 Ry
:CINT001 Core Integral Atom   1   10.000000
:CINT002 Core Integral Atom   2   17.999762

       DENSITY AT NUCLEUS
        JATOM        VALENCE       SEMI-CORE          CORE           TOTAL
:RTO001:   1      186.193885        0.000000    14701.135086    14887.328971
:RTO002:   2       54.700118        0.000000    39111.879190    39166.579308
     
       CHARGES OF NEW CHARGE DENSITY
:NTO   : INTERSTITIAL CHARGE =     6.490380
:NTO001: CHARGE SPHERE  1    =    24.924083
:NTO002: CHARGE SPHERE  2    =    31.830480

:NEC01: NUCLEAR AND ELECTRONIC CHARGE    120.00000   119.99951
     
       CHARGES OF OLD CHARGE DENSITY
:OTO   : INTERSTITIAL CHARGE =     6.326065
:OTO001: CHARGE SPHERE  1    =    24.949812
:OTO002: CHARGE SPHERE  2    =    31.888641

:NEC02: NUCLEAR AND ELECTRONIC CHARGE    120.00000   120.00297
     
       CONVERGENCE TEST
:DTO001: DIFFERENCE IN SPHERE  1 =  0.4370179
:DTO002: DIFFERENCE IN SPHERE  2 =  0.1008773

:DIS  :  CHARGE DISTANCE       ( 0.4370179 for atom    1 spin 1)      0.2689476
:BIG check (qbig,qrms,qtot)    0.146D+00   0.224D+00   0.269D+00
 
******************************************************
* MULTISECANT MIXING VER6 RELEASE 6.0 OPTIONS        *
* Standard Mode with controls                        *
* Regularization       1.000E-06                     *
* Trust Region Control Active                        *
* Max Number of Memory Steps    8                    *
******************************************************
 
:PLANE:  INTERSTITIAL TOTAL      1.57295 DISTAN  3.430E+01 % 
:CHARG:  CLM CHARGE   /ATOM    163.31205 DISTAN  5.357E-01 % 
:DIRM :  MEMORY  0/ 8 RESCALES   1.00
:MIX  :   PRATT  REGULARIZATION: 1.00E-06  GREED: 0.025
     
       CHARGES OF MIXED CHARGE DENSITY
:CTO   : INTERSTITIAL CHARGE =     6.327287
:CTO001: CHARGE SPHERE  1    =    24.949169
:CTO002: CHARGE SPHERE  2    =    31.887187

:NEC03: NUCLEAR AND ELECTRONIC CHARGE    120.00000   120.00000

PW CHANGE     H    K    L       Current     Change     Residue
:PTO001:      0    0    0  4.51834168E-02 -1.750E-04 -7.000E-03
:PTO002:      0    0   -1  1.93732314E-02 -8.890E-05 -3.556E-03
:PTO004:     -1    0   -1 -1.03569184E-01  4.973E-04  1.989E-02
:PTO005:      0    0   -2 -1.02269317E-02 -1.962E-05 -7.847E-04
:PTO006:     -1   -1    0 -2.02813784E-02 -6.892E-05 -2.757E-03
:PTO007:     -1   -1   -1  3.92014165E-02 -6.182E-04 -2.473E-02
:PTO008:     -1    0   -2  1.16896975E-02 -1.481E-04 -5.925E-03
:PTO009:     -1   -1   -2  5.16154110E-02 -8.212E-04 -3.285E-02
:PTO010:     -2    0    0 -2.47747058E-02  4.056E-04  1.622E-02
:PTO011:      0    0   -3  6.17145705E-03 -1.415E-04 -5.658E-03
:PTO012:     -2    0   -1 -1.03002583E-02  4.255E-04  1.702E-02
:PTO014:     -1    0   -3  1.90267588E-02 -3.115E-04 -1.246E-02

:ENE  : ********** TOTAL ENERGY IN Ry =       -14812.23896911

       TOTAL FORCE IN mRy/a.u. = |F|     Fx             Fy             Fz     with/without FOR in case.in2
:FOR001:   1.ATOM          0.000          0.000          0.000          0.000 partial forces
:FOR002:   2.ATOM        767.519          0.000          0.000        767.519 partial forces
       TOTAL FORCE WITH RESPECT TO GLOBAL CARTESIAN COORDINATES:
:FCA001:   1.ATOM                         0.000          0.000          0.000 partial forces
:FCA002:   2.ATOM                         0.000          0.000        767.519 partial forces
       TOTAL FORCE WITH RESPECT TO THE GLOBAL COORDINATE SYSTEM:
:FGL001:   1.ATOM                 0.000000000     0.000000000     0.000000000 partial forces
:FGL002:   2.ATOM                 0.000000000     0.000000000   767.518711948 partial forces


            ---------
:ITE002:  2. ITERATION
            ---------

:NATO :    2 INDEPENDENT AND    4 TOTAL ATOMS IN UNITCELL
       SUBSTANCE: FeSe                                                        

       LATTICE                      = P   
:POT  : POTENTIAL OPTION EX_PBE EC_PBE VX_PBE VC_PBE
:LAT  : LATTICE CONSTANTS=  7.12881  7.12881 10.43450    1.571    1.571    1.571
:VOL  : UNIT CELL VOLUME =     530.28024
       MODE OF CALCULATION IS       = RELA
       NON-SPINPOLARIZED CALCULATION
:IFFT  : FFT-parameters:   60   60   80 Factor: 2.00
       ATOMNUMBER=  1 Fe         VCOUL-ZERO =  0.24865E+00
:EFG001:                        EFG         =    -0.12886   *10**21  V / m**2
                               V20  TOT/SRF=    -0.11160    -0.10764
                               V22  TOT/SRF=     0.00000     0.00000
                               V22M TOT/SRF=     0.00000     0.00000
                               V21  TOT/SRF=     0.00000     0.00000
                               V21M TOT/SRF=     0.00000     0.00000

              0.06443    0.00000    0.00000        0.06443    0.00000    0.00000
              0.00000    0.06443    0.00000        0.00000    0.06443    0.00000
              0.00000    0.00000   -0.12886        0.00000    0.00000   -0.12886

         MAIN DIRECTIONS OF THE EFG   1.0000  0.0000  0.0000
                                      0.0000  1.0000  0.0000
                                      0.0000  0.0000  1.0000
:ANG001:  ANGLE WITH OLD X-AXIS =         0.0

:ETA001:                         ASYMM. ETA =     0.00000


       ATOMNUMBER=  2 Se         VCOUL-ZERO =  0.18720E+00
:EFG002:                        EFG         =    -0.10809   *10**21  V / m**2
                               V20  TOT/SRF=    -0.09361     0.03971
                               V22  TOT/SRF=     0.00000     0.00000
                               V22M TOT/SRF=     0.00000     0.00000
                               V21  TOT/SRF=     0.00000     0.00000
                               V21M TOT/SRF=     0.00000     0.00000

              0.05404    0.00000    0.00000        0.05404    0.00000    0.00000
              0.00000    0.05404    0.00000        0.00000    0.05404    0.00000
              0.00000    0.00000   -0.10809        0.00000    0.00000   -0.10809

         MAIN DIRECTIONS OF THE EFG   1.0000  0.0000  0.0000
                                      0.0000  1.0000  0.0000
                                      0.0000  0.0000  1.0000
:ANG002:  ANGLE WITH OLD X-AXIS =         0.0

:ETA002:                         ASYMM. ETA =     0.00000


     HELLMANN-FEYNMAN-FORCE IN mRy/a.u. = |F|  Fx       Fy             Fz
:FHF001:   1.ATOM      0.000000000      0.000000000      0.000000000      0.000000000

     HELLMANN-FEYNMAN-FORCE IN mRy/a.u. = |F|  Fx       Fy             Fz
:FHF002:   2.ATOM   1645.958076028      0.000000000      0.000000000   1645.958076028

:FIT001: LUSE= 13 SIGMA OF V-XC FIT FOR ATOM  1  0.6063540E-02
:FIT001: LUSE= 13 SIGMA OF V-XC FIT FOR ATOM  1  0.6063540E-02
:FIT002: LUSE= 13 SIGMA OF V-XC FIT FOR ATOM  2  0.1291888E-02
:FIT002: LUSE= 13 SIGMA OF V-XC FIT FOR ATOM  2  0.1291888E-02
:DEN  : DENSITY INTEGRAL  =         -6230.61105787   (Ry)
       ELS_POTENTIAL_AT Z=0 and Z=0.5:  -0.75764   0.70557
       ELS_POTENTIAL_AT Y=0 and Y=0.5:   0.00000   0.00000
:VZERO:v0,v0c,v0x  -1.62158  -0.75764  -0.86394 v5,v5c,v5x   0.20948   0.70557  -0.49608
:VZERY:v0,v0c,v0x  -0.71598   0.00000  -0.71598 v5,v5c,v5x  -0.71598   0.00000  -0.71598
:VZERX:v0,v0c,v0x   0.10690   0.75484  -0.64794 v5,v5c,v5x   0.10690   0.75484  -0.64794

          ATOMIC SPHERE DEPENDENT PARAMETERS FOR ATOM  Fe        
:e__0001: OVERALL ENERGY PARAMETER IS    0.2323
          OVERALL BASIS SET ON ATOM IS LAPW
:E0_0001: E( 0)=    0.2323
             APW+lo
:E0_0001: E( 0)=   -5.9467   E(BOTTOM)=   -5.966   E(TOP)=   -5.928  2  3   158
             LOCAL ORBITAL
:E1_0001: E( 1)=    0.2323
             APW+lo
:E1_0001: E( 1)=   -3.4674   E(BOTTOM)=   -3.520   E(TOP)=   -3.415  1  2   149
             LOCAL ORBITAL
:E2_0001: E( 2)=    0.3204   E(BOTTOM)=    0.029   E(TOP)=    0.612  0  1   132
             APW+lo

          ATOMIC SPHERE DEPENDENT PARAMETERS FOR ATOM  Se        
:e__0002: OVERALL ENERGY PARAMETER IS    0.2323
          OVERALL BASIS SET ON ATOM IS LAPW
:E2_0002: E( 2)=    0.2323
             APW+lo
:E2_0002: E( 2)=   -3.1175   E(BOTTOM)=   -3.143   E(TOP)=   -3.092  0  1   142
             LOCAL ORBITAL
:E0_0002: E( 0)=   -0.3067   E(BOTTOM)=   -1.472   E(TOP)=    0.858  3  4   219
             APW+lo
:E0_0002: E( 0)=    0.6323
             LOCAL ORBITAL
:E1_0002: E( 1)=    0.2323
             APW+lo

       K=   0.04545   0.04545   0.07143            1
:RKM  : MATRIX SIZE   357LOs:  56  RKM= 7.00  WEIGHT= 8.00  PGR:    
       EIGENVALUES ARE:
:EIG00001:      -5.9441048   -5.9421618   -3.4628326   -3.4626305   -3.4537811
:EIG00006:      -3.4535522   -3.4534060   -3.4514464   -3.1115673   -3.1115355
:EIG00011:      -3.1113714   -3.1113643   -3.1112065   -3.1110950   -3.1109587
:EIG00016:      -3.1107002   -3.1100239   -3.1099639   -0.6667852   -0.5796638
:EIG00021:      -0.0247355    0.1083041    0.1220297    0.1267135    0.1641492
:EIG00026:       0.1689942    0.2184196    0.3585633    0.3605546    0.4014650
:EIG00031:       0.4167518    0.4170251    0.4598431    0.4741060    0.5575274
:EIG00036:       0.5690290    0.6172022    0.7728240    0.8329833    0.9020317
:EIG00041:       0.9096657    0.9344413    1.2746455    1.2893853    1.3399230
:EIG00046:       1.3691384    1.3735408    1.3804363    1.4270437    1.4634069
 
:EIG00051:       1.4889679    1.5088872    1.6093870    1.6195538    1.7210201
:EIG00056:       1.7573472    1.8483756
       ********************************************************

:KPT   :      NUMBER OF K-POINTS:    84
:GAP  : -99999.   Ry = -9999.    eV  ( metallic )
         Bandranges (emin - emax) and occupancy:
:BAN00024:  24    0.097611    0.155353  2.00000000
:BAN00025:  25    0.128145    0.185907  2.00000000
:BAN00026:  26    0.149040    0.190421  2.00000000
:BAN00027:  27    0.218420    0.309405  2.00000000
:BAN00028:  28    0.268991    0.363578  2.00000000
:BAN00029:  29    0.277555    0.366081  2.00000000
:BAN00030:  30    0.277555    0.405021  2.00000000
:BAN00031:  31    0.347134    0.416790  1.87152241
:BAN00032:  32    0.347134    0.423642  1.85019294
:BAN00033:  33    0.391211    0.498232  0.15865570
:BAN00034:  34    0.392797    0.498232  0.11962010
:BAN00035:  35    0.478630    0.557527  0.00000000
:BAN00036:  36    0.478630    0.569029  0.00000000
:BAN00037:  37    0.617202    0.872888  0.00000000
:BAN00038:  38    0.730606    0.878157  0.00000000
:BAN00039:  39    0.805421    0.991430  0.00000000
        Energy to separate low and high energystates:   -0.07560


:NOE  : NUMBER OF ELECTRONS          =  64.000

:FER  : F E R M I - ENERGY(TETRAH.M.)=   0.4074271589
:GMA  : POTENTIAL AND CHARGE CUT-OFF  12.00 Ry**.5




:POS001: ATOM   -1 X,Y,Z = 0.25000 0.75000 0.00000  MULT= 2  ZZ= 26.000  Fe        

       LMMAX  8
       LM=   0 0  2 0 -3 2  4 0  4 4 -5 2  6 0  6 4

:CHA001: TOTAL VALENCE CHARGE INSIDE SPHERE   1 =  14.9323    (RMT=  2.3100 )
:PCS001: PARTIAL CHARGES SPHERE =  1 S,P,D,F,PZ,PXY,,D-Z2,D-XY,D-X2Y2,D-XZ,YZ 
:QTL001: 2.3372 6.3676 6.1911 0.0288 2.0991 4.2685 0.0000 1.4103 1.2797 1.1412 2.3598 0.0000
        Q-s-low E-s-low   Q-p-low E-p-low   Q-d-low E-d-low   Q-f-low E-f-low
:EPL001:  2.0545 -5.7985    6.0347 -3.4309    0.0487 -0.6232    0.0054 -0.7442
        Q-s-hi  E-s-hi    Q-p-hi  E-p-hi    Q-d-hi  E-d-hi    Q-f-hi  E-f-hi 
:EPH001:  0.2827  0.0419    0.3329  0.1609    6.1423  0.2914    0.0235  0.1764
:VZZ001: EFG INSIDE SPHERE   1 =    -1.752978      UP TO R =   2.31000




:POS002: ATOM   -2 X,Y,Z = 0.25000 0.25000 0.26730  MULT= 2  ZZ= 34.000  Se        

       LMMAX 10
       LM=   0 0  1 0  2 0  3 0  4 0  4 4  5 0  5 4  6 0  6 4

:CHA002: TOTAL VALENCE CHARGE INSIDE SPHERE   2 =  13.8293    (RMT=  2.1900 )
:PCS002: PARTIAL CHARGES SPHERE =  2 S,P,D,F,PZ,PXY,,D-Z2,D-XY,D-X2Y2,D-XZ,YZ 
:QTL002: 1.4808 2.251710.0752 0.0173 0.7726 1.4791 0.0000 2.0149 2.0136 2.0127 4.0340 0.0000
        Q-s-low E-s-low   Q-p-low E-p-low   Q-d-low E-d-low   Q-f-low E-f-low
:EPL002:  1.3618 -0.5999    0.0249 -0.6922    9.9858 -3.1110    0.0004 -2.9271
        Q-s-hi  E-s-hi    Q-p-hi  E-p-hi    Q-d-hi  E-d-hi    Q-f-hi  E-f-hi 
:EPH002:  0.1190  0.1236    2.2268  0.1204    0.0894  0.2237    0.0169  0.3098
:VZZ002: EFG INSIDE SPHERE   2 =    -5.560410      UP TO R =   2.19000

:CHA  : TOTAL VALENCE CHARGE INSIDE UNIT CELL =      63.999991

:SUM  : SUM OF EIGENVALUES =        -124.702249743


        1.ATOM      Fe                    4 CORE STATES
:1S 001: 1S                -513.315646940 Ry
:2S 001: 2S                 -59.223551050 Ry
:2PP001: 2P*                -50.927087954 Ry
:2P 001: 2P                 -50.009582626 Ry

        2.ATOM      Se                    7 CORE STATES
       CORE-FORCE in mRy/a.u. = |F|      Fx             Fy             Fz
:FCO002:   2.ATOM    932.478601524      0.000000000      0.000000000   -932.478601524

:1S 002: 1S                -918.004455912 Ry
:2S 002: 2S                -117.273290798 Ry
:2PP002: 2P*               -105.120321666 Ry
:2P 002: 2P                -102.051021935 Ry
:3S 002: 3S                 -14.892904939 Ry
:3PP002: 3P*                -10.737926362 Ry
:3P 002: 3P                 -10.306579741 Ry
:CINT001 Core Integral Atom   1   10.000000
:CINT002 Core Integral Atom   2   17.999762

       DENSITY AT NUCLEUS
        JATOM        VALENCE       SEMI-CORE          CORE           TOTAL
:RTO001:   1      186.269333        0.000000    14701.163604    14887.432936
:RTO002:   2       54.689662        0.000000    39111.911460    39166.601123
     
       CHARGES OF NEW CHARGE DENSITY
:NTO   : INTERSTITIAL CHARGE =     6.476664
:NTO001: CHARGE SPHERE  1    =    24.932319
:NTO002: CHARGE SPHERE  2    =    31.829098

:NEC01: NUCLEAR AND ELECTRONIC CHARGE    120.00000   119.99950
     
       CHARGES OF OLD CHARGE DENSITY
:OTO   : INTERSTITIAL CHARGE =     6.327287
:OTO001: CHARGE SPHERE  1    =    24.949169
:OTO002: CHARGE SPHERE  2    =    31.887187

:NEC02: NUCLEAR AND ELECTRONIC CHARGE    120.00000   120.00000
     
       CONVERGENCE TEST
:DTO001: DIFFERENCE IN SPHERE  1 =  0.3971473
:DTO002: DIFFERENCE IN SPHERE  2 =  0.0962119

:DIS  :  CHARGE DISTANCE       ( 0.3971473 for atom    1 spin 1)      0.2466796
:BIG check (qbig,qrms,qtot)    0.132D+00   0.204D+00   0.247D+00
 
******************************************************
* MULTISECANT MIXING VER6 RELEASE 6.0 OPTIONS        *
* Standard Mode with controls                        *
* Regularization       1.000E-06                     *
* Trust Region Control Active                        *
* Max Number of Memory Steps    8                    *
******************************************************
 
:PLANE:  INTERSTITIAL TOTAL      1.56292 DISTAN  3.368E+01 % 
:CHARG:  CLM CHARGE   /ATOM    163.30814 DISTAN  5.037E-01 % 
 
 Step History DMIX, Red, Pred, Trust, FRMS, FABS
  2  2.5000E-02  1.0000E+00  1.0000E+00  1.0000E+00
  
:DIRM :  MEMORY  1/ 8 RESCALES   3.18
:MIX  :   PRATT  REGULARIZATION: 1.00E-06  GREED: 0.062  Expand 2.50  0.06                
     
       CHARGES OF MIXED CHARGE DENSITY
:CTO   : INTERSTITIAL CHARGE =     6.339871
:CTO001: CHARGE SPHERE  1    =    24.947239
:CTO002: CHARGE SPHERE  2    =    31.882825

:NEC03: NUCLEAR AND ELECTRONIC CHARGE    120.00000   120.00000

PW CHANGE     H    K    L       Current     Change     Residue
:PTO001:      0    0    0  4.46584241E-02 -5.250E-04 -6.892E-03
:PTO002:      0    0   -1  1.91065363E-02 -2.667E-04 -3.620E-03
:PTO004:     -1    0   -1 -1.02077423E-01  1.492E-03  1.941E-02
:PTO005:      0    0   -2 -1.02857840E-02 -5.885E-05 -7.859E-04
:PTO006:     -1   -1    0 -2.04881266E-02 -2.067E-04 -2.677E-03
:PTO007:     -1   -1   -1  3.73468270E-02 -1.855E-03 -2.403E-02
:PTO008:     -1    0   -2  1.12453373E-02 -4.444E-04 -5.670E-03
:PTO009:     -1   -1   -2  4.91518058E-02 -2.464E-03 -3.203E-02
:PTO010:     -2    0    0 -2.35580499E-02  1.217E-03  1.580E-02
:PTO011:      0    0   -3  5.74710245E-03 -4.244E-04 -5.495E-03
:PTO012:     -2    0   -1 -9.02383011E-03  1.276E-03  1.658E-02
:PTO014:     -1    0   -3  1.80921125E-02 -9.346E-04 -1.217E-02

:ENE  : ********** TOTAL ENERGY IN Ry =       -14812.23152451

       TOTAL FORCE IN mRy/a.u. = |F|     Fx             Fy             Fz     with/without FOR in case.in2
:FOR001:   1.ATOM          0.000          0.000          0.000          0.000 partial forces
:FOR002:   2.ATOM        713.479          0.000          0.000        713.479 partial forces
       TOTAL FORCE WITH RESPECT TO GLOBAL CARTESIAN COORDINATES:
:FCA001:   1.ATOM                         0.000          0.000          0.000 partial forces
:FCA002:   2.ATOM                         0.000          0.000        713.479 partial forces
       TOTAL FORCE WITH RESPECT TO THE GLOBAL COORDINATE SYSTEM:
:FGL001:   1.ATOM                 0.000000000     0.000000000     0.000000000 partial forces
:FGL002:   2.ATOM                 0.000000000     0.000000000   713.479474504 partial forces


            ---------
:ITE003:  3. ITERATION
            ---------

:NATO :    2 INDEPENDENT AND    4 TOTAL ATOMS IN UNITCELL
       SUBSTANCE: FeSe                                                        

       LATTICE                      = P   
:POT  : POTENTIAL OPTION EX_PBE EC_PBE VX_PBE VC_PBE
:LAT  : LATTICE CONSTANTS=  7.12881  7.12881 10.43450    1.571    1.571    1.571
:VOL  : UNIT CELL VOLUME =     530.28024
       MODE OF CALCULATION IS       = RELA
       NON-SPINPOLARIZED CALCULATION
:IFFT  : FFT-parameters:   60   60   80 Factor: 2.00
       ATOMNUMBER=  1 Fe         VCOUL-ZERO =  0.25991E+00
:EFG001:                        EFG         =    -0.24751   *10**21  V / m**2
                               V20  TOT/SRF=    -0.21435    -0.09154
                               V22  TOT/SRF=     0.00000     0.00000
                               V22M TOT/SRF=     0.00000     0.00000
                               V21  TOT/SRF=     0.00000     0.00000
                               V21M TOT/SRF=     0.00000     0.00000

              0.12376    0.00000    0.00000        0.12376    0.00000    0.00000
              0.00000    0.12376    0.00000        0.00000    0.12376    0.00000
              0.00000    0.00000   -0.24751        0.00000    0.00000   -0.24751

         MAIN DIRECTIONS OF THE EFG   1.0000  0.0000  0.0000
                                      0.0000  1.0000  0.0000
                                      0.0000  0.0000  1.0000
:ANG001:  ANGLE WITH OLD X-AXIS =         0.0

:ETA001:                         ASYMM. ETA =     0.00000


       ATOMNUMBER=  2 Se         VCOUL-ZERO =  0.18611E+00
:EFG002:                        EFG         =    -0.52604   *10**21  V / m**2
                               V20  TOT/SRF=    -0.45556     0.03505
                               V22  TOT/SRF=     0.00000     0.00000
                               V22M TOT/SRF=     0.00000     0.00000
                               V21  TOT/SRF=     0.00000     0.00000
                               V21M TOT/SRF=     0.00000     0.00000

              0.26302    0.00000    0.00000        0.26302    0.00000    0.00000
              0.00000    0.26302    0.00000        0.00000    0.26302    0.00000
              0.00000    0.00000   -0.52604        0.00000    0.00000   -0.52604

         MAIN DIRECTIONS OF THE EFG   1.0000  0.0000  0.0000
                                      0.0000  1.0000  0.0000
                                      0.0000  0.0000  1.0000
:ANG002:  ANGLE WITH OLD X-AXIS =         0.0

:ETA002:                         ASYMM. ETA =     0.00000


     HELLMANN-FEYNMAN-FORCE IN mRy/a.u. = |F|  Fx       Fy             Fz
:FHF001:   1.ATOM      0.000000000      0.000000000      0.000000000      0.000000000

     HELLMANN-FEYNMAN-FORCE IN mRy/a.u. = |F|  Fx       Fy             Fz
:FHF002:   2.ATOM   1351.483225382      0.000000000      0.000000000   1351.483225382

:FIT001: LUSE= 13 SIGMA OF V-XC FIT FOR ATOM  1  0.5920277E-02
:FIT001: LUSE= 13 SIGMA OF V-XC FIT FOR ATOM  1  0.5920277E-02
:FIT002: LUSE= 13 SIGMA OF V-XC FIT FOR ATOM  2  0.1172896E-02
:FIT002: LUSE= 13 SIGMA OF V-XC FIT FOR ATOM  2  0.1172896E-02
:DEN  : DENSITY INTEGRAL  =         -6229.25710819   (Ry)
       ELS_POTENTIAL_AT Z=0 and Z=0.5:  -0.73929   0.68967
       ELS_POTENTIAL_AT Y=0 and Y=0.5:   0.00000   0.00000
:VZERO:v0,v0c,v0x  -1.60019  -0.73929  -0.86090 v5,v5c,v5x   0.19638   0.68967  -0.49328
:VZERY:v0,v0c,v0x  -0.71438   0.00000  -0.71438 v5,v5c,v5x  -0.71438   0.00000  -0.71438
:VZERX:v0,v0c,v0x   0.10295   0.75348  -0.65053 v5,v5c,v5x   0.10295   0.75348  -0.65053

          ATOMIC SPHERE DEPENDENT PARAMETERS FOR ATOM  Fe        
:e__0001: OVERALL ENERGY PARAMETER IS    0.2136
          OVERALL BASIS SET ON ATOM IS LAPW
:E0_0001: E( 0)=    0.2136
             APW+lo
:E0_0001: E( 0)=   -5.9584   E(BOTTOM)=   -5.977   E(TOP)=   -5.940  2  3   148
             LOCAL ORBITAL
:E1_0001: E( 1)=    0.2136
             APW+lo
:E1_0001: E( 1)=   -3.4778   E(BOTTOM)=   -3.529   E(TOP)=   -3.426  1  2   149
             LOCAL ORBITAL
:E2_0001: E( 2)=    0.3141   E(BOTTOM)=    0.026   E(TOP)=    0.602  0  1   126
             APW+lo

          ATOMIC SPHERE DEPENDENT PARAMETERS FOR ATOM  Se        
:e__0002: OVERALL ENERGY PARAMETER IS    0.2136
          OVERALL BASIS SET ON ATOM IS LAPW
:E2_0002: E( 2)=    0.2136
             APW+lo
:E2_0002: E( 2)=   -3.1253   E(BOTTOM)=   -3.151   E(TOP)=   -3.100  0  1   139
             LOCAL ORBITAL
:E0_0002: E( 0)=   -0.3104   E(BOTTOM)=   -1.475   E(TOP)=    0.854  3  4   215
             APW+lo
:E0_0002: E( 0)=    0.6136
             LOCAL ORBITAL
:E1_0002: E( 1)=    0.2136
             APW+lo

       K=   0.04545   0.04545   0.07143            1
:RKM  : MATRIX SIZE   357LOs:  56  RKM= 7.00  WEIGHT= 8.00  PGR:    
       EIGENVALUES ARE:
:EIG00001:      -5.9557778   -5.9538626   -3.4733465   -3.4731481   -3.4644372
:EIG00006:      -3.4642121   -3.4637239   -3.4617958   -3.1193114   -3.1192797
:EIG00011:      -3.1191168   -3.1191114   -3.1189466   -3.1189018   -3.1187926
:EIG00016:      -3.1186911   -3.1180263   -3.1179640   -0.6669832   -0.5804867
:EIG00021:      -0.0267437    0.1067790    0.1199766    0.1245657    0.1630561
:EIG00026:       0.1678208    0.2151714    0.3513209    0.3540664    0.3952175
:EIG00031:       0.4096698    0.4104604    0.4542025    0.4659533    0.5516830
:EIG00036:       0.5619781    0.6161656    0.7695328    0.8295755    0.9006716
:EIG00041:       0.9088944    0.9323491    1.2691058    1.2889697    1.3362768
:EIG00046:       1.3664449    1.3718616    1.3796442    1.4247600    1.4621304
 
:EIG00051:       1.4844175    1.5061767    1.6050170    1.6144806    1.7197849
:EIG00056:       1.7556391    1.8480983
       ********************************************************

:KPT   :      NUMBER OF K-POINTS:    84
:GAP  : -99999.   Ry = -9999.    eV  ( metallic )
         Bandranges (emin - emax) and occupancy:
:BAN00024:  24    0.095242    0.153611  2.00000000
:BAN00025:  25    0.126602    0.185413  2.00000000
:BAN00026:  26    0.147489    0.189773  2.00000000
:BAN00027:  27    0.215171    0.304885  2.00000000
:BAN00028:  28    0.264245    0.356139  2.00000000
:BAN00029:  29    0.275293    0.359525  2.00000000
:BAN00030:  30    0.275555    0.400169  2.00000000
:BAN00031:  31    0.341610    0.409675  1.87413307
:BAN00032:  32    0.341610    0.417542  1.84789916
:BAN00033:  33    0.384224    0.491411  0.15770514
:BAN00034:  34    0.385760    0.491411  0.12027738
:BAN00035:  35    0.470652    0.551683  0.00000000
:BAN00036:  36    0.470652    0.561978  0.00000000
:BAN00037:  37    0.616166    0.870118  0.00000000
:BAN00038:  38    0.728075    0.875599  0.00000000
:BAN00039:  39    0.800350    0.988487  0.00000000
        Energy to separate low and high energystates:   -0.07674


:NOE  : NUMBER OF ELECTRONS          =  64.000

:FER  : F E R M I - ENERGY(TETRAH.M.)=   0.4008330360
:GMA  : POTENTIAL AND CHARGE CUT-OFF  12.00 Ry**.5




:POS001: ATOM   -1 X,Y,Z = 0.25000 0.75000 0.00000  MULT= 2  ZZ= 26.000  Fe        

       LMMAX  8
       LM=   0 0  2 0 -3 2  4 0  4 4 -5 2  6 0  6 4

:CHA001: TOTAL VALENCE CHARGE INSIDE SPHERE   1 =  14.9567    (RMT=  2.3100 )
:PCS001: PARTIAL CHARGES SPHERE =  1 S,P,D,F,PZ,PXY,,D-Z2,D-XY,D-X2Y2,D-XZ,YZ 
:QTL001: 2.3338 6.3613 6.2259 0.0282 2.0980 4.2633 0.0000 1.4163 1.2836 1.1514 2.3746 0.0000
        Q-s-low E-s-low   Q-p-low E-p-low   Q-d-low E-d-low   Q-f-low E-f-low
:EPL001:  2.0531 -5.8133    6.0337 -3.4419    0.0478 -0.6241    0.0053 -0.7454
        Q-s-hi  E-s-hi    Q-p-hi  E-p-hi    Q-d-hi  E-d-hi    Q-f-hi  E-f-hi 
:EPH001:  0.2807  0.0410    0.3275  0.1589    6.1781  0.2864    0.0230  0.1723
:VZZ001: EFG INSIDE SPHERE   1 =    -1.733048      UP TO R =   2.31000




:POS002: ATOM   -2 X,Y,Z = 0.25000 0.25000 0.26730  MULT= 2  ZZ= 34.000  Se        

       LMMAX 10
       LM=   0 0  1 0  2 0  3 0  4 0  4 4  5 0  5 4  6 0  6 4

:CHA002: TOTAL VALENCE CHARGE INSIDE SPHERE   2 =  13.8250    (RMT=  2.1900 )
:PCS002: PARTIAL CHARGES SPHERE =  2 S,P,D,F,PZ,PXY,,D-Z2,D-XY,D-X2Y2,D-XZ,YZ 
:QTL002: 1.4799 2.252210.0718 0.0169 0.7728 1.4793 0.0000 2.0142 2.0132 2.0125 4.0319 0.0000
        Q-s-low E-s-low   Q-p-low E-p-low   Q-d-low E-d-low   Q-f-low E-f-low
:EPL002:  1.3687 -0.6005    0.0217 -0.7028    9.9859 -3.1188    0.0004 -2.9306
        Q-s-hi  E-s-hi    Q-p-hi  E-p-hi    Q-d-hi  E-d-hi    Q-f-hi  E-f-hi 
:EPH002:  0.1112  0.1214    2.2305  0.1176    0.0860  0.2235    0.0165  0.3053
:VZZ002: EFG INSIDE SPHERE   2 =    -5.584625      UP TO R =   2.19000

:CHA  : TOTAL VALENCE CHARGE INSIDE UNIT CELL =      64.000015

:SUM  : SUM OF EIGENVALUES =        -125.119678774


        1.ATOM      Fe                    4 CORE STATES
:1S 001: 1S                -513.345605087 Ry
:2S 001: 2S                 -59.251353574 Ry
:2PP001: 2P*                -50.955410293 Ry
:2P 001: 2P                 -50.037852906 Ry

        2.ATOM      Se                    7 CORE STATES
       CORE-FORCE in mRy/a.u. = |F|      Fx             Fy             Fz
:FCO002:   2.ATOM    800.585673932      0.000000000      0.000000000   -800.585673932

:1S 002: 1S                -918.016229149 Ry
:2S 002: 2S                -117.283907435 Ry
:2PP002: 2P*               -105.131141185 Ry
:2P 002: 2P                -102.061812915 Ry
:3S 002: 3S                 -14.901057833 Ry
:3PP002: 3P*                -10.746035183 Ry
:3P 002: 3P                 -10.314628721 Ry
:CINT001 Core Integral Atom   1   10.000000
:CINT002 Core Integral Atom   2   17.999763

       DENSITY AT NUCLEUS
        JATOM        VALENCE       SEMI-CORE          CORE           TOTAL
:RTO001:   1      186.466055        0.000000    14701.249166    14887.715222
:RTO002:   2       54.654644        0.000000    39112.008269    39166.662912
     
       CHARGES OF NEW CHARGE DENSITY
:NTO   : INTERSTITIAL CHARGE =     6.436593
:NTO001: CHARGE SPHERE  1    =    24.956671
:NTO002: CHARGE SPHERE  2    =    31.824793

:NEC01: NUCLEAR AND ELECTRONIC CHARGE    120.00000   119.99952
     
       CHARGES OF OLD CHARGE DENSITY
:OTO   : INTERSTITIAL CHARGE =     6.339871
:OTO001: CHARGE SPHERE  1    =    24.947239
:OTO002: CHARGE SPHERE  2    =    31.882825

:NEC02: NUCLEAR AND ELECTRONIC CHARGE    120.00000   120.00000
     
       CONVERGENCE TEST
:DTO001: DIFFERENCE IN SPHERE  1 =  0.2801378
:DTO002: DIFFERENCE IN SPHERE  2 =  0.0846897

:DIS  :  CHARGE DISTANCE       ( 0.2801378 for atom    1 spin 1)      0.1824137
:BIG check (qbig,qrms,qtot)    0.934D-01   0.146D+00   0.182D+00
 
******************************************************
* MULTISECANT MIXING VER6 RELEASE 6.0 OPTIONS        *
* Standard Mode with controls                        *
* Regularization       1.000E-06                     *
* Trust Region Control Active                        *
* Max Number of Memory Steps    8                    *
******************************************************
 
:PLANE:  INTERSTITIAL TOTAL      1.53312 DISTAN  3.177E+01 % 
:CHARG:  CLM CHARGE   /ATOM    163.29645 DISTAN  4.128E-01 % 
 
 Step History DMIX, Red, Pred, Trust, FRMS, FABS
  2  2.5000E-02  1.0000E+00  1.0000E+00  1.0000E+00
  3  6.2500E-02  1.0000E+00  1.0000E+00  1.0000E+00
  
:NORMS:  Nuclear, Spectral, Froebius, Shanno-Pua   0.2099E+01  0.2095E+01  0.2095E+01  0.3950E+00
:INFO :  Number of Memory Steps    2 Skipping    0
:INFO :  SLambda=    2.0994133  Max    2.0994133

Eigenvalues, unscaled except for SY+YY
   #     SY Real        SY Imag          SS             YY         SY+YY Real      SY+YY Imag
   1  -1.665335E-16   0.000000E+00   8.326673E-16   1.999990E+00   1.057618E-05   0.000000E+00
   2   7.899465E-01   0.000000E+00   4.558319E-01   1.034174E-05   3.658414E+00   0.000000E+00
 
:INFO :  Increased using Multisecant Shanno-Phua
:INFO :  Singular value   3.658E+00 Weight  1.0000E+00 Projections   8.589E+01  1.341E+00
:INFO :  Singular value   1.058E-05 Weight  9.6547E-01 Projections  -8.776E+01 -1.228E+02
 
:DIRM :  MEMORY 2/8 RESCALE   3.04 RED 0.873 PRED 1.000 NEXT 0.692
:INFO :  Blimit    1.546E+00  1.002E+00  6.583E-01  2.639E+00
:DIRP :  |MSR1|= 7.437E-01 |PRATT|= 1.480E+00 ANGLE=   0.2 DEGREES
:DIRQ :  |MSR1|= 6.890E-01 |PRATT|= 1.348E+00 ANGLE=   3.5 DEGREES
:DIR  :  |MSR1|= 1.014E+00 |PRATT|= 2.002E+00 ANGLE=   2.4 DEGREES
:MIX  :   MSE1   REGULARIZATION: 2.00E-06  GREED: 0.099  Newton 1.00  0.51                
     
       CHARGES OF MIXED CHARGE DENSITY
:CTO   : INTERSTITIAL CHARGE =     6.394912
:CTO001: CHARGE SPHERE  1    =    24.949755
:CTO002: CHARGE SPHERE  2    =    31.852789

:NEC03: NUCLEAR AND ELECTRONIC CHARGE    120.00000   120.00000

PW CHANGE     H    K    L       Current     Change     Residue
:PTO001:      0    0    0  4.13650355E-02 -3.293E-03 -6.567E-03
:PTO002:      0    0   -1  1.71874353E-02 -1.919E-03 -3.812E-03
:PTO004:     -1    0   -1 -9.29932738E-02  9.084E-03  1.797E-02
:PTO005:      0    0   -2 -1.06735034E-02 -3.877E-04 -7.881E-04
:PTO006:     -1   -1    0 -2.16955470E-02 -1.207E-03 -2.435E-03
:PTO007:     -1   -1   -1  2.63056146E-02 -1.104E-02 -2.195E-02
:PTO008:     -1    0   -2  8.79265926E-03 -2.453E-03 -4.902E-03
:PTO009:     -1   -1   -2  3.42908577E-02 -1.486E-02 -2.956E-02
:PTO010:     -2    0    0 -1.62547933E-02  7.303E-03  1.452E-02
:PTO011:      0    0   -3  3.23301129E-03 -2.514E-03 -5.007E-03
:PTO012:     -2    0   -1 -1.38351519E-03  7.640E-03  1.524E-02
:PTO014:     -1    0   -3  1.24306249E-02 -5.661E-03 -1.130E-02

:ENE  : ********** TOTAL ENERGY IN Ry =       -14812.21410226

       TOTAL FORCE IN mRy/a.u. = |F|     Fx             Fy             Fz     with/without FOR in case.in2
:FOR001:   1.ATOM          0.000          0.000          0.000          0.000 partial forces
:FOR002:   2.ATOM        550.898          0.000          0.000        550.898 partial forces
       TOTAL FORCE WITH RESPECT TO GLOBAL CARTESIAN COORDINATES:
:FCA001:   1.ATOM                         0.000          0.000          0.000 partial forces
:FCA002:   2.ATOM                         0.000          0.000        550.898 partial forces
       TOTAL FORCE WITH RESPECT TO THE GLOBAL COORDINATE SYSTEM:
:FGL001:   1.ATOM                 0.000000000     0.000000000     0.000000000 partial forces
:FGL002:   2.ATOM                 0.000000000     0.000000000   550.897551450 partial forces


            ---------
:ITE004:  4. ITERATION
            ---------

:NATO :    2 INDEPENDENT AND    4 TOTAL ATOMS IN UNITCELL
       SUBSTANCE: FeSe                                                        

       LATTICE                      = P   
:POT  : POTENTIAL OPTION EX_PBE EC_PBE VX_PBE VC_PBE
:LAT  : LATTICE CONSTANTS=  7.12881  7.12881 10.43450    1.571    1.571    1.571
:VOL  : UNIT CELL VOLUME =     530.28024
       MODE OF CALCULATION IS       = RELA
       NON-SPINPOLARIZED CALCULATION
:IFFT  : FFT-parameters:   60   60   80 Factor: 2.00
       ATOMNUMBER=  1 Fe         VCOUL-ZERO =  0.32087E+00
:EFG001:                        EFG         =    -1.06018   *10**21  V / m**2
                               V20  TOT/SRF=    -0.91814    -0.00596
                               V22  TOT/SRF=     0.00000     0.00000
                               V22M TOT/SRF=     0.00000     0.00000
                               V21  TOT/SRF=     0.00000     0.00000
                               V21M TOT/SRF=     0.00000     0.00000

              0.53009    0.00000    0.00000        0.53009    0.00000    0.00000
              0.00000    0.53009    0.00000        0.00000    0.53009    0.00000
              0.00000    0.00000   -1.06018        0.00000    0.00000   -1.06018

         MAIN DIRECTIONS OF THE EFG   1.0000  0.0000  0.0000
                                      0.0000  1.0000  0.0000
                                      0.0000  0.0000  1.0000
:ANG001:  ANGLE WITH OLD X-AXIS =         0.0

:ETA001:                         ASYMM. ETA =     0.00000


       ATOMNUMBER=  2 Se         VCOUL-ZERO =  0.17760E+00
:EFG002:                        EFG         =    -2.97828   *10**21  V / m**2
                               V20  TOT/SRF=    -2.57927     0.00973
                               V22  TOT/SRF=     0.00000     0.00000
                               V22M TOT/SRF=     0.00000     0.00000
                               V21  TOT/SRF=     0.00000     0.00000
                               V21M TOT/SRF=     0.00000     0.00000

              1.48914    0.00000    0.00000        1.48914    0.00000    0.00000
              0.00000    1.48914    0.00000        0.00000    1.48914    0.00000
              0.00000    0.00000   -2.97828        0.00000    0.00000   -2.97828

         MAIN DIRECTIONS OF THE EFG   1.0000  0.0000  0.0000
                                      0.0000  1.0000  0.0000
                                      0.0000  0.0000  1.0000
:ANG002:  ANGLE WITH OLD X-AXIS =         0.0

:ETA002:                         ASYMM. ETA =     0.00000


     HELLMANN-FEYNMAN-FORCE IN mRy/a.u. = |F|  Fx       Fy             Fz
:FHF001:   1.ATOM      0.000000000      0.000000000      0.000000000      0.000000000

     HELLMANN-FEYNMAN-FORCE IN mRy/a.u. = |F|  Fx       Fy             Fz
:FHF002:   2.ATOM     75.149177477      0.000000000      0.000000000    -75.149177477

:FIT001: LUSE= 13 SIGMA OF V-XC FIT FOR ATOM  1  0.5089663E-02
:FIT001: LUSE= 13 SIGMA OF V-XC FIT FOR ATOM  1  0.5089663E-02
:FIT002: LUSE= 13 SIGMA OF V-XC FIT FOR ATOM  2  0.4533466E-03
:FIT002: LUSE= 13 SIGMA OF V-XC FIT FOR ATOM  2  0.4533466E-03
:DEN  : DENSITY INTEGRAL  =         -6222.49739526   (Ry)
       ELS_POTENTIAL_AT Z=0 and Z=0.5:  -0.62889   0.60093
       ELS_POTENTIAL_AT Y=0 and Y=0.5:   0.00000   0.00000
:VZERO:v0,v0c,v0x  -1.46297  -0.62889  -0.83408 v5,v5c,v5x   0.12354   0.60093  -0.47739
:VZERY:v0,v0c,v0x  -0.70247   0.00000  -0.70247 v5,v5c,v5x  -0.70247   0.00000  -0.70247
:VZERX:v0,v0c,v0x   0.07781   0.74235  -0.66454 v5,v5c,v5x   0.07781   0.74235  -0.66454

          ATOMIC SPHERE DEPENDENT PARAMETERS FOR ATOM  Fe        
:e__0001: OVERALL ENERGY PARAMETER IS    0.2040
          OVERALL BASIS SET ON ATOM IS LAPW
:E0_0001: E( 0)=    0.2040
             APW+lo
:E0_0001: E( 0)=   -5.9969   E(BOTTOM)=   -6.015   E(TOP)=   -5.979  2  3   149
             LOCAL ORBITAL
:E1_0001: E( 1)=    0.2040
             APW+lo
:E1_0001: E( 1)=   -3.5108   E(BOTTOM)=   -3.560   E(TOP)=   -3.461  1  2   149
             LOCAL ORBITAL
:E2_0001: E( 2)=    0.2977   E(BOTTOM)=    0.024   E(TOP)=    0.571  0  1   128
             APW+lo

          ATOMIC SPHERE DEPENDENT PARAMETERS FOR ATOM  Se        
:e__0002: OVERALL ENERGY PARAMETER IS    0.2040
          OVERALL BASIS SET ON ATOM IS LAPW
:E2_0002: E( 2)=    0.2040
             APW+lo
:E2_0002: E( 2)=   -3.1814   E(BOTTOM)=   -3.206   E(TOP)=   -3.157  0  1   138
             LOCAL ORBITAL
:E0_0002: E( 0)=   -0.3374   E(BOTTOM)=   -1.498   E(TOP)=    0.823  3  4   218
             APW+lo
:E0_0002: E( 0)=    0.6040
             LOCAL ORBITAL
:E1_0002: E( 1)=    0.2040
             APW+lo

       K=   0.04545   0.04545   0.07143            1
:RKM  : MATRIX SIZE   357LOs:  56  RKM= 7.00  WEIGHT= 8.00  PGR:    
       EIGENVALUES ARE:
:EIG00001:      -5.9943710   -5.9925729   -3.5074701   -3.5072872   -3.4991524
:EIG00006:      -3.4989429   -3.4955687   -3.4937739   -3.1760441   -3.1757985
:EIG00011:      -3.1752453   -3.1751947   -3.1750444   -3.1750132   -3.1748603
:EIG00016:      -3.1748578   -3.1743537   -3.1742739   -0.6759685   -0.5926125
:EIG00021:      -0.0363580    0.1025072    0.1129509    0.1169785    0.1545584
:EIG00026:       0.1589427    0.2112555    0.3269087    0.3347878    0.3730579
:EIG00031:       0.3896182    0.3910961    0.4290178    0.4413211    0.5245414
:EIG00036:       0.5316251    0.6104008    0.7581023    0.8130804    0.8944197
:EIG00041:       0.9056092    0.9207798    1.2386043    1.2842527    1.3160839
:EIG00046:       1.3488521    1.3523571    1.3860187    1.4118085    1.4556203
 
:EIG00051:       1.4604234    1.4898321    1.5803351    1.5865023    1.7112119
:EIG00056:       1.7462229    1.8445940
       ********************************************************

:KPT   :      NUMBER OF K-POINTS:    84
:GAP  : -99999.   Ry = -9999.    eV  ( metallic )
         Bandranges (emin - emax) and occupancy:
:BAN00024:  24    0.076112    0.142235  2.00000000
:BAN00025:  25    0.121746    0.181152  2.00000000
:BAN00026:  26    0.136758    0.184974  2.00000000
:BAN00027:  27    0.211255    0.295043  2.00000000
:BAN00028:  28    0.252766    0.329098  2.00000000
:BAN00029:  29    0.270265    0.340390  2.00000000
:BAN00030:  30    0.273560    0.382284  1.99911432
:BAN00031:  31    0.328280    0.389618  1.87189418
:BAN00032:  32    0.328280    0.400267  1.82812919
:BAN00033:  33    0.364886    0.464184  0.16950144
:BAN00034:  34    0.366267    0.464184  0.13136087
:BAN00035:  35    0.444926    0.524541  0.00000000
:BAN00036:  36    0.444926    0.531625  0.00000000
:BAN00037:  37    0.610401    0.858943  0.00000000
:BAN00038:  38    0.708023    0.863580  0.00000000
:BAN00039:  39    0.777439    0.975477  0.00000000
        Energy to separate low and high energystates:   -0.08636


:NOE  : NUMBER OF ELECTRONS          =  64.000

:FER  : F E R M I - ENERGY(TETRAH.M.)=   0.3816707777
:GMA  : POTENTIAL AND CHARGE CUT-OFF  12.00 Ry**.5




:POS001: ATOM   -1 X,Y,Z = 0.25000 0.75000 0.00000  MULT= 2  ZZ= 26.000  Fe        

       LMMAX  8
       LM=   0 0  2 0 -3 2  4 0  4 4 -5 2  6 0  6 4

:CHA001: TOTAL VALENCE CHARGE INSIDE SPHERE   1 =  14.9574    (RMT=  2.3100 )
:PCS001: PARTIAL CHARGES SPHERE =  1 S,P,D,F,PZ,PXY,,D-Z2,D-XY,D-X2Y2,D-XZ,YZ 
:QTL001: 2.3133 6.3314 6.2799 0.0258 2.0941 4.2373 0.0000 1.4232 1.2919 1.1900 2.3748 0.0000
        Q-s-low E-s-low   Q-p-low E-p-low   Q-d-low E-d-low   Q-f-low E-f-low
:EPL001:  2.0452 -5.8717    6.0278 -3.4787    0.0419 -0.6381    0.0047 -0.7607
        Q-s-hi  E-s-hi    Q-p-hi  E-p-hi    Q-d-hi  E-d-hi    Q-f-hi  E-f-hi 
:EPH001:  0.2681  0.0359    0.3036  0.1503    6.2380  0.2742    0.0211  0.1552
:VZZ001: EFG INSIDE SPHERE   1 =    -0.541200      UP TO R =   2.31000




:POS002: ATOM   -2 X,Y,Z = 0.25000 0.25000 0.26730  MULT= 2  ZZ= 34.000  Se        

       LMMAX 10
       LM=   0 0  1 0  2 0  3 0  4 0  4 4  5 0  5 4  6 0  6 4

:CHA002: TOTAL VALENCE CHARGE INSIDE SPHERE   2 =  13.8721    (RMT=  2.1900 )
:PCS002: PARTIAL CHARGES SPHERE =  2 S,P,D,F,PZ,PXY,,D-Z2,D-XY,D-X2Y2,D-XZ,YZ 
:QTL002: 1.4768 2.317810.0586 0.0150 0.7962 1.5216 0.0000 2.0120 2.0120 2.0122 4.0223 0.0000
        Q-s-low E-s-low   Q-p-low E-p-low   Q-d-low E-d-low   Q-f-low E-f-low
:EPL002:  1.4042 -0.6119    0.0083 -0.8463    9.9863 -3.1751    0.0003 -2.9934
        Q-s-hi  E-s-hi    Q-p-hi  E-p-hi    Q-d-hi  E-d-hi    Q-f-hi  E-f-hi 
:EPH002:  0.0726  0.1106    2.3095  0.1042    0.0722  0.2362    0.0146  0.2949
:VZZ002: EFG INSIDE SPHERE   2 =    -6.083822      UP TO R =   2.19000

:CHA  : TOTAL VALENCE CHARGE INSIDE UNIT CELL =      64.000000

:SUM  : SUM OF EIGENVALUES =        -127.130280430


        1.ATOM      Fe                    4 CORE STATES
:1S 001: 1S                -513.461399291 Ry
:2S 001: 2S                 -59.359202510 Ry
:2PP001: 2P*                -51.065295153 Ry
:2P 001: 2P                 -50.147528775 Ry

        2.ATOM      Se                    7 CORE STATES
       CORE-FORCE in mRy/a.u. = |F|      Fx             Fy             Fz
:FCO002:   2.ATOM    224.965814319      0.000000000      0.000000000   -224.965814319

:1S 002: 1S                -918.101437743 Ry
:2S 002: 2S                -117.360624570 Ry
:2PP002: 2P*               -105.209349817 Ry
:2P 002: 2P                -102.139811883 Ry
:3S 002: 3S                 -14.959505942 Ry
:3PP002: 3P*                -10.804175557 Ry
:3P 002: 3P                 -10.372329227 Ry
:CINT001 Core Integral Atom   1   10.000000
:CINT002 Core Integral Atom   2   17.999767

       DENSITY AT NUCLEUS
        JATOM        VALENCE       SEMI-CORE          CORE           TOTAL
:RTO001:   1      187.200729        0.000000    14701.615817    14888.816546
:RTO002:   2       54.606360        0.000000    39112.715333    39167.321693
     
       CHARGES OF NEW CHARGE DENSITY
:NTO   : INTERSTITIAL CHARGE =     6.341154
:NTO001: CHARGE SPHERE  1    =    24.957361
:NTO002: CHARGE SPHERE  2    =    31.871820

:NEC01: NUCLEAR AND ELECTRONIC CHARGE    120.00000   119.99952
     
       CHARGES OF OLD CHARGE DENSITY
:OTO   : INTERSTITIAL CHARGE =     6.394912
:OTO001: CHARGE SPHERE  1    =    24.949755
:OTO002: CHARGE SPHERE  2    =    31.852789

:NEC02: NUCLEAR AND ELECTRONIC CHARGE    120.00000   120.00000
     
       CONVERGENCE TEST
:DTO001: DIFFERENCE IN SPHERE  1 =  0.1853330
:DTO002: DIFFERENCE IN SPHERE  2 =  0.0725840

:DIS  :  CHARGE DISTANCE       ( 0.1853330 for atom    1 spin 1)      0.1289585
:BIG check (qbig,qrms,qtot)    0.618D-01   0.995D-01   0.129D+00
 
******************************************************
* MULTISECANT MIXING VER6 RELEASE 6.0 OPTIONS        *
* Standard Mode with controls                        *
* Regularization       1.000E-06                     *
* Trust Region Control Active                        *
* Max Number of Memory Steps    8                    *
******************************************************
 
:PLANE:  INTERSTITIAL TOTAL      1.36190 DISTAN  1.815E+01 % 
:CHARG:  CLM CHARGE   /ATOM    163.23787 DISTAN  2.181E-01 % 
 
 Step History DMIX, Red, Pred, Trust, FRMS, FABS
  2  2.5000E-02  1.0000E+00  1.0000E+00  1.0000E+00
  3  6.2500E-02  8.7251E-01  1.0000E+00  1.0000E+00
  4  9.8744E-02  1.0000E+00  6.9206E-01  2.6392E+00
  
:NORMS:  Nuclear, Spectral, Froebius, Shanno-Pua   0.1691E+01  0.1659E+01  0.1660E+01  0.5191E+00
:INFO :  Number of Memory Steps    3 Skipping    0
:INFO :  SLambda=    1.6910282  Max    1.6910282

Eigenvalues, unscaled except for SY+YY
   #     SY Real        SY Imag          SS             YY         SY+YY Real      SY+YY Imag
   1   1.556053E+00   0.000000E+00   1.089020E+00   2.997306E+00   5.628404E+00   0.000000E+00
   2  -2.523151E-16   0.000000E+00  -7.990299E-16   4.440817E-07   4.531454E-07   0.000000E+00
   3   5.232332E-04   0.000000E+00   1.282238E-04   2.693634E-03   3.810121E-03   0.000000E+00
 
:INFO :  Increased using Multisecant Shanno-Phua
:INFO :  Singular value   5.628E+00 Weight  1.0000E+00 Projections   1.417E+01  1.968E-01
:INFO :  Singular value   3.810E-03 Weight  1.0000E+00 Projections  -4.131E+00 -1.475E+01
:INFO :  Singular value   4.531E-07 Weight  2.2346E-02 Projections  -1.026E+01 -1.027E+01
 
:DIRM :  MEMORY 3/8 RESCALE   3.00 RED 0.517 PRED 0.692 NEXT 0.883
:INFO :  Blimit    2.207E+00  1.019E+00  8.651E-01  3.527E+00
:DIRP :  |MSR1|= 4.418E-01 |PRATT|= 7.411E-01 ANGLE=   5.7 DEGREES
:DIRQ :  |MSR1|= 3.179E-01 |PRATT|= 7.119E-01 ANGLE=  49.6 DEGREES
:DIR  :  |MSR1|= 5.443E-01 |PRATT|= 1.028E+00 ANGLE=  32.3 DEGREES
:MIX  :   MSE1   REGULARIZATION: 3.00E-06  GREED: 0.130  Newton 1.00  0.53                
     
       CHARGES OF MIXED CHARGE DENSITY
:CTO   : INTERSTITIAL CHARGE =     6.408535
:CTO001: CHARGE SPHERE  1    =    24.944282
:CTO002: CHARGE SPHERE  2    =    31.851450

:NEC03: NUCLEAR AND ELECTRONIC CHARGE    120.00000   120.00000

PW CHANGE     H    K    L       Current     Change     Residue
:PTO001:      0    0    0  3.92484494E-02 -2.117E-03 -3.819E-03
:PTO002:      0    0   -1  1.52632793E-02 -1.924E-03 -4.401E-03
:PTO004:     -1    0   -1 -8.78166264E-02  5.177E-03  8.012E-03
:PTO005:      0    0   -2 -1.10789906E-02 -4.055E-04 -9.541E-04
:PTO006:     -1   -1    0 -2.25496158E-02 -8.541E-04 -1.612E-03
:PTO007:     -1   -1   -1  2.00266127E-02 -6.279E-03 -9.733E-03
:PTO008:     -1    0   -2  7.96206873E-03 -8.306E-04 -4.190E-04
:PTO009:     -1   -1   -2  2.54059412E-02 -8.885E-03 -1.459E-02
:PTO010:     -2    0    0 -1.19852921E-02  4.270E-03  6.838E-03
:PTO011:      0    0   -3  1.83915934E-03 -1.394E-03 -2.124E-03
:PTO012:     -2    0   -1  3.12527369E-03  4.509E-03  7.375E-03
:PTO014:     -1    0   -3  8.97674187E-03 -3.454E-03 -5.880E-03

:ENE  : ********** TOTAL ENERGY IN Ry =       -14812.18899710

       TOTAL FORCE IN mRy/a.u. = |F|     Fx             Fy             Fz     with/without FOR in case.in2
:FOR001:   1.ATOM          0.000          0.000          0.000          0.000 partial forces
:FOR002:   2.ATOM        300.115          0.000          0.000       -300.115 partial forces
       TOTAL FORCE WITH RESPECT TO GLOBAL CARTESIAN COORDINATES:
:FCA001:   1.ATOM                         0.000          0.000          0.000 partial forces
:FCA002:   2.ATOM                         0.000          0.000       -300.115 partial forces
       TOTAL FORCE WITH RESPECT TO THE GLOBAL COORDINATE SYSTEM:
:FGL001:   1.ATOM                 0.000000000     0.000000000     0.000000000 partial forces
:FGL002:   2.ATOM                 0.000000000     0.000000000  -300.114991796 partial forces


            ---------
:ITE005:  5. ITERATION
            ---------

:NATO :    2 INDEPENDENT AND    4 TOTAL ATOMS IN UNITCELL
       SUBSTANCE: FeSe                                                        

       LATTICE                      = P   
:POT  : POTENTIAL OPTION EX_PBE EC_PBE VX_PBE VC_PBE
:LAT  : LATTICE CONSTANTS=  7.12881  7.12881 10.43450    1.571    1.571    1.571
:VOL  : UNIT CELL VOLUME =     530.28024
       MODE OF CALCULATION IS       = RELA
       NON-SPINPOLARIZED CALCULATION
:IFFT  : FFT-parameters:   60   60   80 Factor: 2.00
       ATOMNUMBER=  1 Fe         VCOUL-ZERO =  0.32745E+00
:EFG001:                        EFG         =    -1.25912   *10**21  V / m**2
                               V20  TOT/SRF=    -1.09043     0.00423
                               V22  TOT/SRF=     0.00000     0.00000
                               V22M TOT/SRF=     0.00000     0.00000
                               V21  TOT/SRF=     0.00000     0.00000
                               V21M TOT/SRF=     0.00000     0.00000

              0.62956    0.00000    0.00000        0.62956    0.00000    0.00000
              0.00000    0.62956    0.00000        0.00000    0.62956    0.00000
              0.00000    0.00000   -1.25912        0.00000    0.00000   -1.25912

         MAIN DIRECTIONS OF THE EFG   1.0000  0.0000  0.0000
                                      0.0000  1.0000  0.0000
                                      0.0000  0.0000  1.0000
:ANG001:  ANGLE WITH OLD X-AXIS =         0.0

:ETA001:                         ASYMM. ETA =     0.00000


       ATOMNUMBER=  2 Se         VCOUL-ZERO =  0.17606E+00
:EFG002:                        EFG         =    -4.54714   *10**21  V / m**2
                               V20  TOT/SRF=    -3.93794     0.00275
                               V22  TOT/SRF=     0.00000     0.00000
                               V22M TOT/SRF=     0.00000     0.00000
                               V21  TOT/SRF=     0.00000     0.00000
                               V21M TOT/SRF=     0.00000     0.00000

              2.27357    0.00000    0.00000        2.27357    0.00000    0.00000
              0.00000    2.27357    0.00000        0.00000    2.27357    0.00000
              0.00000    0.00000   -4.54714        0.00000    0.00000   -4.54714

         MAIN DIRECTIONS OF THE EFG   1.0000  0.0000  0.0000
                                      0.0000  1.0000  0.0000
                                      0.0000  0.0000  1.0000
:ANG002:  ANGLE WITH OLD X-AXIS =         0.0

:ETA002:                         ASYMM. ETA =     0.00000


     HELLMANN-FEYNMAN-FORCE IN mRy/a.u. = |F|  Fx       Fy             Fz
:FHF001:   1.ATOM      0.000000000      0.000000000      0.000000000      0.000000000

     HELLMANN-FEYNMAN-FORCE IN mRy/a.u. = |F|  Fx       Fy             Fz
:FHF002:   2.ATOM    259.480986928      0.000000000      0.000000000    259.480986928

:FIT001: LUSE= 13 SIGMA OF V-XC FIT FOR ATOM  1  0.4815782E-02
:FIT001: LUSE= 13 SIGMA OF V-XC FIT FOR ATOM  1  0.4815782E-02
:FIT002: LUSE= 13 SIGMA OF V-XC FIT FOR ATOM  2  0.4024054E-03
:FIT002: LUSE= 13 SIGMA OF V-XC FIT FOR ATOM  2  0.4024054E-03
:DEN  : DENSITY INTEGRAL  =         -6220.77168365   (Ry)
       ELS_POTENTIAL_AT Z=0 and Z=0.5:  -0.59433   0.58279
       ELS_POTENTIAL_AT Y=0 and Y=0.5:   0.00000   0.00000
:VZERO:v0,v0c,v0x  -1.39997  -0.59433  -0.80564 v5,v5c,v5x   0.10997   0.58279  -0.47282
:VZERY:v0,v0c,v0x  -0.69344   0.00000  -0.69344 v5,v5c,v5x  -0.69344   0.00000  -0.69344
:VZERX:v0,v0c,v0x   0.05971   0.73194  -0.67223 v5,v5c,v5x   0.05971   0.73194  -0.67223

          ATOMIC SPHERE DEPENDENT PARAMETERS FOR ATOM  Fe        
:e__0001: OVERALL ENERGY PARAMETER IS    0.1873
          OVERALL BASIS SET ON ATOM IS LAPW
:E0_0001: E( 0)=    0.1873
             APW+lo
:E0_0001: E( 0)=   -6.0068   E(BOTTOM)=   -6.025   E(TOP)=   -5.989  2  3   147
             LOCAL ORBITAL
:E1_0001: E( 1)=    0.1873
             APW+lo
:E1_0001: E( 1)=   -3.5200   E(BOTTOM)=   -3.569   E(TOP)=   -3.471  1  2   151
             LOCAL ORBITAL
:E2_0001: E( 2)=    0.2907   E(BOTTOM)=    0.019   E(TOP)=    0.563  0  1   126
             APW+lo

          ATOMIC SPHERE DEPENDENT PARAMETERS FOR ATOM  Se        
:e__0002: OVERALL ENERGY PARAMETER IS    0.1873
          OVERALL BASIS SET ON ATOM IS LAPW
:E2_0002: E( 2)=    0.1873
             APW+lo
:E2_0002: E( 2)=   -3.2004   E(BOTTOM)=   -3.225   E(TOP)=   -3.176  0  1   139
             LOCAL ORBITAL
:E0_0002: E( 0)=   -0.3468   E(BOTTOM)=   -1.507   E(TOP)=    0.813  3  4   214
             APW+lo
:E0_0002: E( 0)=    0.5873
             LOCAL ORBITAL
:E1_0002: E( 1)=    0.1873
             APW+lo

       K=   0.04545   0.04545   0.07143            1
:RKM  : MATRIX SIZE   357LOs:  56  RKM= 7.00  WEIGHT= 8.00  PGR:    
       EIGENVALUES ARE:
:EIG00001:      -6.0043017   -6.0025182   -3.5176405   -3.5174594   -3.5093973
:EIG00006:      -3.5091897   -3.5029230   -3.5011450   -3.1953620   -3.1951137
:EIG00011:      -3.1946332   -3.1945764   -3.1937660   -3.1937348   -3.1935850
:EIG00016:      -3.1935811   -3.1929648   -3.1928808   -0.6830946   -0.6001332
:EIG00021:      -0.0422037    0.0964406    0.1067856    0.1107583    0.1478340
:EIG00026:       0.1521702    0.2049113    0.3198308    0.3281914    0.3654254
:EIG00031:       0.3810864    0.3838259    0.4208876    0.4322752    0.5157356
:EIG00036:       0.5225108    0.6042293    0.7510797    0.8060950    0.8885206
:EIG00041:       0.9000233    0.9139937    1.2304180    1.2780486    1.3082745
:EIG00046:       1.3413381    1.3457548    1.3814666    1.4048573    1.4496139
 
:EIG00051:       1.4527220    1.4824493    1.5721176    1.5779735    1.7056046
:EIG00056:       1.7398134    1.8392546
       ********************************************************

:KPT   :      NUMBER OF K-POINTS:    84
:GAP  : -99999.   Ry = -9999.    eV  ( metallic )
         Bandranges (emin - emax) and occupancy:
:BAN00024:  24    0.068113    0.134961  2.00000000
:BAN00025:  25    0.115491    0.175021  2.00000000
:BAN00026:  26    0.129553    0.178777  2.00000000
:BAN00027:  27    0.204911    0.288244  2.00000000
:BAN00028:  28    0.246484    0.321685  2.00000000
:BAN00029:  29    0.264745    0.333840  2.00000000
:BAN00030:  30    0.268069    0.374626  1.99889074
:BAN00031:  31    0.321810    0.381086  1.88030742
:BAN00032:  32    0.321810    0.393156  1.82152639
:BAN00033:  33    0.357878    0.455550  0.16916696
:BAN00034:  34    0.359249    0.455550  0.13010848
:BAN00035:  35    0.436838    0.515736  0.00000000
:BAN00036:  36    0.436838    0.522511  0.00000000
:BAN00037:  37    0.604229    0.852337  0.00000000
:BAN00038:  38    0.700488    0.856794  0.00000000
:BAN00039:  39    0.769735    0.968538  0.00000000
        Energy to separate low and high energystates:   -0.09220


:NOE  : NUMBER OF ELECTRONS          =  64.000

:FER  : F E R M I - ENERGY(TETRAH.M.)=   0.3738750492
:GMA  : POTENTIAL AND CHARGE CUT-OFF  12.00 Ry**.5




:POS001: ATOM   -1 X,Y,Z = 0.25000 0.75000 0.00000  MULT= 2  ZZ= 26.000  Fe        

       LMMAX  8
       LM=   0 0  2 0 -3 2  4 0  4 4 -5 2  6 0  6 4

:CHA001: TOTAL VALENCE CHARGE INSIDE SPHERE   1 =  14.9531    (RMT=  2.3100 )
:PCS001: PARTIAL CHARGES SPHERE =  1 S,P,D,F,PZ,PXY,,D-Z2,D-XY,D-X2Y2,D-XZ,YZ 
:QTL001: 2.3103 6.3274 6.2829 0.0255 2.0935 4.2338 0.0000 1.4179 1.3046 1.1995 2.3610 0.0000
        Q-s-low E-s-low   Q-p-low E-p-low   Q-d-low E-d-low   Q-f-low E-f-low
:EPL001:  2.0441 -5.8842    6.0270 -3.4883    0.0411 -0.6458    0.0047 -0.7683
        Q-s-hi  E-s-hi    Q-p-hi  E-p-hi    Q-d-hi  E-d-hi    Q-f-hi  E-f-hi 
:EPH001:  0.2662  0.0299    0.3003  0.1438    6.2418  0.2676    0.0208  0.1480
:VZZ001: EFG INSIDE SPHERE   1 =     0.604167      UP TO R =   2.31000




:POS002: ATOM   -2 X,Y,Z = 0.25000 0.25000 0.26730  MULT= 2  ZZ= 34.000  Se        

       LMMAX 10
       LM=   0 0  1 0  2 0  3 0  4 0  4 4  5 0  5 4  6 0  6 4

:CHA002: TOTAL VALENCE CHARGE INSIDE SPHERE   2 =  13.8808    (RMT=  2.1900 )
:PCS002: PARTIAL CHARGES SPHERE =  2 S,P,D,F,PZ,PXY,,D-Z2,D-XY,D-X2Y2,D-XZ,YZ 
:QTL002: 1.4767 2.328210.0572 0.0147 0.7991 1.5291 0.0000 2.0119 2.0119 2.0121 4.0213 0.0000
        Q-s-low E-s-low   Q-p-low E-p-low   Q-d-low E-d-low   Q-f-low E-f-low
:EPL002:  1.4080 -0.6194    0.0073 -0.8831    9.9865 -3.1940    0.0003 -3.0313
        Q-s-hi  E-s-hi    Q-p-hi  E-p-hi    Q-d-hi  E-d-hi    Q-f-hi  E-f-hi 
:EPH002:  0.0687  0.1045    2.3209  0.0973    0.0708  0.2325    0.0144  0.2884
:VZZ002: EFG INSIDE SPHERE   2 =    -5.936535      UP TO R =   2.19000

:CHA  : TOTAL VALENCE CHARGE INSIDE UNIT CELL =      64.000000

:SUM  : SUM OF EIGENVALUES =        -127.849771407


        1.ATOM      Fe                    4 CORE STATES
:1S 001: 1S                -513.467916034 Ry
:2S 001: 2S                 -59.370768022 Ry
:2PP001: 2P*                -51.076186728 Ry
:2P 001: 2P                 -50.158473289 Ry

        2.ATOM      Se                    7 CORE STATES
       CORE-FORCE in mRy/a.u. = |F|      Fx             Fy             Fz
:FCO002:   2.ATOM    566.119166538      0.000000000      0.000000000   -566.119166538

:1S 002: 1S                -918.127680787 Ry
:2S 002: 2S                -117.384552365 Ry
:2PP002: 2P*               -105.233655357 Ry
:2P 002: 2P                -102.164063948 Ry
:3S 002: 3S                 -14.979336543 Ry
:3PP002: 3P*                -10.823867055 Ry
:3P 002: 3P                 -10.391901295 Ry
:CINT001 Core Integral Atom   1   10.000000
:CINT002 Core Integral Atom   2   17.999768

       DENSITY AT NUCLEUS
        JATOM        VALENCE       SEMI-CORE          CORE           TOTAL
:RTO001:   1      187.247696        0.000000    14701.578835    14888.826530
:RTO002:   2       54.627839        0.000000    39112.904290    39167.532129
     
       CHARGES OF NEW CHARGE DENSITY
:NTO   : INTERSTITIAL CHARGE =     6.332303
:NTO001: CHARGE SPHERE  1    =    24.953054
:NTO002: CHARGE SPHERE  2    =    31.880553

:NEC01: NUCLEAR AND ELECTRONIC CHARGE    120.00000   119.99952
     
       CHARGES OF OLD CHARGE DENSITY
:OTO   : INTERSTITIAL CHARGE =     6.408535
:OTO001: CHARGE SPHERE  1    =    24.944282
:OTO002: CHARGE SPHERE  2    =    31.851450

:NEC02: NUCLEAR AND ELECTRONIC CHARGE    120.00000   120.00000
     
       CONVERGENCE TEST
:DTO001: DIFFERENCE IN SPHERE  1 =  0.2108579
:DTO002: DIFFERENCE IN SPHERE  2 =  0.0969641

:DIS  :  CHARGE DISTANCE       ( 0.2108579 for atom    1 spin 1)      0.1539110
:BIG check (qbig,qrms,qtot)    0.703D-01   0.116D+00   0.154D+00
 
******************************************************
* MULTISECANT MIXING VER6 RELEASE 6.0 OPTIONS        *
* Standard Mode with controls                        *
* Regularization       1.000E-06                     *
* Trust Region Control Active                        *
* Max Number of Memory Steps    8                    *
******************************************************
 
:PLANE:  INTERSTITIAL TOTAL      1.26861 DISTAN  8.159E+00 % 
:CHARG:  CLM CHARGE   /ATOM    163.23144 DISTAN  2.039E-01 % 
 
 Step History DMIX, Red, Pred, Trust, FRMS, FABS
  2  2.5000E-02  1.0000E+00  1.0000E+00  1.0000E+00
  3  6.2500E-02  8.7251E-01  1.0000E+00  1.0000E+00
  4  9.8744E-02  5.1703E-01  6.9206E-01  2.6392E+00
  5  1.2977E-01  1.0000E+00  8.8261E-01  3.5272E+00
  
:NORMS:  Nuclear, Spectral, Froebius, Shanno-Pua   0.1366E+01  0.1219E+01  0.1247E+01  0.7345E+00
:INFO :  Number of Memory Steps    4 Skipping    0
:INFO :  SLambda=    1.3663599  Max    1.3663599

Eigenvalues, unscaled except for SY+YY
   #     SY Real        SY Imag          SS             YY         SY+YY Real      SY+YY Imag
   1   2.792000E+00   0.000000E+00   2.527355E+00   3.755066E+00   7.548793E+00   0.000000E+00
   2   1.112376E-01   0.000000E+00   4.394283E-02   2.439051E-01   4.170240E-01   0.000000E+00
   3   2.162905E-15   0.000000E+00  -1.062813E-15   2.738663E-07   2.766249E-07   0.000000E+00
   4   1.259728E-04   0.000000E+00   1.710051E-05   1.028882E-03   1.223006E-03   0.000000E+00
 
:INFO :  Increased using Multisecant Shanno-Phua
:INFO :  Singular value   7.549E+00 Weight  1.0000E+00 Projections   8.563E-01  4.776E-02
:INFO :  Singular value   4.170E-01 Weight  1.0000E+00 Projections  -1.557E+00 -1.451E+00
:INFO :  Singular value   1.223E-03 Weight  1.0000E+00 Projections   2.055E+00 -1.730E+00
:INFO :  Singular value   2.766E-07 Weight  5.3976E-03 Projections  -1.417E+00 -2.071E+00
 
:DIRM :  MEMORY 4/8 RESCALE   3.46 RED 0.679 PRED 0.883 NEXT 0.351
:INFO :  Blimit    2.966E+00  1.121E+00  1.000E+00  4.484E+00
:DIRP :  |MSR1|= 3.167E-01 |PRATT|= 3.586E-01 ANGLE=   8.3 DEGREES
:DIRQ :  |MSR1|= 3.059E-01 |PRATT|= 6.658E-01 ANGLE=  25.0 DEGREES
:DIR  :  |MSR1|= 4.403E-01 |PRATT|= 7.562E-01 ANGLE=  26.9 DEGREES
:MIX  :   MSE1   REGULARIZATION: 3.76E-06  GREED: 0.184  Newton 1.00  0.58                
     
       CHARGES OF MIXED CHARGE DENSITY
:CTO   : INTERSTITIAL CHARGE =     6.392813
:CTO001: CHARGE SPHERE  1    =    24.936443
:CTO002: CHARGE SPHERE  2    =    31.867150

:NEC03: NUCLEAR AND ELECTRONIC CHARGE    120.00000   120.00000

PW CHANGE     H    K    L       Current     Change     Residue
:PTO001:      0    0    0  3.78272434E-02 -1.421E-03 -1.752E-03
:PTO002:      0    0   -1  1.33592742E-02 -1.904E-03 -2.798E-03
:PTO004:     -1    0   -1 -8.50012129E-02  2.815E-03  2.645E-03
:PTO005:      0    0   -2 -1.15019590E-02 -4.230E-04 -6.409E-04
:PTO006:     -1   -1    0 -2.32110183E-02 -6.614E-04 -8.498E-04
:PTO007:     -1   -1   -1  1.65491807E-02 -3.477E-03 -3.350E-03
:PTO008:     -1    0   -2  8.07004032E-03  1.080E-04  6.858E-04
:PTO009:     -1   -1   -2  2.00810890E-02 -5.325E-03 -5.655E-03
:PTO010:     -2    0    0 -9.51255826E-03  2.473E-03  2.525E-03
:PTO011:      0    0   -3  1.11162654E-03 -7.275E-04 -6.685E-04
:PTO012:     -2    0   -1  5.78055160E-03  2.655E-03  2.819E-03
:PTO014:     -1    0   -3  6.84971191E-03 -2.127E-03 -2.393E-03

:ENE  : ********** TOTAL ENERGY IN Ry =       -14812.19281488

       TOTAL FORCE IN mRy/a.u. = |F|     Fx             Fy             Fz     with/without FOR in case.in2
:FOR001:   1.ATOM          0.000          0.000          0.000          0.000 partial forces
:FOR002:   2.ATOM        306.638          0.000          0.000       -306.638 partial forces
       TOTAL FORCE WITH RESPECT TO GLOBAL CARTESIAN COORDINATES:
:FCA001:   1.ATOM                         0.000          0.000          0.000 partial forces
:FCA002:   2.ATOM                         0.000          0.000       -306.638 partial forces
       TOTAL FORCE WITH RESPECT TO THE GLOBAL COORDINATE SYSTEM:
:FGL001:   1.ATOM                 0.000000000     0.000000000     0.000000000 partial forces
:FGL002:   2.ATOM                 0.000000000     0.000000000  -306.638179610 partial forces


            ---------
:ITE006:  6. ITERATION
            ---------

:NATO :    2 INDEPENDENT AND    4 TOTAL ATOMS IN UNITCELL
       SUBSTANCE: FeSe                                                        

       LATTICE                      = P   
:POT  : POTENTIAL OPTION EX_PBE EC_PBE VX_PBE VC_PBE
:LAT  : LATTICE CONSTANTS=  7.12881  7.12881 10.43450    1.571    1.571    1.571
:VOL  : UNIT CELL VOLUME =     530.28024
       MODE OF CALCULATION IS       = RELA
       NON-SPINPOLARIZED CALCULATION
:IFFT  : FFT-parameters:   60   60   80 Factor: 2.00
       ATOMNUMBER=  1 Fe         VCOUL-ZERO =  0.30370E+00
:EFG001:                        EFG         =    -0.57152   *10**21  V / m**2
                               V20  TOT/SRF=    -0.49495    -0.02674
                               V22  TOT/SRF=     0.00000     0.00000
                               V22M TOT/SRF=     0.00000     0.00000
                               V21  TOT/SRF=     0.00000     0.00000
                               V21M TOT/SRF=     0.00000     0.00000

              0.28576    0.00000    0.00000        0.28576    0.00000    0.00000
              0.00000    0.28576    0.00000        0.00000    0.28576    0.00000
              0.00000    0.00000   -0.57152        0.00000    0.00000   -0.57152

         MAIN DIRECTIONS OF THE EFG   1.0000  0.0000  0.0000
                                      0.0000  1.0000  0.0000
                                      0.0000  0.0000  1.0000
:ANG001:  ANGLE WITH OLD X-AXIS =         0.0

:ETA001:                         ASYMM. ETA =     0.00000


       ATOMNUMBER=  2 Se         VCOUL-ZERO =  0.17843E+00
:EFG002:                        EFG         =    -5.53964   *10**21  V / m**2
                               V20  TOT/SRF=    -4.79747     0.00638
                               V22  TOT/SRF=     0.00000     0.00000
                               V22M TOT/SRF=     0.00000     0.00000
                               V21  TOT/SRF=     0.00000     0.00000
                               V21M TOT/SRF=     0.00000     0.00000

              2.76982    0.00000    0.00000        2.76982    0.00000    0.00000
              0.00000    2.76982    0.00000        0.00000    2.76982    0.00000
              0.00000    0.00000   -5.53964        0.00000    0.00000   -5.53964

         MAIN DIRECTIONS OF THE EFG   1.0000  0.0000  0.0000
                                      0.0000  1.0000  0.0000
                                      0.0000  0.0000  1.0000
:ANG002:  ANGLE WITH OLD X-AXIS =         0.0

:ETA002:                         ASYMM. ETA =     0.00000


     HELLMANN-FEYNMAN-FORCE IN mRy/a.u. = |F|  Fx       Fy             Fz
:FHF001:   1.ATOM      0.000000000      0.000000000      0.000000000      0.000000000

     HELLMANN-FEYNMAN-FORCE IN mRy/a.u. = |F|  Fx       Fy             Fz
:FHF002:   2.ATOM   1570.151573968      0.000000000      0.000000000   1570.151573968

:FIT001: LUSE= 13 SIGMA OF V-XC FIT FOR ATOM  1  0.4876905E-02
:FIT001: LUSE= 13 SIGMA OF V-XC FIT FOR ATOM  1  0.4876905E-02
:FIT002: LUSE= 13 SIGMA OF V-XC FIT FOR ATOM  2  0.5275767E-03
:FIT002: LUSE= 13 SIGMA OF V-XC FIT FOR ATOM  2  0.5275767E-03
:DEN  : DENSITY INTEGRAL  =         -6222.92230842   (Ry)
       ELS_POTENTIAL_AT Z=0 and Z=0.5:  -0.60089   0.60387
       ELS_POTENTIAL_AT Y=0 and Y=0.5:   0.00000   0.00000
:VZERO:v0,v0c,v0x  -1.37863  -0.60089  -0.77774 v5,v5c,v5x   0.12896   0.60387  -0.47491
:VZERY:v0,v0c,v0x  -0.68669   0.00000  -0.68669 v5,v5c,v5x  -0.68669   0.00000  -0.68669
:VZERX:v0,v0c,v0x   0.04525   0.72206  -0.67681 v5,v5c,v5x   0.04525   0.72206  -0.67681

          ATOMIC SPHERE DEPENDENT PARAMETERS FOR ATOM  Fe        
:e__0001: OVERALL ENERGY PARAMETER IS    0.1772
          OVERALL BASIS SET ON ATOM IS LAPW
:E0_0001: E( 0)=    0.1772
             APW+lo
:E0_0001: E( 0)=   -5.9945   E(BOTTOM)=   -6.013   E(TOP)=   -5.976  2  3   147
             LOCAL ORBITAL
:E1_0001: E( 1)=    0.1772
             APW+lo
:E1_0001: E( 1)=   -3.5099   E(BOTTOM)=   -3.560   E(TOP)=   -3.460  1  2   142
             LOCAL ORBITAL
:E2_0001: E( 2)=    0.2940   E(BOTTOM)=    0.016   E(TOP)=    0.572  0  1   132
             APW+lo

          ATOMIC SPHERE DEPENDENT PARAMETERS FOR ATOM  Se        
:e__0002: OVERALL ENERGY PARAMETER IS    0.1772
          OVERALL BASIS SET ON ATOM IS LAPW
:E2_0002: E( 2)=    0.1772
             APW+lo
:E2_0002: E( 2)=   -3.1891   E(BOTTOM)=   -3.214   E(TOP)=   -3.164  0  1   136
             LOCAL ORBITAL
:E0_0002: E( 0)=   -0.3433   E(BOTTOM)=   -1.505   E(TOP)=    0.819  3  4   217
             APW+lo
:E0_0002: E( 0)=    0.5772
             LOCAL ORBITAL
:E1_0002: E( 1)=    0.1772
             APW+lo

       K=   0.04545   0.04545   0.07143            1
:RKM  : MATRIX SIZE   357LOs:  56  RKM= 7.00  WEIGHT= 8.00  PGR:    
       EIGENVALUES ARE:
:EIG00001:      -5.9919523   -5.9901213   -3.5078049   -3.5076175   -3.4993216
:EIG00006:      -3.4991077   -3.4918483   -3.4900148   -3.1841381   -3.1838839
:EIG00011:      -3.1834546   -3.1834005   -3.1824131   -3.1823819   -3.1822255
:EIG00016:      -3.1822202   -3.1815920   -3.1814979   -0.6857671   -0.6018068
:EIG00021:      -0.0451917    0.0926891    0.1040612    0.1082903    0.1448302
:EIG00026:       0.1493015    0.2024371    0.3257574    0.3324660    0.3696807
:EIG00031:       0.3851901    0.3880204    0.4251275    0.4382089    0.5213922
:EIG00036:       0.5291638    0.5991689    0.7491240    0.8069633    0.8834718
:EIG00041:       0.8938769    0.9108955    1.2363858    1.2733362    1.3085602
:EIG00046:       1.3405684    1.3467179    1.3725333    1.4022649    1.4442258
 
:EIG00051:       1.4540050    1.4810004    1.5743771    1.5811992    1.7025509
:EIG00056:       1.7359674    1.8336448
       ********************************************************

:KPT   :      NUMBER OF K-POINTS:    84
:GAP  : -99999.   Ry = -9999.    eV  ( metallic )
         Bandranges (emin - emax) and occupancy:
:BAN00024:  24    0.068467    0.132685  2.00000000
:BAN00025:  25    0.112842    0.170597  2.00000000
:BAN00026:  26    0.129814    0.174615  2.00000000
:BAN00027:  27    0.202437    0.288233  2.00000000
:BAN00028:  28    0.247006    0.328428  2.00000000
:BAN00029:  29    0.261519    0.338207  2.00000000
:BAN00030:  30    0.265247    0.376086  2.00000000
:BAN00031:  31    0.323951    0.385191  1.88007919
:BAN00032:  32    0.323951    0.396412  1.82636528
:BAN00033:  33    0.362525    0.461220  0.16643070
:BAN00034:  34    0.363978    0.461220  0.12713190
:BAN00035:  35    0.443727    0.521392  0.00000000
:BAN00036:  36    0.443727    0.529164  0.00000000
:BAN00037:  37    0.599169    0.850809  0.00000000
:BAN00038:  38    0.702507    0.855901  0.00000000
:BAN00039:  39    0.771588    0.966814  0.00000000
        Energy to separate low and high energystates:   -0.09519


:NOE  : NUMBER OF ELECTRONS          =  64.000

:FER  : F E R M I - ENERGY(TETRAH.M.)=   0.3776380206
:GMA  : POTENTIAL AND CHARGE CUT-OFF  12.00 Ry**.5




:POS001: ATOM   -1 X,Y,Z = 0.25000 0.75000 0.00000  MULT= 2  ZZ= 26.000  Fe        

       LMMAX  8
       LM=   0 0  2 0 -3 2  4 0  4 4 -5 2  6 0  6 4

:CHA001: TOTAL VALENCE CHARGE INSIDE SPHERE   1 =  14.9264    (RMT=  2.3100 )
:PCS001: PARTIAL CHARGES SPHERE =  1 S,P,D,F,PZ,PXY,,D-Z2,D-XY,D-X2Y2,D-XZ,YZ 
:QTL001: 2.3177 6.3395 6.2357 0.0265 2.0956 4.2439 0.0000 1.4060 1.3047 1.1851 2.3399 0.0000
        Q-s-low E-s-low   Q-p-low E-p-low   Q-d-low E-d-low   Q-f-low E-f-low
:EPL001:  2.0470 -5.8647    6.0291 -3.4768    0.0432 -0.6467    0.0049 -0.7683
        Q-s-hi  E-s-hi    Q-p-hi  E-p-hi    Q-d-hi  E-d-hi    Q-f-hi  E-f-hi 
:EPH001:  0.2707  0.0256    0.3103  0.1416    6.1925  0.2687    0.0216  0.1496
:VZZ001: EFG INSIDE SPHERE   1 =     0.896481      UP TO R =   2.31000




:POS002: ATOM   -2 X,Y,Z = 0.25000 0.25000 0.26730  MULT= 2  ZZ= 34.000  Se        

       LMMAX 10
       LM=   0 0  1 0  2 0  3 0  4 0  4 4  5 0  5 4  6 0  6 4

:CHA002: TOTAL VALENCE CHARGE INSIDE SPHERE   2 =  13.8735    (RMT=  2.1900 )
:PCS002: PARTIAL CHARGES SPHERE =  2 S,P,D,F,PZ,PXY,,D-Z2,D-XY,D-X2Y2,D-XZ,YZ 
:QTL002: 1.4772 2.314410.0624 0.0155 0.7940 1.5204 0.0000 2.0129 2.0125 2.0124 4.0246 0.0000
        Q-s-low E-s-low   Q-p-low E-p-low   Q-d-low E-d-low   Q-f-low E-f-low
:EPL002:  1.3959 -0.6212    0.0114 -0.7969    9.9863 -3.1827    0.0003 -3.0371
        Q-s-hi  E-s-hi    Q-p-hi  E-p-hi    Q-d-hi  E-d-hi    Q-f-hi  E-f-hi 
:EPH002:  0.0813  0.1021    2.3030  0.0963    0.0761  0.2242    0.0151  0.2893
:VZZ002: EFG INSIDE SPHERE   2 =    -5.756395      UP TO R =   2.19000

:CHA  : TOTAL VALENCE CHARGE INSIDE UNIT CELL =      64.000007

:SUM  : SUM OF EIGENVALUES =        -127.467281938


        1.ATOM      Fe                    4 CORE STATES
:1S 001: 1S                -513.402324664 Ry
:2S 001: 2S                 -59.318335799 Ry
:2PP001: 2P*                -51.021413985 Ry
:2P 001: 2P                 -50.103914782 Ry

        2.ATOM      Se                    7 CORE STATES
       CORE-FORCE in mRy/a.u. = |F|      Fx             Fy             Fz
:FCO002:   2.ATOM   1395.406322327      0.000000000      0.000000000  -1395.406322327

:1S 002: 1S                -918.101864857 Ry
:2S 002: 2S                -117.362386114 Ry
:2PP002: 2P*               -105.210764986 Ry
:2P 002: 2P                -102.141274484 Ry
:3S 002: 3S                 -14.967771051 Ry
:3PP002: 3P*                -10.812315413 Ry
:3P 002: 3P                 -10.380558297 Ry
:CINT001 Core Integral Atom   1   10.000000
:CINT002 Core Integral Atom   2   17.999767

       DENSITY AT NUCLEUS
[...]
 10  2.0646E-01  2.8037E-01  3.0522E-01  5.5670E+00
 11  2.0929E-01  1.0000E+00  3.8345E-01  5.7614E+00
  
:NORMS:  Nuclear, Spectral, Froebius, Shanno-Pua   0.1262E+01  0.8897E+00  0.1057E+01  0.9721E+00
:INFO :  Number of Memory Steps    8 Skipping    2
:INFO :  SLambda=    1.3952528  Max    1.3952528

Eigenvalues, unscaled except for SY+YY
   #     SY Real        SY Imag          SS             YY         SY+YY Real      SY+YY Imag
   1   3.477743E+00   0.000000E+00   4.084774E+00   3.233033E+00   8.074070E+00   0.000000E+00
   2   2.131433E+00   0.000000E+00   2.226719E+00   2.058284E+00   5.041020E+00   0.000000E+00
   3   7.174740E-01   0.000000E+00   6.124130E-01   1.311810E+00   1.830750E+00   0.000000E+00
   4   4.436877E-01   0.000000E+00   1.665482E-01   8.360119E-01   1.918173E+00   0.000000E+00
   5   1.607957E-01   0.000000E+00   5.495359E-02   4.483226E-01   6.907681E-01   0.000000E+00
   6   4.174638E-07   0.000000E+00   1.067511E-02   1.020406E-01   1.448935E-01   0.000000E+00
   7   2.277714E-03   0.000000E+00   1.025724E-07   1.823141E-06   2.451647E-06   0.000000E+00
   8   2.924583E-02   0.000000E+00   3.525182E-04   1.049611E-02   1.499043E-02   0.000000E+00
 
:INFO :  Singular value   8.123E+00 Weight  1.0000E+00 Projections  -2.331E-02  3.504E-05
:INFO :  Singular value   5.059E+00 Weight  1.0000E+00 Projections   3.807E-02  4.755E-05
:INFO :  Singular value   1.911E+00 Weight  1.0000E+00 Projections  -2.038E-02 -1.787E-04
:INFO :  Singular value   1.823E+00 Weight  1.0000E+00 Projections   5.489E-03  2.530E-04
:INFO :  Singular value   6.903E-01 Weight  1.0000E+00 Projections  -5.268E-04  1.406E-03
:INFO :  Singular value   1.447E-01 Weight  1.0000E+00 Projections   9.212E-05  3.310E-03
:INFO :  Singular value   1.499E-02 Weight  1.0000E+00 Projections   3.308E-03 -7.262E-03
:INFO :  Singular value   2.452E-06 Weight  3.6509E-01 Projections  -3.839E-03  4.897E-02
 
:DIRM :  MEMORY 8/8 RESCALE   9.42 RED 0.489 PRED 0.383 NEXT 0.260
:INFO :  Blimit    5.620E+00  1.568E+00  1.000E+00  6.273E+00
:DIRP :  |MSR1|= 4.848E-04 |PRATT|= 5.957E-04 ANGLE=  25.2 DEGREES
:DIRQ :  |MSR1|= 6.427E-04 |PRATT|= 1.490E-03 ANGLE=  11.0 DEGREES
:DIR  :  |MSR1|= 8.050E-04 |PRATT|= 1.604E-03 ANGLE=  21.6 DEGREES
:MIX  :   MSE1   REGULARIZATION: 3.23E-06  GREED: 0.225  Newton 1.00  0.50                
     
       CHARGES OF MIXED CHARGE DENSITY
:CTO   : INTERSTITIAL CHARGE =     6.402966
:CTO001: CHARGE SPHERE  1    =    24.936726
:CTO002: CHARGE SPHERE  2    =    31.861791

:NEC03: NUCLEAR AND ELECTRONIC CHARGE    120.00000   120.00000

PW CHANGE     H    K    L       Current     Change     Residue
:PTO001:      0    0    0  3.77151497E-02 -1.058E-06 -1.093E-06
:PTO002:      0    0   -1  1.33278314E-02  3.260E-07  1.155E-06
:PTO004:     -1    0   -1 -8.45097258E-02  2.820E-06  2.266E-06
:PTO005:      0    0   -2 -1.14826745E-02 -1.074E-07 -8.325E-07
:PTO006:     -1   -1    0 -2.31247816E-02  1.033E-06  1.518E-06
:PTO007:     -1   -1   -1  1.61721577E-02 -2.013E-06 -2.358E-06
:PTO008:     -1    0   -2  7.91168411E-03 -1.941E-06 -3.108E-06
:PTO009:     -1   -1   -2  1.94372393E-02 -1.760E-06 -8.307E-07
:PTO010:     -2    0    0 -9.19395819E-03  1.332E-06  1.450E-06
:PTO011:      0    0   -3  1.00457504E-03 -5.736E-07 -7.855E-07
:PTO012:     -2    0   -1  6.00446651E-03  5.536E-07  3.604E-07
:PTO014:     -1    0   -3  6.56861174E-03 -2.195E-07  9.944E-07

:ENE  : ********** TOTAL ENERGY IN Ry =       -14812.18386389

       TOTAL FORCE IN mRy/a.u. = |F|     Fx             Fy             Fz     with/without FOR in case.in2
:FOR001:   1.ATOM          0.000          0.000          0.000          0.000 partial forces
:FOR002:   2.ATOM        218.475          0.000          0.000        218.475 partial forces
       TOTAL FORCE WITH RESPECT TO GLOBAL CARTESIAN COORDINATES:
:FCA001:   1.ATOM                         0.000          0.000          0.000 partial forces
:FCA002:   2.ATOM                         0.000          0.000        218.475 partial forces
       TOTAL FORCE WITH RESPECT TO THE GLOBAL COORDINATE SYSTEM:
:FGL001:   1.ATOM                 0.000000000     0.000000000     0.000000000 partial forces
:FGL002:   2.ATOM                 0.000000000     0.000000000   218.474843600 partial forces


            ---------
:ITE012: 12. ITERATION
            ---------

:NATO :    2 INDEPENDENT AND    4 TOTAL ATOMS IN UNITCELL
       SUBSTANCE: FeSe                                                        

       LATTICE                      = P   
:POT  : POTENTIAL OPTION EX_PBE EC_PBE VX_PBE VC_PBE
:LAT  : LATTICE CONSTANTS=  7.12881  7.12881 10.43450    1.571    1.571    1.571
:VOL  : UNIT CELL VOLUME =     530.28024
       MODE OF CALCULATION IS       = RELA
       NON-SPINPOLARIZED CALCULATION
:IFFT  : FFT-parameters:   60   60   80 Factor: 2.00
       ATOMNUMBER=  1 Fe         VCOUL-ZERO =  0.30646E+00
:EFG001:                        EFG         =     0.13740   *10**21  V / m**2
                               V20  TOT/SRF=     0.11899    -0.02381
                               V22  TOT/SRF=     0.00000     0.00000
                               V22M TOT/SRF=     0.00000     0.00000
                               V21  TOT/SRF=     0.00000     0.00000
                               V21M TOT/SRF=     0.00000     0.00000

             -0.06870    0.00000    0.00000       -0.06870    0.00000    0.00000
              0.00000   -0.06870    0.00000        0.00000   -0.06870    0.00000
              0.00000    0.00000    0.13740        0.00000    0.00000    0.13740

         MAIN DIRECTIONS OF THE EFG   1.0000  0.0000  0.0000
                                      0.0000  1.0000  0.0000
                                      0.0000  0.0000  1.0000
:ANG001:  ANGLE WITH OLD X-AXIS =         0.0

:ETA001:                         ASYMM. ETA =     0.00000


       ATOMNUMBER=  2 Se         VCOUL-ZERO =  0.17774E+00
:EFG002:                        EFG         =    -5.77091   *10**21  V / m**2
                               V20  TOT/SRF=    -4.99776     0.00736
                               V22  TOT/SRF=     0.00000     0.00000
                               V22M TOT/SRF=     0.00000     0.00000
                               V21  TOT/SRF=     0.00000     0.00000
                               V21M TOT/SRF=     0.00000     0.00000

              2.88546    0.00000    0.00000        2.88546    0.00000    0.00000
              0.00000    2.88546    0.00000        0.00000    2.88546    0.00000
              0.00000    0.00000   -5.77091        0.00000    0.00000   -5.77091

         MAIN DIRECTIONS OF THE EFG   1.0000  0.0000  0.0000
                                      0.0000  1.0000  0.0000
                                      0.0000  0.0000  1.0000
:ANG002:  ANGLE WITH OLD X-AXIS =         0.0

:ETA002:                         ASYMM. ETA =     0.00000


     HELLMANN-FEYNMAN-FORCE IN mRy/a.u. = |F|  Fx       Fy             Fz
:FHF001:   1.ATOM      0.000000000      0.000000000      0.000000000      0.000000000

     HELLMANN-FEYNMAN-FORCE IN mRy/a.u. = |F|  Fx       Fy             Fz
:FHF002:   2.ATOM   1506.093044437      0.000000000      0.000000000   1506.093044437

:FIT001: LUSE= 13 SIGMA OF V-XC FIT FOR ATOM  1  0.6175194E-02
:FIT001: LUSE= 13 SIGMA OF V-XC FIT FOR ATOM  1  0.6175194E-02
:FIT002: LUSE= 13 SIGMA OF V-XC FIT FOR ATOM  2  0.5993170E-03
:FIT002: LUSE= 13 SIGMA OF V-XC FIT FOR ATOM  2  0.5993170E-03
:DEN  : DENSITY INTEGRAL  =         -6223.93711062   (Ry)
       ELS_POTENTIAL_AT Z=0 and Z=0.5:  -0.59687   0.60052
       ELS_POTENTIAL_AT Y=0 and Y=0.5:   0.00000   0.00000
:VZERO:v0,v0c,v0x  -1.37239  -0.59687  -0.77552 v5,v5c,v5x   0.12611   0.60052  -0.47441
:VZERY:v0,v0c,v0x  -0.68619   0.00000  -0.68619 v5,v5c,v5x  -0.68619   0.00000  -0.68619
:VZERX:v0,v0c,v0x   0.04453   0.72246  -0.67793 v5,v5c,v5x   0.04453   0.72246  -0.67793

          ATOMIC SPHERE DEPENDENT PARAMETERS FOR ATOM  Fe        
:e__0001: OVERALL ENERGY PARAMETER IS    0.1793
          OVERALL BASIS SET ON ATOM IS LAPW
:E0_0001: E( 0)=    0.1793
             APW+lo
:E0_0001: E( 0)=   -5.9936   E(BOTTOM)=   -6.012   E(TOP)=   -5.975  2  3   155
             LOCAL ORBITAL
:E1_0001: E( 1)=    0.1793
             APW+lo
:E1_0001: E( 1)=   -3.5088   E(BOTTOM)=   -3.559   E(TOP)=   -3.459  1  2   140
             LOCAL ORBITAL
:E2_0001: E( 2)=    0.2956   E(BOTTOM)=    0.019   E(TOP)=    0.573  0  1   132
             APW+lo

          ATOMIC SPHERE DEPENDENT PARAMETERS FOR ATOM  Se        
:e__0002: OVERALL ENERGY PARAMETER IS    0.1793
          OVERALL BASIS SET ON ATOM IS LAPW
:E2_0002: E( 2)=    0.1793
             APW+lo
:E2_0002: E( 2)=   -3.1751   E(BOTTOM)=   -3.200   E(TOP)=   -3.150  0  1   143
             LOCAL ORBITAL
:E0_0002: E( 0)=   -0.3376   E(BOTTOM)=   -1.499   E(TOP)=    0.824  3  4   217
             APW+lo
:E0_0002: E( 0)=    0.5793
             LOCAL ORBITAL
:E1_0002: E( 1)=    0.1793
             APW+lo

       K=   0.04545   0.04545   0.07143            1
:RKM  : MATRIX SIZE   357LOs:  56  RKM= 7.00  WEIGHT= 8.00  PGR:    
       EIGENVALUES ARE:
:EIG00001:      -5.9910925   -5.9892648   -3.5062130   -3.5060261   -3.4977469
:EIG00006:      -3.4975334   -3.4920362   -3.4902040   -3.1700984   -3.1698488
:EIG00011:      -3.1694064   -3.1693522   -3.1684308   -3.1683994   -3.1682405
:EIG00016:      -3.1682354   -3.1676102   -3.1675173   -0.6817699   -0.5974402
:EIG00021:      -0.0426161    0.0957835    0.1069267    0.1111359    0.1482345
:EIG00026:       0.1527212    0.2048911    0.3266130    0.3333057    0.3711008
:EIG00031:       0.3873162    0.3892067    0.4270690    0.4401390    0.5235041
:EIG00036:       0.5313789    0.6018086    0.7512891    0.8082615    0.8858249
:EIG00041:       0.8964294    0.9128670    1.2378544    1.2757011    1.3102155
:EIG00046:       1.3426602    1.3475790    1.3749801    1.4039866    1.4464672
 
:EIG00051:       1.4551416    1.4831113    1.5763122    1.5831861    1.7036079
:EIG00056:       1.7376626    1.8363528
       ********************************************************

:KPT   :      NUMBER OF K-POINTS:    84
:GAP  : -99999.   Ry = -9999.    eV  ( metallic )
         Bandranges (emin - emax) and occupancy:
:BAN00024:  24    0.071234    0.136091  2.00000000
:BAN00025:  25    0.116309    0.174198  2.00000000
:BAN00026:  26    0.133085    0.178205  2.00000000
:BAN00027:  27    0.204891    0.290260  2.00000000
:BAN00028:  28    0.248632    0.329340  2.00000000
:BAN00029:  29    0.263418    0.339036  2.00000000
:BAN00030:  30    0.266927    0.378182  2.00000000
:BAN00031:  31    0.325396    0.387316  1.87349042
:BAN00032:  32    0.325396    0.397801  1.82936021
:BAN00033:  33    0.363549    0.463126  0.16812267
:BAN00034:  34    0.364988    0.463126  0.12900824
:BAN00035:  35    0.444968    0.523504  0.00000000
:BAN00036:  36    0.444968    0.531379  0.00000000
:BAN00037:  37    0.601809    0.852957  0.00000000
:BAN00038:  38    0.703627    0.857844  0.00000000
:BAN00039:  39    0.772967    0.969794  0.00000000
        Energy to separate low and high energystates:   -0.09262


:NOE  : NUMBER OF ELECTRONS          =  64.000

:FER  : F E R M I - ENERGY(TETRAH.M.)=   0.3793026371
:GMA  : POTENTIAL AND CHARGE CUT-OFF  12.00 Ry**.5




:POS001: ATOM   -1 X,Y,Z = 0.25000 0.75000 0.00000  MULT= 2  ZZ= 26.000  Fe        

       LMMAX  8
       LM=   0 0  2 0 -3 2  4 0  4 4 -5 2  6 0  6 4

:CHA001: TOTAL VALENCE CHARGE INSIDE SPHERE   1 =  14.9367    (RMT=  2.3100 )
:PCS001: PARTIAL CHARGES SPHERE =  1 S,P,D,F,PZ,PXY,,D-Z2,D-XY,D-X2Y2,D-XZ,YZ 
:QTL001: 2.3177 6.3388 6.2468 0.0263 2.0954 4.2434 0.0000 1.4107 1.2971 1.1834 2.3556 0.0000
        Q-s-low E-s-low   Q-p-low E-p-low   Q-d-low E-d-low   Q-f-low E-f-low
:EPL001:  2.0470 -5.8638    6.0291 -3.4759    0.0432 -0.6424    0.0048 -0.7650
        Q-s-hi  E-s-hi    Q-p-hi  E-p-hi    Q-d-hi  E-d-hi    Q-f-hi  E-f-hi 
:EPH001:  0.2707  0.0287    0.3097  0.1444    6.2037  0.2704    0.0215  0.1521
:VZZ001: EFG INSIDE SPHERE   1 =     0.179027      UP TO R =   2.31000




:POS002: ATOM   -2 X,Y,Z = 0.25000 0.25000 0.26730  MULT= 2  ZZ= 34.000  Se        

       LMMAX 10
       LM=   0 0  1 0  2 0  3 0  4 0  4 4  5 0  5 4  6 0  6 4

:CHA002: TOTAL VALENCE CHARGE INSIDE SPHERE   2 =  13.8621    (RMT=  2.1900 )
:PCS002: PARTIAL CHARGES SPHERE =  2 S,P,D,F,PZ,PXY,,D-Z2,D-XY,D-X2Y2,D-XZ,YZ 
:QTL002: 1.4757 2.305310.0617 0.0154 0.7911 1.5141 0.0000 2.0127 2.0124 2.0124 4.0242 0.0000
        Q-s-low E-s-low   Q-p-low E-p-low   Q-d-low E-d-low   Q-f-low E-f-low
:EPL002:  1.3953 -0.6169    0.0110 -0.7982    9.9862 -3.1687    0.0003 -3.0283
        Q-s-hi  E-s-hi    Q-p-hi  E-p-hi    Q-d-hi  E-d-hi    Q-f-hi  E-f-hi 
:EPH002:  0.0804  0.1051    2.2943  0.0991    0.0755  0.2269    0.0151  0.2910
:VZZ002: EFG INSIDE SPHERE   2 =    -5.799829      UP TO R =   2.19000

:CHA  : TOTAL VALENCE CHARGE INSIDE UNIT CELL =      63.999982

:SUM  : SUM OF EIGENVALUES =        -127.099286629


        1.ATOM      Fe                    4 CORE STATES
:1S 001: 1S                -513.403655145 Ry
:2S 001: 2S                 -59.320092810 Ry
:2PP001: 2P*                -51.023235300 Ry
:2P 001: 2P                 -50.105730152 Ry

        2.ATOM      Se                    7 CORE STATES
       CORE-FORCE in mRy/a.u. = |F|      Fx             Fy             Fz
:FCO002:   2.ATOM   1288.299356720      0.000000000      0.000000000  -1288.299356720

:1S 002: 1S                -918.077422795 Ry
:2S 002: 2S                -117.340887600 Ry
:2PP002: 2P*               -105.188764144 Ry
:2P 002: 2P                -102.119344111 Ry
:3S 002: 3S                 -14.952954059 Ry
:3PP002: 3P*                -10.797623051 Ry
:3P 002: 3P                 -10.366042709 Ry
:CINT001 Core Integral Atom   1   10.000000
:CINT002 Core Integral Atom   2   17.999766

       DENSITY AT NUCLEUS
        JATOM        VALENCE       SEMI-CORE          CORE           TOTAL
:RTO001:   1      186.887594        0.000000    14701.300646    14888.188240
:RTO002:   2       54.529944        0.000000    39112.317819    39166.847763
     
       CHARGES OF NEW CHARGE DENSITY
:NTO   : INTERSTITIAL CHARGE =     6.402376
:NTO001: CHARGE SPHERE  1    =    24.936733
:NTO002: CHARGE SPHERE  2    =    31.861827

:NEC01: NUCLEAR AND ELECTRONIC CHARGE    120.00000   119.99950
     
       CHARGES OF OLD CHARGE DENSITY
:OTO   : INTERSTITIAL CHARGE =     6.402966
:OTO001: CHARGE SPHERE  1    =    24.936726
:OTO002: CHARGE SPHERE  2    =    31.861791

:NEC02: NUCLEAR AND ELECTRONIC CHARGE    120.00000   120.00000
     
       CONVERGENCE TEST
:DTO001: DIFFERENCE IN SPHERE  1 =  0.0000257
:DTO002: DIFFERENCE IN SPHERE  2 =  0.0000777

:DIS  :  CHARGE DISTANCE       ( 0.0000777 for atom    2 spin 1)      0.0000517
:BIG check (qbig,qrms,qtot)    0.259D-04   0.409D-04   0.517D-04
 
******************************************************
* MULTISECANT MIXING VER6 RELEASE 6.0 OPTIONS        *
* Standard Mode with controls                        *
* Regularization       1.000E-06                     *
* Trust Region Control Active                        *
* Max Number of Memory Steps    8                    *
******************************************************
 
:PLANE:  INTERSTITIAL TOTAL      1.20974 DISTAN  1.456E-03 % 
:CHARG:  CLM CHARGE   /ATOM    163.27020 DISTAN  8.156E-05 % 
 
 Step History DMIX, Red, Pred, Trust, FRMS, FABS
  5  1.2977E-01  6.7904E-01  8.8261E-01  3.5272E+00
  6  1.8363E-01  2.0552E-01  3.5065E-01  4.4838E+00
  7  2.0000E-01  4.0339E-01  4.3156E-01  5.3532E+00
  8  2.0000E-01  5.4163E-01  7.6297E-01  5.7646E+00
  9  2.0223E-01  2.5937E-01  2.9513E-01  5.5535E+00
 10  2.0646E-01  2.8037E-01  3.0522E-01  5.5670E+00
 11  2.0929E-01  4.8930E-01  3.8345E-01  5.7614E+00
 12  2.2481E-01  1.0000E+00  2.5986E-01  6.2732E+00
  
:NORMS:  Nuclear, Spectral, Froebius, Shanno-Pua   0.1296E+01  0.8252E+00  0.1079E+01  0.9442E+00
:INFO :  Number of Memory Steps    8 Skipping    3
:INFO :  SLambda=    1.4987102  Max    1.4987102

Eigenvalues, unscaled except for SY+YY
   #     SY Real        SY Imag          SS             YY         SY+YY Real      SY+YY Imag
   1   3.319603E+00   0.000000E+00   4.200853E+00   2.860722E+00   7.826047E+00   0.000000E+00
   2   1.780338E+00   0.000000E+00   1.720549E+00   1.971935E+00   4.589707E+00   0.000000E+00
   3   7.817419E-01   0.000000E+00   6.238135E-01   1.291987E+00   2.339165E+00   0.000000E+00
   4   3.820079E-01   0.000000E+00   1.764747E-01   1.027021E+00   1.667478E+00   0.000000E+00
   5   3.634737E-01   0.000000E+00   1.307617E-01   6.850512E-01   1.342318E+00   0.000000E+00
   6   5.262295E-02   0.000000E+00   1.997576E-02   1.327886E-01   2.132963E-01   0.000000E+00
   7   6.818290E-05   0.000000E+00   3.885414E-05   1.050564E-04   2.135866E-04   0.000000E+00
   8   4.839716E-03   0.000000E+00   7.680000E-04   3.039043E-02   4.019545E-02   0.000000E+00
 
:INFO :  Singular value   7.904E+00 Weight  1.0000E+00 Projections   1.871E-02  3.325E-06
:INFO :  Singular value   4.593E+00 Weight  1.0000E+00 Projections  -1.640E-02 -4.650E-06
:INFO :  Singular value   2.338E+00 Weight  1.0000E+00 Projections  -9.161E-03  1.446E-05
:INFO :  Singular value   1.655E+00 Weight  1.0000E+00 Projections   7.199E-03 -1.132E-05
:INFO :  Singular value   1.341E+00 Weight  1.0000E+00 Projections  -6.447E-03 -4.152E-05
:INFO :  Singular value   2.131E-01 Weight  1.0000E+00 Projections  -6.108E-03  1.461E-04
:INFO :  Singular value   4.017E-02 Weight  1.0000E+00 Projections   9.354E-03 -2.887E-04
:INFO :  Singular value   2.136E-04 Weight  9.9982E-01 Projections  -7.079E-03 -3.116E-02
 
:DIRM :  MEMORY 8/8 RESCALE  11.52 RED 0.202 PRED 0.260 NEXT 0.367
:INFO :  Blimit    6.168E+00  1.816E+00  1.000E+00  7.265E+00
:DIRP :  |MSR1|= 1.669E-04 |PRATT|= 2.030E-04 ANGLE=  12.2 DEGREES
:DIRQ :  |MSR1|= 1.857E-04 |PRATT|= 2.663E-04 ANGLE=  17.8 DEGREES
:DIR  :  |MSR1|= 2.497E-04 |PRATT|= 3.349E-04 ANGLE=  16.4 DEGREES
:MIX  :   MSE1   REGULARIZATION: 2.86E-06  GREED: 0.242  Newton 1.00  0.75                
     
       CHARGES OF MIXED CHARGE DENSITY
:CTO   : INTERSTITIAL CHARGE =     6.402899
:CTO001: CHARGE SPHERE  1    =    24.936729
:CTO002: CHARGE SPHERE  2    =    31.861821

:NEC03: NUCLEAR AND ELECTRONIC CHARGE    120.00000   120.00000

PW CHANGE     H    K    L       Current     Change     Residue
:PTO001:      0    0    0  3.77148696E-02 -2.801E-07 -3.089E-07
:PTO002:      0    0   -1  1.33278684E-02  3.700E-08  1.843E-08
:PTO004:     -1    0   -1 -8.45092119E-02  5.139E-07  4.002E-07
:PTO005:      0    0   -2 -1.14828566E-02 -1.821E-07 -3.076E-07
:PTO006:     -1   -1    0 -2.31242128E-02  5.688E-07  6.171E-07
:PTO007:     -1   -1   -1  1.61722976E-02  1.399E-07  2.208E-07
:PTO008:     -1    0   -2  7.91148854E-03 -1.956E-07 -7.867E-08
:PTO009:     -1   -1   -2  1.94376536E-02  4.143E-07  5.867E-07
:PTO010:     -2    0    0 -9.19384702E-03  1.112E-07  1.266E-07
:PTO011:      0    0   -3  1.00468105E-03  1.060E-07  1.749E-07
:PTO012:     -2    0   -1  6.00437037E-03 -9.613E-08 -4.090E-08
:PTO014:     -1    0   -3  6.56908832E-03  4.766E-07  6.867E-07

:ENE  : ********** TOTAL ENERGY IN Ry =       -14812.18387264

       TOTAL FORCE IN mRy/a.u. = |F|     Fx             Fy             Fz     with/without FOR in case.in2
:FOR001:   1.ATOM          0.000          0.000          0.000          0.000 partial forces
:FOR002:   2.ATOM        217.794          0.000          0.000        217.794 partial forces
       TOTAL FORCE WITH RESPECT TO GLOBAL CARTESIAN COORDINATES:
:FCA001:   1.ATOM                         0.000          0.000          0.000 partial forces
:FCA002:   2.ATOM                         0.000          0.000        217.794 partial forces
       TOTAL FORCE WITH RESPECT TO THE GLOBAL COORDINATE SYSTEM:
:FGL001:   1.ATOM                 0.000000000     0.000000000     0.000000000 partial forces
:FGL002:   2.ATOM                 0.000000000     0.000000000   217.793687717 partial forces
