    2    2    1    1
  0.2072484E+02  0.3884592E-09  0.3884592E-09  0.3884592E-09  0.5000000E-15
   1.0000000000000000E-004
  CAR 
 unknown system                          
      8      4     16

  0.3742002E-15  0.3742002E-15  0.3742002E-15  0.3703704E-01
    1       -6.112430   1.000000
    2        5.558259   0.996638
    3        5.558259   0.996638
    4        5.558259   0.996638
    5        8.137938   0.000000
    6        8.137938   0.000000
    7        8.137938   0.000000
    8        8.646015   0.000000
    9       13.263389   0.000000
   10       13.263389   0.000000
   11       13.391181   0.000000
   12       16.681381   0.000000
   13       16.681381   0.000000
   14       16.681381   0.000000
   15       20.781023   0.000000
   16       28.250027   0.000000

  0.3333333E+00  0.3608225E-15  0.3608225E-15  0.2962963E+00
    1       -4.778366   1.000000
    2        0.362682   1.000000
    3        4.595786   1.000000
    4        4.595786   1.000000
    5        7.256113   0.000000
    6        9.075882   0.000000
    7        9.075882   0.000000
    8       13.297799   0.000000
    9       13.487824   0.000000
   10       13.487824   0.000000
   11       14.467565   0.000000
   12       18.889577   0.000000
   13       19.933786   0.000000
   14       19.933786   0.000000
   15       21.966072   0.000000
   16       22.951147   0.000000

  0.3333333E+00  0.3333333E+00  0.3742002E-15  0.2222222E+00
    1       -4.264350   1.000000
    2        0.628970   1.000000
    3        3.235287   1.000000
    4        3.235287   1.000000
    5        6.356276   0.001681
    6        7.610775   0.000000
    7       12.684174   0.000000
    8       12.684174   0.000000
    9       15.053551   0.000000
   10       15.359732   0.000000
   11       18.388249   0.000000
   12       18.826227   0.000000
   13       18.826227   0.000000
   14       20.514956   0.000000
   15       21.526670   0.000000
   16       21.679370   0.000000

 -0.3333333E+00  0.3333333E+00  0.3885781E-15  0.4444444E+00
    1       -2.955097   1.000000
    2       -1.071214   1.000000
    3        1.323991   1.000000
    4        3.528233   1.000000
    5        7.177130   0.000000
    6       11.310954   0.000000
    7       11.949389   0.000000
    8       12.476713   0.000000
    9       12.806511   0.000000
   10       13.177577   0.000000
   11       19.732543   0.000000
   12       20.266936   0.000000
   13       20.857675   0.000000
   14       21.039976   0.000000
   15       21.864738   0.000000
   16       22.750927   0.000000
