       N       E                     dE             d eps       ncg     rms          rms(c)
DAV:   1     0.662107316646E+01    0.66211E+01   -0.41674E+03   128   0.511E+02
DAV:   2    -0.776555796091E+01   -0.14387E+02   -0.13235E+02   176   0.430E+01
DAV:   3    -0.787322710603E+01   -0.10767E+00   -0.10767E+00   160   0.485E+00
DAV:   4    -0.787357686831E+01   -0.34976E-03   -0.34976E-03   224   0.331E-01
DAV:   5    -0.787357687753E+01   -0.92186E-08   -0.89350E-08   160   0.164E-03    0.393E+00
DAV:   6    -0.779262887437E+01    0.80948E-01   -0.10794E-01   176   0.968E-01    0.242E+00
DAV:   7    -0.777063357932E+01    0.21995E-01   -0.25659E-01   176   0.147E+00    0.210E-01
DAV:   8    -0.775276165756E+01    0.17872E-01   -0.59538E-03   160   0.279E-01    0.113E-01
DAV:   9    -0.775331877301E+01   -0.55712E-03   -0.74561E-04   160   0.103E-01    0.563E-02
DAV:  10    -0.775354628162E+01   -0.22751E-03   -0.25522E-05   208   0.233E-02    0.385E-03
DAV:  11    -0.775329380314E+01    0.25248E-03   -0.12676E-06   208   0.408E-03    0.121E-03
DAV:  12    -0.775328784903E+01    0.59541E-05   -0.51553E-08   160   0.124E-03    0.325E-04
DAV:  13    -0.775327395812E+01    0.13891E-04   -0.59583E-09   160   0.321E-04    0.179E-04
DAV:  14    -0.775327757628E+01   -0.36182E-05   -0.33099E-10   128   0.931E-05    0.354E-05
DAV:  15    -0.775327776381E+01   -0.18753E-06   -0.20497E-11   112   0.194E-05    0.922E-06
DAV:  16    -0.775327780634E+01   -0.42537E-07   -0.19373E-12   112   0.701E-06
   1 F= -.77532778E+01 E0= -.77529484E+01  d E =-.775328E+01
