 vasp.5.4.1 24Jun15 (build Feb  9 2019 14:16:27) complex                         
 executed on           IFC91_ompi date 2020.09.26  22:24:00
 running on   16 total cores
 distrk:  each k-point on   16 cores,    1 groups
 distr:  one band on NCORES_PER_BAND=   1 cores,   16 groups


--------------------------------------------------------------------------------------------------------


 INCAR:
 POTCAR:    PAW_PBE Si 05Jan2001                  

 ----------------------------------------------------------------------------- 
|                                                                             |
|           W    W    AA    RRRRR   N    N  II  N    N   GGGG   !!!           |
|           W    W   A  A   R    R  NN   N  II  NN   N  G    G  !!!           |
|           W    W  A    A  R    R  N N  N  II  N N  N  G       !!!           |
|           W WW W  AAAAAA  RRRRR   N  N N  II  N  N N  G  GGG   !            |
|           WW  WW  A    A  R   R   N   NN  II  N   NN  G    G                |
|           W    W  A    A  R    R  N    N  II  N    N   GGGG   !!!           |
|                                                                             |
|      For optimal performance we recommend to set                            |
|        NCORE= 4 - approx SQRT( number of cores)                             |
|      NCORE specifies how many cores store one orbital (NPAR=cpu/NCORE).     |
|      This setting can  greatly improve the performance of VASP for DFT.     |
|      The default, NPAR=number of cores might be grossly inefficient         |
|      on modern multi-core architectures or massively parallel machines.     |
|      Do your own testing !!!!                                               |
|      Unfortunately you need to use the default for GW and RPA calculations. |
|      (for HF NCORE is supported but not extensively tested yet)             |
|                                                                             |
 ----------------------------------------------------------------------------- 


 ----------------------------------------------------------------------------- 
|                                                                             |
|  ADVICE TO THIS USER RUNNING 'VASP/VAMP'   (HEAR YOUR MASTER'S VOICE ...):  |
|                                                                             |
|      You have switched on vdW-DFT.                                          |
|      This routine was written and supplied by Jiri Klimes.                  |
|      We recommed that you carefully read and cite the following             |
|      publication                                                            |
|      J. Klimes, D.R. Bowler, A. Michelides                                  |
|        J. Phys.: Cond Matt. 22 022201 (2010)                                |
|      J. Klimes, D.R. Bowler, A. Michelides                                  |
|        Phys. Rev. B. 83, 195131 (2011)                                      |
|      and references therein.                                                |
|                                                                             |
 ----------------------------------------------------------------------------- 

 POTCAR:    PAW_PBE Si 05Jan2001                  
   VRHFIN =Si: s2p2                                                             
   LEXCH  = PE                                                                  
   EATOM  =   103.0669 eV,    7.5752 Ry                                         
                                                                                
   TITEL  = PAW_PBE Si 05Jan2001                                                
   LULTRA =        F    use ultrasoft PP ?                                      
   IUNSCR =        1    unscreen: 0-lin 1-nonlin 2-no                           
   RPACOR =    1.500    partial core radius                                     
   POMASS =   28.085; ZVAL   =    4.000    mass and valenz                      
   RCORE  =    1.900    outmost cutoff radius                                   
   RWIGS  =    2.480; RWIGS  =    1.312    wigner-seitz radius (au A)           
   ENMAX  =  245.345; ENMIN  =  184.009 eV                                      
   ICORE  =        2    local potential                                         
   LCOR   =        T    correct aug charges                                     
   LPAW   =        T    paw PP                                                  
   EAUG   =  322.069                                                            
   DEXC   =    0.000                                                            
   RMAX   =    1.950    core radius for proj-oper                               
   RAUG   =    1.300    factor for augmentation sphere                          
   RDEP   =    1.993    radius for radial grids                                 
   RDEPT  =    1.837    core radius for aug-charge                              
                                                                                
   Atomic configuration                                                         
    6 entries                                                                   
     n  l   j            E        occ.                                          
     1  0  0.50     -1785.8828   2.0000                                         
     2  0  0.50      -139.4969   2.0000                                         
     2  1  1.50       -95.5546   6.0000                                         
     3  0  0.50       -10.8127   2.0000                                         
     3  1  0.50        -4.0811   2.0000                                         
     3  2  1.50        -4.0817   0.0000                                         
   Description                                                                  
     l       E           TYP  RCUT    TYP  RCUT                                 
     0    -10.8127223     23  1.900                                             
     0     -7.6451159     23  1.900                                             
     1     -4.0811372     23  1.900                                             
     1      2.4879257     23  1.900                                             
     2     -4.0817478      7  1.900                                             
  local pseudopotential read in
  partial core-charges read in
  partial kinetic energy density read in
  atomic valenz-charges read in
  non local Contribution for L=           0  read in
    real space projection operators read in
  non local Contribution for L=           0  read in
    real space projection operators read in
  non local Contribution for L=           1  read in
    real space projection operators read in
  non local Contribution for L=           1  read in
    real space projection operators read in
    PAW grid and wavefunctions read in

   number of l-projection  operators is LMAX  =           4
   number of lm-projection operators is LMMAX =           8


 ----------------------------------------------------------------------------- 
|                                                                             |
|  ADVICE TO THIS USER RUNNING 'VASP/VAMP'   (HEAR YOUR MASTER'S VOICE ...):  |
|                                                                             |
|      You enforced a specific xc-type in the INCAR file,                     |
|      a different type was found on the POTCAR file                          |
|          I HOPE YOU KNOW, WHAT YOU ARE  DOING                               |
|                                                                             |
 ----------------------------------------------------------------------------- 

  PAW_PBE Si 05Jan2001                  :
 energy of atom  1       EATOM= -103.0669
 kinetic energy error for atom=    0.0003 (will be added to EATOM!!)


 POSCAR: bulk@JVASP-1002                         
  positions in direct lattice
  No initial velocities read in
 exchange correlation table for  LEXCH =       42
   RHO(1)=    0.500       N(1)  =     2000
   RHO(2)=  100.500       N(2)  =     4000



--------------------------------------------------------------------------------------------------------


 ion  position               nearest neighbor table
   1  0.750  0.750  0.750-   2 2.38   2 2.38   2 2.38   2 2.38
   2  0.500  0.500  0.500-   1 2.38   1 2.38   1 2.38   1 2.38

  LATTYP: Found a face centered cubic cell.
 ALAT       =     5.4936422752
  
  Lattice vectors:
  
 A1 = (   0.0000000000,   2.7468211376,   2.7468211376)
 A2 = (   2.7468211376,   0.0000000000,   2.7468211376)
 A3 = (   2.7468211376,   2.7468211376,   0.0000000000)


Analysis of symmetry for initial positions (statically):
=====================================================================
 Subroutine PRICEL returns:
 Original cell was already a primitive cell.
 

 Routine SETGRP: Setting up the symmetry group for a 
 face centered cubic supercell.


 Subroutine GETGRP returns: Found 48 space group operations
 (whereof 24 operations were pure point group operations)
 out of a pool of 48 trial point group operations.


The static configuration has the point symmetry T_d .
 The point group associated with its full space group is O_h .


Analysis of symmetry for dynamics (positions and initial velocities):
=====================================================================
 Subroutine PRICEL returns:
 Original cell was already a primitive cell.
 

 Routine SETGRP: Setting up the symmetry group for a 
 face centered cubic supercell.


 Subroutine GETGRP returns: Found 48 space group operations
 (whereof 24 operations were pure point group operations)
 out of a pool of 48 trial point group operations.


The dynamic configuration has the point symmetry T_d .
 The point group associated with its full space group is O_h .


 KPOINTS: Automatic kpoint scheme                 

Automatic generation of k-mesh.
Space group operators:
 irot       det(A)        alpha          n_x          n_y          n_z        tau_x        tau_y        tau_z
    1     1.000000     0.000000     1.000000     0.000000     0.000000     0.000000     0.000000     0.000000
    2     1.000000   120.000000    -0.577350    -0.577350    -0.577350     0.000000     0.000000     0.000000
    3     1.000000   120.000000     0.577350     0.577350     0.577350     0.000000     0.000000     0.000000
    4    -1.000000    90.000000     0.000000     0.000000    -1.000000     0.000000     0.000000     0.000000
    5    -1.000000   180.000000     0.000000     0.707107     0.707107     0.000000     0.000000     0.000000
    6    -1.000000    90.000000     0.000000     1.000000     0.000000     0.000000     0.000000     0.000000
    7     1.000000   180.000000     0.000000     0.000000     1.000000     0.000000     0.000000     0.000000
    8     1.000000   120.000000    -0.577350     0.577350     0.577350     0.000000     0.000000     0.000000
    9     1.000000   120.000000    -0.577350     0.577350    -0.577350     0.000000     0.000000     0.000000
   10    -1.000000    90.000000     0.000000     0.000000     1.000000     0.000000     0.000000     0.000000
   11    -1.000000    90.000000    -1.000000     0.000000     0.000000     0.000000     0.000000     0.000000
   12    -1.000000   180.000000     0.707107     0.000000     0.707107     0.000000     0.000000     0.000000
   13     1.000000   120.000000     0.577350    -0.577350     0.577350     0.000000     0.000000     0.000000
   14     1.000000   120.000000    -0.577350    -0.577350     0.577350     0.000000     0.000000     0.000000
   15     1.000000   180.000000     1.000000     0.000000     0.000000     0.000000     0.000000     0.000000
   16    -1.000000    90.000000     0.000000    -1.000000     0.000000     0.000000     0.000000     0.000000
   17    -1.000000   180.000000     0.707107     0.707107     0.000000     0.000000     0.000000     0.000000
   18    -1.000000    90.000000     1.000000     0.000000     0.000000     0.000000     0.000000     0.000000
   19     1.000000   120.000000     0.577350    -0.577350    -0.577350     0.000000     0.000000     0.000000
   20     1.000000   180.000000     0.000000     1.000000     0.000000     0.000000     0.000000     0.000000
   21     1.000000   120.000000     0.577350     0.577350    -0.577350     0.000000     0.000000     0.000000
   22    -1.000000   180.000000     0.000000    -0.707107     0.707107     0.000000     0.000000     0.000000
   23    -1.000000   180.000000     0.707107    -0.707107     0.000000     0.000000     0.000000     0.000000
   24    -1.000000   180.000000     0.707107     0.000000    -0.707107     0.000000     0.000000     0.000000
   25    -1.000000     0.000000     1.000000     0.000000     0.000000     0.250000     0.250000     0.250000
   26    -1.000000   120.000000    -0.577350    -0.577350    -0.577350     0.250000     0.250000     0.250000
   27    -1.000000   120.000000     0.577350     0.577350     0.577350     0.250000     0.250000     0.250000
   28     1.000000    90.000000     0.000000     0.000000    -1.000000     0.250000     0.250000     0.250000
   29     1.000000   180.000000     0.000000     0.707107     0.707107     0.250000     0.250000     0.250000
   30     1.000000    90.000000     0.000000     1.000000     0.000000     0.250000     0.250000     0.250000
   31    -1.000000   180.000000     0.000000     0.000000     1.000000     0.250000     0.250000     0.250000
   32    -1.000000   120.000000    -0.577350     0.577350     0.577350     0.250000     0.250000     0.250000
   33    -1.000000   120.000000    -0.577350     0.577350    -0.577350     0.250000     0.250000     0.250000
   34     1.000000    90.000000     0.000000     0.000000     1.000000     0.250000     0.250000     0.250000
   35     1.000000    90.000000    -1.000000     0.000000     0.000000     0.250000     0.250000     0.250000
   36     1.000000   180.000000     0.707107     0.000000     0.707107     0.250000     0.250000     0.250000
   37    -1.000000   120.000000     0.577350    -0.577350     0.577350     0.250000     0.250000     0.250000
   38    -1.000000   120.000000    -0.577350    -0.577350     0.577350     0.250000     0.250000     0.250000
   39    -1.000000   180.000000     1.000000     0.000000     0.000000     0.250000     0.250000     0.250000
   40     1.000000    90.000000     0.000000    -1.000000     0.000000     0.250000     0.250000     0.250000
   41     1.000000   180.000000     0.707107     0.707107     0.000000     0.250000     0.250000     0.250000
   42     1.000000    90.000000     1.000000     0.000000     0.000000     0.250000     0.250000     0.250000
   43    -1.000000   120.000000     0.577350    -0.577350    -0.577350     0.250000     0.250000     0.250000
   44    -1.000000   180.000000     0.000000     1.000000     0.000000     0.250000     0.250000     0.250000
   45    -1.000000   120.000000     0.577350     0.577350    -0.577350     0.250000     0.250000     0.250000
   46     1.000000   180.000000     0.000000    -0.707107     0.707107     0.250000     0.250000     0.250000
   47     1.000000   180.000000     0.707107    -0.707107     0.000000     0.250000     0.250000     0.250000
   48     1.000000   180.000000     0.707107     0.000000    -0.707107     0.250000     0.250000     0.250000
 
 Subroutine IBZKPT returns following result:
 ===========================================
 
 Found      4 irreducible k-points:
 
 Following reciprocal coordinates:
            Coordinates               Weight
  0.000000  0.000000  0.000000      1.000000
  0.333333  0.000000  0.000000      8.000000
  0.333333  0.333333  0.000000      6.000000
 -0.333333  0.333333  0.000000     12.000000
 
 Following cartesian coordinates:
            Coordinates               Weight
  0.000000  0.000000  0.000000      1.000000
 -0.060676  0.060676  0.060676      8.000000
  0.000000  0.000000  0.121352      6.000000
  0.121352 -0.121352  0.000000     12.000000
 


--------------------------------------------------------------------------------------------------------




 Dimension of arrays:
   k-points           NKPTS =        4   k-points in BZ     NKDIM =        4   number of bands    NBANDS=     16
   number of dos      NEDOS =    301   number of ions     NIONS =      2
   non local maximal  LDIM  =      4   non local SUM 2l+1 LMDIM =      8
   total plane-waves  NPLWV =  46656
   max r-space proj   IRMAX =      1   max aug-charges    IRDMAX=  37830
   dimension x,y,z NGX =    36 NGY =   36 NGZ =   36
   dimension x,y,z NGXF=    72 NGYF=   72 NGZF=   72
   support grid    NGXF=    72 NGYF=   72 NGZF=   72
   ions per type =               2
 NGX,Y,Z   is equivalent  to a cutoff of  15.41, 15.41, 15.41 a.u.
 NGXF,Y,Z  is equivalent  to a cutoff of  30.81, 30.81, 30.81 a.u.


 I would recommend the setting:
   dimension x,y,z NGX =    34 NGY =   34 NGZ =   34
 SYSTEM =  unknown system                          
 POSCAR =  bulk@JVASP-1002                         

 Startparameter for this run:
   NWRITE =      2    write-flag & timer
   PREC   = accura    normal or accurate (medium, high low for compatibility)
   ISTART =      0    job   : 0-new  1-cont  2-samecut
   ICHARG =      2    charge: 1-file 2-atom 10-const
   ISPIN  =      1    spin polarized calculation?
   LNONCOLLINEAR =      F non collinear calculations
   LSORBIT =      F    spin-orbit coupling
   INIWAV =      1    electr: 0-lowe 1-rand  2-diag
   LASPH  =      F    aspherical Exc in radial PAW
   METAGGA=      F    non-selfconsistent MetaGGA calc.

 Electronic Relaxation 1
   ENCUT  =  700.0 eV  51.45 Ry    7.17 a.u.   8.38  8.38  8.38*2*pi/ulx,y,z
   ENINI  =  700.0     initial cutoff
   ENAUG  =  322.1 eV  augmentation charge cutoff
   NELM   =    400;   NELMIN=  2; NELMDL= -5     # of ELM steps 
   EDIFF  = 0.1E-06   stopping-criterion for ELM
   LREAL  =      F    real-space projection
   NLSPLINE    = F    spline interpolate recip. space projectors
   LCOMPAT=      F    compatible to vasp.4.4
   GGA_COMPAT  = T    GGA compatible to vasp.4.4-vasp.4.6
   LMAXPAW     = -100 max onsite density
   LMAXMIX     =    2 max onsite mixed and CHGCAR
   VOSKOWN=      0    Vosko Wilk Nusair interpolation
   ROPT   =    0.00000
 Ionic relaxation
   EDIFFG = 0.1E-05   stopping-criterion for IOM
   NSW    =      1    number of steps for IOM
   NBLOCK =      1;   KBLOCK =      1    inner block; outer block 
   IBRION =      2    ionic relax: 0-MD 1-quasi-New 2-CG
   NFREE  =      1    steps in history (QN), initial steepest desc. (CG)
   ISIF   =      2    stress and relaxation
   IWAVPR =     11    prediction:  0-non 1-charg 2-wave 3-comb
   ISYM   =      2    0-nonsym 1-usesym 2-fastsym
   LCORR  =      T    Harris-Foulkes like correction to forces

   POTIM  = 0.5000    time-step for ionic-motion
   TEIN   =    0.0    initial temperature
   TEBEG  =    0.0;   TEEND  =   0.0 temperature during run
   SMASS  =  -3.00    Nose mass-parameter (am)
   estimated Nose-frequenzy (Omega)   =  0.10E-29 period in steps =****** mass=  -0.345E-27a.u.
   SCALEE = 1.0000    scale energy and forces
   NPACO  =    256;   APACO  = 16.0  distance and # of slots for P.C.
   PSTRESS=    0.0 pullay stress

  Mass of Ions in am
   POMASS =  28.09
  Ionic Valenz
   ZVAL   =   4.00
  Atomic Wigner-Seitz radii
   RWIGS  =  -1.00
  virtual crystal weights 
   VCA    =   1.00
   NELECT =       8.0000    total number of electrons
   NUPDOWN=      -1.0000    fix difference up-down

 DOS related values:
   EMIN   =  10.00;   EMAX   =-10.00  energy-range for DOS
   EFERMI =   0.00
   ISMEAR =     0;   SIGMA  =   0.20  broadening in eV -4-tet -1-fermi 0-gaus

 Electronic relaxation 2 (details)
   IALGO  =     38    algorithm
   LDIAG  =      T    sub-space diagonalisation (order eigenvalues)
   LSUBROT=      F    optimize rotation matrix (better conditioning)
   TURBO    =      0    0=normal 1=particle mesh
   IRESTART =      0    0=no restart 2=restart with 2 vectors
   NREBOOT  =      0    no. of reboots
   NMIN     =      0    reboot dimension
   EREF     =   0.00    reference energy to select bands
   IMIX   =      4    mixing-type and parameters
     AMIX     =   0.40;   BMIX     =  1.00
     AMIX_MAG =   1.60;   BMIX_MAG =  1.00
     AMIN     =   0.10
     WC   =   100.;   INIMIX=   1;  MIXPRE=   1;  MAXMIX= -45

 Intra band minimization:
   WEIMIN = 0.0010     energy-eigenvalue tresh-hold
   EBREAK =  0.16E-08  absolut break condition
   DEPER  =   0.30     relativ break condition  

   TIME   =   0.40     timestep for ELM

  volume/ion in A,a.u.               =      20.72       139.86
  Fermi-wavevector in a.u.,A,eV,Ry     =   0.946087  1.787845 12.178313  0.895081
  Thomas-Fermi vector in A             =   2.074051

 Write flags
   LWAVE  =      F    write WAVECAR
   LCHARG =      F    write CHGCAR
   LVTOT  =      F    write LOCPOT, total local potential
   LVHAR  =      F    write LOCPOT, Hartree potential only
   LELF   =      F    write electronic localiz. function (ELF)
   LORBIT =      0    0 simple, 1 ext, 2 COOP (PROOUT)


 Dipole corrections
   LMONO  =      F    monopole corrections only (constant potential shift)
   LDIPOL =      F    correct potential (dipole corrections)
   IDIPOL =      0    1-x, 2-y, 3-z, 4-all directions 
   EPSILON=  1.0000000 bulk dielectric constant

 Exchange correlation treatment:
   GGA     =    BO    GGA type
   LEXCH   =    42    internal setting for exchange type
   VOSKOWN=      0    Vosko Wilk Nusair interpolation
   LHFCALC =     F    Hartree Fock is set to
   LHFONE  =     F    Hartree Fock one center treatment
   AEXX    =    0.0000 exact exchange contribution

 vdW DFT:
   LUSE_VDW   =     T    switch on vdW DFT
   Zab_VDW    =-.8491    correlation parameter
   PARAM1     =0.1833
   PARAM2     =0.2200
   PARAM3     =0.0000

 Linear response parameters
   LEPSILON=     F    determine dielectric tensor
   LRPA    =     F    only Hartree local field effects (RPA)
   LNABLA  =     F    use nabla operator in PAW spheres
   LVEL    =     F    velocity operator in full k-point grid
   LINTERFAST=   F  fast interpolation
   KINTER  =     0    interpolate to denser k-point grid
   CSHIFT  =0.1000    complex shift for real part using Kramers Kronig
   OMEGAMAX=  -1.0    maximum frequency
   DEG_THRESHOLD= 0.2000000E-02 threshold for treating states as degnerate
   RTIME   =    0.100 relaxation time in fs

 Orbital magnetization related:
   ORBITALMAG=     F  switch on orbital magnetization
   LCHIMAG   =     F  perturbation theory with respect to B field
   DQ        =  0.001000  dq finite difference perturbation B field



--------------------------------------------------------------------------------------------------------


 conjugate gradient relaxation of ions
 charge density and potential will be updated during run
 non-spin polarized calculation
 Variant of blocked Davidson
 Davidson routine will perform the subspace rotation
 perform sub-space diagonalisation
    after iterative eigenvector-optimisation
 modified Broyden-mixing scheme, WC =      100.0
 initial mixing is a Kerker type mixing with AMIX =  0.4000 and BMIX =      1.0000
 Hartree-type preconditioning will be used
 using additional bands           12
 reciprocal scheme for non local part
 use partial core corrections
 calculate Harris-corrections to forces   (improved forces if not selfconsistent)
 use gradient corrections 
 use of overlap-Matrix (Vanderbilt PP)
 Gauss-broadening in eV      SIGMA  =   0.20


--------------------------------------------------------------------------------------------------------


  energy-cutoff  :      700.00
  volume of cell :       41.45
      direct lattice vectors                 reciprocal lattice vectors
     0.000000000  2.746821138  2.746821138    -0.182028598  0.182028598  0.182028598
     2.746821138  0.000000000  2.746821138     0.182028598 -0.182028598  0.182028598
     2.746821138  2.746821138  0.000000000     0.182028598  0.182028598 -0.182028598

  length of vectors
     3.884591706  3.884591706  3.884591706     0.315282780  0.315282780  0.315282780



 k-points in units of 2pi/SCALE and weight: Automatic kpoint scheme                 
   0.00000000  0.00000000  0.00000000       0.037
  -0.06067620  0.06067620  0.06067620       0.296
   0.00000000  0.00000000  0.12135240       0.222
   0.12135240 -0.12135240  0.00000000       0.444

 k-points in reciprocal lattice and weights: Automatic kpoint scheme                 
   0.00000000  0.00000000  0.00000000       0.037
   0.33333333  0.00000000  0.00000000       0.296
   0.33333333  0.33333333  0.00000000       0.222
  -0.33333333  0.33333333  0.00000000       0.444

 position of ions in fractional coordinates (direct lattice) 
   0.75000000  0.75000000  0.75000000
   0.50000000  0.50000000  0.50000000

 position of ions in cartesian coordinates  (Angst):
   4.12023171  4.12023171  4.12023171
   2.74682114  2.74682114  2.74682114



--------------------------------------------------------------------------------------------------------


 k-point  1 :   0.0000 0.0000 0.0000  plane waves:    1807
 k-point  2 :   0.3333 0.0000 0.0000  plane waves:    1742
 k-point  3 :   0.3333 0.3333 0.0000  plane waves:    1728
 k-point  4 :  -0.3333 0.3333 0.0000  plane waves:    1756

 maximum and minimum number of plane-waves per node :      1807     1728

 maximum number of plane-waves:      1807
 maximum index in each direction: 
   IXMAX=    8   IYMAX=    8   IZMAX=    8
   IXMIN=   -8   IYMIN=   -8   IZMIN=   -8

 NGX is ok and might be reduce to  34
 NGY is ok and might be reduce to  34
 NGZ is ok and might be reduce to  34

 serial   3D FFT for wavefunctions
 parallel 3D FFT for charge:
    minimum data exchange during FFTs selected (reduces bandwidth)


 total amount of memory used by VASP on root node    34867. kBytes
========================================================================

   base      :      30000. kBytes
   nonl-proj :        520. kBytes
   fftplans  :       1071. kBytes
   grid      :       3154. kBytes
   one-center:          6. kBytes
   wavefun   :        116. kBytes

     INWAV:  cpu time    0.0000: real time    0.0000
 Broyden mixing: mesh for mixing (old mesh)
   NGX = 17   NGY = 17   NGZ = 17
  (NGX  = 72   NGY  = 72   NGZ  = 72)
  gives a total of   4913 points

 initial charge density was supplied:
 charge density of overlapping atoms calculated
 number of electron       8.0000000 magnetization 
 keeping initial charge density in first step


--------------------------------------------------------------------------------------------------------


 Maximum index for augmentation-charges         2591 (set IRDMAX)


--------------------------------------------------------------------------------------------------------


 First call to EWALD:  gamma=   0.512
 Maximum number of real-space cells 3x 3x 3
 Maximum number of reciprocal cells 3x 3x 3

 FEWALD executed in parallel
    FEWALD:  cpu time    0.0000: real time    0.0008


----------------------------------------- Iteration    1(   1)  ---------------------------------------


vdW kernel read from vdw_kernel.bindat
  0.0000  0.2424  0.5071  0.7962  1.1119  1.4567  1.8333  2.2446  2.6937  3.1842
  3.7199  4.3049  4.9438  5.6415  6.4036  7.2358  8.1446  9.1372 10.2212 11.4050
 12.6979 14.1099 15.6519 17.3360 19.1751 21.1837 23.3773 25.7729 28.3892 31.2465
 34.3669 37.7748 41.4965 45.5611 50.0000

    POTLOK:  cpu time    3.9640: real time    3.9609
    SETDIJ:  cpu time    0.0000: real time    0.0026
     EDDAV:  cpu time    0.0760: real time    0.0741
       DOS:  cpu time    0.0000: real time    0.0005
    --------------------------------------------
      LOOP:  cpu time    4.0400: real time    4.0393

 eigenvalue-minimisations  :   128
 total energy-change (2. order) : 0.6621073E+01  (-0.4167421E+03)
 number of electron       8.0000000 magnetization 
 augmentation part        8.0000000 magnetization 

 Free energy of the ion-electron system (eV)
  ---------------------------------------------------
  alpha Z        PSCENC =         3.24857844
  Ewald energy   TEWEN  =      -225.91568183
  -Hartree energ DENC   =       -11.53197166
  -exchange      EXHF   =         0.00000000
  -V(xc)+E(xc)   XCENC  =       -20.29573788
  PAW double counting   =       189.40224250     -152.61488262
  entropy T*S    EENTRO =        -0.04462297
  eigenvalues    EBANDS =        15.77867701
  atomic energy  EATOM  =       208.59447219
  Solvation  Ediel_sol  =         0.00000000
  ---------------------------------------------------
  free energy    TOTEN  =         6.62107317 eV

  energy without entropy =        6.66569614  energy(sigma->0) =        6.64338465


--------------------------------------------------------------------------------------------------------




----------------------------------------- Iteration    1(   2)  ---------------------------------------


     EDDAV:  cpu time    0.1080: real time    0.1092
       DOS:  cpu time    0.0000: real time    0.0004
    --------------------------------------------
      LOOP:  cpu time    0.1080: real time    0.1864

 eigenvalue-minimisations  :   176
 total energy-change (2. order) :-0.1438663E+02  (-0.1323514E+02)
 number of electron       8.0000000 magnetization 
 augmentation part        8.0000000 magnetization 

 Free energy of the ion-electron system (eV)
  ---------------------------------------------------
  alpha Z        PSCENC =         3.24857844
  Ewald energy   TEWEN  =      -225.91568183
  -Hartree energ DENC   =       -11.53197166
  -exchange      EXHF   =         0.00000000
  -V(xc)+E(xc)   XCENC  =       -20.29573788
  PAW double counting   =       189.40224250     -152.61488262
  entropy T*S    EENTRO =        -0.00003589
  eigenvalues    EBANDS =         1.34745880
  atomic energy  EATOM  =       208.59447219
  Solvation  Ediel_sol  =         0.00000000
  ---------------------------------------------------
  free energy    TOTEN  =        -7.76555796 eV

  energy without entropy =       -7.76552207  energy(sigma->0) =       -7.76554002


--------------------------------------------------------------------------------------------------------




----------------------------------------- Iteration    1(   3)  ---------------------------------------


     EDDAV:  cpu time    0.1040: real time    0.1023
       DOS:  cpu time    0.0000: real time    0.0004
    --------------------------------------------
      LOOP:  cpu time    0.1040: real time    0.1119

 eigenvalue-minimisations  :   160
 total energy-change (2. order) :-0.1076691E+00  (-0.1076684E+00)
 number of electron       8.0000000 magnetization 
 augmentation part        8.0000000 magnetization 

 Free energy of the ion-electron system (eV)
  ---------------------------------------------------
  alpha Z        PSCENC =         3.24857844
  Ewald energy   TEWEN  =      -225.91568183
  -Hartree energ DENC   =       -11.53197166
  -exchange      EXHF   =         0.00000000
  -V(xc)+E(xc)   XCENC  =       -20.29573788
  PAW double counting   =       189.40224250     -152.61488262
  entropy T*S    EENTRO =        -0.00001827
  eigenvalues    EBANDS =         1.23977203
  atomic energy  EATOM  =       208.59447219
  Solvation  Ediel_sol  =         0.00000000
  ---------------------------------------------------
  free energy    TOTEN  =        -7.87322711 eV

  energy without entropy =       -7.87320884  energy(sigma->0) =       -7.87321797


--------------------------------------------------------------------------------------------------------




----------------------------------------- Iteration    1(   4)  ---------------------------------------


     EDDAV:  cpu time    0.1560: real time    0.1549
       DOS:  cpu time    0.0000: real time    0.0004
    --------------------------------------------
      LOOP:  cpu time    0.1560: real time    0.1635

 eigenvalue-minimisations  :   224
 total energy-change (2. order) :-0.3497623E-03  (-0.3497617E-03)
 number of electron       8.0000000 magnetization 
 augmentation part        8.0000000 magnetization 

 Free energy of the ion-electron system (eV)
  ---------------------------------------------------
  alpha Z        PSCENC =         3.24857844
  Ewald energy   TEWEN  =      -225.91568183
  -Hartree energ DENC   =       -11.53197166
  -exchange      EXHF   =         0.00000000
  -V(xc)+E(xc)   XCENC  =       -20.29573788
  PAW double counting   =       189.40224250     -152.61488262
  entropy T*S    EENTRO =        -0.00001829
  eigenvalues    EBANDS =         1.23942229
  atomic energy  EATOM  =       208.59447219
  Solvation  Ediel_sol  =         0.00000000
  ---------------------------------------------------
  free energy    TOTEN  =        -7.87357687 eV

  energy without entropy =       -7.87355858  energy(sigma->0) =       -7.87356772


--------------------------------------------------------------------------------------------------------




----------------------------------------- Iteration    1(   5)  ---------------------------------------


     EDDAV:  cpu time    0.1040: real time    0.1034
       DOS:  cpu time    0.0000: real time    0.0004
    CHARGE:  cpu time    0.0360: real time    0.0366
    MIXING:  cpu time    0.0000: real time    0.0011
    --------------------------------------------
      LOOP:  cpu time    0.1400: real time    0.1569

 eigenvalue-minimisations  :   160
 total energy-change (2. order) :-0.9218638E-08  (-0.8935004E-08)
 number of electron       8.0000000 magnetization 
 augmentation part       -0.4719863 magnetization 

 Broyden mixing:
  rms(total) = 0.39319E+00    rms(broyden)= 0.39319E+00
  rms(prec ) = 0.99136E+00
  weight for this iteration     100.00

 Free energy of the ion-electron system (eV)
  ---------------------------------------------------
  alpha Z        PSCENC =         3.24857844
  Ewald energy   TEWEN  =      -225.91568183
  -Hartree energ DENC   =       -11.53197166
  -exchange      EXHF   =         0.00000000
  -V(xc)+E(xc)   XCENC  =       -20.29573788
  PAW double counting   =       189.40224250     -152.61488262
  entropy T*S    EENTRO =        -0.00001829
  eigenvalues    EBANDS =         1.23942228
  atomic energy  EATOM  =       208.59447219
  Solvation  Ediel_sol  =         0.00000000
  ---------------------------------------------------
  free energy    TOTEN  =        -7.87357688 eV

  energy without entropy =       -7.87355859  energy(sigma->0) =       -7.87356773


--------------------------------------------------------------------------------------------------------




----------------------------------------- Iteration    1(   6)  ---------------------------------------


    POTLOK:  cpu time    3.4680: real time    3.4674
    SETDIJ:  cpu time    0.0040: real time    0.0035
     EDDAV:  cpu time    0.0920: real time    0.0920
       DOS:  cpu time    0.0000: real time    0.0004
    CHARGE:  cpu time    0.0280: real time    0.0308
    MIXING:  cpu time    0.0040: real time    0.0010
    --------------------------------------------
      LOOP:  cpu time    3.6000: real time    3.6073

 eigenvalue-minimisations  :   176
 total energy-change (2. order) : 0.8094800E-01  (-0.1079378E-01)
 number of electron       8.0000000 magnetization 
 augmentation part       -0.4639307 magnetization 

 Broyden mixing:
  rms(total) = 0.24178E+00    rms(broyden)= 0.24178E+00
  rms(prec ) = 0.60087E+00
  weight for this iteration     100.00

 eigenvalues of (default mixing * dielectric matrix)
  average eigenvalue GAMMA=   2.5774
  2.5774

 Free energy of the ion-electron system (eV)
  ---------------------------------------------------
  alpha Z        PSCENC =         3.24857844
  Ewald energy   TEWEN  =      -225.91568183
  -Hartree energ DENC   =       -13.30855458
  -exchange      EXHF   =         0.00000000
  -V(xc)+E(xc)   XCENC  =       -20.03030451
  PAW double counting   =       306.41462189     -269.76608603
  entropy T*S    EENTRO =        -0.00009696
  eigenvalues    EBANDS =         2.97042252
  atomic energy  EATOM  =       208.59447219
  Solvation  Ediel_sol  =         0.00000000
  ---------------------------------------------------
  free energy    TOTEN  =        -7.79262887 eV

  energy without entropy =       -7.79253191  energy(sigma->0) =       -7.79258039


--------------------------------------------------------------------------------------------------------




----------------------------------------- Iteration    1(   7)  ---------------------------------------


    POTLOK:  cpu time    3.4720: real time    3.4726
    SETDIJ:  cpu time    0.0040: real time    0.0027
     EDDAV:  cpu time    0.0920: real time    0.0943
       DOS:  cpu time    0.0000: real time    0.0004
    CHARGE:  cpu time    0.0280: real time    0.0314
    MIXING:  cpu time    0.0040: real time    0.0009
    --------------------------------------------
      LOOP:  cpu time    3.6040: real time    3.6558

 eigenvalue-minimisations  :   176
 total energy-change (2. order) : 0.2199530E-01  (-0.2565889E-01)
 number of electron       8.0000000 magnetization 
 augmentation part       -0.4529772 magnetization 

 Broyden mixing:
  rms(total) = 0.21034E-01    rms(broyden)= 0.21034E-01
  rms(prec ) = 0.54021E-01
  weight for this iteration     100.00

 eigenvalues of (default mixing * dielectric matrix)
  average eigenvalue GAMMA=   2.1867
  2.1867  2.1867

 Free energy of the ion-electron system (eV)
  ---------------------------------------------------
  alpha Z        PSCENC =         3.24857844
  Ewald energy   TEWEN  =      -225.91568183
  -Hartree energ DENC   =       -16.39643861
  -exchange      EXHF   =         0.00000000
  -V(xc)+E(xc)   XCENC  =       -19.54115264
  PAW double counting   =       553.48076692     -517.01247525
  entropy T*S    EENTRO =        -0.00090745
  eigenvalues    EBANDS =         5.77220466
  atomic energy  EATOM  =       208.59447219
  Solvation  Ediel_sol  =         0.00000000
  ---------------------------------------------------
  free energy    TOTEN  =        -7.77063358 eV

  energy without entropy =       -7.76972613  energy(sigma->0) =       -7.77017986


--------------------------------------------------------------------------------------------------------




----------------------------------------- Iteration    1(   8)  ---------------------------------------


    POTLOK:  cpu time    3.4640: real time    3.4660
    SETDIJ:  cpu time    0.0040: real time    0.0025
     EDDAV:  cpu time    0.1000: real time    0.1008
       DOS:  cpu time    0.0000: real time    0.0004
    CHARGE:  cpu time    0.0320: real time    0.0310
    MIXING:  cpu time    0.0000: real time    0.0009
    --------------------------------------------
      LOOP:  cpu time    3.6000: real time    3.8822

 eigenvalue-minimisations  :   160
 total energy-change (2. order) : 0.1787192E-01  (-0.5953768E-03)
 number of electron       8.0000000 magnetization 
 augmentation part       -0.4544920 magnetization 

 Broyden mixing:
  rms(total) = 0.11293E-01    rms(broyden)= 0.11293E-01
  rms(prec ) = 0.27566E-01
  weight for this iteration     100.00

 eigenvalues of (default mixing * dielectric matrix)
  average eigenvalue GAMMA=   2.1653
  3.1131  1.6915  1.6915

 Free energy of the ion-electron system (eV)
  ---------------------------------------------------
  alpha Z        PSCENC =         3.24857844
  Ewald energy   TEWEN  =      -225.91568183
  -Hartree energ DENC   =       -16.13755103
  -exchange      EXHF   =         0.00000000
  -V(xc)+E(xc)   XCENC  =       -19.56023989
  PAW double counting   =       530.89417480     -494.35461974
  entropy T*S    EENTRO =        -0.00061890
  eigenvalues    EBANDS =         5.47872431
  atomic energy  EATOM  =       208.59447219
  Solvation  Ediel_sol  =         0.00000000
  ---------------------------------------------------
  free energy    TOTEN  =        -7.75276166 eV

  energy without entropy =       -7.75214276  energy(sigma->0) =       -7.75245221


--------------------------------------------------------------------------------------------------------




----------------------------------------- Iteration    1(   9)  ---------------------------------------


    POTLOK:  cpu time    3.4800: real time    3.4784
    SETDIJ:  cpu time    0.0040: real time    0.0031
     EDDAV:  cpu time    0.1000: real time    0.1013
       DOS:  cpu time    0.0000: real time    0.0004
    CHARGE:  cpu time    0.0320: real time    0.0312
    MIXING:  cpu time    0.0040: real time    0.0010
    --------------------------------------------
      LOOP:  cpu time    3.6200: real time    3.7684

 eigenvalue-minimisations  :   160
 total energy-change (2. order) :-0.5571155E-03  (-0.7456093E-04)
 number of electron       8.0000000 magnetization 
 augmentation part       -0.4541003 magnetization 

 Broyden mixing:
  rms(total) = 0.56347E-02    rms(broyden)= 0.56347E-02
  rms(prec ) = 0.78029E-02
  weight for this iteration     100.00

 eigenvalues of (default mixing * dielectric matrix)
  average eigenvalue GAMMA=   2.1617
  0.9357  2.9791  2.3659  2.3659

 Free energy of the ion-electron system (eV)
  ---------------------------------------------------
  alpha Z        PSCENC =         3.24857844
  Ewald energy   TEWEN  =      -225.91568183
  -Hartree energ DENC   =       -16.31404092
  -exchange      EXHF   =         0.00000000
  -V(xc)+E(xc)   XCENC  =       -19.52993315
  PAW double counting   =       542.00405375     -505.46990893
  entropy T*S    EENTRO =        -0.00067516
  eigenvalues    EBANDS =         5.62981684
  atomic energy  EATOM  =       208.59447219
  Solvation  Ediel_sol  =         0.00000000
  ---------------------------------------------------
  free energy    TOTEN  =        -7.75331877 eV

  energy without entropy =       -7.75264361  energy(sigma->0) =       -7.75298119


--------------------------------------------------------------------------------------------------------




----------------------------------------- Iteration    1(  10)  ---------------------------------------


    POTLOK:  cpu time    3.4840: real time    3.4847
    SETDIJ:  cpu time    0.0040: real time    0.0025
     EDDAV:  cpu time    0.1400: real time    0.1423
       DOS:  cpu time    0.0000: real time    0.0004
    CHARGE:  cpu time    0.0320: real time    0.0304
    MIXING:  cpu time    0.0000: real time    0.0011
    --------------------------------------------
      LOOP:  cpu time    3.6600: real time    3.7294

 eigenvalue-minimisations  :   208
 total energy-change (2. order) :-0.2275086E-03  (-0.2552235E-05)
 number of electron       8.0000000 magnetization 
 augmentation part       -0.4541410 magnetization 

 Broyden mixing:
  rms(total) = 0.38484E-03    rms(broyden)= 0.38484E-03
  rms(prec ) = 0.95626E-03
  weight for this iteration     100.00

 eigenvalues of (default mixing * dielectric matrix)
  average eigenvalue GAMMA=   1.9045
  2.9211  2.5289  2.2729  0.9724  0.8270

 Free energy of the ion-electron system (eV)
  ---------------------------------------------------
  alpha Z        PSCENC =         3.24857844
  Ewald energy   TEWEN  =      -225.91568183
  -Hartree energ DENC   =       -16.29118442
  -exchange      EXHF   =         0.00000000
  -V(xc)+E(xc)   XCENC  =       -19.53450551
  PAW double counting   =       534.32159032     -497.78749121
  entropy T*S    EENTRO =        -0.00066269
  eigenvalues    EBANDS =         5.61133844
  atomic energy  EATOM  =       208.59447219
  Solvation  Ediel_sol  =         0.00000000
  ---------------------------------------------------
  free energy    TOTEN  =        -7.75354628 eV

  energy without entropy =       -7.75288359  energy(sigma->0) =       -7.75321494


--------------------------------------------------------------------------------------------------------




----------------------------------------- Iteration    1(  11)  ---------------------------------------


    POTLOK:  cpu time    3.6040: real time    3.6034
    SETDIJ:  cpu time    0.0040: real time    0.0031
     EDDAV:  cpu time    0.1320: real time    0.1301
       DOS:  cpu time    0.0000: real time    0.0005
    CHARGE:  cpu time    0.0320: real time    0.0313
    MIXING:  cpu time    0.0000: real time    0.0010
    --------------------------------------------
      LOOP:  cpu time    3.7720: real time    3.8074

 eigenvalue-minimisations  :   208
 total energy-change (2. order) : 0.2524785E-03  (-0.1267552E-06)
 number of electron       8.0000000 magnetization 
 augmentation part       -0.4541690 magnetization 

 Broyden mixing:
  rms(total) = 0.12105E-03    rms(broyden)= 0.12105E-03
  rms(prec ) = 0.16637E-03
  weight for this iteration     100.00

 eigenvalues of (default mixing * dielectric matrix)
  average eigenvalue GAMMA=   1.9717
  2.9494  2.5626  2.2210  2.1522  0.9998  0.9453

 Free energy of the ion-electron system (eV)
  ---------------------------------------------------
  alpha Z        PSCENC =         3.24857844
  Ewald energy   TEWEN  =      -225.91568183
  -Hartree energ DENC   =       -16.28748821
  -exchange      EXHF   =         0.00000000
  -V(xc)+E(xc)   XCENC  =       -19.53480750
  PAW double counting   =       534.16663743     -497.63158089
  entropy T*S    EENTRO =        -0.00065908
  eigenvalues    EBANDS =         5.60723564
  atomic energy  EATOM  =       208.59447219
  Solvation  Ediel_sol  =         0.00000000
  ---------------------------------------------------
  free energy    TOTEN  =        -7.75329380 eV

  energy without entropy =       -7.75263473  energy(sigma->0) =       -7.75296427


--------------------------------------------------------------------------------------------------------




----------------------------------------- Iteration    1(  12)  ---------------------------------------


    POTLOK:  cpu time    3.4720: real time    3.4712
    SETDIJ:  cpu time    0.0040: real time    0.0025
     EDDAV:  cpu time    0.0840: real time    0.0858
       DOS:  cpu time    0.0000: real time    0.0004
    CHARGE:  cpu time    0.0320: real time    0.0305
    MIXING:  cpu time    0.0000: real time    0.0011
    --------------------------------------------
      LOOP:  cpu time    3.5920: real time    3.8363

 eigenvalue-minimisations  :   160
 total energy-change (2. order) : 0.5954111E-05  (-0.5155299E-08)
 number of electron       8.0000000 magnetization 
 augmentation part       -0.4541681 magnetization 

 Broyden mixing:
  rms(total) = 0.32537E-04    rms(broyden)= 0.32536E-04
  rms(prec ) = 0.70467E-04
  weight for this iteration     100.00

 eigenvalues of (default mixing * dielectric matrix)
  average eigenvalue GAMMA=   1.9594
  2.9528  2.6990  2.6990  2.2464  0.9808  0.9881  1.1495

 Free energy of the ion-electron system (eV)
  ---------------------------------------------------
  alpha Z        PSCENC =         3.24857844
  Ewald energy   TEWEN  =      -225.91568183
  -Hartree energ DENC   =       -16.28794194
  -exchange      EXHF   =         0.00000000
  -V(xc)+E(xc)   XCENC  =       -19.53476930
  PAW double counting   =       534.34027850     -497.80521077
  entropy T*S    EENTRO =        -0.00065899
  eigenvalues    EBANDS =         5.60764586
  atomic energy  EATOM  =       208.59447219
  Solvation  Ediel_sol  =         0.00000000
  ---------------------------------------------------
  free energy    TOTEN  =        -7.75328785 eV

  energy without entropy =       -7.75262886  energy(sigma->0) =       -7.75295835


--------------------------------------------------------------------------------------------------------




----------------------------------------- Iteration    1(  13)  ---------------------------------------


    POTLOK:  cpu time    3.4600: real time    3.4562
    SETDIJ:  cpu time    0.0040: real time    0.0032
     EDDAV:  cpu time    0.1120: real time    0.1124
       DOS:  cpu time    0.0000: real time    0.0004
    CHARGE:  cpu time    0.0320: real time    0.0311
    MIXING:  cpu time    0.0000: real time    0.0011
    --------------------------------------------
      LOOP:  cpu time    3.6080: real time    3.8738

 eigenvalue-minimisations  :   160
 total energy-change (2. order) : 0.1389091E-04  (-0.5958305E-09)
 number of electron       8.0000000 magnetization 
 augmentation part       -0.4541695 magnetization 

 Broyden mixing:
  rms(total) = 0.17869E-04    rms(broyden)= 0.17869E-04
  rms(prec ) = 0.19619E-04
  weight for this iteration     100.00

 eigenvalues of (default mixing * dielectric matrix)
  average eigenvalue GAMMA=   1.9639
  3.0577  2.7650  2.5176  2.2469  2.1837  0.9923  0.9923  0.9555

 Free energy of the ion-electron system (eV)
  ---------------------------------------------------
  alpha Z        PSCENC =         3.24857844
  Ewald energy   TEWEN  =      -225.91568183
  -Hartree energ DENC   =       -16.28761563
  -exchange      EXHF   =         0.00000000
  -V(xc)+E(xc)   XCENC  =       -19.53482145
  PAW double counting   =       534.37065005     -497.83552928
  entropy T*S    EENTRO =        -0.00065874
  eigenvalues    EBANDS =         5.60733230
  atomic energy  EATOM  =       208.59447219
  Solvation  Ediel_sol  =         0.00000000
  ---------------------------------------------------
  free energy    TOTEN  =        -7.75327396 eV

  energy without entropy =       -7.75261522  energy(sigma->0) =       -7.75294459


--------------------------------------------------------------------------------------------------------




----------------------------------------- Iteration    1(  14)  ---------------------------------------


    POTLOK:  cpu time    3.4800: real time    3.4772
    SETDIJ:  cpu time    0.0000: real time    0.0032
     EDDAV:  cpu time    0.0840: real time    0.0831
       DOS:  cpu time    0.0000: real time    0.0004
    CHARGE:  cpu time    0.0320: real time    0.0299
    MIXING:  cpu time    0.0000: real time    0.0010
    --------------------------------------------
      LOOP:  cpu time    3.5960: real time    3.8318

 eigenvalue-minimisations  :   128
 total energy-change (2. order) :-0.3618162E-05  (-0.3309883E-10)
 number of electron       8.0000000 magnetization 
 augmentation part       -0.4541693 magnetization 

 Broyden mixing:
  rms(total) = 0.35443E-05    rms(broyden)= 0.35443E-05
  rms(prec ) = 0.38678E-05
  weight for this iteration     100.00

 eigenvalues of (default mixing * dielectric matrix)
  average eigenvalue GAMMA=   1.8697
  3.0131  2.8238  2.5059  2.5059  2.2222  1.0149  0.9848  0.9385  0.8183

 Free energy of the ion-electron system (eV)
  ---------------------------------------------------
  alpha Z        PSCENC =         3.24857844
  Ewald energy   TEWEN  =      -225.91568183
  -Hartree energ DENC   =       -16.28765403
  -exchange      EXHF   =         0.00000000
  -V(xc)+E(xc)   XCENC  =       -19.53481963
  PAW double counting   =       534.34373325     -497.80862524
  entropy T*S    EENTRO =        -0.00065876
  eigenvalues    EBANDS =         5.60737804
  atomic energy  EATOM  =       208.59447219
  Solvation  Ediel_sol  =         0.00000000
  ---------------------------------------------------
  free energy    TOTEN  =        -7.75327758 eV

  energy without entropy =       -7.75261881  energy(sigma->0) =       -7.75294820


--------------------------------------------------------------------------------------------------------




----------------------------------------- Iteration    1(  15)  ---------------------------------------


    POTLOK:  cpu time    3.4560: real time    3.4560
    SETDIJ:  cpu time    0.0040: real time    0.0027
     EDDAV:  cpu time    0.0640: real time    0.0649
       DOS:  cpu time    0.0000: real time    0.0003
    CHARGE:  cpu time    0.0280: real time    0.0272
    MIXING:  cpu time    0.0000: real time    0.0010
    --------------------------------------------
      LOOP:  cpu time    3.5520: real time    3.7760

 eigenvalue-minimisations  :   112
 total energy-change (2. order) :-0.1875255E-06  (-0.2049727E-11)
 number of electron       8.0000000 magnetization 
 augmentation part       -0.4541693 magnetization 

 Broyden mixing:
  rms(total) = 0.92163E-06    rms(broyden)= 0.92163E-06
  rms(prec ) = 0.10376E-05
  weight for this iteration     100.00

 eigenvalues of (default mixing * dielectric matrix)
  average eigenvalue GAMMA=   1.8612
  3.0479  2.8230  2.6839  2.4358  2.2360  1.3465  0.9516  1.0013  1.0013  1.0848

 Free energy of the ion-electron system (eV)
  ---------------------------------------------------
  alpha Z        PSCENC =         3.24857844
  Ewald energy   TEWEN  =      -225.91568183
  -Hartree energ DENC   =       -16.28765284
  -exchange      EXHF   =         0.00000000
  -V(xc)+E(xc)   XCENC  =       -19.53482004
  PAW double counting   =       534.34171725     -497.80661008
  entropy T*S    EENTRO =        -0.00065876
  eigenvalues    EBANDS =         5.60737791
  atomic energy  EATOM  =       208.59447219
  Solvation  Ediel_sol  =         0.00000000
  ---------------------------------------------------
  free energy    TOTEN  =        -7.75327776 eV

  energy without entropy =       -7.75261900  energy(sigma->0) =       -7.75294838


--------------------------------------------------------------------------------------------------------




----------------------------------------- Iteration    1(  16)  ---------------------------------------


    POTLOK:  cpu time    3.4480: real time    3.4470
    SETDIJ:  cpu time    0.0000: real time    0.0026
     EDDAV:  cpu time    0.0800: real time    0.0806
       DOS:  cpu time    0.0040: real time    0.0003
    --------------------------------------------
      LOOP:  cpu time    3.5360: real time    3.7431

 eigenvalue-minimisations  :   112
 total energy-change (2. order) :-0.4253718E-07  (-0.1937254E-12)
 number of electron       8.0000000 magnetization 
 augmentation part       -0.4541693 magnetization 

 Free energy of the ion-electron system (eV)
  ---------------------------------------------------
  alpha Z        PSCENC =         3.24857844
  Ewald energy   TEWEN  =      -225.91568183
  -Hartree energ DENC   =       -16.28765405
  -exchange      EXHF   =         0.00000000
  -V(xc)+E(xc)   XCENC  =       -19.53482006
  PAW double counting   =       534.34087686     -497.80576996
  entropy T*S    EENTRO =        -0.00065876
  eigenvalues    EBANDS =         5.60737936
  atomic energy  EATOM  =       208.59447219
  Solvation  Ediel_sol  =         0.00000000
  ---------------------------------------------------
  free energy    TOTEN  =        -7.75327781 eV

  energy without entropy =       -7.75261904  energy(sigma->0) =       -7.75294842


--------------------------------------------------------------------------------------------------------




 average (electrostatic) potential at core
  the test charge radii are     0.9892
  (the norm of the test charge is              1.0000)
       1 -83.7670       2 -83.7670



 E-fermi :   5.9415     XC(G=0):  -9.2147     alpha+bet :-11.5728


 k-point     1 :       0.0000    0.0000    0.0000
  band No.  band energies     occupation 
      1      -6.1124      2.00000
      2       5.5583      1.99328
      3       5.5583      1.99328
      4       5.5583      1.99328
      5       8.1379      0.00000
      6       8.1379      0.00000
      7       8.1379      0.00000
      8       8.6460      0.00000
      9      13.2634      0.00000
     10      13.2634      0.00000
     11      13.3912      0.00000
     12      16.6814      0.00000
     13      16.6814      0.00000
     14      16.6814      0.00000
     15      20.7810      0.00000
     16      28.2500      0.00000

 k-point     2 :       0.3333    0.0000    0.0000
  band No.  band energies     occupation 
      1      -4.7784      2.00000
      2       0.3627      2.00000
      3       4.5958      2.00000
      4       4.5958      2.00000
      5       7.2561      0.00000
      6       9.0759      0.00000
      7       9.0759      0.00000
      8      13.2978      0.00000
      9      13.4878      0.00000
     10      13.4878      0.00000
     11      14.4676      0.00000
     12      18.8896      0.00000
     13      19.9338      0.00000
     14      19.9338      0.00000
     15      21.9661      0.00000
     16      22.9511      0.00000

 k-point     3 :       0.3333    0.3333    0.0000
  band No.  band energies     occupation 
      1      -4.2643      2.00000
      2       0.6290      2.00000
      3       3.2353      2.00000
      4       3.2353      2.00000
      5       6.3563      0.00336
      6       7.6108      0.00000
      7      12.6842      0.00000
      8      12.6842      0.00000
      9      15.0536      0.00000
     10      15.3597      0.00000
     11      18.3882      0.00000
     12      18.8262      0.00000
     13      18.8262      0.00000
     14      20.5150      0.00000
     15      21.5267      0.00000
     16      21.6794      0.00000

 k-point     4 :      -0.3333    0.3333    0.0000
  band No.  band energies     occupation 
      1      -2.9551      2.00000
      2      -1.0712      2.00000
      3       1.3240      2.00000
      4       3.5282      2.00000
      5       7.1771      0.00000
      6      11.3110      0.00000
      7      11.9494      0.00000
      8      12.4767      0.00000
      9      12.8065      0.00000
     10      13.1776      0.00000
     11      19.7325      0.00000
     12      20.2669      0.00000
     13      20.8577      0.00000
     14      21.0400      0.00000
     15      21.8647      0.00000
     16      22.7509      0.00000


--------------------------------------------------------------------------------------------------------


 soft charge-density along one line, spin component           1
         0         1         2         3         4         5         6         7         8         9
 total charge-density along one line

 pseudopotential strength for first ion, spin component:           1
 18.532  25.850  -0.000  -0.000  -0.000  -0.000  -0.000  -0.000
 25.850  36.064  -0.000  -0.000  -0.000  -0.000  -0.000  -0.000
 -0.000  -0.000   4.199   0.000   0.000   7.817   0.000   0.000
 -0.000  -0.000   0.000   4.199   0.000   0.000   7.817   0.000
 -0.000  -0.000   0.000   0.000   4.199   0.000   0.000   7.817
 -0.000  -0.000   7.817   0.000   0.000  14.563   0.000   0.000
 -0.000  -0.000   0.000   7.817   0.000   0.000  14.563   0.000
 -0.000  -0.000   0.000   0.000   7.817   0.000   0.000  14.563
 total augmentation occupancy for first ion, spin component:           1
  3.179  -0.884   0.000   0.000   0.000  -0.000  -0.000   0.000
 -0.884   0.373  -0.000  -0.000  -0.000   0.000   0.000   0.000
 -0.000   0.000   2.261   0.000  -0.000  -0.394   0.000  -0.000
  0.000  -0.000  -0.000   2.261   0.000   0.000  -0.394  -0.000
  0.000   0.000   0.000   0.000   2.261   0.000  -0.000  -0.394
  0.000   0.000  -0.394   0.000   0.000   0.082   0.000   0.000
  0.000   0.000   0.000  -0.394  -0.000   0.000   0.082  -0.000
 -0.000   0.000   0.000   0.000  -0.394   0.000  -0.000   0.082


------------------------ aborting loop because EDIFF is reached ----------------------------------------


    CHARGE:  cpu time    0.0320: real time    0.0309
    FORLOC:  cpu time    0.0000: real time    0.0010
    FORNL :  cpu time    0.0160: real time    0.0157
    STRESS:  cpu time    0.1240: real time    0.1235
    FORCOR:  cpu time    3.4720: real time    3.4693
    FORHAR:  cpu time    0.0080: real time    0.0081
    MIXING:  cpu time    0.0000: real time    0.0010
    OFIELD:  cpu time    0.0000: real time    0.0000

  FORCE on cell =-STRESS in cart. coord.  units (eV):
  Direction    XX          YY          ZZ          XY          YZ          ZX
  --------------------------------------------------------------------------------------
  Alpha Z     3.24858     3.24858     3.24858
  Ewald     -75.30526   -75.30526   -75.30526     0.00000    -0.00000    -0.00000
  Hartree     5.42922     5.42922     5.42922     0.00000     0.00000     0.00000
  E(xc)     -25.42053   -25.42053   -25.42053     0.00000     0.00000     0.00000
  Local     -30.12435   -30.12435   -30.12435     0.00000     0.00000     0.00000
  n-local    78.77140    78.77140    72.78974     2.89244    -1.22746     1.22746
  augment   -11.63032   -11.63032   -11.63032    -0.00000    -0.00000    -0.00000
  Kinetic    59.15520    59.15520    53.99882     4.52005    -1.73038     1.73038
  Fock        0.00000     0.00000     0.00000     0.00000     0.00000     0.00000
  -------------------------------------------------------------------------------------
  Total       0.41126     0.41126     0.41126     0.00000    -0.00000     0.00000
  in kB      15.89651    15.89651    15.89651     0.00000    -0.00000     0.00000
  external pressure =       15.90 kB  Pullay stress =        0.00 kB


 VOLUME and BASIS-vectors are now :
 -----------------------------------------------------------------------------
  energy-cutoff  :      700.00
  volume of cell :       41.45
      direct lattice vectors                 reciprocal lattice vectors
     0.000000000  2.746821138  2.746821138    -0.182028598  0.182028598  0.182028598
     2.746821138  0.000000000  2.746821138     0.182028598 -0.182028598  0.182028598
     2.746821138  2.746821138  0.000000000     0.182028598  0.182028598 -0.182028598

  length of vectors
     3.884591706  3.884591706  3.884591706     0.315282780  0.315282780  0.315282780


 FORCES acting on ions
    electron-ion (+dipol)            ewald-force                    non-local-force                 convergence-correction
 -----------------------------------------------------------------------------------------------
   0.834E-09 0.834E-09 0.141E-08   -.313E-14 -.268E-14 -.153E-14   -.694E-16 -.833E-16 -.122E-15   -.120E-12 -.119E-12 -.116E-12
   -.834E-09 -.834E-09 -.141E-08   0.307E-14 0.301E-14 0.222E-14   0.125E-15 0.125E-15 0.126E-15   0.119E-12 0.116E-12 0.115E-12
 -----------------------------------------------------------------------------------------------
   0.385E-12 0.114E-12 0.239E-12   -.615E-16 0.330E-15 0.690E-15   0.555E-16 0.416E-16 0.390E-17   -.645E-15 -.217E-14 -.152E-14


 POSITION                                       TOTAL-FORCE (eV/Angst)
 -----------------------------------------------------------------------------------
      4.12023      4.12023      4.12023         0.000000      0.000000      0.000000
      2.74682      2.74682      2.74682        -0.000000     -0.000000     -0.000000
 -----------------------------------------------------------------------------------
    total drift:                                0.000000      0.000000      0.000000


--------------------------------------------------------------------------------------------------------



  FREE ENERGIE OF THE ION-ELECTRON SYSTEM (eV)
  ---------------------------------------------------
  free  energy   TOTEN  =        -7.75327781 eV

  energy  without entropy=       -7.75261904  energy(sigma->0) =       -7.75294842



--------------------------------------------------------------------------------------------------------


    POTLOK:  cpu time    3.4640: real time    3.4644


--------------------------------------------------------------------------------------------------------




--------------------------------------------------------------------------------------------------------


  
 reached required accuracy - stopping structural energy minimisation
     LOOP+:  cpu time   51.4080: real time   53.5495
    4ORBIT:  cpu time    0.0000: real time    0.0000

 total amount of memory used by VASP on root node    34867. kBytes
========================================================================

   base      :      30000. kBytes
   nonl-proj :        520. kBytes
   fftplans  :       1071. kBytes
   grid      :       3154. kBytes
   one-center:          6. kBytes
   wavefun   :        116. kBytes

  
  
 General timing and accounting informations for this job:
 ========================================================
  
                  Total CPU time used (sec):       51.996
                            User time (sec):       51.580
                          System time (sec):        0.416
                         Elapsed time (sec):       55.609
  
                   Maximum memory used (kb):      125128.
                   Average memory used (kb):           0.
  
                          Minor page faults:       237628
                          Major page faults:            6
                 Voluntary context switches:          257
