   2   2   1   0
  0.2072475E+02  0.3884586E-09  0.3884587E-09  0.3884586E-09  0.5000000E-15
  1.000000000000000E-004
  CAR 
 unknown system                          
     39.07402479     -8.27518609 5000      5.90576174      1.00000000
     -8.275  0.0000E+00  0.0000E+00  0.0000E+00  0.0000E+00
     -8.266  0.0000E+00  0.0000E+00  0.0000E+00  0.0000E+00
     -8.256  0.0000E+00  0.0000E+00  0.0000E+00  0.0000E+00
     -8.247  0.0000E+00  0.0000E+00  0.0000E+00  0.0000E+00
     -8.237  0.0000E+00  0.0000E+00  0.0000E+00  0.0000E+00
     -8.228  0.0000E+00  0.0000E+00  0.0000E+00  0.0000E+00
     -8.218  0.0000E+00  0.0000E+00  0.0000E+00  0.0000E+00
     -8.209  0.0000E+00  0.0000E+00  0.0000E+00  0.0000E+00
     -8.199  0.0000E+00  0.0000E+00  0.0000E+00  0.0000E+00
     -8.190  0.0000E+00  0.0000E+00  0.0000E+00  0.0000E+00
     -8.180  0.0000E+00  0.0000E+00  0.0000E+00  0.0000E+00
     -8.171  0.0000E+00  0.0000E+00  0.0000E+00  0.0000E+00
     -8.162  0.0000E+00  0.0000E+00  0.0000E+00  0.0000E+00
     -8.152  0.0000E+00  0.0000E+00  0.0000E+00  0.0000E+00
     -8.143  0.0000E+00  0.0000E+00  0.0000E+00  0.0000E+00
     -8.133  0.0000E+00  0.0000E+00  0.0000E+00  0.0000E+00
     -8.124  0.0000E+00  0.0000E+00  0.0000E+00  0.0000E+00
     -8.114  0.0000E+00  0.0000E+00  0.0000E+00  0.0000E+00
     -8.105  0.0000E+00  0.0000E+00  0.0000E+00  0.0000E+00
     -8.095  0.0000E+00  0.0000E+00  0.0000E+00  0.0000E+00
     -8.086  0.0000E+00  0.0000E+00  0.0000E+00  0.0000E+00
     -8.076  0.0000E+00  0.0000E+00  0.0000E+00  0.0000E+00
     -8.067  0.0000E+00  0.0000E+00  0.0000E+00  0.0000E+00
     -8.057  0.0000E+00  0.0000E+00  0.0000E+00  0.0000E+00
     -8.048  0.0000E+00  0.0000E+00  0.0000E+00  0.0000E+00
     -8.038  0.0000E+00  0.0000E+00  0.0000E+00  0.0000E+00
     -8.029  0.0000E+00  0.0000E+00  0.0000E+00  0.0000E+00
     -8.019  0.0000E+00  0.0000E+00  0.0000E+00  0.0000E+00
     -8.010  0.0000E+00  0.0000E+00  0.0000E+00  0.0000E+00
     -8.001  0.0000E+00  0.0000E+00  0.0000E+00  0.0000E+00
     -7.991  0.0000E+00  0.0000E+00  0.0000E+00  0.0000E+00
     -7.982  0.0000E+00  0.0000E+00  0.0000E+00  0.0000E+00
     -7.972  0.0000E+00  0.0000E+00  0.0000E+00  0.0000E+00
     -7.963  0.0000E+00  0.0000E+00  0.0000E+00  0.0000E+00
     -7.953  0.0000E+00  0.0000E+00  0.0000E+00  0.0000E+00
     -7.944  0.0000E+00  0.0000E+00  0.0000E+00  0.0000E+00
     -7.934  0.0000E+00  0.0000E+00  0.0000E+00  0.0000E+00
     -7.925  0.0000E+00  0.0000E+00  0.0000E+00  0.0000E+00
     -7.915  0.0000E+00  0.0000E+00  0.0000E+00  0.0000E+00
     -7.906  0.0000E+00  0.0000E+00  0.0000E+00  0.0000E+00
     -7.896  0.0000E+00  0.0000E+00  0.0000E+00  0.0000E+00
     -7.887  0.0000E+00  0.0000E+00  0.0000E+00  0.0000E+00
     -7.877  0.0000E+00  0.0000E+00  0.0000E+00  0.0000E+00
     -7.868  0.0000E+00  0.0000E+00  0.0000E+00  0.0000E+00
     -7.858  0.0000E+00  0.0000E+00  0.0000E+00  0.0000E+00
     -7.849  0.0000E+00  0.0000E+00  0.0000E+00  0.0000E+00
     -7.839  0.0000E+00  0.0000E+00  0.0000E+00  0.0000E+00
     -7.830  0.0000E+00  0.0000E+00  0.0000E+00  0.0000E+00
     -7.821  0.0000E+00  0.0000E+00  0.0000E+00  0.0000E+00
     -7.811  0.0000E+00  0.0000E+00  0.0000E+00  0.0000E+00
     -7.802  0.0000E+00  0.0000E+00  0.0000E+00  0.0000E+00
     -7.792  0.0000E+00  0.0000E+00  0.0000E+00  0.0000E+00
     -7.783  0.0000E+00  0.0000E+00  0.0000E+00  0.0000E+00
     -7.773  0.0000E+00  0.0000E+00  0.0000E+00  0.0000E+00
     -7.764  0.0000E+00  0.0000E+00  0.0000E+00  0.0000E+00
     -7.754  0.0000E+00  0.0000E+00  0.0000E+00  0.0000E+00
     -7.745  0.0000E+00  0.0000E+00  0.0000E+00  0.0000E+00
     -7.735  0.0000E+00  0.0000E+00  0.0000E+00  0.0000E+00
     -7.726  0.0000E+00  0.0000E+00  0.0000E+00  0.0000E+00
     -7.716  0.0000E+00  0.0000E+00  0.0000E+00  0.0000E+00
     -7.707  0.0000E+00  0.0000E+00  0.0000E+00  0.0000E+00
     -7.697  0.0000E+00  0.0000E+00  0.0000E+00  0.0000E+00
     -7.688  0.0000E+00  0.0000E+00  0.0000E+00  0.0000E+00
     -7.678  0.0000E+00  0.0000E+00  0.0000E+00  0.0000E+00
     -7.669  0.0000E+00  0.0000E+00  0.0000E+00  0.0000E+00
     -7.660  0.0000E+00  0.0000E+00  0.0000E+00  0.0000E+00
     -7.650  0.0000E+00  0.0000E+00  0.0000E+00  0.0000E+00
     -7.641  0.0000E+00  0.0000E+00  0.0000E+00  0.0000E+00
     -7.631  0.0000E+00  0.0000E+00  0.0000E+00  0.0000E+00
     -7.622  0.0000E+00  0.0000E+00  0.0000E+00  0.0000E+00
     -7.612  0.0000E+00  0.0000E+00  0.0000E+00  0.0000E+00
     -7.603  0.0000E+00  0.0000E+00  0.0000E+00  0.0000E+00
     -7.593  0.0000E+00  0.0000E+00  0.0000E+00  0.0000E+00
     -7.584  0.0000E+00  0.0000E+00  0.0000E+00  0.0000E+00
     -7.574  0.0000E+00  0.0000E+00  0.0000E+00  0.0000E+00
     -7.565  0.0000E+00  0.0000E+00  0.0000E+00  0.0000E+00
     -7.555  0.0000E+00  0.0000E+00  0.0000E+00  0.0000E+00
     -7.546  0.0000E+00  0.0000E+00  0.0000E+00  0.0000E+00
     -7.536  0.0000E+00  0.0000E+00  0.0000E+00  0.0000E+00
     -7.527  0.0000E+00  0.0000E+00  0.0000E+00  0.0000E+00
     -7.517  0.0000E+00  0.0000E+00  0.0000E+00  0.0000E+00
     -7.508  0.0000E+00  0.0000E+00  0.0000E+00  0.0000E+00
     -7.499  0.0000E+00  0.0000E+00  0.0000E+00  0.0000E+00
     -7.489  0.0000E+00  0.0000E+00  0.0000E+00  0.0000E+00
     -7.480  0.0000E+00  0.0000E+00  0.0000E+00  0.0000E+00
     -7.470  0.0000E+00  0.0000E+00  0.0000E+00  0.0000E+00
     -7.461  0.0000E+00  0.0000E+00  0.0000E+00  0.0000E+00
     -7.451  0.0000E+00  0.0000E+00  0.0000E+00  0.0000E+00
     -7.442  0.0000E+00  0.0000E+00  0.0000E+00  0.0000E+00
     -7.432  0.0000E+00  0.0000E+00  0.0000E+00  0.0000E+00
     -7.423  0.0000E+00  0.0000E+00  0.0000E+00  0.0000E+00
     -7.413  0.0000E+00  0.0000E+00  0.0000E+00  0.0000E+00
     -7.404  0.0000E+00  0.0000E+00  0.0000E+00  0.0000E+00
     -7.394  0.0000E+00  0.0000E+00  0.0000E+00  0.0000E+00
     -7.385  0.0000E+00  0.0000E+00  0.0000E+00  0.0000E+00
     -7.375  0.0000E+00  0.0000E+00  0.0000E+00  0.0000E+00
     -7.366  0.0000E+00  0.0000E+00  0.0000E+00  0.0000E+00
     -7.356  0.0000E+00  0.0000E+00  0.0000E+00  0.0000E+00
     -7.347  0.0000E+00  0.0000E+00  0.0000E+00  0.0000E+00
     -7.337  0.0000E+00  0.0000E+00  0.0000E+00  0.0000E+00
     -7.328  0.0000E+00  0.0000E+00  0.0000E+00  0.0000E+00
     -7.319  0.0000E+00  0.0000E+00  0.0000E+00  0.0000E+00
     -7.309  0.0000E+00  0.0000E+00  0.0000E+00  0.0000E+00
     -7.300  0.1429E-15  0.1429E-15  0.1354E-17  0.1354E-17
     -7.290  0.7147E-16  0.7147E-16  0.2031E-17  0.2031E-17
     -7.281  0.2144E-15  0.2144E-15  0.4062E-17  0.4062E-17
     -7.271  0.4288E-15  0.4288E-15  0.8124E-17  0.8124E-17
     -7.262  0.5360E-15  0.5360E-15  0.1320E-16  0.1320E-16
     -7.252  0.1072E-14  0.1072E-14  0.2336E-16  0.2336E-16
     -7.243  0.1751E-14  0.1751E-14  0.3994E-16  0.3994E-16
     -7.233  0.3073E-14  0.3073E-14  0.6905E-16  0.6905E-16
     -7.224  0.5003E-14  0.5003E-14  0.1164E-15  0.1164E-15
     -7.214  0.8755E-14  0.8755E-14  0.1994E-15  0.1994E-15
     -7.205  0.1447E-13  0.1447E-13  0.3365E-15  0.3365E-15
     -7.195  0.2434E-13  0.2434E-13  0.5670E-15  0.5670E-15
     -7.186  0.4063E-13  0.4063E-13  0.9518E-15  0.9518E-15
     -7.176  0.6743E-13  0.6743E-13  0.1591E-14  0.1591E-14
     -7.167  0.1112E-12  0.1112E-12  0.2644E-14  0.2644E-14
     -7.158  0.1832E-12  0.1832E-12  0.4379E-14  0.4379E-14
     -7.148  0.2997E-12  0.2997E-12  0.7218E-14  0.7218E-14
     -7.139  0.4887E-12  0.4887E-12  0.1185E-13  0.1185E-13
     -7.129  0.7928E-12  0.7928E-12  0.1936E-13  0.1936E-13
     -7.120  0.1281E-11  0.1281E-11  0.3149E-13  0.3149E-13
     -7.110  0.2060E-11  0.2060E-11  0.5100E-13  0.5100E-13
     -7.101  0.3299E-11  0.3299E-11  0.8225E-13  0.8225E-13
     -7.091  0.5259E-11  0.5259E-11  0.1321E-12  0.1321E-12
     -7.082  0.8347E-11  0.8347E-11  0.2111E-12  0.2111E-12
     -7.072  0.1319E-10  0.1319E-10  0.3360E-12  0.3360E-12
     -7.063  0.2075E-10  0.2075E-10  0.5325E-12  0.5325E-12
     -7.053  0.3249E-10  0.3249E-10  0.8403E-12  0.8403E-12
     -7.044  0.5066E-10  0.5066E-10  0.1320E-11  0.1320E-11
     -7.034  0.7863E-10  0.7863E-10  0.2065E-11  0.2065E-11
     -7.025  0.1215E-09  0.1215E-09  0.3216E-11  0.3216E-11
     -7.015  0.1869E-09  0.1869E-09  0.4986E-11  0.4986E-11
     -7.006  0.2863E-09  0.2863E-09  0.7698E-11  0.7698E-11
     -6.997  0.4366E-09  0.4366E-09  0.1183E-10  0.1183E-10
     -6.987  0.6628E-09  0.6628E-09  0.1811E-10  0.1811E-10
     -6.978  0.1002E-08  0.1002E-08  0.2760E-10  0.2760E-10
     -6.968  0.1507E-08  0.1507E-08  0.4188E-10  0.4188E-10
     -6.959  0.2258E-08  0.2258E-08  0.6326E-10  0.6326E-10
     -6.949  0.3368E-08  0.3368E-08  0.9516E-10  0.9516E-10
     -6.940  0.5000E-08  0.5000E-08  0.1425E-09  0.1425E-09
     -6.930  0.7392E-08  0.7392E-08  0.2125E-09  0.2125E-09
     -6.921  0.1088E-07  0.1088E-07  0.3156E-09  0.3156E-09
     -6.911  0.1594E-07  0.1594E-07  0.4665E-09  0.4665E-09
     -6.902  0.2325E-07  0.2325E-07  0.6868E-09  0.6868E-09
     -6.892  0.3377E-07  0.3377E-07  0.1007E-08  0.1007E-08
     -6.883  0.4882E-07  0.4882E-07  0.1469E-08  0.1469E-08
     -6.873  0.7027E-07  0.7027E-07  0.2135E-08  0.2135E-08
     -6.864  0.1007E-06  0.1007E-06  0.3088E-08  0.3088E-08
     -6.854  0.1437E-06  0.1437E-06  0.4449E-08  0.4449E-08
     -6.845  0.2041E-06  0.2041E-06  0.6383E-08  0.6383E-08
     -6.835  0.2887E-06  0.2887E-06  0.9117E-08  0.9117E-08
     -6.826  0.4064E-06  0.4064E-06  0.1297E-07  0.1297E-07
     -6.817  0.5697E-06  0.5697E-06  0.1836E-07  0.1836E-07
     -6.807  0.7951E-06  0.7951E-06  0.2589E-07  0.2589E-07
     -6.798  0.1105E-05  0.1105E-05  0.3636E-07  0.3636E-07
     -6.788  0.1528E-05  0.1528E-05  0.5083E-07  0.5083E-07
     -6.779  0.2105E-05  0.2105E-05  0.7077E-07  0.7077E-07
     -6.769  0.2886E-05  0.2886E-05  0.9811E-07  0.9810E-07
     -6.760  0.3940E-05  0.3940E-05  0.1354E-06  0.1354E-06
     -6.750  0.5355E-05  0.5355E-05  0.1861E-06  0.1861E-06
     -6.741  0.7246E-05  0.7246E-05  0.2548E-06  0.2548E-06
     -6.731  0.9763E-05  0.9763E-05  0.3472E-06  0.3472E-06
     -6.722  0.1309E-04  0.1309E-04  0.4713E-06  0.4713E-06
     -6.712  0.1749E-04  0.1749E-04  0.6369E-06  0.6369E-06
     -6.703  0.2325E-04  0.2325E-04  0.8571E-06  0.8571E-06
     -6.693  0.3078E-04  0.3078E-04  0.1149E-05  0.1149E-05
     -6.684  0.4057E-04  0.4057E-04  0.1533E-05  0.1533E-05
     -6.674  0.5323E-04  0.5323E-04  0.2037E-05  0.2037E-05
     -6.665  0.6954E-04  0.6954E-04  0.2696E-05  0.2696E-05
     -6.656  0.9046E-04  0.9046E-04  0.3553E-05  0.3553E-05
     -6.646  0.1172E-03  0.1172E-03  0.4662E-05  0.4662E-05
     -6.637  0.1511E-03  0.1511E-03  0.6093E-05  0.6093E-05
     -6.627  0.1939E-03  0.1939E-03  0.7930E-05  0.7930E-05
     -6.618  0.2479E-03  0.2479E-03  0.1028E-04  0.1028E-04
     -6.608  0.3155E-03  0.3155E-03  0.1327E-04  0.1327E-04
     -6.599  0.3997E-03  0.3997E-03  0.1705E-04  0.1705E-04
     -6.589  0.5043E-03  0.5043E-03  0.2183E-04  0.2183E-04
     -6.580  0.6334E-03  0.6334E-03  0.2783E-04  0.2783E-04
     -6.570  0.7922E-03  0.7922E-03  0.3533E-04  0.3533E-04
     -6.561  0.9865E-03  0.9865E-03  0.4468E-04  0.4468E-04
     -6.551  0.1223E-02  0.1223E-02  0.5626E-04  0.5626E-04
     -6.542  0.1510E-02  0.1510E-02  0.7056E-04  0.7056E-04
     -6.532  0.1856E-02  0.1856E-02  0.8814E-04  0.8814E-04
     -6.523  0.2271E-02  0.2271E-02  0.1097E-03  0.1097E-03
     -6.513  0.2768E-02  0.2768E-02  0.1359E-03  0.1359E-03
     -6.504  0.3359E-02  0.3359E-02  0.1677E-03  0.1677E-03
     -6.494  0.4058E-02  0.4058E-02  0.2061E-03  0.2061E-03
     -6.485  0.4881E-02  0.4881E-02  0.2524E-03  0.2524E-03
     -6.476  0.5847E-02  0.5847E-02  0.3077E-03  0.3077E-03
     -6.466  0.6973E-02  0.6973E-02  0.3738E-03  0.3738E-03
     -6.457  0.8281E-02  0.8281E-02  0.4522E-03  0.4522E-03
     -6.447  0.9793E-02  0.9793E-02  0.5450E-03  0.5450E-03
     -6.438  0.1153E-01  0.1153E-01  0.6542E-03  0.6542E-03
     -6.428  0.1352E-01  0.1352E-01  0.7823E-03  0.7823E-03
     -6.419  0.1579E-01  0.1579E-01  0.9318E-03  0.9318E-03
     -6.409  0.1835E-01  0.1835E-01  0.1106E-02  0.1106E-02
     -6.400  0.2125E-01  0.2125E-01  0.1307E-02  0.1307E-02
     -6.390  0.2450E-01  0.2450E-01  0.1539E-02  0.1539E-02
     -6.381  0.2812E-01  0.2812E-01  0.1805E-02  0.1805E-02
     -6.371  0.3215E-01  0.3215E-01  0.2110E-02  0.2110E-02
     -6.362  0.3660E-01  0.3660E-01  0.2456E-02  0.2456E-02
     -6.352  0.4150E-01  0.4150E-01  0.2850E-02  0.2850E-02
     -6.343  0.4685E-01  0.4685E-01  0.3293E-02  0.3293E-02
     -6.333  0.5268E-01  0.5268E-01  0.3792E-02  0.3792E-02
     -6.324  0.5899E-01  0.5899E-01  0.4351E-02  0.4351E-02
     -6.315  0.6579E-01  0.6579E-01  0.4974E-02  0.4974E-02
     -6.305  0.7307E-01  0.7307E-01  0.5666E-02  0.5666E-02
     -6.296  0.8083E-01  0.8083E-01  0.6432E-02  0.6432E-02
     -6.286  0.8905E-01  0.8905E-01  0.7275E-02  0.7275E-02
     -6.277  0.9772E-01  0.9772E-01  0.8201E-02  0.8201E-02
     -6.267  0.1068E+00  0.1068E+00  0.9213E-02  0.9213E-02
     -6.258  0.1163E+00  0.1163E+00  0.1031E-01  0.1031E-01
     -6.248  0.1261E+00  0.1261E+00  0.1151E-01  0.1151E-01
     -6.239  0.1362E+00  0.1362E+00  0.1280E-01  0.1280E-01
     -6.229  0.1465E+00  0.1465E+00  0.1418E-01  0.1418E-01
     -6.220  0.1570E+00  0.1570E+00  0.1567E-01  0.1567E-01
     -6.210  0.1676E+00  0.1676E+00  0.1726E-01  0.1726E-01
     -6.201  0.1783E+00  0.1783E+00  0.1895E-01  0.1895E-01
     -6.191  0.1889E+00  0.1889E+00  0.2074E-01  0.2074E-01
     -6.182  0.1995E+00  0.1995E+00  0.2263E-01  0.2263E-01
     -6.172  0.2098E+00  0.2098E+00  0.2461E-01  0.2461E-01
     -6.163  0.2199E+00  0.2199E+00  0.2670E-01  0.2670E-01
     -6.154  0.2296E+00  0.2296E+00  0.2887E-01  0.2887E-01
     -6.144  0.2390E+00  0.2390E+00  0.3114E-01  0.3114E-01
     -6.135  0.2479E+00  0.2479E+00  0.3348E-01  0.3348E-01
     -6.125  0.2562E+00  0.2562E+00  0.3591E-01  0.3591E-01
     -6.116  0.2639E+00  0.2639E+00  0.3841E-01  0.3841E-01
     -6.106  0.2710E+00  0.2710E+00  0.4098E-01  0.4098E-01
     -6.097  0.2773E+00  0.2773E+00  0.4360E-01  0.4360E-01
     -6.087  0.2829E+00  0.2829E+00  0.4628E-01  0.4628E-01
     -6.078  0.2878E+00  0.2878E+00  0.4901E-01  0.4901E-01
     -6.068  0.2919E+00  0.2919E+00  0.5177E-01  0.5177E-01
     -6.059  0.2952E+00  0.2952E+00  0.5457E-01  0.5457E-01
     -6.049  0.2977E+00  0.2977E+00  0.5739E-01  0.5739E-01
     -6.040  0.2994E+00  0.2994E+00  0.6022E-01  0.6022E-01
     -6.030  0.3003E+00  0.3003E+00  0.6307E-01  0.6307E-01
     -6.021  0.3005E+00  0.3005E+00  0.6592E-01  0.6592E-01
     -6.011  0.3000E+00  0.3000E+00  0.6876E-01  0.6876E-01
     -6.002  0.2989E+00  0.2989E+00  0.7159E-01  0.7159E-01
     -5.992  0.2971E+00  0.2971E+00  0.7440E-01  0.7440E-01
     -5.983  0.2947E+00  0.2947E+00  0.7719E-01  0.7719E-01
     -5.974  0.2918E+00  0.2918E+00  0.7996E-01  0.7996E-01
     -5.964  0.2885E+00  0.2885E+00  0.8269E-01  0.8269E-01
     -5.955  0.2847E+00  0.2847E+00  0.8539E-01  0.8539E-01
     -5.945  0.2806E+00  0.2806E+00  0.8804E-01  0.8804E-01
     -5.936  0.2762E+00  0.2762E+00  0.9066E-01  0.9066E-01
     -5.926  0.2715E+00  0.2715E+00  0.9323E-01  0.9323E-01
     -5.917  0.2666E+00  0.2666E+00  0.9576E-01  0.9576E-01
     -5.907  0.2616E+00  0.2616E+00  0.9824E-01  0.9824E-01
     -5.898  0.2565E+00  0.2565E+00  0.1007E+00  0.1007E+00
     -5.888  0.2514E+00  0.2514E+00  0.1030E+00  0.1030E+00
     -5.879  0.2462E+00  0.2462E+00  0.1054E+00  0.1054E+00
     -5.869  0.2411E+00  0.2411E+00  0.1077E+00  0.1077E+00
     -5.860  0.2360E+00  0.2360E+00  0.1099E+00  0.1099E+00
     -5.850  0.2310E+00  0.2310E+00  0.1121E+00  0.1121E+00
     -5.841  0.2262E+00  0.2262E+00  0.1142E+00  0.1142E+00
     -5.831  0.2214E+00  0.2214E+00  0.1163E+00  0.1163E+00
     -5.822  0.2168E+00  0.2168E+00  0.1184E+00  0.1184E+00
     -5.813  0.2123E+00  0.2123E+00  0.1204E+00  0.1204E+00
     -5.803  0.2080E+00  0.2080E+00  0.1224E+00  0.1224E+00
     -5.794  0.2039E+00  0.2039E+00  0.1243E+00  0.1243E+00
     -5.784  0.1999E+00  0.1999E+00  0.1262E+00  0.1262E+00
     -5.775  0.1962E+00  0.1962E+00  0.1280E+00  0.1280E+00
     -5.765  0.1925E+00  0.1925E+00  0.1299E+00  0.1299E+00
     -5.756  0.1891E+00  0.1891E+00  0.1317E+00  0.1317E+00
     -5.746  0.1858E+00  0.1858E+00  0.1334E+00  0.1334E+00
     -5.737  0.1827E+00  0.1827E+00  0.1351E+00  0.1351E+00
     -5.727  0.1797E+00  0.1797E+00  0.1369E+00  0.1369E+00
     -5.718  0.1769E+00  0.1769E+00  0.1385E+00  0.1385E+00
     -5.708  0.1742E+00  0.1742E+00  0.1402E+00  0.1402E+00
     -5.699  0.1716E+00  0.1716E+00  0.1418E+00  0.1418E+00
     -5.689  0.1692E+00  0.1692E+00  0.1434E+00  0.1434E+00
     -5.680  0.1668E+00  0.1668E+00  0.1450E+00  0.1450E+00
     -5.670  0.1646E+00  0.1646E+00  0.1465E+00  0.1465E+00
     -5.661  0.1625E+00  0.1625E+00  0.1481E+00  0.1481E+00
     -5.652  0.1605E+00  0.1605E+00  0.1496E+00  0.1496E+00
     -5.642  0.1586E+00  0.1586E+00  0.1511E+00  0.1511E+00
     -5.633  0.1567E+00  0.1567E+00  0.1526E+00  0.1526E+00
     -5.623  0.1550E+00  0.1550E+00  0.1541E+00  0.1541E+00
     -5.614  0.1533E+00  0.1533E+00  0.1555E+00  0.1555E+00
     -5.604  0.1516E+00  0.1516E+00  0.1569E+00  0.1569E+00
     -5.595  0.1501E+00  0.1501E+00  0.1584E+00  0.1584E+00
     -5.585  0.1486E+00  0.1486E+00  0.1598E+00  0.1598E+00
     -5.576  0.1471E+00  0.1471E+00  0.1612E+00  0.1612E+00
     -5.566  0.1457E+00  0.1457E+00  0.1625E+00  0.1625E+00
     -5.557  0.1444E+00  0.1444E+00  0.1639E+00  0.1639E+00
     -5.547  0.1431E+00  0.1431E+00  0.1653E+00  0.1653E+00
     -5.538  0.1418E+00  0.1418E+00  0.1666E+00  0.1666E+00
     -5.528  0.1406E+00  0.1406E+00  0.1679E+00  0.1679E+00
     -5.519  0.1394E+00  0.1394E+00  0.1693E+00  0.1693E+00
     -5.509  0.1383E+00  0.1383E+00  0.1706E+00  0.1706E+00
     -5.500  0.1372E+00  0.1372E+00  0.1719E+00  0.1719E+00
     -5.490  0.1361E+00  0.1361E+00  0.1732E+00  0.1732E+00
     -5.481  0.1350E+00  0.1350E+00  0.1744E+00  0.1744E+00
     -5.472  0.1340E+00  0.1340E+00  0.1757E+00  0.1757E+00
     -5.462  0.1330E+00  0.1330E+00  0.1770E+00  0.1770E+00
     -5.453  0.1321E+00  0.1321E+00  0.1782E+00  0.1782E+00
     -5.443  0.1311E+00  0.1311E+00  0.1795E+00  0.1795E+00
     -5.434  0.1302E+00  0.1302E+00  0.1807E+00  0.1807E+00
     -5.424  0.1293E+00  0.1293E+00  0.1819E+00  0.1819E+00
     -5.415  0.1284E+00  0.1284E+00  0.1831E+00  0.1831E+00
     -5.405  0.1276E+00  0.1276E+00  0.1843E+00  0.1843E+00
     -5.396  0.1267E+00  0.1267E+00  0.1855E+00  0.1855E+00
     -5.386  0.1259E+00  0.1259E+00  0.1867E+00  0.1867E+00
     -5.377  0.1251E+00  0.1251E+00  0.1879E+00  0.1879E+00
     -5.367  0.1244E+00  0.1244E+00  0.1891E+00  0.1891E+00
     -5.358  0.1236E+00  0.1236E+00  0.1903E+00  0.1903E+00
     -5.348  0.1229E+00  0.1229E+00  0.1914E+00  0.1914E+00
     -5.339  0.1221E+00  0.1221E+00  0.1926E+00  0.1926E+00
     -5.329  0.1214E+00  0.1214E+00  0.1937E+00  0.1937E+00
     -5.320  0.1207E+00  0.1207E+00  0.1949E+00  0.1949E+00
     -5.311  0.1200E+00  0.1200E+00  0.1960E+00  0.1960E+00
     -5.301  0.1194E+00  0.1194E+00  0.1972E+00  0.1972E+00
     -5.292  0.1187E+00  0.1187E+00  0.1983E+00  0.1983E+00
     -5.282  0.1181E+00  0.1181E+00  0.1994E+00  0.1994E+00
     -5.273  0.1175E+00  0.1175E+00  0.2005E+00  0.2005E+00
     -5.263  0.1168E+00  0.1168E+00  0.2016E+00  0.2016E+00
     -5.254  0.1162E+00  0.1162E+00  0.2027E+00  0.2027E+00
     -5.244  0.1156E+00  0.1156E+00  0.2038E+00  0.2038E+00
     -5.235  0.1151E+00  0.1151E+00  0.2049E+00  0.2049E+00
     -5.225  0.1145E+00  0.1145E+00  0.2060E+00  0.2060E+00
     -5.216  0.1139E+00  0.1139E+00  0.2071E+00  0.2071E+00
     -5.206  0.1134E+00  0.1134E+00  0.2081E+00  0.2081E+00
     -5.197  0.1129E+00  0.1129E+00  0.2092E+00  0.2092E+00
     -5.187  0.1123E+00  0.1123E+00  0.2103E+00  0.2103E+00
     -5.178  0.1118E+00  0.1118E+00  0.2113E+00  0.2113E+00
     -5.168  0.1113E+00  0.1113E+00  0.2124E+00  0.2124E+00
     -5.159  0.1108E+00  0.1108E+00  0.2134E+00  0.2134E+00
     -5.150  0.1103E+00  0.1103E+00  0.2145E+00  0.2145E+00
     -5.140  0.1098E+00  0.1098E+00  0.2155E+00  0.2155E+00
     -5.131  0.1094E+00  0.1094E+00  0.2166E+00  0.2166E+00
     -5.121  0.1089E+00  0.1089E+00  0.2176E+00  0.2176E+00
     -5.112  0.1085E+00  0.1085E+00  0.2186E+00  0.2186E+00
     -5.102  0.1080E+00  0.1080E+00  0.2196E+00  0.2196E+00
     -5.093  0.1076E+00  0.1076E+00  0.2207E+00  0.2207E+00
     -5.083  0.1071E+00  0.1071E+00  0.2217E+00  0.2217E+00
     -5.074  0.1067E+00  0.1067E+00  0.2227E+00  0.2227E+00
     -5.064  0.1063E+00  0.1063E+00  0.2237E+00  0.2237E+00
     -5.055  0.1059E+00  0.1059E+00  0.2247E+00  0.2247E+00
     -5.045  0.1055E+00  0.1055E+00  0.2257E+00  0.2257E+00
     -5.036  0.1051E+00  0.1051E+00  0.2267E+00  0.2267E+00
     -5.026  0.1047E+00  0.1047E+00  0.2277E+00  0.2277E+00
     -5.017  0.1043E+00  0.1043E+00  0.2287E+00  0.2287E+00
     -5.007  0.1039E+00  0.1039E+00  0.2297E+00  0.2297E+00
     -4.998  0.1036E+00  0.1036E+00  0.2306E+00  0.2306E+00
     -4.988  0.1032E+00  0.1032E+00  0.2316E+00  0.2316E+00
     -4.979  0.1029E+00  0.1029E+00  0.2326E+00  0.2326E+00
     -4.970  0.1025E+00  0.1025E+00  0.2336E+00  0.2336E+00
     -4.960  0.1022E+00  0.1022E+00  0.2345E+00  0.2345E+00
     -4.951  0.1018E+00  0.1018E+00  0.2355E+00  0.2355E+00
     -4.941  0.1015E+00  0.1015E+00  0.2365E+00  0.2365E+00
     -4.932  0.1012E+00  0.1012E+00  0.2374E+00  0.2374E+00
     -4.922  0.1008E+00  0.1008E+00  0.2384E+00  0.2384E+00
     -4.913  0.1005E+00  0.1005E+00  0.2393E+00  0.2393E+00
     -4.903  0.1002E+00  0.1002E+00  0.2403E+00  0.2403E+00
     -4.894  0.9992E-01  0.9992E-01  0.2412E+00  0.2412E+00
     -4.884  0.9963E-01  0.9963E-01  0.2422E+00  0.2422E+00
     -4.875  0.9933E-01  0.9933E-01  0.2431E+00  0.2431E+00
     -4.865  0.9905E-01  0.9905E-01  0.2440E+00  0.2440E+00
     -4.856  0.9876E-01  0.9876E-01  0.2450E+00  0.2450E+00
     -4.846  0.9849E-01  0.9849E-01  0.2459E+00  0.2459E+00
     -4.837  0.9821E-01  0.9821E-01  0.2468E+00  0.2468E+00
     -4.827  0.9795E-01  0.9795E-01  0.2478E+00  0.2478E+00
     -4.818  0.9768E-01  0.9768E-01  0.2487E+00  0.2487E+00
     -4.809  0.9742E-01  0.9742E-01  0.2496E+00  0.2496E+00
     -4.799  0.9717E-01  0.9717E-01  0.2505E+00  0.2505E+00
     -4.790  0.9692E-01  0.9692E-01  0.2514E+00  0.2514E+00
     -4.780  0.9668E-01  0.9668E-01  0.2524E+00  0.2524E+00
     -4.771  0.9644E-01  0.9644E-01  0.2533E+00  0.2533E+00
     -4.761  0.9620E-01  0.9620E-01  0.2542E+00  0.2542E+00
     -4.752  0.9597E-01  0.9597E-01  0.2551E+00  0.2551E+00
     -4.742  0.9575E-01  0.9575E-01  0.2560E+00  0.2560E+00
     -4.733  0.9553E-01  0.9553E-01  0.2569E+00  0.2569E+00
     -4.723  0.9531E-01  0.9531E-01  0.2578E+00  0.2578E+00
     -4.714  0.9510E-01  0.9510E-01  0.2587E+00  0.2587E+00
     -4.704  0.9490E-01  0.9490E-01  0.2596E+00  0.2596E+00
     -4.695  0.9470E-01  0.9470E-01  0.2605E+00  0.2605E+00
     -4.685  0.9450E-01  0.9450E-01  0.2614E+00  0.2614E+00
     -4.676  0.9432E-01  0.9432E-01  0.2623E+00  0.2623E+00
     -4.666  0.9413E-01  0.9413E-01  0.2632E+00  0.2632E+00
     -4.657  0.9395E-01  0.9395E-01  0.2641E+00  0.2641E+00
     -4.648  0.9378E-01  0.9378E-01  0.2650E+00  0.2650E+00
     -4.638  0.9361E-01  0.9361E-01  0.2659E+00  0.2659E+00
     -4.629  0.9345E-01  0.9345E-01  0.2667E+00  0.2667E+00
     -4.619  0.9329E-01  0.9329E-01  0.2676E+00  0.2676E+00
     -4.610  0.9313E-01  0.9313E-01  0.2685E+00  0.2685E+00
     -4.600  0.9298E-01  0.9298E-01  0.2694E+00  0.2694E+00
     -4.591  0.9283E-01  0.9283E-01  0.2703E+00  0.2703E+00
     -4.581  0.9269E-01  0.9269E-01  0.2711E+00  0.2711E+00
     -4.572  0.9255E-01  0.9255E-01  0.2720E+00  0.2720E+00
     -4.562  0.9242E-01  0.9242E-01  0.2729E+00  0.2729E+00
     -4.553  0.9229E-01  0.9229E-01  0.2738E+00  0.2738E+00
     -4.543  0.9217E-01  0.9217E-01  0.2746E+00  0.2746E+00
     -4.534  0.9205E-01  0.9205E-01  0.2755E+00  0.2755E+00
     -4.524  0.9194E-01  0.9194E-01  0.2764E+00  0.2764E+00
     -4.515  0.9184E-01  0.9184E-01  0.2773E+00  0.2773E+00
     -4.505  0.9174E-01  0.9174E-01  0.2781E+00  0.2781E+00
     -4.496  0.9165E-01  0.9165E-01  0.2790E+00  0.2790E+00
     -4.486  0.9157E-01  0.9157E-01  0.2799E+00  0.2799E+00
     -4.477  0.9150E-01  0.9150E-01  0.2807E+00  0.2807E+00
     -4.468  0.9143E-01  0.9143E-01  0.2816E+00  0.2816E+00
     -4.458  0.9138E-01  0.9138E-01  0.2825E+00  0.2825E+00
     -4.449  0.9134E-01  0.9134E-01  0.2833E+00  0.2833E+00
     -4.439  0.9130E-01  0.9130E-01  0.2842E+00  0.2842E+00
     -4.430  0.9128E-01  0.9128E-01  0.2851E+00  0.2851E+00
     -4.420  0.9127E-01  0.9127E-01  0.2859E+00  0.2859E+00
     -4.411  0.9128E-01  0.9128E-01  0.2868E+00  0.2868E+00
     -4.401  0.9130E-01  0.9130E-01  0.2876E+00  0.2876E+00
     -4.392  0.9133E-01  0.9133E-01  0.2885E+00  0.2885E+00
     -4.382  0.9139E-01  0.9139E-01  0.2894E+00  0.2894E+00
     -4.373  0.9146E-01  0.9146E-01  0.2902E+00  0.2902E+00
     -4.363  0.9156E-01  0.9156E-01  0.2911E+00  0.2911E+00
     -4.354  0.9168E-01  0.9168E-01  0.2920E+00  0.2920E+00
     -4.344  0.9183E-01  0.9183E-01  0.2928E+00  0.2928E+00
     -4.335  0.9202E-01  0.9202E-01  0.2937E+00  0.2937E+00
     -4.325  0.9225E-01  0.9225E-01  0.2946E+00  0.2946E+00
     -4.316  0.9253E-01  0.9253E-01  0.2955E+00  0.2955E+00
     -4.307  0.9287E-01  0.9287E-01  0.2963E+00  0.2963E+00
     -4.297  0.9328E-01  0.9328E-01  0.2972E+00  0.2972E+00
     -4.288  0.9376E-01  0.9376E-01  0.2981E+00  0.2981E+00
     -4.278  0.9433E-01  0.9433E-01  0.2990E+00  0.2990E+00
     -4.269  0.9500E-01  0.9500E-01  0.2999E+00  0.2999E+00
     -4.259  0.9579E-01  0.9579E-01  0.3008E+00  0.3008E+00
     -4.250  0.9671E-01  0.9671E-01  0.3017E+00  0.3017E+00
     -4.240  0.9778E-01  0.9778E-01  0.3027E+00  0.3027E+00
     -4.231  0.9903E-01  0.9903E-01  0.3036E+00  0.3036E+00
     -4.221  0.1005E+00  0.1005E+00  0.3046E+00  0.3046E+00
     -4.212  0.1021E+00  0.1021E+00  0.3055E+00  0.3055E+00
     -4.202  0.1040E+00  0.1040E+00  0.3065E+00  0.3065E+00
     -4.193  0.1061E+00  0.1061E+00  0.3075E+00  0.3075E+00
     -4.183  0.1085E+00  0.1085E+00  0.3085E+00  0.3085E+00
     -4.174  0.1112E+00  0.1112E+00  0.3096E+00  0.3096E+00
     -4.164  0.1143E+00  0.1143E+00  0.3107E+00  0.3107E+00
     -4.155  0.1177E+00  0.1177E+00  0.3118E+00  0.3118E+00
     -4.146  0.1215E+00  0.1215E+00  0.3129E+00  0.3129E+00
     -4.136  0.1257E+00  0.1257E+00  0.3141E+00  0.3141E+00
     -4.127  0.1303E+00  0.1303E+00  0.3154E+00  0.3154E+00
     -4.117  0.1354E+00  0.1354E+00  0.3166E+00  0.3166E+00
     -4.108  0.1409E+00  0.1409E+00  0.3180E+00  0.3180E+00
     -4.098  0.1469E+00  0.1469E+00  0.3194E+00  0.3194E+00
     -4.089  0.1534E+00  0.1534E+00  0.3208E+00  0.3208E+00
     -4.079  0.1604E+00  0.1604E+00  0.3223E+00  0.3223E+00
     -4.070  0.1679E+00  0.1679E+00  0.3239E+00  0.3239E+00
     -4.060  0.1759E+00  0.1759E+00  0.3256E+00  0.3256E+00
     -4.051  0.1843E+00  0.1843E+00  0.3273E+00  0.3273E+00
     -4.041  0.1932E+00  0.1932E+00  0.3292E+00  0.3292E+00
     -4.032  0.2026E+00  0.2026E+00  0.3311E+00  0.3311E+00
     -4.022  0.2123E+00  0.2123E+00  0.3331E+00  0.3331E+00
     -4.013  0.2224E+00  0.2224E+00  0.3352E+00  0.3352E+00
     -4.003  0.2329E+00  0.2329E+00  0.3374E+00  0.3374E+00
     -3.994  0.2435E+00  0.2435E+00  0.3397E+00  0.3397E+00
     -3.984  0.2544E+00  0.2544E+00  0.3421E+00  0.3421E+00
     -3.975  0.2654E+00  0.2654E+00  0.3447E+00  0.3447E+00
     -3.966  0.2765E+00  0.2765E+00  0.3473E+00  0.3473E+00
     -3.956  0.2875E+00  0.2875E+00  0.3500E+00  0.3500E+00
     -3.947  0.2984E+00  0.2984E+00  0.3528E+00  0.3528E+00
     -3.937  0.3091E+00  0.3091E+00  0.3557E+00  0.3557E+00
     -3.928  0.3196E+00  0.3196E+00  0.3588E+00  0.3588E+00
     -3.918  0.3297E+00  0.3297E+00  0.3619E+00  0.3619E+00
     -3.909  0.3393E+00  0.3393E+00  0.3651E+00  0.3651E+00
     -3.899  0.3484E+00  0.3484E+00  0.3684E+00  0.3684E+00
     -3.890  0.3569E+00  0.3569E+00  0.3718E+00  0.3718E+00
     -3.880  0.3648E+00  0.3648E+00  0.3752E+00  0.3752E+00
     -3.871  0.3719E+00  0.3719E+00  0.3788E+00  0.3788E+00
     -3.861  0.3783E+00  0.3783E+00  0.3824E+00  0.3824E+00
     -3.852  0.3838E+00  0.3838E+00  0.3860E+00  0.3860E+00
     -3.842  0.3885E+00  0.3885E+00  0.3897E+00  0.3897E+00
     -3.833  0.3923E+00  0.3923E+00  0.3934E+00  0.3934E+00
     -3.823  0.3952E+00  0.3952E+00  0.3971E+00  0.3971E+00
     -3.814  0.3972E+00  0.3972E+00  0.4009E+00  0.4009E+00
     -3.805  0.3984E+00  0.3984E+00  0.4047E+00  0.4047E+00
     -3.795  0.3987E+00  0.3987E+00  0.4084E+00  0.4084E+00
     -3.786  0.3981E+00  0.3981E+00  0.4122E+00  0.4122E+00
     -3.776  0.3968E+00  0.3968E+00  0.4160E+00  0.4160E+00
     -3.767  0.3947E+00  0.3947E+00  0.4197E+00  0.4197E+00
     -3.757  0.3919E+00  0.3919E+00  0.4234E+00  0.4234E+00
     -3.748  0.3885E+00  0.3885E+00  0.4271E+00  0.4271E+00
     -3.738  0.3845E+00  0.3845E+00  0.4307E+00  0.4307E+00
     -3.729  0.3800E+00  0.3800E+00  0.4343E+00  0.4343E+00
     -3.719  0.3751E+00  0.3751E+00  0.4379E+00  0.4379E+00
     -3.710  0.3697E+00  0.3697E+00  0.4414E+00  0.4414E+00
     -3.700  0.3641E+00  0.3641E+00  0.4448E+00  0.4448E+00
     -3.691  0.3581E+00  0.3581E+00  0.4482E+00  0.4482E+00
     -3.681  0.3520E+00  0.3520E+00  0.4516E+00  0.4516E+00
     -3.672  0.3457E+00  0.3457E+00  0.4548E+00  0.4548E+00
     -3.662  0.3394E+00  0.3394E+00  0.4581E+00  0.4581E+00
     -3.653  0.3330E+00  0.3330E+00  0.4612E+00  0.4612E+00
     -3.644  0.3266E+00  0.3266E+00  0.4643E+00  0.4643E+00
     -3.634  0.3203E+00  0.3203E+00  0.4673E+00  0.4673E+00
     -3.625  0.3140E+00  0.3140E+00  0.4703E+00  0.4703E+00
     -3.615  0.3079E+00  0.3079E+00  0.4732E+00  0.4732E+00
     -3.606  0.3019E+00  0.3019E+00  0.4761E+00  0.4761E+00
     -3.596  0.2960E+00  0.2960E+00  0.4789E+00  0.4789E+00
     -3.587  0.2904E+00  0.2904E+00  0.4816E+00  0.4816E+00