       N       E                     dE             d eps       ncg     rms          rms(c)
DAV:   1     0.124752794007E+02    0.12475E+02   -0.27142E+03 15744   0.257E+02
DAV:   2    -0.638724819952E+01   -0.18863E+02   -0.18071E+02 20424   0.583E+01
DAV:   3    -0.684344424153E+01   -0.45620E+00   -0.45229E+00 20152   0.678E+00
DAV:   4    -0.684535567262E+01   -0.19114E-02   -0.19113E-02 17616   0.533E-01
DAV:   5    -0.684536461261E+01   -0.89400E-05   -0.89391E-05 20376   0.363E-02    0.519E+00
DAV:   6    -0.725394187654E+01   -0.40858E+00   -0.73559E-02 18144   0.800E-01    0.265E+00
DAV:   7    -0.721998813723E+01    0.33954E-01   -0.73627E-02 18912   0.781E-01    0.156E+00
DAV:   8    -0.724512229564E+01   -0.25134E-01   -0.26806E-02 18456   0.473E-01    0.618E-01
DAV:   9    -0.724112372413E+01    0.39986E-02   -0.89928E-04 18344   0.950E-02    0.140E-01
DAV:  10    -0.723196230202E+01    0.91614E-02   -0.86910E-04 17672   0.843E-02    0.666E-02
DAV:  11    -0.723202451116E+01   -0.62209E-04   -0.13188E-04 17800   0.383E-02    0.336E-02
DAV:  12    -0.723236206937E+01   -0.33756E-03   -0.52096E-06 19080   0.698E-03    0.211E-02
DAV:  13    -0.723231699007E+01    0.45079E-04   -0.25357E-06 18032   0.525E-03    0.366E-03
DAV:  14    -0.723236764806E+01   -0.50658E-04   -0.84567E-07 17528   0.299E-03    0.120E-03
DAV:  15    -0.723238053286E+01   -0.12885E-04   -0.28274E-08 17840   0.537E-04    0.434E-04
DAV:  16    -0.723239056094E+01   -0.10028E-04   -0.15829E-08 15664   0.464E-04    0.342E-04
DAV:  17    -0.723238966576E+01    0.89518E-06   -0.10279E-09  9664   0.127E-04    0.465E-05
DAV:  18    -0.723238983146E+01   -0.16570E-06   -0.78640E-11  9328   0.323E-05    0.163E-05
DAV:  19    -0.723238966554E+01    0.16592E-06   -0.63755E-12  9176   0.103E-05    0.140E-05
DAV:  20    -0.723238945527E+01    0.21027E-06   -0.25988E-12  9080   0.639E-06    0.143E-06
DAV:  21    -0.723238945208E+01    0.31888E-08   -0.20038E-13  8992   0.174E-06
   1 F= -.72323895E+01 E0= -.72319691E+01  d E =-.840794E-03  mag=     0.0000
