 vasp.5.3.3 18Dez12 (build Jan 30 2013 10:57:47) complex                        
  
 executed on             LinuxIFC date 2016.06.21  17:04:07
 running on   16 total cores
 distrk:  each k-point on   16 cores,    1 groups
 distr:  one band on NCORES_PER_BAND=   4 cores,    4 groups


--------------------------------------------------------------------------------------------------------


 INCAR:
 POTCAR:    PAW_PBE Si 05Jan2001                  

 ----------------------------------------------------------------------------- 
|                                                                             |
|  ADVICE TO THIS USER RUNNING 'VASP/VAMP'   (HEAR YOUR MASTER'S VOICE ...):  |
|                                                                             |
|      You have switched on vdW-DFT.                                          |
|      This routine was written and supplied by Jiri Klimes.                  |
|      We recommed that you carefully read and cite the following             |
|      publication                                                            |
|      J. Klimes, D.R. Bowler, A. Michelides                                  |
|        J. Phys.: Cond Matt. 22 022201 (2010)                                |
|      J. Klimes, D.R. Bowler, A. Michelides                                  |
|        Phys. Rev. B. 83, 195131 (2011)                                      |
|      and references therein.                                                |
|                                                                             |
 ----------------------------------------------------------------------------- 

 POTCAR:    PAW_PBE Si 05Jan2001                  
   VRHFIN =Si: s2p2                                                             
   LEXCH  = PE                                                                  
   EATOM  =   103.0669 eV,    7.5752 Ry                                         
                                                                                
   TITEL  = PAW_PBE Si 05Jan2001                                                
   LULTRA =        F    use ultrasoft PP ?                                      
   IUNSCR =        1    unscreen: 0-lin 1-nonlin 2-no                           
   RPACOR =    1.500    partial core radius                                     
   POMASS =   28.085; ZVAL   =    4.000    mass and valenz                      
   RCORE  =    1.900    outmost cutoff radius                                   
   RWIGS  =    2.480; RWIGS  =    1.312    wigner-seitz radius (au A)           
   ENMAX  =  245.345; ENMIN  =  184.009 eV                                      
   ICORE  =        2    local potential                                         
   LCOR   =        T    correct aug charges                                     
   LPAW   =        T    paw PP                                                  
   EAUG   =  322.069                                                            
   DEXC   =    0.000                                                            
   RMAX   =    1.950    core radius for proj-oper                               
   RAUG   =    1.300    factor for augmentation sphere                          
   RDEP   =    1.993    radius for radial grids                                 
   RDEPT  =    1.837    core radius for aug-charge                              
                                                                                
   Atomic configuration                                                         
    6 entries                                                                   
     n  l   j            E        occ.                                          
     1  0  0.50     -1785.8828   2.0000                                         
     2  0  0.50      -139.4969   2.0000                                         
     2  1  1.50       -95.5546   6.0000                                         
     3  0  0.50       -10.8127   2.0000                                         
     3  1  0.50        -4.0811   2.0000                                         
     3  2  1.50        -4.0817   0.0000                                         
   Description                                                                  
     l       E           TYP  RCUT    TYP  RCUT                                 
     0    -10.8127223     23  1.900                                             
     0     -7.6451159     23  1.900                                             
     1     -4.0811372     23  1.900                                             
     1      2.4879257     23  1.900                                             
     2     -4.0817478      7  1.900                                             
  local pseudopotential read in
  partial core-charges read in
  partial kinetic energy density read in
  atomic valenz-charges read in
  non local Contribution for L=           0  read in
    real space projection operators read in
  non local Contribution for L=           0  read in
    real space projection operators read in
  non local Contribution for L=           1  read in
    real space projection operators read in
  non local Contribution for L=           1  read in
    real space projection operators read in
    PAW grid and wavefunctions read in
 
   number of l-projection  operators is LMAX  =           4
   number of lm-projection operators is LMMAX =           8
 

 ----------------------------------------------------------------------------- 
|                                                                             |
|  ADVICE TO THIS USER RUNNING 'VASP/VAMP'   (HEAR YOUR MASTER'S VOICE ...):  |
|                                                                             |
|      You enforced a specific xc-type in the INCAR file,                     |
|      a different type was found on the POTCAR file                          |
|          I HOPE YOU KNOW, WHAT YOU ARE  DOING                               |
|                                                                             |
 ----------------------------------------------------------------------------- 

  PAW_PBE Si 05Jan2001                  :
 energy of atom  1       EATOM= -103.0669
 kinetic energy error for atom=    0.0006 (will be added to EATOM!!)
 
 
 POSCAR: bulk@mp_149                             
  positions in direct lattice
  velocities in cartesian coordinates
 exchange correlation table for  LEXCH =       42
   RHO(1)=    0.500       N(1)  =     2000
   RHO(2)=  100.500       N(2)  =     4000
 


--------------------------------------------------------------------------------------------------------


 ion  position               nearest neighbor table
   1  0.875  0.875  0.875-   2 2.38   2 2.38   2 2.38   2 2.38
   2  0.125  0.125  0.125-   1 2.38   1 2.38   1 2.38   1 2.38
 
  LATTYP: Found a face centered cubic cell.
 ALAT       =     5.4936342054
  
  Lattice vectors:
  
 A1 = (   3.3641500000,   0.0000000000,   1.9422930000)
 A2 = (   1.1213830000,   3.1717520000,   1.9422930000)
 A3 = (   0.0000000000,   0.0000000000,   3.8845860000)


Analysis of symmetry for initial positions (statically):
=====================================================================
 Subroutine PRICEL returns:
 Original cell was already a primitive cell.
 

 Routine SETGRP: Setting up the symmetry group for a 
 face centered cubic supercell.


 Subroutine GETGRP returns: Found 48 space group operations
 (whereof 12 operations were pure point group operations)
 out of a pool of 48 trial point group operations.


The static configuration has the point symmetry D_3d.
 The point group associated with its full space group is O_h .


Analysis of symmetry for dynamics (positions and initial velocities):
=====================================================================
 Subroutine PRICEL returns:
 Original cell was already a primitive cell.
 

 Routine SETGRP: Setting up the symmetry group for a 
 face centered cubic supercell.


 Subroutine GETGRP returns: Found 48 space group operations
 (whereof 12 operations were pure point group operations)
 out of a pool of 48 trial point group operations.


The dynamic configuration has the point symmetry D_3d.
 The point group associated with its full space group is O_h .


Analysis of magnetic symmetry:
=====================================================================

 Subroutine MAGSYM returns: Found 48 space group operations
 (whereof 12 operations were pure point group operations)
 out of a pool of 48 trial space group operations
 (whereof 12 operations were pure point group operations)
 and found also     1 'primitive' translations


The magnetic configuration has the point symmetry D_3d.
 The point group associated with its full space group is O_h .


 irot  :   1
 --------------------------------------------------------------------
 isymop:   1   0   0
           0   1   0
           0   0   1

 gtrans:     0.0000000     0.0000000     0.0000000

 ptrans:     0.0000000     0.0000000     0.0000000
 rotmap:
 (   1->   1)  (   2->   2) 


 irot  :   2
 --------------------------------------------------------------------
 isymop:  -1   0   0
           0  -1   0
           0   0  -1

 gtrans:     0.0000000     0.0000000     0.0000000

 ptrans:     0.0000000     0.0000000     0.0000000
 rotmap:
 (   1->   2)  (   2->   1) 


 irot  :   3
 --------------------------------------------------------------------
 isymop:   0   0   1
           1   0   0
           0   1   0

 gtrans:     0.0000000     0.0000000     0.0000000

 ptrans:     0.0000000     0.0000000     0.0000000
 rotmap:
 (   1->   1)  (   2->   2) 


 irot  :   4
 --------------------------------------------------------------------
 isymop:   0   0  -1
          -1   0   0
           0  -1   0

 gtrans:     0.0000000     0.0000000     0.0000000

 ptrans:     0.0000000     0.0000000     0.0000000
 rotmap:
 (   1->   2)  (   2->   1) 


 irot  :   5
 --------------------------------------------------------------------
 isymop:   0   1   0
           0   0   1
           1   0   0

 gtrans:     0.0000000     0.0000000     0.0000000

 ptrans:     0.0000000     0.0000000     0.0000000
 rotmap:
 (   1->   1)  (   2->   2) 


 irot  :   6
 --------------------------------------------------------------------
 isymop:   0  -1   0
           0   0  -1
          -1   0   0

 gtrans:     0.0000000     0.0000000     0.0000000

 ptrans:     0.0000000     0.0000000     0.0000000
 rotmap:
 (   1->   2)  (   2->   1) 


 irot  :   7
 --------------------------------------------------------------------
 isymop:  -1   0   0
           0   0  -1
           0  -1   0

 gtrans:     0.0000000     0.0000000     0.0000000

 ptrans:     0.0000000     0.0000000     0.0000000
 rotmap:
 (   1->   2)  (   2->   1) 


 irot  :   8
 --------------------------------------------------------------------
 isymop:   1   0   0
           0   0   1
           0   1   0

 gtrans:     0.0000000     0.0000000     0.0000000

 ptrans:     0.0000000     0.0000000     0.0000000
 rotmap:
 (   1->   1)  (   2->   2) 


 irot  :   9
 --------------------------------------------------------------------
 isymop:   0  -1   0
          -1   0   0
           0   0  -1

 gtrans:     0.0000000     0.0000000     0.0000000

 ptrans:     0.0000000     0.0000000     0.0000000
 rotmap:
 (   1->   2)  (   2->   1) 


 irot  :  10
 --------------------------------------------------------------------
 isymop:   0   1   0
           1   0   0
           0   0   1

 gtrans:     0.0000000     0.0000000     0.0000000

 ptrans:     0.0000000     0.0000000     0.0000000
 rotmap:
 (   1->   1)  (   2->   2) 


 irot  :  11
 --------------------------------------------------------------------
 isymop:   0   0  -1
           0  -1   0
          -1   0   0

 gtrans:     0.0000000     0.0000000     0.0000000

 ptrans:     0.0000000     0.0000000     0.0000000
 rotmap:
 (   1->   2)  (   2->   1) 


 irot  :  12
 --------------------------------------------------------------------
 isymop:   0   0   1
           0   1   0
           1   0   0

 gtrans:     0.0000000     0.0000000     0.0000000

 ptrans:     0.0000000     0.0000000     0.0000000
 rotmap:
 (   1->   1)  (   2->   2) 


 irot  :  13
 --------------------------------------------------------------------
 isymop:   1   1   1
           0   0  -1
          -1   0   0

 gtrans:     0.5000000     0.0000000     0.0000000

 ptrans:     0.0000000     0.0000000     0.0000000
 rotmap:
 (   1->   2)  (   2->   1) 


 irot  :  14
 --------------------------------------------------------------------
 isymop:  -1  -1  -1
           0   0   1
           1   0   0

 gtrans:     0.5000000     0.0000000     0.0000000

 ptrans:     0.0000000     0.0000000     0.0000000
 rotmap:
 (   1->   1)  (   2->   2) 


 irot  :  15
 --------------------------------------------------------------------
 isymop:   1   1   1
           0  -1   0
           0   0  -1

 gtrans:     0.5000000     0.0000000     0.0000000

 ptrans:     0.0000000     0.0000000     0.0000000
 rotmap:
 (   1->   2)  (   2->   1) 


 irot  :  16
 --------------------------------------------------------------------
 isymop:  -1  -1  -1
           0   1   0
           0   0   1

 gtrans:     0.5000000     0.0000000     0.0000000

 ptrans:     0.0000000     0.0000000     0.0000000
 rotmap:
 (   1->   1)  (   2->   2) 


 irot  :  17
 --------------------------------------------------------------------
 isymop:   1   1   1
          -1   0   0
           0  -1   0

 gtrans:     0.5000000     0.0000000     0.0000000

 ptrans:     0.0000000     0.0000000     0.0000000
 rotmap:
 (   1->   2)  (   2->   1) 


 irot  :  18
 --------------------------------------------------------------------
 isymop:  -1  -1  -1
           1   0   0
           0   1   0

 gtrans:     0.5000000     0.0000000     0.0000000

 ptrans:     0.0000000     0.0000000     0.0000000
 rotmap:
 (   1->   1)  (   2->   2) 


 irot  :  19
 --------------------------------------------------------------------
 isymop:   0   1   0
           1   0   0
          -1  -1  -1

 gtrans:     0.0000000     0.0000000     0.5000000

 ptrans:     0.0000000     0.0000000     0.0000000
 rotmap:
 (   1->   1)  (   2->   2) 


 irot  :  20
 --------------------------------------------------------------------
 isymop:   0  -1   0
          -1   0   0
           1   1   1

 gtrans:     0.0000000     0.0000000     0.5000000

 ptrans:     0.0000000     0.0000000     0.0000000
 rotmap:
 (   1->   2)  (   2->   1) 


 irot  :  21
 --------------------------------------------------------------------
 isymop:   1   0   0
           0   0   1
          -1  -1  -1

 gtrans:     0.0000000     0.0000000     0.5000000

 ptrans:     0.0000000     0.0000000     0.0000000
 rotmap:
 (   1->   1)  (   2->   2) 


 irot  :  22
 --------------------------------------------------------------------
 isymop:  -1   0   0
           0   0  -1
           1   1   1

 gtrans:     0.0000000     0.0000000     0.5000000

 ptrans:     0.0000000     0.0000000     0.0000000
 rotmap:
 (   1->   2)  (   2->   1) 


 irot  :  23
 --------------------------------------------------------------------
 isymop:   0   0   1
           0   1   0
          -1  -1  -1

 gtrans:     0.0000000     0.0000000     0.5000000

 ptrans:     0.0000000     0.0000000     0.0000000
 rotmap:
 (   1->   1)  (   2->   2) 


 irot  :  24
 --------------------------------------------------------------------
 isymop:   0   0  -1
           0  -1   0
           1   1   1

 gtrans:     0.0000000     0.0000000     0.5000000

 ptrans:     0.0000000     0.0000000     0.0000000
 rotmap:
 (   1->   2)  (   2->   1) 


 irot  :  25
 --------------------------------------------------------------------
 isymop:   0   0  -1
           1   1   1
           0  -1   0

 gtrans:     0.0000000     0.5000000     0.0000000

 ptrans:     0.0000000     0.0000000     0.0000000
 rotmap:
 (   1->   2)  (   2->   1) 


 irot  :  26
 --------------------------------------------------------------------
 isymop:   0   0   1
          -1  -1  -1
           0   1   0

 gtrans:     0.0000000     0.5000000     0.0000000

 ptrans:     0.0000000     0.0000000     0.0000000
 rotmap:
 (   1->   1)  (   2->   2) 


 irot  :  27
 --------------------------------------------------------------------
 isymop:   0  -1   0
           1   1   1
          -1   0   0

 gtrans:     0.0000000     0.5000000     0.0000000

 ptrans:     0.0000000     0.0000000     0.0000000
 rotmap:
 (   1->   2)  (   2->   1) 


 irot  :  28
 --------------------------------------------------------------------
 isymop:   0   1   0
          -1  -1  -1
           1   0   0

 gtrans:     0.0000000     0.5000000     0.0000000

 ptrans:     0.0000000     0.0000000     0.0000000
 rotmap:
 (   1->   1)  (   2->   2) 


 irot  :  29
 --------------------------------------------------------------------
 isymop:  -1   0   0
           1   1   1
           0   0  -1

 gtrans:     0.0000000     0.5000000     0.0000000

 ptrans:     0.0000000     0.0000000     0.0000000
 rotmap:
 (   1->   2)  (   2->   1) 


 irot  :  30
 --------------------------------------------------------------------
 isymop:   1   0   0
          -1  -1  -1
           0   0   1

 gtrans:     0.0000000     0.5000000     0.0000000

 ptrans:     0.0000000     0.0000000     0.0000000
 rotmap:
 (   1->   1)  (   2->   2) 


 irot  :  31
 --------------------------------------------------------------------
 isymop:  -1  -1  -1
           0   1   0
           1   0   0

 gtrans:     0.5000000     0.0000000     0.0000000

 ptrans:     0.0000000     0.0000000     0.0000000
 rotmap:
 (   1->   1)  (   2->   2) 


 irot  :  32
 --------------------------------------------------------------------
 isymop:   1   1   1
           0  -1   0
          -1   0   0

 gtrans:     0.5000000     0.0000000     0.0000000

 ptrans:     0.0000000     0.0000000     0.0000000
 rotmap:
 (   1->   2)  (   2->   1) 


 irot  :  33
 --------------------------------------------------------------------
 isymop:  -1  -1  -1
           1   0   0
           0   0   1

 gtrans:     0.5000000     0.0000000     0.0000000

 ptrans:     0.0000000     0.0000000     0.0000000
 rotmap:
 (   1->   1)  (   2->   2) 


 irot  :  34
 --------------------------------------------------------------------
 isymop:   1   1   1
          -1   0   0
           0   0  -1

 gtrans:     0.5000000     0.0000000     0.0000000

 ptrans:     0.0000000     0.0000000     0.0000000
 rotmap:
 (   1->   2)  (   2->   1) 


 irot  :  35
 --------------------------------------------------------------------
 isymop:  -1  -1  -1
           0   0   1
           0   1   0

 gtrans:     0.5000000     0.0000000     0.0000000

 ptrans:     0.0000000     0.0000000     0.0000000
 rotmap:
 (   1->   1)  (   2->   2) 


 irot  :  36
 --------------------------------------------------------------------
 isymop:   1   1   1
           0   0  -1
           0  -1   0

 gtrans:     0.5000000     0.0000000     0.0000000

 ptrans:     0.0000000     0.0000000     0.0000000
 rotmap:
 (   1->   2)  (   2->   1) 


 irot  :  37
 --------------------------------------------------------------------
 isymop:   0  -1   0
           0   0  -1
           1   1   1

 gtrans:     0.0000000     0.0000000     0.5000000

 ptrans:     0.0000000     0.0000000     0.0000000
 rotmap:
 (   1->   2)  (   2->   1) 


 irot  :  38
 --------------------------------------------------------------------
 isymop:   0   1   0
           0   0   1
          -1  -1  -1

 gtrans:     0.0000000     0.0000000     0.5000000

 ptrans:     0.0000000     0.0000000     0.0000000
 rotmap:
 (   1->   1)  (   2->   2) 


 irot  :  39
 --------------------------------------------------------------------
 isymop:  -1   0   0
           0  -1   0
           1   1   1

 gtrans:     0.0000000     0.0000000     0.5000000

 ptrans:     0.0000000     0.0000000     0.0000000
 rotmap:
 (   1->   2)  (   2->   1) 


 irot  :  40
 --------------------------------------------------------------------
 isymop:   1   0   0
           0   1   0
          -1  -1  -1

 gtrans:     0.0000000     0.0000000     0.5000000

 ptrans:     0.0000000     0.0000000     0.0000000
 rotmap:
 (   1->   1)  (   2->   2) 


 irot  :  41
 --------------------------------------------------------------------
 isymop:   0   0  -1
          -1   0   0
           1   1   1

 gtrans:     0.0000000     0.0000000     0.5000000

 ptrans:     0.0000000     0.0000000     0.0000000
 rotmap:
 (   1->   2)  (   2->   1) 


 irot  :  42
 --------------------------------------------------------------------
 isymop:   0   0   1
           1   0   0
          -1  -1  -1

 gtrans:     0.0000000     0.0000000     0.5000000

 ptrans:     0.0000000     0.0000000     0.0000000
 rotmap:
 (   1->   1)  (   2->   2) 


 irot  :  43
 --------------------------------------------------------------------
 isymop:   1   0   0
          -1  -1  -1
           0   1   0

 gtrans:     0.0000000     0.5000000     0.0000000

 ptrans:     0.0000000     0.0000000     0.0000000
 rotmap:
 (   1->   1)  (   2->   2) 


 irot  :  44
 --------------------------------------------------------------------
 isymop:  -1   0   0
           1   1   1
           0  -1   0

 gtrans:     0.0000000     0.5000000     0.0000000

 ptrans:     0.0000000     0.0000000     0.0000000
 rotmap:
 (   1->   2)  (   2->   1) 


 irot  :  45
 --------------------------------------------------------------------
 isymop:   0   0   1
          -1  -1  -1
           1   0   0

 gtrans:     0.0000000     0.5000000     0.0000000

 ptrans:     0.0000000     0.0000000     0.0000000
 rotmap:
 (   1->   1)  (   2->   2) 


 irot  :  46
 --------------------------------------------------------------------
 isymop:   0   0  -1
           1   1   1
          -1   0   0

 gtrans:     0.0000000     0.5000000     0.0000000

 ptrans:     0.0000000     0.0000000     0.0000000
 rotmap:
 (   1->   2)  (   2->   1) 


 irot  :  47
 --------------------------------------------------------------------
 isymop:   0   1   0
          -1  -1  -1
           0   0   1

 gtrans:     0.0000000     0.5000000     0.0000000

 ptrans:     0.0000000     0.0000000     0.0000000
 rotmap:
 (   1->   1)  (   2->   2) 


 irot  :  48
 --------------------------------------------------------------------
 isymop:   0  -1   0
           1   1   1
           0   0  -1

 gtrans:     0.0000000     0.5000000     0.0000000

 ptrans:     0.0000000     0.0000000     0.0000000
 rotmap:
 (   1->   2)  (   2->   1) 
 
 
 KPOINTS: Non SCF run along symmetry lines        
  k-points in reciprocal lattice

 ----------------------------------------------------------------------------- 
|                                                                             |
|           W    W    AA    RRRRR   N    N  II  N    N   GGGG   !!!           |
|           W    W   A  A   R    R  NN   N  II  NN   N  G    G  !!!           |
|           W    W  A    A  R    R  N N  N  II  N N  N  G       !!!           |
|           W WW W  AAAAAA  RRRRR   N  N N  II  N  N N  G  GGG   !            |
|           WW  WW  A    A  R   R   N   NN  II  N   NN  G    G                |
|           W    W  A    A  R    R  N    N  II  N    N   GGGG   !!!           |
|                                                                             |
|      The number of bands has been changed from the values supplied          |
|      in the INCAR file. This is a result of running the parallel version.   |
|      The orbitals not found in the WAVECAR file will be initialized with    |
|      random numbers, which is usually adequate. For correlated              |
|      calculations, however, you should redo the groundstate calculation.    |
|      I found NBANDS    =       22  now  NBANDS  =      24                   |
|                                                                             |
 ----------------------------------------------------------------------------- 



--------------------------------------------------------------------------------------------------------




 Dimension of arrays:
   k-points           NKPTS =    164   k-points in BZ     NKDIM =    164   number of bands    NBANDS=     24
   number of dos      NEDOS =   5000   number of ions     NIONS =      2
   non local maximal  LDIM  =      4   non local SUM 2l+1 LMDIM =      8
   total plane-waves  NPLWV =  21952
   max r-space proj   IRMAX =      1   max aug-charges    IRDMAX=  17905
   dimension x,y,z NGX =    28 NGY =   28 NGZ =   28
   dimension x,y,z NGXF=    56 NGYF=   56 NGZF=   56
   support grid    NGXF=    56 NGYF=   56 NGZF=   56
   ions per type =               2
 NGX,Y,Z   is equivalent  to a cutoff of  11.98, 11.98, 11.98 a.u.
 NGXF,Y,Z  is equivalent  to a cutoff of  23.97, 23.97, 23.97 a.u.


 I would recommend the setting:
   dimension x,y,z NGX =    28 NGY =   28 NGZ =   28
 SYSTEM =  unknown system                          
 POSCAR =  bulk@mp_149                             

 Startparameter for this run:
   NWRITE =      2    write-flag & timer
   PREC   = accura    normal or accurate (medium, high low for compatibility)
   ISTART =      0    job   : 0-new  1-cont  2-samecut
   ICHARG =      2    charge: 1-file 2-atom 10-const
   ISPIN  =      2    spin polarized calculation?
   LNONCOLLINEAR =      F non collinear calculations
   LSORBIT =      F    spin-orbit coupling
   INIWAV =      1    electr: 0-lowe 1-rand  2-diag
   LASPH  =      F    aspherical Exc in radial PAW
   METAGGA=      F    non-selfconsistent MetaGGA calc.

 Electronic Relaxation 1
   ENCUT  =  500.0 eV  36.75 Ry    6.06 a.u.   7.08  7.08  7.08*2*pi/ulx,y,z
   ENINI  =  500.0     initial cutoff
   ENAUG  =  322.1 eV  augmentation charge cutoff
   NELM   =    400;   NELMIN=  2; NELMDL= -5     # of ELM steps 
   EDIFF  = 0.1E-06   stopping-criterion for ELM
   LREAL  =      F    real-space projection
   NLSPLINE    = F    spline interpolate recip. space projectors
   LCOMPAT=      F    compatible to vasp.4.4
   GGA_COMPAT  = T    GGA compatible to vasp.4.4-vasp.4.6
   LMAXPAW     = -100 max onsite density
   LMAXMIX     =    2 max onsite mixed and CHGCAR
   VOSKOWN=      0    Vosko Wilk Nusair interpolation
   ROPT   =    0.00000
 Ionic relaxation
   EDIFFG = 0.1E-05   stopping-criterion for IOM
   NSW    =      0    number of steps for IOM
   NBLOCK =      1;   KBLOCK =      1    inner block; outer block 
   IBRION =     -1    ionic relax: 0-MD 1-quasi-New 2-CG
   NFREE  =      0    steps in history (QN), initial steepest desc. (CG)
   ISIF   =      2    stress and relaxation
   IWAVPR =     10    prediction:  0-non 1-charg 2-wave 3-comb
   ISYM   =      2    0-nonsym 1-usesym 2-fastsym
   LCORR  =      T    Harris-Foulkes like correction to forces

   POTIM  = 0.5000    time-step for ionic-motion
   TEIN   =    0.0    initial temperature
   TEBEG  =    0.0;   TEEND  =   0.0 temperature during run
   SMASS  =  -3.00    Nose mass-parameter (am)
   estimated Nose-frequenzy (Omega)   =  0.10E-29 period in steps =****** mass=  -0.345E-27a.u.
   SCALEE = 1.0000    scale energy and forces
   NPACO  =    256;   APACO  = 16.0  distance and # of slots for P.C.
   PSTRESS=    0.0 pullay stress

  Mass of Ions in am
   POMASS =  28.09
  Ionic Valenz
   ZVAL   =   4.00
  Atomic Wigner-Seitz radii
   RWIGS  =  -1.00
  virtual crystal weights 
   VCA    =   1.00
   NELECT =       8.0000    total number of electrons
   NUPDOWN=      -1.0000    fix difference up-down

 DOS related values:
   EMIN   =  10.00;   EMAX   =-10.00  energy-range for DOS
   EFERMI =   0.00
   ISMEAR =     0;   SIGMA  =   0.20  broadening in eV -4-tet -1-fermi 0-gaus

 Electronic relaxation 2 (details)
   IALGO  =     38    algorithm
   LDIAG  =      T    sub-space diagonalisation (order eigenvalues)
   LSUBROT=      T    optimize rotation matrix (better conditioning)
   TURBO    =      0    0=normal 1=particle mesh
   IRESTART =      0    0=no restart 2=restart with 2 vectors
   NREBOOT  =      0    no. of reboots
   NMIN     =      0    reboot dimension
   EREF     =   0.00    reference energy to select bands
   IMIX   =      4    mixing-type and parameters
     AMIX     =   0.40;   BMIX     =  1.00
     AMIX_MAG =   1.60;   BMIX_MAG =  1.00
     AMIN     =   0.10
     WC   =   100.;   INIMIX=   1;  MIXPRE=   1;  MAXMIX= -45

 Intra band minimization:
   WEIMIN = 0.0000     energy-eigenvalue tresh-hold
   EBREAK =  0.10E-08  absolut break condition
   DEPER  =   0.30     relativ break condition  

   TIME   =   0.40     timestep for ELM

  volume/ion in A,a.u.               =      20.72       139.86
  Fermi-wavevector in a.u.,A,eV,Ry     =   0.946088  1.787848 12.178347  0.895083
  Thomas-Fermi vector in A             =   2.074053
 
 Write flags
   LWAVE  =      F    write WAVECAR
   LCHARG =      F    write CHGCAR
   LVTOT  =      F    write LOCPOT, total local potential
   LVHAR  =      F    write LOCPOT, Hartree potential only
   LELF   =      F    write electronic localiz. function (ELF)
   LORBIT =     11    0 simple, 1 ext, 2 COOP (PROOUT)


 Dipole corrections
   LMONO  =      F    monopole corrections only (constant potential shift)
   LDIPOL =      F    correct potential (dipole corrections)
   IDIPOL =      0    1-x, 2-y, 3-z, 4-all directions 
   EPSILON=  1.0000000 bulk dielectric constant

 Exchange correlation treatment:
   GGA     =    BO    GGA type
   LEXCH   =    42    internal setting for exchange type
   VOSKOWN=      0    Vosko Wilk Nusair interpolation
   LHFCALC =     F    Hartree Fock is set to
   LHFONE  =     F    Hartree Fock one center treatment
   AEXX    =    0.0000 exact exchange contribution

 vdW DFT:
   LUSE_VDW   =     T    switch on vdW DFT
   Zab_VDW    =-.8491    correlation parameter
   PARAM1     =0.1833
   PARAM2     =0.2200
   PARAM3     =0.0000

 Linear response parameters
   LEPSILON=     F    determine dielectric tensor
   LRPA    =     F    only Hartree local field effects (RPA)
   LNABLA  =     F    use nabla operator in PAW spheres
   LVEL    =     F    velocity operator in full k-point grid
   LINTERFAST=   F  fast interpolation
   KINTER  =     0    interpolate to denser k-point grid
   CSHIFT  =0.1000    complex shift for real part using Kramers Kronig
   OMEGAMAX=  -1.0    maximum frequency
   DEG_THRESHOLD= 0.2000000E-02 threshold for treating states as degnerate
   RTIME   =    0.100 relaxation time in fs

 Orbital magnetization related:
   ORBITALMAG=     F  switch on orbital magnetization
   LCHIMAG   =     F  perturbation theory with respect to B field
   DQ        =  0.001000  dq finite difference perturbation B field



--------------------------------------------------------------------------------------------------------


 Static calculation
 charge density and potential will be updated during run
 spin polarized calculation
 Variant of blocked Davidson
 Davidson routine will perform the subspace rotation
 perform sub-space diagonalisation
    after iterative eigenvector-optimisation
 modified Broyden-mixing scheme, WC =      100.0
 initial mixing is a Kerker type mixing with AMIX =  0.4000 and BMIX =      1.0000
 Hartree-type preconditioning will be used
 using additional bands           20
 reciprocal scheme for non local part
 use partial core corrections
 calculate Harris-corrections to forces 
   (improved forces if not selfconsistent)
 use gradient corrections 
 use of overlap-Matrix (Vanderbilt PP)
 Gauss-broadening in eV      SIGMA  =   0.20


--------------------------------------------------------------------------------------------------------


  energy-cutoff  :      500.00
  volume of cell :       41.45
      direct lattice vectors                 reciprocal lattice vectors
     3.364150000  0.000000000  1.942293000     0.297251906 -0.105094356  0.000000000
     1.121383000  3.171752000  1.942293000     0.000000000  0.315283162  0.000000000
     0.000000000  0.000000000  3.884586000    -0.148625953 -0.105094403  0.257427690

  length of vectors
     3.884585862  3.884586552  3.884586000     0.315283237  0.315283162  0.315283242


 
 k-points in units of 2pi/SCALE and weight: Non SCF run along symmetry lines        
   0.00000000  0.00000000  0.00000000       0.006
   0.00323100 -0.00456932  0.00559625       0.006
   0.00646200 -0.00913864  0.01119251       0.006
   0.00969300 -0.01370796  0.01678876       0.006
   0.01292400 -0.01827728  0.02238502       0.006
   0.01615499 -0.02284660  0.02798127       0.006
   0.01938599 -0.02741593  0.03357752       0.006
   0.02261699 -0.03198525  0.03917378       0.006
   0.02584799 -0.03655457  0.04477003       0.006
   0.02907899 -0.04112389  0.05036629       0.006
   0.03230999 -0.04569321  0.05596254       0.006
   0.03554099 -0.05026253  0.06155880       0.006
   0.03877199 -0.05483185  0.06715505       0.006
   0.04200299 -0.05940117  0.07275130       0.006
   0.04523399 -0.06397049  0.07834756       0.006
   0.04846498 -0.06853981  0.08394381       0.006
   0.05169598 -0.07310913  0.08954007       0.006
   0.05492698 -0.07767845  0.09513632       0.006
   0.05815798 -0.08224778  0.10073257       0.006
   0.06138898 -0.08681710  0.10632883       0.006
   0.06461998 -0.09138642  0.11192508       0.006
   0.06785098 -0.09595574  0.11752134       0.006
   0.07108198 -0.10052506  0.12311759       0.006
   0.07431298 -0.10509438  0.12871384       0.006
   0.07431298 -0.10509438  0.12871384       0.006
   0.07121660 -0.10071545  0.13407692       0.006
   0.06812023 -0.09633651  0.13944000       0.006
   0.06502385 -0.09195758  0.14480308       0.006
   0.06192748 -0.08757865  0.15016615       0.006
   0.05883111 -0.08319972  0.15552923       0.006
   0.05573473 -0.07882078  0.16089231       0.006
   0.05263836 -0.07444185  0.16625538       0.006
   0.04954198 -0.07006292  0.17161846       0.006
   0.04644561 -0.06568399  0.17698154       0.006
   0.04334924 -0.06130505  0.18234461       0.006
   0.04025286 -0.05692612  0.18770769       0.006
   0.03715649 -0.05254719  0.19307077       0.006
   0.03715649 -0.05254719  0.19307077       0.006
   0.03302799 -0.04670861  0.19307077       0.006
   0.02889949 -0.04087004  0.19307077       0.006
   0.02477099 -0.03503146  0.19307077       0.006
   0.02064249 -0.02919288  0.19307077       0.006
   0.01651399 -0.02335431  0.19307077       0.006
   0.01238550 -0.01751573  0.19307077       0.006
   0.00825700 -0.01167715  0.19307077       0.006
   0.00412850 -0.00583858  0.19307077       0.006
   0.00000000  0.00000000  0.19307077       0.006
   0.00000000  0.00000000  0.19307077       0.006
   0.00000000  0.00000000  0.18534794       0.006
   0.00000000  0.00000000  0.17762511       0.006
   0.00000000  0.00000000  0.16990228       0.006
   0.00000000  0.00000000  0.16217944       0.006
   0.00000000  0.00000000  0.15445661       0.006
   0.00000000  0.00000000  0.14673378       0.006
   0.00000000  0.00000000  0.13901095       0.006
   0.00000000  0.00000000  0.13128812       0.006
   0.00000000  0.00000000  0.12356529       0.006
   0.00000000  0.00000000  0.11584246       0.006
   0.00000000  0.00000000  0.10811963       0.006
   0.00000000  0.00000000  0.10039680       0.006
   0.00000000  0.00000000  0.09267397       0.006
   0.00000000  0.00000000  0.08495114       0.006
   0.00000000  0.00000000  0.07722831       0.006
   0.00000000  0.00000000  0.06950548       0.006
   0.00000000  0.00000000  0.06178265       0.006
   0.00000000  0.00000000  0.05405981       0.006
   0.00000000  0.00000000  0.04633698       0.006
   0.00000000  0.00000000  0.03861415       0.006
   0.00000000  0.00000000  0.03089132       0.006
   0.00000000  0.00000000  0.02316849       0.006
   0.00000000  0.00000000  0.01544566       0.006
   0.00000000  0.00000000  0.00772283       0.006
   0.00000000  0.00000000  0.00000000       0.006
   0.00000000  0.00000000  0.00000000       0.006
   0.00371565  0.00262736  0.00643569       0.006
   0.00743130  0.00525472  0.01287138       0.006
   0.01114695  0.00788208  0.01930708       0.006
   0.01486260  0.01050944  0.02574277       0.006
   0.01857824  0.01313680  0.03217846       0.006
   0.02229389  0.01576416  0.03861415       0.006
   0.02600954  0.01839152  0.04504985       0.006
   0.02972519  0.02101888  0.05148554       0.006
   0.03344084  0.02364624  0.05792123       0.006
   0.03715649  0.02627360  0.06435692       0.006
   0.04087214  0.02890096  0.07079261       0.006
   0.04458779  0.03152832  0.07722831       0.006
   0.04830343  0.03415568  0.08366400       0.006
   0.05201908  0.03678304  0.09009969       0.006
   0.05573473  0.03941040  0.09653538       0.006
   0.05945038  0.04203776  0.10297108       0.006
   0.06316603  0.04466512  0.10940677       0.006
   0.06688168  0.04729248  0.11584246       0.006
   0.07059733  0.04991984  0.12227815       0.006
   0.07431298  0.05254720  0.12871384       0.006
   0.07431298  0.05254720  0.12871384       0.006
   0.07555153  0.04554091  0.13085908       0.006
   0.07679008  0.03853462  0.13300431       0.006
   0.07802863  0.03152832  0.13514954       0.006
   0.07926717  0.02452203  0.13729477       0.006
   0.08050572  0.01751574  0.13944000       0.006
   0.08174427  0.01050945  0.14158523       0.006
   0.08298282  0.00350315  0.14373046       0.006
   0.08422137 -0.00350314  0.14587569       0.006
   0.08545992 -0.01050943  0.14802092       0.006
   0.08669847 -0.01751572  0.15016615       0.006
   0.08793702 -0.02452201  0.15231138       0.006
   0.08917557 -0.03152831  0.15445661       0.006
   0.09041412 -0.03853460  0.15660184       0.006
   0.09165267 -0.04554089  0.15874708       0.006
   0.09289122 -0.05254718  0.16089231       0.006
   0.09289122 -0.05254718  0.16089231       0.006
   0.08669847 -0.05254718  0.16446769       0.006
   0.08050572 -0.05254719  0.16804308       0.006
   0.07431298 -0.05254719  0.17161846       0.006
   0.06812023 -0.05254719  0.17519384       0.006
   0.06192748 -0.05254719  0.17876923       0.006
   0.05573473 -0.05254719  0.18234461       0.006
   0.04954198 -0.05254719  0.18592000       0.006
   0.04334924 -0.05254719  0.18949538       0.006
   0.03715649 -0.05254719  0.19307077       0.006
   0.03715649 -0.05254719  0.19307077       0.006
   0.03934216 -0.04636517  0.18928507       0.006
   0.04152784 -0.04018314  0.18549936       0.006
   0.04371352 -0.03400112  0.18171366       0.006
   0.04589919 -0.02781910  0.17792796       0.006
   0.04808487 -0.02163707  0.17414226       0.006
   0.05027054 -0.01545505  0.17035656       0.006
   0.05245622 -0.00927303  0.16657086       0.006
   0.05464189 -0.00309101  0.16278516       0.006
   0.05682757  0.00309102  0.15899946       0.006
   0.05901325  0.00927304  0.15521375       0.006
   0.06119892  0.01545506  0.15142805       0.006
   0.06338460  0.02163709  0.14764235       0.006
   0.06557027  0.02781911  0.14385665       0.006
   0.06775595  0.03400113  0.14007095       0.006
   0.06994162  0.04018316  0.13628525       0.006
   0.07212730  0.04636518  0.13249955       0.006
   0.07431298  0.05254720  0.12871384       0.006
   0.07431298  0.05254720  0.12871384       0.006
   0.06935878  0.04904405  0.13300431       0.006
   0.06440458  0.04554091  0.13729477       0.006
   0.05945038  0.04203776  0.14158523       0.006
   0.05449618  0.03853461  0.14587569       0.006
   0.04954198  0.03503147  0.15016615       0.006
   0.04458779  0.03152832  0.15445661       0.006
   0.03963359  0.02802517  0.15874708       0.006
   0.03467939  0.02452203  0.16303754       0.006
   0.02972519  0.02101888  0.16732800       0.006
   0.02477099  0.01751573  0.17161846       0.006
   0.01981679  0.01401259  0.17590892       0.006
   0.01486260  0.01050944  0.18019938       0.006
   0.00990840  0.00700629  0.18448984       0.006
   0.00495420  0.00350315  0.18878031       0.006
   0.00000000  0.00000000  0.19307077       0.006
   0.09289122 -0.05254718  0.16089231       0.006
   0.09082697 -0.05838576  0.15731692       0.006
   0.08876272 -0.06422434  0.15374154       0.006
   0.08669847 -0.07006292  0.15016615       0.006
   0.08463422 -0.07590149  0.14659077       0.006
   0.08256997 -0.08174007  0.14301538       0.006
   0.08050572 -0.08757865  0.13944000       0.006
   0.07844148 -0.09341722  0.13586461       0.006
   0.07637723 -0.09925580  0.13228923       0.006
   0.07431298 -0.10509438  0.12871384       0.006
 
 k-points in reciprocal lattice and weights: Non SCF run along symmetry lines        
   0.00000000  0.00000000  0.00000000       0.006
   0.02173913  0.00000000  0.02173913       0.006
   0.04347826  0.00000000  0.04347826       0.006
   0.06521739  0.00000000  0.06521739       0.006
   0.08695652  0.00000000  0.08695652       0.006
   0.10869565  0.00000000  0.10869565       0.006
   0.13043478  0.00000000  0.13043478       0.006
   0.15217391  0.00000000  0.15217391       0.006
   0.17391304  0.00000000  0.17391304       0.006
   0.19565217  0.00000000  0.19565217       0.006
   0.21739130  0.00000000  0.21739130       0.006
   0.23913043  0.00000000  0.23913043       0.006
   0.26086957  0.00000000  0.26086957       0.006
   0.28260870  0.00000000  0.28260870       0.006
   0.30434783  0.00000000  0.30434783       0.006
   0.32608696  0.00000000  0.32608696       0.006
   0.34782609  0.00000000  0.34782609       0.006
   0.36956522  0.00000000  0.36956522       0.006
   0.39130435  0.00000000  0.39130435       0.006
   0.41304348  0.00000000  0.41304348       0.006
   0.43478261  0.00000000  0.43478261       0.006
   0.45652174  0.00000000  0.45652174       0.006
   0.47826087  0.00000000  0.47826087       0.006
   0.50000000  0.00000000  0.50000000       0.006
   0.50000000  0.00000000  0.50000000       0.006
   0.50000000  0.02083333  0.52083333       0.006
   0.50000000  0.04166667  0.54166667       0.006
   0.50000000  0.06250000  0.56250000       0.006
   0.50000000  0.08333333  0.58333333       0.006
   0.50000000  0.10416667  0.60416667       0.006
   0.50000000  0.12500000  0.62500000       0.006
   0.50000000  0.14583333  0.64583333       0.006
   0.50000000  0.16666667  0.66666667       0.006
   0.50000000  0.18750000  0.68750000       0.006
   0.50000000  0.20833333  0.70833333       0.006
   0.50000000  0.22916667  0.72916667       0.006
   0.50000000  0.25000000  0.75000000       0.006
   0.50000000  0.25000000  0.75000000       0.006
   0.48611111  0.26388889  0.75000000       0.006
   0.47222222  0.27777778  0.75000000       0.006
   0.45833333  0.29166667  0.75000000       0.006
   0.44444444  0.30555556  0.75000000       0.006
   0.43055556  0.31944444  0.75000000       0.006
   0.41666667  0.33333333  0.75000000       0.006
   0.40277778  0.34722222  0.75000000       0.006
   0.38888889  0.36111111  0.75000000       0.006
   0.37500000  0.37500000  0.75000000       0.006
   0.37500000  0.37500000  0.75000000       0.006
   0.36000000  0.36000000  0.72000000       0.006
   0.34500000  0.34500000  0.69000000       0.006
   0.33000000  0.33000000  0.66000000       0.006
   0.31500000  0.31500000  0.63000000       0.006
   0.30000000  0.30000000  0.60000000       0.006
   0.28500000  0.28500000  0.57000000       0.006
   0.27000000  0.27000000  0.54000000       0.006
   0.25500000  0.25500000  0.51000000       0.006
   0.24000000  0.24000000  0.48000000       0.006
   0.22500000  0.22500000  0.45000000       0.006
   0.21000000  0.21000000  0.42000000       0.006
   0.19500000  0.19500000  0.39000000       0.006
   0.18000000  0.18000000  0.36000000       0.006
   0.16500000  0.16500000  0.33000000       0.006
   0.15000000  0.15000000  0.30000000       0.006
   0.13500000  0.13500000  0.27000000       0.006
   0.12000000  0.12000000  0.24000000       0.006
   0.10500000  0.10500000  0.21000000       0.006
   0.09000000  0.09000000  0.18000000       0.006
   0.07500000  0.07500000  0.15000000       0.006
   0.06000000  0.06000000  0.12000000       0.006
   0.04500000  0.04500000  0.09000000       0.006
   0.03000000  0.03000000  0.06000000       0.006
   0.01500000  0.01500000  0.03000000       0.006
   0.00000000  0.00000000  0.00000000       0.006
   0.00000000  0.00000000  0.00000000       0.006
   0.02500000  0.02500000  0.02500000       0.006
   0.05000000  0.05000000  0.05000000       0.006
   0.07500000  0.07500000  0.07500000       0.006
   0.10000000  0.10000000  0.10000000       0.006
   0.12500000  0.12500000  0.12500000       0.006
   0.15000000  0.15000000  0.15000000       0.006
   0.17500000  0.17500000  0.17500000       0.006
   0.20000000  0.20000000  0.20000000       0.006
   0.22500000  0.22500000  0.22500000       0.006
   0.25000000  0.25000000  0.25000000       0.006
   0.27500000  0.27500000  0.27500000       0.006
   0.30000000  0.30000000  0.30000000       0.006
   0.32500000  0.32500000  0.32500000       0.006
   0.35000000  0.35000000  0.35000000       0.006
   0.37500000  0.37500000  0.37500000       0.006
   0.40000000  0.40000000  0.40000000       0.006
   0.42500000  0.42500000  0.42500000       0.006
   0.45000000  0.45000000  0.45000000       0.006
   0.47500000  0.47500000  0.47500000       0.006
   0.50000000  0.50000000  0.50000000       0.006
   0.50000000  0.50000000  0.50000000       0.006
   0.50833333  0.48333333  0.50833333       0.006
   0.51666667  0.46666667  0.51666667       0.006
   0.52500000  0.45000000  0.52500000       0.006
   0.53333333  0.43333333  0.53333333       0.006
   0.54166667  0.41666667  0.54166667       0.006
   0.55000000  0.40000000  0.55000000       0.006
   0.55833333  0.38333333  0.55833333       0.006
   0.56666667  0.36666667  0.56666667       0.006
   0.57500000  0.35000000  0.57500000       0.006
   0.58333333  0.33333333  0.58333333       0.006
   0.59166667  0.31666667  0.59166667       0.006
   0.60000000  0.30000000  0.60000000       0.006
   0.60833333  0.28333333  0.60833333       0.006
   0.61666667  0.26666667  0.61666667       0.006
   0.62500000  0.25000000  0.62500000       0.006
   0.62500000  0.25000000  0.62500000       0.006
   0.61111111  0.25000000  0.63888889       0.006
   0.59722222  0.25000000  0.65277778       0.006
   0.58333333  0.25000000  0.66666667       0.006
   0.56944444  0.25000000  0.68055556       0.006
   0.55555556  0.25000000  0.69444444       0.006
   0.54166667  0.25000000  0.70833333       0.006
   0.52777778  0.25000000  0.72222222       0.006
   0.51388889  0.25000000  0.73611111       0.006
   0.50000000  0.25000000  0.75000000       0.006
   0.50000000  0.25000000  0.75000000       0.006
   0.50000000  0.26470588  0.73529412       0.006
   0.50000000  0.27941176  0.72058824       0.006
   0.50000000  0.29411765  0.70588235       0.006
   0.50000000  0.30882353  0.69117647       0.006
   0.50000000  0.32352941  0.67647059       0.006
   0.50000000  0.33823529  0.66176471       0.006
   0.50000000  0.35294118  0.64705882       0.006
   0.50000000  0.36764706  0.63235294       0.006
   0.50000000  0.38235294  0.61764706       0.006
   0.50000000  0.39705882  0.60294118       0.006
   0.50000000  0.41176471  0.58823529       0.006
   0.50000000  0.42647059  0.57352941       0.006
   0.50000000  0.44117647  0.55882353       0.006
   0.50000000  0.45588235  0.54411765       0.006
   0.50000000  0.47058824  0.52941176       0.006
   0.50000000  0.48529412  0.51470588       0.006
   0.50000000  0.50000000  0.50000000       0.006
   0.50000000  0.50000000  0.50000000       0.006
   0.49166667  0.49166667  0.51666667       0.006
   0.48333333  0.48333333  0.53333333       0.006
   0.47500000  0.47500000  0.55000000       0.006
   0.46666667  0.46666667  0.56666667       0.006
   0.45833333  0.45833333  0.58333333       0.006
   0.45000000  0.45000000  0.60000000       0.006
   0.44166667  0.44166667  0.61666667       0.006
   0.43333333  0.43333333  0.63333333       0.006
   0.42500000  0.42500000  0.65000000       0.006
   0.41666667  0.41666667  0.66666667       0.006
   0.40833333  0.40833333  0.68333333       0.006
   0.40000000  0.40000000  0.70000000       0.006
   0.39166667  0.39166667  0.71666667       0.006
   0.38333333  0.38333333  0.73333333       0.006
   0.37500000  0.37500000  0.75000000       0.006
   0.62500000  0.25000000  0.62500000       0.006
   0.61111111  0.22222222  0.61111111       0.006
   0.59722222  0.19444444  0.59722222       0.006
   0.58333333  0.16666667  0.58333333       0.006
   0.56944444  0.13888889  0.56944444       0.006
   0.55555556  0.11111111  0.55555556       0.006
   0.54166667  0.08333333  0.54166667       0.006
   0.52777778  0.05555556  0.52777778       0.006
   0.51388889  0.02777778  0.51388889       0.006
   0.50000000  0.00000000  0.50000000       0.006
 
 position of ions in fractional coordinates (direct lattice) 
   0.87500000  0.87500000  0.87500000
   0.12500000  0.12500000  0.12500000
 
 position of ions in cartesian coordinates  (Angst):
   3.92484138  2.77528300  6.79802550
   0.56069163  0.39646900  0.97114650
 


--------------------------------------------------------------------------------------------------------


 k-point  1 :   0.0000 0.0000 0.0000  plane waves:    1067
 k-point  2 :   0.0217 0.0000 0.0217  plane waves:    1058
 k-point  3 :   0.0435 0.0000 0.0435  plane waves:    1054
 k-point  4 :   0.0652 0.0000 0.0652  plane waves:    1042
 k-point  5 :   0.0870 0.0000 0.0870  plane waves:    1034
 k-point  6 :   0.1087 0.0000 0.1087  plane waves:    1030
 k-point  7 :   0.1304 0.0000 0.1304  plane waves:    1038
 k-point  8 :   0.1522 0.0000 0.1522  plane waves:    1034
 k-point  9 :   0.1739 0.0000 0.1739  plane waves:    1042
 k-point 10 :   0.1957 0.0000 0.1957  plane waves:    1050
 k-point 11 :   0.2174 0.0000 0.2174  plane waves:    1054
 k-point 12 :   0.2391 0.0000 0.2391  plane waves:    1054
 k-point 13 :   0.2609 0.0000 0.2609  plane waves:    1046
 k-point 14 :   0.2826 0.0000 0.2826  plane waves:    1042
 k-point 15 :   0.3043 0.0000 0.3043  plane waves:    1030
 k-point 16 :   0.3261 0.0000 0.3261  plane waves:    1030
 k-point 17 :   0.3478 0.0000 0.3478  plane waves:    1034
 k-point 18 :   0.3696 0.0000 0.3696  plane waves:    1042
 k-point 19 :   0.3913 0.0000 0.3913  plane waves:    1042
 k-point 20 :   0.4130 0.0000 0.4130  plane waves:    1046
 k-point 21 :   0.4348 0.0000 0.4348  plane waves:    1054
 k-point 22 :   0.4565 0.0000 0.4565  plane waves:    1054
 k-point 23 :   0.4783 0.0000 0.4783  plane waves:    1042
 k-point 24 :   0.5000 0.0000 0.5000  plane waves:    1034
 k-point 25 :   0.5000 0.0000 0.5000  plane waves:    1034
 k-point 26 :   0.5000 0.0208 0.5208  plane waves:    1036
 k-point 27 :   0.5000 0.0417 0.5417  plane waves:    1048
 k-point 28 :   0.5000 0.0625 0.5625  plane waves:    1060
 k-point 29 :   0.5000 0.0833 0.5833  plane waves:    1054
 k-point 30 :   0.5000 0.1042 0.6042  plane waves:    1058
 k-point 31 :   0.5000 0.1250 0.6250  plane waves:    1058
 k-point 32 :   0.5000 0.1458 0.6458  plane waves:    1054
 k-point 33 :   0.5000 0.1667 0.6667  plane waves:    1064
 k-point 34 :   0.5000 0.1875 0.6875  plane waves:    1056
 k-point 35 :   0.5000 0.2083 0.7083  plane waves:    1054
 k-point 36 :   0.5000 0.2292 0.7292  plane waves:    1048
 k-point 37 :   0.5000 0.2500 0.7500  plane waves:    1048
 k-point 38 :   0.5000 0.2500 0.7500  plane waves:    1048
 k-point 39 :   0.4861 0.2639 0.7500  plane waves:    1048
 k-point 40 :   0.4722 0.2778 0.7500  plane waves:    1056
 k-point 41 :   0.4583 0.2917 0.7500  plane waves:    1054
 k-point 42 :   0.4444 0.3056 0.7500  plane waves:    1059
 k-point 43 :   0.4306 0.3194 0.7500  plane waves:    1058
 k-point 44 :   0.4167 0.3333 0.7500  plane waves:    1054
 k-point 45 :   0.4028 0.3472 0.7500  plane waves:    1055
 k-point 46 :   0.3889 0.3611 0.7500  plane waves:    1053
 k-point 47 :   0.3750 0.3750 0.7500  plane waves:    1063
 k-point 48 :   0.3750 0.3750 0.7500  plane waves:    1063
 k-point 49 :   0.3600 0.3600 0.7200  plane waves:    1059
 k-point 50 :   0.3450 0.3450 0.6900  plane waves:    1059
 k-point 51 :   0.3300 0.3300 0.6600  plane waves:    1063
 k-point 52 :   0.3150 0.3150 0.6300  plane waves:    1063
 k-point 53 :   0.3000 0.3000 0.6000  plane waves:    1059
 k-point 54 :   0.2850 0.2850 0.5700  plane waves:    1057
 k-point 55 :   0.2700 0.2700 0.5400  plane waves:    1057
 k-point 56 :   0.2550 0.2550 0.5100  plane waves:    1049
 k-point 57 :   0.2400 0.2400 0.4800  plane waves:    1055
 k-point 58 :   0.2250 0.2250 0.4500  plane waves:    1055
 k-point 59 :   0.2100 0.2100 0.4200  plane waves:    1055
 k-point 60 :   0.1950 0.1950 0.3900  plane waves:    1057
 k-point 61 :   0.1800 0.1800 0.3600  plane waves:    1061
 k-point 62 :   0.1650 0.1650 0.3300  plane waves:    1053
 k-point 63 :   0.1500 0.1500 0.3000  plane waves:    1043
 k-point 64 :   0.1350 0.1350 0.2700  plane waves:    1047
 k-point 65 :   0.1200 0.1200 0.2400  plane waves:    1043
 k-point 66 :   0.1050 0.1050 0.2100  plane waves:    1037
 k-point 67 :   0.0900 0.0900 0.1800  plane waves:    1029
 k-point 68 :   0.0750 0.0750 0.1500  plane waves:    1031
 k-point 69 :   0.0600 0.0600 0.1200  plane waves:    1027
 k-point 70 :   0.0450 0.0450 0.0900  plane waves:    1037
 k-point 71 :   0.0300 0.0300 0.0600  plane waves:    1045
 k-point 72 :   0.0150 0.0150 0.0300  plane waves:    1055
 k-point 73 :   0.0000 0.0000 0.0000  plane waves:    1067
 k-point 74 :   0.0000 0.0000 0.0000  plane waves:    1067
 k-point 75 :   0.0250 0.0250 0.0250  plane waves:    1058
 k-point 76 :   0.0500 0.0500 0.0500  plane waves:    1049
 k-point 77 :   0.0750 0.0750 0.0750  plane waves:    1040
 k-point 78 :   0.1000 0.1000 0.1000  plane waves:    1028
 k-point 79 :   0.1250 0.1250 0.1250  plane waves:    1034
 k-point 80 :   0.1500 0.1500 0.1500  plane waves:    1031
 k-point 81 :   0.1750 0.1750 0.1750  plane waves:    1043
 k-point 82 :   0.2000 0.2000 0.2000  plane waves:    1046
 k-point 83 :   0.2250 0.2250 0.2250  plane waves:    1041
 k-point 84 :   0.2500 0.2500 0.2500  plane waves:    1053
 k-point 85 :   0.2750 0.2750 0.2750  plane waves:    1053
 k-point 86 :   0.3000 0.3000 0.3000  plane waves:    1056
 k-point 87 :   0.3250 0.3250 0.3250  plane waves:    1059
 k-point 88 :   0.3500 0.3500 0.3500  plane waves:    1053
 k-point 89 :   0.3750 0.3750 0.3750  plane waves:    1050
 k-point 90 :   0.4000 0.4000 0.4000  plane waves:    1050
 k-point 91 :   0.4250 0.4250 0.4250  plane waves:    1044
 k-point 92 :   0.4500 0.4500 0.4500  plane waves:    1050
 k-point 93 :   0.4750 0.4750 0.4750  plane waves:    1056
 k-point 94 :   0.5000 0.5000 0.5000  plane waves:    1056
 k-point 95 :   0.5000 0.5000 0.5000  plane waves:    1056
 k-point 96 :   0.5083 0.4833 0.5083  plane waves:    1060
 k-point 97 :   0.5167 0.4667 0.5167  plane waves:    1060
 k-point 98 :   0.5250 0.4500 0.5250  plane waves:    1052
 k-point 99 :   0.5333 0.4333 0.5333  plane waves:    1058
 k-point ** :   0.5417 0.4167 0.5417  plane waves:    1054
 k-point ** :   0.5500 0.4000 0.5500  plane waves:    1057
 k-point ** :   0.5583 0.3833 0.5583  plane waves:    1063
 k-point ** :   0.5667 0.3667 0.5667  plane waves:    1063
 k-point ** :   0.5750 0.3500 0.5750  plane waves:    1063
 k-point ** :   0.5833 0.3333 0.5833  plane waves:    1065
 k-point ** :   0.5917 0.3167 0.5917  plane waves:    1056
 k-point ** :   0.6000 0.3000 0.6000  plane waves:    1056
 k-point ** :   0.6083 0.2833 0.6083  plane waves:    1050
 k-point ** :   0.6167 0.2667 0.6167  plane waves:    1055
 k-point ** :   0.6250 0.2500 0.6250  plane waves:    1063
 k-point ** :   0.6250 0.2500 0.6250  plane waves:    1063
 k-point ** :   0.6111 0.2500 0.6389  plane waves:    1053
 k-point ** :   0.5972 0.2500 0.6528  plane waves:    1055
 k-point ** :   0.5833 0.2500 0.6667  plane waves:    1054
 k-point ** :   0.5694 0.2500 0.6806  plane waves:    1058
 k-point ** :   0.5556 0.2500 0.6944  plane waves:    1059
 k-point ** :   0.5417 0.2500 0.7083  plane waves:    1054
 k-point ** :   0.5278 0.2500 0.7222  plane waves:    1056
 k-point ** :   0.5139 0.2500 0.7361  plane waves:    1048
 k-point ** :   0.5000 0.2500 0.7500  plane waves:    1048
 k-point ** :   0.5000 0.2500 0.7500  plane waves:    1048
 k-point ** :   0.5000 0.2647 0.7353  plane waves:    1048
 k-point ** :   0.5000 0.2794 0.7206  plane waves:    1056
 k-point ** :   0.5000 0.2941 0.7059  plane waves:    1058
 k-point ** :   0.5000 0.3088 0.6912  plane waves:    1054
 k-point ** :   0.5000 0.3235 0.6765  plane waves:    1058
 k-point ** :   0.5000 0.3382 0.6618  plane waves:    1062
 k-point ** :   0.5000 0.3529 0.6471  plane waves:    1062
 k-point ** :   0.5000 0.3676 0.6324  plane waves:    1058
 k-point ** :   0.5000 0.3824 0.6176  plane waves:    1058
 k-point ** :   0.5000 0.3971 0.6029  plane waves:    1050
 k-point ** :   0.5000 0.4118 0.5882  plane waves:    1054
 k-point ** :   0.5000 0.4265 0.5735  plane waves:    1058
 k-point ** :   0.5000 0.4412 0.5588  plane waves:    1060
 k-point ** :   0.5000 0.4559 0.5441  plane waves:    1060
 k-point ** :   0.5000 0.4706 0.5294  plane waves:    1060
 k-point ** :   0.5000 0.4853 0.5147  plane waves:    1060
 k-point ** :   0.5000 0.5000 0.5000  plane waves:    1056
 k-point ** :   0.5000 0.5000 0.5000  plane waves:    1056
 k-point ** :   0.4917 0.4917 0.5167  plane waves:    1060
 k-point ** :   0.4833 0.4833 0.5333  plane waves:    1060
 k-point ** :   0.4750 0.4750 0.5500  plane waves:    1052
 k-point ** :   0.4667 0.4667 0.5667  plane waves:    1058
 k-point ** :   0.4583 0.4583 0.5833  plane waves:    1054
 k-point ** :   0.4500 0.4500 0.6000  plane waves:    1057
 k-point ** :   0.4417 0.4417 0.6167  plane waves:    1063
 k-point ** :   0.4333 0.4333 0.6333  plane waves:    1063
 k-point ** :   0.4250 0.4250 0.6500  plane waves:    1063
 k-point ** :   0.4167 0.4167 0.6667  plane waves:    1065
 k-point ** :   0.4083 0.4083 0.6833  plane waves:    1056
 k-point ** :   0.4000 0.4000 0.7000  plane waves:    1056
 k-point ** :   0.3917 0.3917 0.7167  plane waves:    1050
 k-point ** :   0.3833 0.3833 0.7333  plane waves:    1055
 k-point ** :   0.3750 0.3750 0.7500  plane waves:    1063
 k-point ** :   0.6250 0.2500 0.6250  plane waves:    1063
 k-point ** :   0.6111 0.2222 0.6111  plane waves:    1059
 k-point ** :   0.5972 0.1944 0.5972  plane waves:    1049
 k-point ** :   0.5833 0.1667 0.5833  plane waves:    1037
 k-point ** :   0.5694 0.1389 0.5694  plane waves:    1045
 k-point ** :   0.5556 0.1111 0.5556  plane waves:    1051
 k-point ** :   0.5417 0.0833 0.5417  plane waves:    1051
 k-point ** :   0.5278 0.0556 0.5278  plane waves:    1046
 k-point ** :   0.5139 0.0278 0.5139  plane waves:    1038
 k-point ** :   0.5000 0.0000 0.5000  plane waves:    1034

 maximum and minimum number of plane-waves per node :       278      251

 maximum number of plane-waves:      1067
 maximum index in each direction: 
   IXMAX=    7   IYMAX=    7   IZMAX=    7
   IXMIN=   -7   IYMIN=   -7   IZMIN=   -7

 WARNING: aliasing errors must be expected set NGX to  30 to avoid them
 WARNING: aliasing errors must be expected set NGY to  30 to avoid them
 WARNING: aliasing errors must be expected set NGZ to  30 to avoid them
 aliasing errors are usually negligible using standard VASP settings
 and one can safely disregard these warnings

 parallel 3D FFT for wavefunctions:
    minimum data exchange during FFTs selected (reduces bandwidth)
 parallel 3D FFT for charge:
    minimum data exchange during FFTs selected (reduces bandwidth)


 total amount of memory used by VASP on root node    43812. kBytes
========================================================================

   base      :      30000. kBytes
   nonl-proj :       2905. kBytes
   fftplans  :        586. kBytes
   grid      :       1373. kBytes
   one-center:          6. kBytes
   wavefun   :       8942. kBytes
 
 Broyden mixing: mesh for mixing (old mesh)
   NGX = 15   NGY = 15   NGZ = 15
  (NGX  = 56   NGY  = 56   NGZ  = 56)
  gives a total of   3375 points

 initial charge density was supplied:
 charge density of overlapping atoms calculated
 number of electron       8.0000000 magnetization       2.0000000
 keeping initial charge density in first step


--------------------------------------------------------------------------------------------------------


 Maximum index for augmentation-charges         1407 (set IRDMAX)


--------------------------------------------------------------------------------------------------------


 First call to EWALD:  gamma=   0.512
 Maximum number of real-space cells 3x 3x 3
 Maximum number of reciprocal cells 3x 3x 3

 FEWALD executed in parallel
    FEWALD:  cpu time    0.00: real time    0.00


----------------------------------------- Iteration    1(   1)  ---------------------------------------


vdW kernel read from vdw_kernel.bindat
  0.0000  0.2424  0.5071  0.7962  1.1119  1.4567  1.8333  2.2446  2.6937  3.1842
  3.7199  4.3049  4.9438  5.6415  6.4036  7.2358  8.1446  9.1372 10.2212 11.4050
 12.6979 14.1099 15.6519 17.3360 19.1751 21.1837 23.3773 25.7729 28.3892 31.2465
 34.3669 37.7748 41.4965 45.5611 50.0000
 
    POTLOK:  cpu time    2.47: real time    2.48
    SETDIJ:  cpu time    0.01: real time    0.01
     EDDAV:  cpu time    8.00: real time    8.04
       DOS:  cpu time    0.08: real time    0.07
    --------------------------------------------
      LOOP:  cpu time   10.55: real time   10.74

 eigenvalue-minimisations  : 15744
 total energy-change (2. order) : 0.1247528E+02  (-0.2714187E+03)
 number of electron       8.0000000 magnetization       2.0000000
 augmentation part        8.0000000 magnetization       2.0000000

 Free energy of the ion-electron system (eV)
  ---------------------------------------------------
  alpha Z        PSCENC =         3.24859208
  Ewald energy   TEWEN  =      -225.91599796
  -1/2 Hartree   DENC   =       -11.53190716
  -exchange  EXHF       =         0.00000000
  -V(xc)+E(xc)   XCENC  =       -20.06769423
  PAW double counting   =       189.18569288     -152.40348104
  entropy T*S    EENTRO =        -0.01177539
  eigenvalues    EBANDS =        21.37811193
  atomic energy  EATOM  =       208.59373829
  ---------------------------------------------------
  free energy    TOTEN  =        12.47527940 eV

  energy without entropy =       12.48705479  energy(sigma->0) =       12.48116710


--------------------------------------------------------------------------------------------------------




----------------------------------------- Iteration    1(   2)  ---------------------------------------


     EDDAV:  cpu time    9.88: real time    9.91
       DOS:  cpu time    0.09: real time    0.09
    --------------------------------------------
      LOOP:  cpu time    9.97: real time   10.30

 eigenvalue-minimisations  : 20424
 total energy-change (2. order) :-0.1886253E+02  (-0.1807103E+02)
 number of electron       8.0000000 magnetization       2.0000000
 augmentation part        8.0000000 magnetization       2.0000000

 Free energy of the ion-electron system (eV)
  ---------------------------------------------------
  alpha Z        PSCENC =         3.24859208
  Ewald energy   TEWEN  =      -225.91599796
  -1/2 Hartree   DENC   =       -11.53190716
  -exchange  EXHF       =         0.00000000
  -V(xc)+E(xc)   XCENC  =       -20.06769423
  PAW double counting   =       189.18569288     -152.40348104
  entropy T*S    EENTRO =        -0.01493806
  eigenvalues    EBANDS =         2.51874700
  atomic energy  EATOM  =       208.59373829
  ---------------------------------------------------
  free energy    TOTEN  =        -6.38724820 eV

  energy without entropy =       -6.37231014  energy(sigma->0) =       -6.37977917


--------------------------------------------------------------------------------------------------------




----------------------------------------- Iteration    1(   3)  ---------------------------------------


     EDDAV:  cpu time   10.70: real time   10.74
       DOS:  cpu time    0.08: real time    0.09
    --------------------------------------------
      LOOP:  cpu time   10.78: real time   11.64

 eigenvalue-minimisations  : 20152
 total energy-change (2. order) :-0.4561960E+00  (-0.4522913E+00)
 number of electron       8.0000000 magnetization       2.0000000
 augmentation part        8.0000000 magnetization       2.0000000

 Free energy of the ion-electron system (eV)
  ---------------------------------------------------
  alpha Z        PSCENC =         3.24859208
  Ewald energy   TEWEN  =      -225.91599796
  -1/2 Hartree   DENC   =       -11.53190716
  -exchange  EXHF       =         0.00000000
  -V(xc)+E(xc)   XCENC  =       -20.06769423
  PAW double counting   =       189.18569288     -152.40348104
  entropy T*S    EENTRO =        -0.01529416
  eigenvalues    EBANDS =         2.06290706
  atomic energy  EATOM  =       208.59373829
  ---------------------------------------------------
  free energy    TOTEN  =        -6.84344424 eV

  energy without entropy =       -6.82815008  energy(sigma->0) =       -6.83579716


--------------------------------------------------------------------------------------------------------




----------------------------------------- Iteration    1(   4)  ---------------------------------------


     EDDAV:  cpu time    9.70: real time    9.77
       DOS:  cpu time    0.08: real time    0.09
    --------------------------------------------
      LOOP:  cpu time    9.78: real time   10.52

 eigenvalue-minimisations  : 17616
 total energy-change (2. order) :-0.1911431E-02  (-0.1911313E-02)
 number of electron       8.0000000 magnetization       2.0000000
 augmentation part        8.0000000 magnetization       2.0000000

 Free energy of the ion-electron system (eV)
  ---------------------------------------------------
  alpha Z        PSCENC =         3.24859208
  Ewald energy   TEWEN  =      -225.91599796
  -1/2 Hartree   DENC   =       -11.53190716
  -exchange  EXHF       =         0.00000000
  -V(xc)+E(xc)   XCENC  =       -20.06769423
  PAW double counting   =       189.18569288     -152.40348104
  entropy T*S    EENTRO =        -0.01529150
  eigenvalues    EBANDS =         2.06099296
  atomic energy  EATOM  =       208.59373829
  ---------------------------------------------------
  free energy    TOTEN  =        -6.84535567 eV

  energy without entropy =       -6.83006417  energy(sigma->0) =       -6.83770992


--------------------------------------------------------------------------------------------------------




----------------------------------------- Iteration    1(   5)  ---------------------------------------


     EDDAV:  cpu time   13.13: real time   13.20
       DOS:  cpu time    0.10: real time    0.10
    CHARGE:  cpu time    0.15: real time    0.17
    MIXING:  cpu time    0.00: real time    0.00
    --------------------------------------------
      LOOP:  cpu time   13.39: real time   13.83

 eigenvalue-minimisations  : 20376
 total energy-change (2. order) :-0.8939998E-05  (-0.8939067E-05)
 number of electron       7.9999999 magnetization      -0.4254339
 augmentation part       -0.4710915 magnetization      -0.5237278

 Broyden mixing:
  rms(total) = 0.51921E+00    rms(broyden)= 0.51921E+00
  rms(prec ) = 0.10212E+01
  weight for this iteration     100.00

 Free energy of the ion-electron system (eV)
  ---------------------------------------------------
  alpha Z        PSCENC =         3.24859208
  Ewald energy   TEWEN  =      -225.91599796
  -1/2 Hartree   DENC   =       -11.53190716
  -exchange  EXHF       =         0.00000000
  -V(xc)+E(xc)   XCENC  =       -20.06769423
  PAW double counting   =       189.18569288     -152.40348104
  entropy T*S    EENTRO =        -0.01529149
  eigenvalues    EBANDS =         2.06098401
  atomic energy  EATOM  =       208.59373829
  ---------------------------------------------------
  free energy    TOTEN  =        -6.84536461 eV

  energy without entropy =       -6.83007313  energy(sigma->0) =       -6.83771887


--------------------------------------------------------------------------------------------------------




----------------------------------------- Iteration    1(   6)  ---------------------------------------


    POTLOK:  cpu time    1.16: real time    1.19
    SETDIJ:  cpu time    0.01: real time    0.01
     EDDAV:  cpu time   12.72: real time   12.78
       DOS:  cpu time    0.11: real time    0.11
    CHARGE:  cpu time    0.16: real time    0.16
    MIXING:  cpu time    0.00: real time    0.00
    --------------------------------------------
      LOOP:  cpu time   14.17: real time   15.40

 eigenvalue-minimisations  : 18144
 total energy-change (2. order) :-0.4085773E+00  (-0.7355860E-02)
 number of electron       7.9999999 magnetization       0.4246260
 augmentation part       -0.4629806 magnetization       0.4258629

 Broyden mixing:
  rms(total) = 0.26471E+00    rms(broyden)= 0.26471E+00
  rms(prec ) = 0.62159E+00
  weight for this iteration     100.00

 eigenvalues of (default mixing * dielectric matrix)
  average eigenvalue GAMMA=   0.8518
  0.8518

 Free energy of the ion-electron system (eV)
  ---------------------------------------------------
  alpha Z        PSCENC =         3.24859208
  Ewald energy   TEWEN  =      -225.91599796
  -1/2 Hartree   DENC   =       -13.20886843
  -exchange  EXHF       =         0.00000000
  -V(xc)+E(xc)   XCENC  =       -20.02959801
  PAW double counting   =       303.41612738     -266.75981343
  entropy T*S    EENTRO =        -0.00045320
  eigenvalues    EBANDS =         3.40233141
  atomic energy  EATOM  =       208.59373829
  ---------------------------------------------------
  free energy    TOTEN  =        -7.25394188 eV

  energy without entropy =       -7.25348867  energy(sigma->0) =       -7.25371527


--------------------------------------------------------------------------------------------------------




----------------------------------------- Iteration    1(   7)  ---------------------------------------


    POTLOK:  cpu time    1.14: real time    1.14
    SETDIJ:  cpu time    0.01: real time    0.01
     EDDAV:  cpu time   14.06: real time   14.13
       DOS:  cpu time    0.10: real time    0.10
    CHARGE:  cpu time    0.17: real time    0.17
    MIXING:  cpu time    0.00: real time    0.00
    --------------------------------------------
      LOOP:  cpu time   15.49: real time   15.86

 eigenvalue-minimisations  : 18912
 total energy-change (2. order) : 0.3395374E-01  (-0.7362710E-02)
 number of electron       7.9999999 magnetization       0.0327121
 augmentation part       -0.4560588 magnetization       0.0281475

 Broyden mixing:
  rms(total) = 0.15616E+00    rms(broyden)= 0.15616E+00
  rms(prec ) = 0.25934E+00
  weight for this iteration     100.00

 eigenvalues of (default mixing * dielectric matrix)
  average eigenvalue GAMMA=   1.1439
  0.7442  1.5436

 Free energy of the ion-electron system (eV)
  ---------------------------------------------------
  alpha Z        PSCENC =         3.24859208
  Ewald energy   TEWEN  =      -225.91599796
  -1/2 Hartree   DENC   =       -15.09461971
  -exchange  EXHF       =         0.00000000
  -V(xc)+E(xc)   XCENC  =       -19.73141139
  PAW double counting   =       446.16745610     -409.62215882
  entropy T*S    EENTRO =        -0.00148262
  eigenvalues    EBANDS =         5.13589590
  atomic energy  EATOM  =       208.59373829
  ---------------------------------------------------
  free energy    TOTEN  =        -7.21998814 eV

  energy without entropy =       -7.21850552  energy(sigma->0) =       -7.21924683


--------------------------------------------------------------------------------------------------------




----------------------------------------- Iteration    1(   8)  ---------------------------------------


    POTLOK:  cpu time    1.16: real time    1.17
    SETDIJ:  cpu time    0.02: real time    0.02
     EDDAV:  cpu time   12.46: real time   12.49
       DOS:  cpu time    0.10: real time    0.09
    CHARGE:  cpu time    0.16: real time    0.16
    MIXING:  cpu time    0.00: real time    0.00
    --------------------------------------------
      LOOP:  cpu time   13.90: real time   14.10

 eigenvalue-minimisations  : 18456
 total energy-change (2. order) :-0.2513416E-01  (-0.2680578E-02)
 number of electron       7.9999999 magnetization      -0.0101091
 augmentation part       -0.4524456 magnetization      -0.0105635

 Broyden mixing:
  rms(total) = 0.61793E-01    rms(broyden)= 0.61793E-01
  rms(prec ) = 0.71159E-01
  weight for this iteration     100.00

 eigenvalues of (default mixing * dielectric matrix)
  average eigenvalue GAMMA=   1.3118
  2.5093  0.8192  0.6069

 Free energy of the ion-electron system (eV)
  ---------------------------------------------------
  alpha Z        PSCENC =         3.24859208
  Ewald energy   TEWEN  =      -225.91599796
  -1/2 Hartree   DENC   =       -16.23290855
  -exchange  EXHF       =         0.00000000
  -V(xc)+E(xc)   XCENC  =       -19.55723122
  PAW double counting   =       538.75796672     -502.25539849
  entropy T*S    EENTRO =        -0.00103424
  eigenvalues    EBANDS =         6.11715108
  atomic energy  EATOM  =       208.59373829
  ---------------------------------------------------
  free energy    TOTEN  =        -7.24512230 eV

  energy without entropy =       -7.24408806  energy(sigma->0) =       -7.24460518


--------------------------------------------------------------------------------------------------------




----------------------------------------- Iteration    1(   9)  ---------------------------------------


    POTLOK:  cpu time    1.14: real time    1.15
    SETDIJ:  cpu time    0.01: real time    0.01
     EDDAV:  cpu time   12.00: real time   12.06
       DOS:  cpu time    0.09: real time    0.09
    CHARGE:  cpu time    0.14: real time    0.14
    MIXING:  cpu time    0.00: real time    0.00
    --------------------------------------------
      LOOP:  cpu time   13.38: real time   14.52

 eigenvalue-minimisations  : 18344
 total energy-change (2. order) : 0.3998572E-02  (-0.8992822E-04)
 number of electron       7.9999999 magnetization       0.0097507
 augmentation part       -0.4524328 magnetization       0.0099624

 Broyden mixing:
  rms(total) = 0.13953E-01    rms(broyden)= 0.13953E-01
  rms(prec ) = 0.30018E-01
  weight for this iteration     100.00

 eigenvalues of (default mixing * dielectric matrix)
  average eigenvalue GAMMA=   1.2537
  2.5079  1.1109  0.7902  0.6060

 Free energy of the ion-electron system (eV)
  ---------------------------------------------------
  alpha Z        PSCENC =         3.24859208
  Ewald energy   TEWEN  =      -225.91599796
  -1/2 Hartree   DENC   =       -16.23298926
  -exchange  EXHF       =         0.00000000
  -V(xc)+E(xc)   XCENC  =       -19.55253086
  PAW double counting   =       538.60130974     -502.08593981
  entropy T*S    EENTRO =        -0.00098104
  eigenvalues    EBANDS =         6.10367510
  atomic energy  EATOM  =       208.59373829
  ---------------------------------------------------
  free energy    TOTEN  =        -7.24112372 eV

  energy without entropy =       -7.24014268  energy(sigma->0) =       -7.24063320


--------------------------------------------------------------------------------------------------------




----------------------------------------- Iteration    1(  10)  ---------------------------------------


    POTLOK:  cpu time    0.98: real time    0.99
    SETDIJ:  cpu time    0.01: real time    0.01
     EDDAV:  cpu time    7.33: real time    7.38
       DOS:  cpu time    0.09: real time    0.09
    CHARGE:  cpu time    0.12: real time    0.12
    MIXING:  cpu time    0.00: real time    0.00
    --------------------------------------------
      LOOP:  cpu time    8.53: real time    9.42

 eigenvalue-minimisations  : 17672
 total energy-change (2. order) : 0.9161422E-02  (-0.8690991E-04)
 number of electron       7.9999999 magnetization       0.0027690
 augmentation part       -0.4532127 magnetization       0.0025319

 Broyden mixing:
  rms(total) = 0.66574E-02    rms(broyden)= 0.66574E-02
  rms(prec ) = 0.11033E-01
  weight for this iteration     100.00

 eigenvalues of (default mixing * dielectric matrix)
  average eigenvalue GAMMA=   1.3682
  2.4158  2.2092  0.8677  0.7387  0.6095

 Free energy of the ion-electron system (eV)
  ---------------------------------------------------
  alpha Z        PSCENC =         3.24859208
  Ewald energy   TEWEN  =      -225.91599796
  -1/2 Hartree   DENC   =       -16.14329442
  -exchange  EXHF       =         0.00000000
  -V(xc)+E(xc)   XCENC  =       -19.55358198
  PAW double counting   =       531.76678775     -495.21615784
  entropy T*S    EENTRO =        -0.00082360
  eigenvalues    EBANDS =         5.98877539
  atomic energy  EATOM  =       208.59373829
  ---------------------------------------------------
  free energy    TOTEN  =        -7.23196230 eV

  energy without entropy =       -7.23113870  energy(sigma->0) =       -7.23155050


--------------------------------------------------------------------------------------------------------




----------------------------------------- Iteration    1(  11)  ---------------------------------------


    POTLOK:  cpu time    0.96: real time    0.97
    SETDIJ:  cpu time    0.01: real time    0.01
     EDDAV:  cpu time    8.39: real time    8.44
       DOS:  cpu time    0.09: real time    0.09
    CHARGE:  cpu time    0.10: real time    0.11
    MIXING:  cpu time    0.00: real time    0.00
    --------------------------------------------
      LOOP:  cpu time    9.56: real time   10.20

 eigenvalue-minimisations  : 17800
 total energy-change (2. order) :-0.6220914E-04  (-0.1318803E-04)
 number of electron       7.9999999 magnetization      -0.0003490
 augmentation part       -0.4531612 magnetization      -0.0003734

 Broyden mixing:
  rms(total) = 0.33649E-02    rms(broyden)= 0.33649E-02
  rms(prec ) = 0.40585E-02
  weight for this iteration     100.00

 eigenvalues of (default mixing * dielectric matrix)
  average eigenvalue GAMMA=   1.3715
  2.5138  2.5138  1.0880  0.7990  0.6159  0.6985

 Free energy of the ion-electron system (eV)
  ---------------------------------------------------
  alpha Z        PSCENC =         3.24859208
  Ewald energy   TEWEN  =      -225.91599796
  -1/2 Hartree   DENC   =       -16.18381117
  -exchange  EXHF       =         0.00000000
  -V(xc)+E(xc)   XCENC  =       -19.54672897
  PAW double counting   =       532.39150687     -495.84167934
  entropy T*S    EENTRO =        -0.00083587
  eigenvalues    EBANDS =         6.02319157
  atomic energy  EATOM  =       208.59373829
  ---------------------------------------------------
  free energy    TOTEN  =        -7.23202451 eV

  energy without entropy =       -7.23118864  energy(sigma->0) =       -7.23160658


--------------------------------------------------------------------------------------------------------




----------------------------------------- Iteration    1(  12)  ---------------------------------------


    POTLOK:  cpu time    1.01: real time    1.01
    SETDIJ:  cpu time    0.01: real time    0.01
     EDDAV:  cpu time    7.00: real time    7.16
       DOS:  cpu time    0.09: real time    0.09
    CHARGE:  cpu time    0.10: real time    0.10
    MIXING:  cpu time    0.00: real time    0.00
    --------------------------------------------
      LOOP:  cpu time    8.21: real time    8.58

 eigenvalue-minimisations  : 19080
 total energy-change (2. order) :-0.3375582E-03  (-0.5209618E-06)
 number of electron       7.9999999 magnetization       0.0003512
 augmentation part       -0.4531106 magnetization       0.0003513

 Broyden mixing:
[...]
      2      -1.4265      1.00000
      3       1.3886      1.00000
      4       3.2747      1.00000
      5       6.8866      0.00000
      6       9.9909      0.00000
      7      12.6395      0.00000
      8      12.9674      0.00000
      9      13.6358      0.00000
     10      13.8899      0.00000
     11      19.9462      0.00000
     12      20.1899      0.00000
     13      20.4374      0.00000
     14      21.1844      0.00000
     15      21.3905      0.00000
     16      22.5174      0.00000
     17      24.3048      0.00000
     18      25.2109      0.00000
     19      26.5430      0.00000
     20      27.3988      0.00000
     21      27.8689      0.00000
     22      28.2618      0.00000
     23      30.3702      0.00000
     24      31.4971      0.00000

 k-point 154 :       0.3750    0.3750    0.7500
  band No.  band energies     occupation 
      1      -2.5147      1.00000
      2      -1.5275      1.00000
      3       1.4226      1.00000
      4       3.2162      1.00000
      5       6.8176      0.00000
      6       9.6562      0.00000
      7      12.9069      0.00000
      8      13.3940      0.00000
      9      13.5762      0.00000
     10      13.9845      0.00000
     11      19.9028      0.00000
     12      20.2354      0.00000
     13      20.7475      0.00000
     14      20.9845      0.00000
     15      21.1463      0.00000
     16      22.2370      0.00000
     17      24.7537      0.00000
     18      25.1829      0.00000
     19      26.6770      0.00000
     20      26.8211      0.00000
     21      27.9216      0.00000
     22      28.1184      0.00000
     23      30.2816      0.00000
     24      30.9713      0.00000

 k-point 155 :       0.6250    0.2500    0.6250
  band No.  band energies     occupation 
      1      -2.5147      1.00000
      2      -1.5275      1.00000
      3       1.4226      1.00000
      4       3.2162      1.00000
      5       6.8176      0.00000
      6       9.6562      0.00000
      7      12.9069      0.00000
      8      13.3940      0.00000
      9      13.5762      0.00000
     10      13.9845      0.00000
     11      19.9028      0.00000
     12      20.2354      0.00000
     13      20.7475      0.00000
     14      20.9845      0.00000
     15      21.1463      0.00000
     16      22.2370      0.00000
     17      24.7537      0.00000
     18      25.1829      0.00000
     19      26.6770      0.00000
     20      26.8211      0.00000
     21      27.9216      0.00000
     22      28.1184      0.00000
     23      30.2816      0.00000
     24      30.9713      0.00000

 k-point 156 :       0.6111    0.2222    0.6111
  band No.  band energies     occupation 
      1      -2.4047      1.00000
      2      -1.6481      1.00000
      3       1.5351      1.00000
      4       3.1318      1.00000
      5       6.7199      0.00000
      6       9.1195      0.00000
      7      13.2428      0.00000
      8      13.7492      0.00000
      9      13.8455      0.00000
     10      14.2806      0.00000
     11      19.6826      0.00000
     12      19.9542      0.00000
     13      20.3632      0.00000
     14      21.2026      0.00000
     15      21.3210      0.00000
     16      22.0280      0.00000
     17      25.1273      0.00000
     18      25.4008      0.00000
     19      26.4000      0.00000
     20      26.4435      0.00000
     21      27.6231      0.00000
     22      28.3579      0.00000
     23      29.7952      0.00000
     24      30.5522      0.00000

 k-point 157 :       0.5972    0.1944    0.5972
  band No.  band energies     occupation 
      1      -2.3159      1.00000
      2      -1.7546      1.00000
      3       1.6826      1.00000
      4       3.0564      1.00000
      5       6.6325      0.00000
      6       8.6029      0.00000
      7      13.5835      0.00000
      8      14.1151      0.00000
      9      14.1164      0.00000
     10      14.5855      0.00000
     11      19.4403      0.00000
     12      19.6654      0.00000
     13      19.9757      0.00000
     14      20.8788      0.00000
     15      21.6902      0.00000
     16      22.2061      0.00000
     17      25.0678      0.00000
     18      25.9877      0.00000
     19      26.1044      0.00000
     20      26.1579      0.00000
     21      27.3544      0.00000
     22      28.4561      0.00000
     23      29.3783      0.00000
     24      30.2629      0.00000

 k-point 158 :       0.5833    0.1667    0.5833
  band No.  band energies     occupation 
      1      -2.2468      1.00000
      2      -1.8469      1.00000
      3       1.8597      1.00000
      4       2.9903      1.00000
      5       6.5559      0.00000
      6       8.1121      0.00000
      7      13.9258      0.00000
      8      14.3809      0.00000
      9      14.4928      0.00000
     10      14.8964      0.00000
     11      19.1933      0.00000
     12      19.3703      0.00000
     13      19.5889      0.00000
     14      20.4212      0.00000
     15      22.0774      0.00000
     16      22.5288      0.00000
     17      25.0119      0.00000
     18      25.8070      0.00000
     19      25.9506      0.00000
     20      26.4415      0.00000
     21      27.1195      0.00000
     22      28.3423      0.00000
     23      29.0965      0.00000
     24      30.1605      0.00000

 k-point 159 :       0.5694    0.1389    0.5694
  band No.  band energies     occupation 
      1      -2.1950      1.00000
      2      -1.9252      1.00000
      3       2.0580      1.00000
      4       2.9339      1.00000
      5       6.4906      0.00002
      6       7.6540      0.00000
      7      14.2652      0.00000
      8      14.6377      0.00000
      9      14.8754      0.00000
     10      15.2097      0.00000
     11      18.9509      0.00000
     12      19.0712      0.00000
     13      19.2088      0.00000
     14      19.9424      0.00000
     15      22.4760      0.00000
     16      22.8847      0.00000
     17      24.9644      0.00000
     18      25.5534      0.00000
     19      25.7772      0.00000
     20      26.6228      0.00000
     21      26.9461      0.00000
     22      28.0516      0.00000
     23      29.0562      0.00000
     24      30.2052      0.00000

 k-point 160 :       0.5556    0.1111    0.5556
  band No.  band energies     occupation 
      1      -2.1577      1.00000
      2      -1.9892      1.00000
      3       2.2657      1.00000
      4       2.8874      1.00000
      5       6.4368      0.00009
      6       7.2381      0.00000
      7      14.5944      0.00000
      8      14.8780      0.00000
      9      15.2590      0.00000
     10      15.5198      0.00000
     11      18.7217      0.00000
     12      18.7732      0.00000
     13      18.8442      0.00000
     14      19.4712      0.00000
     15      22.8810      0.00000
     16      23.2436      0.00000
     17      24.9299      0.00000
     18      25.3449      0.00000
     19      25.6370      0.00000
     20      26.4753      0.00000
     21      26.8442      0.00000
     22      27.6781      0.00000
     23      29.2956      0.00000
     24      30.3064      0.00000

 k-point 161 :       0.5417    0.0833    0.5417
  band No.  band energies     occupation 
      1      -2.1319      1.00000
      2      -2.0391      1.00000
      3       2.4669      1.00000
      4       2.8510      1.00000
      5       6.3948      0.00027
      6       6.8779      0.00000
      7      14.9010      0.00000
      8      15.0915      0.00000
      9      15.6342      0.00000
     10      15.8171      0.00000
     11      18.4853      0.00000
     12      18.5086      0.00000
     13      18.5168      0.00000
     14      19.0243      0.00000
     15      23.2849      0.00000
     16      23.5840      0.00000
     17      24.9136      0.00000
     18      25.1825      0.00000
     19      25.5291      0.00000
     20      26.1837      0.00000
     21      26.7338      0.00000
     22      27.2895      0.00000
     23      29.6956      0.00000
     24      30.4086      0.00000

 k-point 162 :       0.5278    0.0556    0.5278
  band No.  band energies     occupation 
      1      -2.1154      1.00000
      2      -2.0747      1.00000
      3       2.6403      1.00000
      4       2.8249      1.00000
      5       6.3646      0.00059
      6       6.5926      0.00000
      7      15.1639      0.00000
      8      15.2639      0.00000
      9      15.9805      0.00000
     10      16.0836      0.00000
     11      18.2242      0.00000
     12      18.2254      0.00000
     13      18.3505      0.00000
     14      18.6254      0.00000
     15      23.6720      0.00000
     16      23.8758      0.00000
     17      24.9217      0.00000
     18      25.0663      0.00000
     19      25.4527      0.00000
     20      25.8448      0.00000
     21      26.6401      0.00000
     22      26.9337      0.00000
     23      30.1129      0.00000
     24      30.4889      0.00000

 k-point 163 :       0.5139    0.0278    0.5139
  band No.  band energies     occupation 
      1      -2.1062      1.00000
      2      -2.0961      1.00000
      3       2.7605      1.00000
      4       2.8092      1.00000
      5       6.3465      0.00091
      6       6.4059      0.00020
      7      15.3497      0.00000
      8      15.3781      0.00000
      9      16.2519      0.00000
     10      16.2840      0.00000
     11      18.0251      0.00000
     12      18.0290      0.00000
     13      18.2399      0.00000
     14      18.3220      0.00000
     15      23.9990      0.00000
     16      24.0759      0.00000
     17      24.9525      0.00000
     18      24.9967      0.00000
     19      25.4071      0.00000
     20      25.5353      0.00000
     21      26.5817      0.00000
     22      26.6663      0.00000
     23      30.4331      0.00000
     24      30.5390      0.00000

 k-point 164 :       0.5000    0.0000    0.5000
  band No.  band energies     occupation 
      1      -2.1032      1.00000
      2      -2.1032      1.00000
      3       2.8040      1.00000
      4       2.8040      1.00000
      5       6.3405      0.00106
      6       6.3405      0.00106
      7      15.4184      0.00000
      8      15.4184      0.00000
      9      16.3624      0.00000
     10      16.3624      0.00000
     11      17.9520      0.00000
     12      17.9520      0.00000
     13      18.2008      0.00000
     14      18.2008      0.00000
     15      24.1465      0.00000
     16      24.1465      0.00000
     17      24.9734      0.00000
     18      24.9734      0.00000
     19      25.3919      0.00000
     20      25.3919      0.00000
     21      26.5622      0.00000
     22      26.5622      0.00000
     23      30.5558      0.00000
     24      30.5558      0.00000


--------------------------------------------------------------------------------------------------------


 soft charge-density along one line, spin component           1
         0         1         2         3         4         5         6         7         8         9
 total charge-density along one line
 
 soft charge-density along one line, spin component           2
         0         1         2         3         4         5         6         7         8         9
 total charge-density along one line
 
 pseudopotential strength for first ion, spin component:           1
 18.533  25.852   0.000   0.000   0.000   0.000   0.000   0.000
 25.852  36.067   0.000   0.000   0.000   0.000   0.000   0.000
  0.000   0.000   4.199   0.000   0.000   7.816   0.000   0.000
  0.000   0.000   0.000   4.199   0.000   0.000   7.816   0.000
  0.000   0.000   0.000   0.000   4.199   0.000   0.000   7.816
  0.000   0.000   7.816   0.000   0.000  14.561   0.000   0.000
  0.000   0.000   0.000   7.816   0.000   0.000  14.561   0.000
  0.000   0.000   0.000   0.000   7.816   0.000   0.000  14.561
 pseudopotential strength for first ion, spin component:           2
 18.533  25.852   0.000   0.000   0.000   0.000   0.000   0.000
 25.852  36.067   0.000   0.000   0.000   0.000   0.000   0.000
  0.000   0.000   4.199   0.000   0.000   7.816   0.000   0.000
  0.000   0.000   0.000   4.199   0.000   0.000   7.816   0.000
  0.000   0.000   0.000   0.000   4.199   0.000   0.000   7.816
  0.000   0.000   7.816   0.000   0.000  14.561   0.000   0.000
  0.000   0.000   0.000   7.816   0.000   0.000  14.561   0.000
  0.000   0.000   0.000   0.000   7.816   0.000   0.000  14.561
 total augmentation occupancy for first ion, spin component:           1
  3.277  -0.969   0.000   0.000   0.000   0.000   0.000   0.000
 -0.969   0.443   0.000   0.000   0.000   0.000   0.000   0.000
  0.000   0.000   2.210   0.000   0.000  -0.379   0.000   0.000
  0.000   0.000   0.000   2.210   0.000   0.000  -0.379   0.000
  0.000   0.000   0.000   0.000   2.210   0.000   0.000  -0.379
  0.000   0.000  -0.379   0.000   0.000   0.080   0.000   0.000
  0.000   0.000   0.000  -0.379   0.000   0.000   0.080   0.000
  0.000   0.000   0.000   0.000  -0.379   0.000   0.000   0.080
 total augmentation occupancy for first ion, spin component:           2
  0.000   0.000   0.000   0.000   0.000   0.000   0.000   0.000
  0.000   0.000   0.000   0.000   0.000   0.000   0.000   0.000
  0.000   0.000   0.000   0.000   0.000   0.000   0.000   0.000
  0.000   0.000   0.000   0.000   0.000   0.000   0.000   0.000
  0.000   0.000   0.000   0.000   0.000   0.000   0.000   0.000
  0.000   0.000   0.000   0.000   0.000   0.000   0.000   0.000
  0.000   0.000   0.000   0.000   0.000   0.000   0.000   0.000
  0.000   0.000   0.000   0.000   0.000   0.000   0.000   0.000


------------------------ aborting loop because EDIFF is reached ----------------------------------------


 


 total charge     
 
# of ion     s       p       d       tot
----------------------------------------
  1        0.698   0.944   0.000   1.642
  2        0.698   0.944   0.000   1.642
------------------------------------------------
tot        1.397   1.887   0.000   3.284
 


 magnetization (x)
 
# of ion     s       p       d       tot
----------------------------------------
  1        0.000   0.000   0.000   0.000
  2        0.000   0.000   0.000   0.000
------------------------------------------------
tot        0.000   0.000   0.000   0.000
 
    CHARGE:  cpu time    0.13: real time    0.13
    FORLOC:  cpu time    0.00: real time    0.00
    FORNL :  cpu time    0.29: real time    0.29
    STRESS:  cpu time    0.80: real time    0.81
    FORCOR:  cpu time    1.05: real time    1.32
    FORHAR:  cpu time    0.00: real time    0.01
    MIXING:  cpu time    0.00: real time    0.00

  FORCE on cell =-STRESS in cart. coord.  units (eV):
  Direction    XX          YY          ZZ          XY          YZ          ZX
  --------------------------------------------------------------------------------------
  Alpha Z     3.24859     3.24859     3.24859
  Ewald     -75.30536   -75.30540   -75.30535     0.00000     0.00000     0.00000
  Hartree     5.39929     5.39929     5.39930     0.00000     0.00000     0.00000
  E(xc)     -25.40224   -25.40224   -25.40224     0.00000     0.00000     0.00000
  Local     -30.07014   -30.07013   -30.07014     0.00001     0.00000     0.00001
  n-local    77.49589    77.39049    74.65380    -1.05230     0.75680    -2.34751
  augment   -11.60212   -11.60212   -11.60213     0.00000     0.00000    -0.00001
  Kinetic    59.61988    58.73564    55.02629    -0.49158    -0.75259    -2.52238
  Fock        0.00000     0.00000     0.00000     0.00000     0.00000     0.00000
  -------------------------------------------------------------------------------------
  Total       0.57535     0.57535     0.57535     0.00000     0.00000     0.00000
  in kB      22.23946    22.23948    22.23947     0.00000     0.00000     0.00000
  external pressure =       22.24 kB  Pullay stress =        0.00 kB


 VOLUME and BASIS-vectors are now :
 -----------------------------------------------------------------------------
  energy-cutoff  :      500.00
  volume of cell :       41.45
      direct lattice vectors                 reciprocal lattice vectors
     3.364150000  0.000000000  1.942293000     0.297251906 -0.105094356  0.000000000
     1.121383000  3.171752000  1.942293000     0.000000000  0.315283162  0.000000000
     0.000000000  0.000000000  3.884586000    -0.148625953 -0.105094403  0.257427690

  length of vectors
     3.884585862  3.884586552  3.884586000     0.315283237  0.315283162  0.315283242


 FORCES acting on ions
    electron-ion (+dipol)            ewald-force                    non-local-force                 convergence-correction
 -----------------------------------------------------------------------------------------------
   0.105E-05 0.156E-04 -.142E-07   -.169E-05 -.248E-04 -.154E-14   -.347E-17 0.625E-16 -.295E-15   -.116E-12 0.142E-11 -.387E-12
   -.105E-05 -.156E-04 0.142E-07   0.169E-05 0.248E-04 0.144E-14   -.114E-15 -.208E-16 0.194E-15   0.115E-12 -.141E-11 0.387E-12
 -----------------------------------------------------------------------------------------------
   -.134E-12 0.304E-13 -.236E-12   0.134E-15 -.526E-16 -.949E-16   -.118E-15 0.416E-16 -.101E-15   -.109E-14 0.359E-15 0.283E-16
 
 
 POSITION                                       TOTAL-FORCE (eV/Angst)
 -----------------------------------------------------------------------------------
      3.92484      2.77528      6.79803         0.000000      0.000000      0.000000
      0.56069      0.39647      0.97115         0.000000      0.000000      0.000000
 -----------------------------------------------------------------------------------
    total drift:                                0.000000      0.000000      0.000000


--------------------------------------------------------------------------------------------------------



  FREE ENERGIE OF THE ION-ELECTRON SYSTEM (eV)
  ---------------------------------------------------
  free  energy   TOTEN  =        -7.23238945 eV

  energy  without entropy=       -7.23154866  energy(sigma->0) =       -7.23196906
 


--------------------------------------------------------------------------------------------------------


    POTLOK:  cpu time    2.25: real time    2.73


--------------------------------------------------------------------------------------------------------


     LOOP+:  cpu time  227.03: real time  240.21
    4ORBIT:  cpu time    0.00: real time    0.00
 


 total charge     
 
# of ion     s       p       d       tot
----------------------------------------
  1        0.698   0.944   0.000   1.642
  2        0.698   0.944   0.000   1.642
------------------------------------------------
tot        1.397   1.887   0.000   3.284
 


 magnetization (x)
 
# of ion     s       p       d       tot
----------------------------------------
  1        0.000   0.000   0.000   0.000
  2        0.000   0.000   0.000   0.000
------------------------------------------------
tot        0.000   0.000   0.000   0.000
 

 total amount of memory used by VASP on root node    43812. kBytes
========================================================================

   base      :      30000. kBytes
   nonl-proj :       2905. kBytes
   fftplans  :        586. kBytes
   grid      :       1373. kBytes
   one-center:          6. kBytes
   wavefun   :       8942. kBytes
 
  
  
 General timing and accounting informations for this job:
 ========================================================
  
                  Total CPU time used (sec):      231.742
                            User time (sec):      230.926
                          System time (sec):        0.816
                         Elapsed time (sec):      249.445
  
                   Maximum memory used (kb):      125428.
                   Average memory used (kb):           0.
  
                          Minor page faults:        87827
                          Major page faults:            5
                 Voluntary context switches:         1145
