   2   2   0   0
  0.2044415E+02  0.3866974E-09  0.3866975E-09  0.3866975E-09  0.5000000E-15
  1.000000000000000E-004
  CAR 
 unknown system                          
     17.58306931     -8.14715804  301      5.93552402      1.00000000
     -8.147  0.0000E+00  0.0000E+00
     -8.061  0.0000E+00  0.0000E+00
     -7.976  0.0000E+00  0.0000E+00
     -7.890  0.0000E+00  0.0000E+00
     -7.804  0.0000E+00  0.0000E+00
     -7.718  0.0000E+00  0.0000E+00
     -7.633  0.0000E+00  0.0000E+00
     -7.547  0.0000E+00  0.0000E+00
     -7.461  0.0000E+00  0.0000E+00
     -7.375  0.0000E+00  0.0000E+00
     -7.289  0.1896E-17  0.1626E-18
     -7.204  0.3726E-15  0.3212E-16
     -7.118  0.3441E-13  0.2983E-14
     -7.032  0.2241E-11  0.1952E-12
     -6.946  0.1033E-09  0.9053E-11
     -6.861  0.3372E-08  0.2983E-09
     -6.775  0.7820E-07  0.7005E-08
     -6.689  0.1291E-05  0.1177E-06
     -6.603  0.1523E-04  0.1424E-05
     -6.518  0.1292E-03  0.1251E-04
     -6.432  0.7944E-03  0.8064E-04
     -6.346  0.3582E-02  0.3879E-03
     -6.260  0.1204E-01  0.1421E-02
     -6.175  0.3083E-01  0.4065E-02
     -6.089  0.6194E-01  0.9377E-02
     -6.003  0.1016E+00  0.1809E-01
     -5.917  0.1426E+00  0.3032E-01
     -5.831  0.1795E+00  0.4572E-01
     -5.746  0.2108E+00  0.6380E-01
     -5.660  0.2385E+00  0.8425E-01
     -5.574  0.2643E+00  0.1069E+00
     -5.488  0.2863E+00  0.1315E+00
     -5.403  0.3062E+00  0.1577E+00
     -5.317  0.3295E+00  0.1860E+00
     -5.231  0.3532E+00  0.2163E+00
     -5.145  0.3693E+00  0.2480E+00
     -5.060  0.3833E+00  0.2808E+00
     -4.974  0.4068E+00  0.3157E+00
     -4.888  0.4354E+00  0.3531E+00
     -4.802  0.4540E+00  0.3920E+00
     -4.716  0.4617E+00  0.4316E+00
     -4.631  0.4772E+00  0.4725E+00
     -4.545  0.5117E+00  0.5164E+00
     -4.459  0.5491E+00  0.5635E+00
     -4.373  0.5670E+00  0.6122E+00
     -4.288  0.5720E+00  0.6612E+00
     -4.202  0.5966E+00  0.7124E+00
     -4.116  0.6569E+00  0.7687E+00
     -4.030  0.7255E+00  0.8309E+00
     -3.945  0.7671E+00  0.8967E+00
     -3.859  0.7865E+00  0.9642E+00
     -3.773  0.8150E+00  0.1034E+01
     -3.687  0.8536E+00  0.1107E+01
     -3.601  0.8629E+00  0.1181E+01
     -3.516  0.8228E+00  0.1252E+01
     -3.430  0.7684E+00  0.1318E+01
     -3.344  0.7397E+00  0.1381E+01
     -3.258  0.7293E+00  0.1444E+01
     -3.173  0.7064E+00  0.1504E+01
     -3.087  0.6629E+00  0.1561E+01
     -3.001  0.6198E+00  0.1614E+01
     -2.915  0.5952E+00  0.1665E+01
     -2.830  0.5756E+00  0.1715E+01
     -2.744  0.5373E+00  0.1761E+01
     -2.658  0.4855E+00  0.1802E+01
     -2.572  0.4470E+00  0.1841E+01
     -2.487  0.4257E+00  0.1877E+01
     -2.401  0.3931E+00  0.1911E+01
     -2.315  0.3296E+00  0.1939E+01
     -2.229  0.2528E+00  0.1961E+01
     -2.143  0.1966E+00  0.1978E+01
     -2.058  0.1738E+00  0.1993E+01
     -1.972  0.1666E+00  0.2007E+01
     -1.886  0.1574E+00  0.2021E+01
     -1.800  0.1593E+00  0.2034E+01
     -1.715  0.2043E+00  0.2052E+01
     -1.629  0.2945E+00  0.2077E+01
     -1.543  0.3807E+00  0.2110E+01
     -1.457  0.4234E+00  0.2146E+01
     -1.372  0.4655E+00  0.2186E+01
     -1.286  0.5942E+00  0.2237E+01
     -1.200  0.8237E+00  0.2307E+01
     -1.114  0.1059E+01  0.2398E+01
     -1.028  0.1188E+01  0.2500E+01
     -0.943  0.1181E+01  0.2601E+01
     -0.857  0.1084E+01  0.2694E+01
     -0.771  0.9622E+00  0.2777E+01
     -0.685  0.8500E+00  0.2850E+01
     -0.600  0.7565E+00  0.2915E+01
     -0.514  0.6860E+00  0.2974E+01
     -0.428  0.6358E+00  0.3028E+01
     -0.342  0.5891E+00  0.3079E+01
     -0.257  0.5432E+00  0.3125E+01
     -0.171  0.5138E+00  0.3169E+01
     -0.085  0.4958E+00  0.3212E+01
      0.001  0.4719E+00  0.3252E+01
      0.087  0.4449E+00  0.3290E+01
      0.172  0.4215E+00  0.3327E+01
      0.258  0.3974E+00  0.3361E+01
      0.344  0.3732E+00  0.3393E+01
      0.430  0.3515E+00  0.3423E+01
      0.515  0.3338E+00  0.3451E+01
      0.601  0.3289E+00  0.3480E+01
      0.687  0.3329E+00  0.3508E+01
      0.773  0.3195E+00  0.3536E+01
      0.858  0.2817E+00  0.3560E+01
      0.944  0.2506E+00  0.3581E+01
      1.030  0.2473E+00  0.3602E+01
      1.116  0.2573E+00  0.3625E+01
      1.201  0.2769E+00  0.3648E+01
      1.287  0.3421E+00  0.3678E+01
      1.373  0.4782E+00  0.3719E+01
      1.459  0.6574E+00  0.3775E+01
      1.545  0.8299E+00  0.3846E+01
      1.630  0.9689E+00  0.3929E+01
      1.716  0.1069E+01  0.4021E+01
      1.802  0.1127E+01  0.4118E+01
      1.888  0.1136E+01  0.4215E+01
      1.973  0.1107E+01  0.4310E+01
      2.059  0.1067E+01  0.4402E+01
      2.145  0.1056E+01  0.4492E+01
      2.231  0.1083E+01  0.4585E+01
      2.316  0.1115E+01  0.4681E+01
      2.402  0.1116E+01  0.4776E+01
      2.488  0.1098E+01  0.4871E+01
      2.574  0.1114E+01  0.4966E+01
      2.660  0.1212E+01  0.5070E+01
      2.745  0.1364E+01  0.5187E+01
      2.831  0.1483E+01  0.5314E+01
      2.917  0.1515E+01  0.5444E+01
      3.003  0.1498E+01  0.5573E+01
      3.088  0.1485E+01  0.5700E+01
      3.174  0.1475E+01  0.5827E+01
      3.260  0.1439E+01  0.5950E+01
      3.346  0.1392E+01  0.6069E+01
      3.431  0.1395E+01  0.6189E+01
      3.517  0.1453E+01  0.6314E+01
      3.603  0.1484E+01  0.6441E+01
      3.689  0.1423E+01  0.6563E+01
      3.775  0.1311E+01  0.6675E+01
      3.860  0.1234E+01  0.6781E+01
      3.946  0.1225E+01  0.6886E+01
      4.032  0.1252E+01  0.6994E+01
      4.118  0.1264E+01  0.7102E+01
      4.203  0.1236E+01  0.7208E+01
      4.289  0.1184E+01  0.7310E+01
      4.375  0.1122E+01  0.7406E+01
      4.461  0.1041E+01  0.7495E+01
      4.546  0.9370E+00  0.7575E+01
      4.632  0.8189E+00  0.7646E+01
      4.718  0.6983E+00  0.7705E+01
      4.804  0.5897E+00  0.7756E+01
      4.889  0.5058E+00  0.7799E+01
      4.975  0.4491E+00  0.7838E+01
      5.061  0.4126E+00  0.7873E+01
      5.147  0.3772E+00  0.7906E+01
      5.233  0.3248E+00  0.7934E+01
      5.318  0.2588E+00  0.7956E+01
      5.404  0.1942E+00  0.7972E+01
      5.490  0.1387E+00  0.7984E+01
      5.576  0.9182E-01  0.7992E+01
      5.661  0.5327E-01  0.7997E+01
      5.747  0.2534E-01  0.7999E+01
      5.833  0.9383E-02  0.8000E+01
      5.919  0.2833E-02  0.8000E+01
      6.004  0.1892E-02  0.8000E+01
      6.090  0.5635E-02  0.8001E+01
      6.176  0.1740E-01  0.8002E+01
      6.262  0.4298E-01  0.8006E+01
      6.348  0.8567E-01  0.8013E+01
      6.433  0.1417E+00  0.8025E+01
      6.519  0.2036E+00  0.8043E+01
      6.605  0.2697E+00  0.8066E+01
      6.691  0.3431E+00  0.8095E+01
      6.776  0.4197E+00  0.8131E+01
      6.862  0.4860E+00  0.8173E+01
      6.948  0.5364E+00  0.8219E+01
      7.034  0.5826E+00  0.8269E+01
      7.119  0.6319E+00  0.8323E+01
      7.205  0.6700E+00  0.8381E+01
      7.291  0.6961E+00  0.8440E+01
      7.377  0.7548E+00  0.8505E+01
      7.463  0.8882E+00  0.8581E+01
      7.548  0.1065E+01  0.8673E+01
      7.634  0.1213E+01  0.8777E+01
      7.720  0.1319E+01  0.8890E+01
      7.806  0.1423E+01  0.9012E+01
      7.891  0.1533E+01  0.9143E+01
      7.977  0.1600E+01  0.9280E+01
      8.063  0.1586E+01  0.9417E+01
      8.149  0.1490E+01  0.9544E+01
      8.234  0.1349E+01  0.9660E+01
      8.320  0.1220E+01  0.9765E+01
      8.406  0.1143E+01  0.9863E+01
      8.492  0.1127E+01  0.9959E+01
      8.577  0.1153E+01  0.1006E+02
      8.663  0.1203E+01  0.1016E+02
      8.749  0.1312E+01  0.1027E+02
      8.835  0.1531E+01  0.1041E+02
      8.921  0.1808E+01  0.1056E+02
      9.006  0.1989E+01  0.1073E+02
      9.092  0.1994E+01  0.1090E+02
      9.178  0.1883E+01  0.1106E+02
      9.264  0.1755E+01  0.1121E+02
      9.349  0.1650E+01  0.1136E+02
      9.435  0.1563E+01  0.1149E+02
      9.521  0.1472E+01  0.1162E+02
      9.607  0.1371E+01  0.1173E+02
      9.692  0.1303E+01  0.1185E+02
      9.778  0.1314E+01  0.1196E+02
      9.864  0.1370E+01  0.1208E+02
      9.950  0.1393E+01  0.1219E+02
     10.036  0.1352E+01  0.1231E+02
     10.121  0.1285E+01  0.1242E+02
     10.207  0.1247E+01  0.1253E+02
     10.293  0.1264E+01  0.1264E+02
     10.379  0.1317E+01  0.1275E+02
     10.464  0.1366E+01  0.1287E+02
     10.550  0.1386E+01  0.1299E+02
     10.636  0.1368E+01  0.1310E+02
     10.722  0.1296E+01  0.1321E+02
     10.807  0.1174E+01  0.1331E+02
     10.893  0.1036E+01  0.1340E+02
     10.979  0.9310E+00  0.1348E+02
     11.065  0.8888E+00  0.1356E+02
     11.151  0.9330E+00  0.1364E+02
     11.236  0.1076E+01  0.1373E+02
     11.322  0.1268E+01  0.1384E+02
     11.408  0.1411E+01  0.1396E+02
     11.494  0.1451E+01  0.1409E+02
     11.579  0.1395E+01  0.1421E+02
     11.665  0.1264E+01  0.1431E+02
     11.751  0.1078E+01  0.1441E+02
     11.837  0.8812E+00  0.1448E+02
     11.922  0.7345E+00  0.1455E+02
     12.008  0.6678E+00  0.1460E+02
     12.094  0.6567E+00  0.1466E+02
     12.180  0.6619E+00  0.1472E+02
     12.265  0.6802E+00  0.1477E+02
     12.351  0.7344E+00  0.1484E+02
     12.437  0.8413E+00  0.1491E+02
     12.523  0.9926E+00  0.1499E+02
     12.609  0.1128E+01  0.1509E+02
     12.694  0.1150E+01  0.1519E+02
     12.780  0.1012E+01  0.1528E+02
     12.866  0.7798E+00  0.1534E+02
     12.952  0.5687E+00  0.1539E+02
     13.037  0.4493E+00  0.1543E+02
     13.123  0.4168E+00  0.1547E+02
     13.209  0.4246E+00  0.1550E+02
     13.295  0.4363E+00  0.1554E+02
     13.380  0.4549E+00  0.1558E+02
     13.466  0.4906E+00  0.1562E+02
     13.552  0.5209E+00  0.1567E+02
     13.638  0.5245E+00  0.1571E+02
     13.724  0.5221E+00  0.1576E+02
     13.809  0.5231E+00  0.1580E+02
     13.895  0.4785E+00  0.1584E+02
     13.981  0.3530E+00  0.1587E+02
     14.067  0.1953E+00  0.1589E+02
     14.152  0.8001E-01  0.1590E+02
     14.238  0.2985E-01  0.1590E+02
     14.324  0.2522E-01  0.1590E+02
     14.410  0.4453E-01  0.1590E+02
     14.495  0.7660E-01  0.1591E+02
     14.581  0.1139E+00  0.1592E+02
     14.667  0.1443E+00  0.1593E+02
     14.753  0.1561E+00  0.1595E+02
     14.839  0.1522E+00  0.1596E+02
     14.924  0.1428E+00  0.1597E+02
     15.010  0.1252E+00  0.1598E+02
     15.096  0.9222E-01  0.1599E+02
     15.182  0.5259E-01  0.1599E+02
     15.267  0.2258E-01  0.1600E+02
     15.353  0.8204E-02  0.1600E+02
     15.439  0.5018E-02  0.1600E+02
     15.525  0.6593E-02  0.1600E+02
     15.610  0.8120E-02  0.1600E+02
     15.696  0.7224E-02  0.1600E+02
     15.782  0.4512E-02  0.1600E+02
     15.868  0.1973E-02  0.1600E+02
     15.953  0.6033E-03  0.1600E+02
     16.039  0.1290E-03  0.1600E+02
     16.125  0.1929E-04  0.1600E+02
     16.211  0.2015E-05  0.1600E+02
     16.297  0.1469E-06  0.1600E+02
     16.382  0.7469E-08  0.1600E+02
     16.468  0.2648E-09  0.1600E+02
     16.554  0.6543E-11  0.1600E+02
     16.640  0.1126E-12  0.1600E+02
     16.725  0.1346E-14  0.1600E+02
     16.811  0.1138E-16  0.1600E+02
     16.897  0.0000E+00  0.1600E+02
     16.983  0.0000E+00  0.1600E+02
     17.068  0.0000E+00  0.1600E+02
     17.154  0.0000E+00  0.1600E+02
     17.240  0.0000E+00  0.1600E+02
     17.326  0.0000E+00  0.1600E+02
     17.412  0.0000E+00  0.1600E+02
     17.497  0.0000E+00  0.1600E+02
     17.583  0.0000E+00  0.1600E+02
