    2    2    1    1
  0.2044415E+02  0.3866974E-09  0.3866975E-09  0.3866975E-09  0.5000000E-15
  1.000000000000000E-004
  CAR 
 unknown system                          
    8  145    8
 
  0.0000000E+00  0.0000000E+00  0.0000000E+00  0.2441406E-03
   1       -6.147158
   2        5.593591
   3        5.593591
   4        5.593593
   5        8.216241
   6        8.216244
   7        8.216245
   8        8.821481
 
  0.6250000E-01  0.6938894E-17  0.0000000E+00  0.1953125E-02
   1       -6.096947
   2        5.077031
   3        5.513676
   4        5.513678
   5        8.256546
   6        8.335043
   7        8.335046
   8        9.212353
 
  0.1250000E+00  0.1387779E-16  0.0000000E+00  0.1953125E-02
   1       -5.947129
   2        4.033468
   3        5.318676
   4        5.318678
   5        8.107839
   6        8.625147
   7        8.625150
   8       10.185311
 
  0.1875000E+00  0.2775558E-16  0.0000000E+00  0.1953125E-02
   1       -5.700696
   2        2.883832
   3        5.084984
   4        5.084986
   5        7.869108
   6        8.941975
   7        8.941979
   8       11.295619
 
  0.2500000E+00  0.2775558E-16  0.0000000E+00  0.1953125E-02
   1       -5.364054
   2        1.755496
   3        4.863481
   4        4.863483
   5        7.626908
   6        9.141339
   7        9.141342
   8       12.386670
 
  0.3125000E+00  0.4163336E-16  0.0000000E+00  0.1953125E-02
   1       -4.950646
   2        0.704275
   3        4.679396
   4        4.679398
   5        7.419065
   6        9.173420
   7        9.173423
   8       13.277184
 
  0.3750000E+00  0.5551115E-16  0.0000000E+00  0.1953125E-02
   1       -4.491743
   2       -0.219485
   3        4.543969
   4        4.543971
   5        7.263249
   6        9.108551
   7        9.108553
   8       13.500512
 
  0.4375000E+00  0.2775558E-16  0.0000000E+00  0.1953125E-02
   1       -4.068895
   2       -0.924417
   3        4.461704
   4        4.461707
   5        7.167545
   6        9.035830
   7        9.035833
   8       13.416444
 
  0.5000000E+00  0.5551115E-16  0.0000000E+00  0.9765625E-03
   1       -3.874251
   2       -1.213554
   3        4.434172
   4        4.434174
   5        7.135338
   6        9.006478
   7        9.006481
   8       13.372476
 
  0.6250000E-01  0.6250000E-01  0.0000000E+00  0.1464844E-02
   1       -6.080158
   2        5.173715
   3        5.345936
   4        5.345936
   5        8.058783
   6        8.546265
   7        8.546265
   8        9.223417
 
  0.1250000E+00  0.6250000E-01  0.0000000E+00  0.5859375E-02
   1       -5.963383
   2        4.339448
   3        5.100895
   4        5.255431
   5        8.050355
   6        8.621676
   7        8.900091
   8        9.934063
 
  0.1875000E+00  0.6250000E-01  0.0000000E+00  0.5859375E-02
   1       -5.748811
   2        3.243289
   3        4.848478
   4        5.068641
   5        8.116739
   6        8.621516
   7        9.265975
   8       10.816931
 
  0.2500000E+00  0.6250000E-01  0.0000000E+00  0.5859375E-02
   1       -5.441420
   2        2.121964
   3        4.629113
   4        4.824241
   5        7.985206
   6        8.809474
   7        9.506821
   8       11.367899
 
  0.3125000E+00  0.6250000E-01  0.0000000E+00  0.5859375E-02
   1       -5.051565
   2        1.052534
   3        4.462467
   4        4.581073
   5        7.796435
   6        8.936282
   7        9.551550
   8       11.849677
 
  0.3750000E+00  0.6250000E-01  0.0000000E+00  0.5859375E-02
   1       -4.602441
   2        0.086714
   3        4.356987
   4        4.368550
   5        7.634384
   6        8.944474
   7        9.455382
   8       12.544908
 
  0.4375000E+00  0.6250000E-01  0.0000000E+00  0.5859375E-02
   1       -4.152502
   2       -0.702853
   3        4.201090
   4        4.315081
   5        7.522664
   6        8.921779
   7        9.317035
   8       13.260721
 
  0.5000000E+00  0.6250000E-01  0.0000000E+00  0.5859375E-02
   1       -3.853333
   2       -1.157538
   3        4.086785
   4        4.335646
   5        7.469955
   6        8.935379
   7        9.202684
   8       13.524576
 
 -0.4375000E+00  0.6250000E-01  0.0000000E+00  0.5859375E-02
   1       -3.921623
   2       -1.057827
   3        4.031185
   4        4.415393
   5        7.479296
   6        9.009853
   7        9.140665
   8       13.557105
 
 -0.3750000E+00  0.6250000E-01  0.0000000E+00  0.5859375E-02
   1       -4.296551
   2       -0.465106
   3        4.038519
   4        4.549329
   5        7.550658
   6        9.128507
   7        9.137824
   8       13.441595
 
 -0.3125000E+00  0.6250000E-01  0.0000000E+00  0.5859375E-02
   1       -4.756844
   2        0.395011
   3        4.111781
   4        4.730483
   5        7.681315
   6        9.129475
   7        9.277977
   8       12.904573
 
 -0.2500000E+00  0.6250000E-01  0.0000000E+00  0.5859375E-02
   1       -5.190110
   2        1.400617
   3        4.252312
   4        4.948083
   5        7.864379
   6        9.066572
   7        9.340335
   8       12.185660
 
 -0.1875000E+00  0.6250000E-01  0.0000000E+00  0.5859375E-02
   1       -5.554055
   2        2.489541
   3        4.459272
   4        5.183004
   5        8.084689
   6        8.867839
   7        9.204871
   8       11.478766
 
 -0.1250000E+00  0.6250000E-01  0.0000000E+00  0.5859375E-02
   1       -5.831214
   2        3.597526
   3        4.731720
   4        5.398652
   5        8.308730
   6        8.578735
   7        8.856262
   8       10.656207
 
 -0.6250000E-01  0.6250000E-01  0.0000000E+00  0.2929688E-02
   1       -6.013451
   2        4.567352
   3        5.096317
   4        5.531504
   5        8.354362
   6        8.439562
   7        8.465592
   8        9.771081
 
  0.1250000E+00  0.1250000E+00  0.0000000E+00  0.1464844E-02
   1       -5.879692
   2        4.268442
   3        4.825250
   4        4.825250
   5        7.677344
   6        9.311819
   7        9.311819
   8        9.885087
 
  0.1875000E+00  0.1250000E+00  0.0000000E+00  0.5859375E-02
   1       -5.697500
   2        3.456394
   3        4.555845
   4        4.638519
   5        7.633555
   6        9.370002
   7        9.744088
   8       10.271875
 
  0.2500000E+00  0.1250000E+00  0.0000000E+00  0.5859375E-02
   1       -5.420656
   2        2.431186
   3        4.328925
   4        4.394926
   5        7.799281
   6        9.282295
   7       10.063742
   8       10.386198
 
  0.3125000E+00  0.1250000E+00  0.0000000E+00  0.5859375E-02
   1       -5.057097
   2        1.393944
   3        4.102293
   4        4.162758
   5        7.904859
   6        9.281002
   7       10.169291
   8       10.538440
 
  0.3750000E+00  0.1250000E+00  0.0000000E+00  0.5859375E-02
   1       -4.624077
   2        0.420382
   3        3.818666
   4        4.065744
   5        7.883909
   6        9.246242
   7       10.085438
   8       11.083600
 
  0.4375000E+00  0.1250000E+00  0.0000000E+00  0.5859375E-02
   1       -4.163396
   2       -0.420837
   3        3.574379
   4        4.040628
   5        7.834792
   6        9.175953
   7        9.916274
   8       11.945258
 
  0.5000000E+00  0.1250000E+00  0.0000000E+00  0.5859375E-02
   1       -3.787493
   2       -1.003994
   3        3.385406
   4        4.086414
   5        7.822723
   6        9.137845
   7        9.744066
   8       12.947549
 
 -0.4375000E+00  0.1250000E+00  0.0000000E+00  0.5859375E-02
   1       -3.721095
   2       -1.098508
   3        3.261924
   4        4.199102
   5        7.868821
   6        9.162126
   7        9.609273
   8       13.797094
 
 -0.3750000E+00  0.1250000E+00  0.0000000E+00  0.5859375E-02
   1       -4.024047
   2       -0.644223
   3        3.211855
   4        4.371668
   5        7.973334
   6        9.252801
   7        9.519045
   8       13.472746
 
 -0.3125000E+00  0.1250000E+00  0.0000000E+00  0.5859375E-02
   1       -4.474992
   2        0.131879
   3        3.242865
   4        4.593127
   5        8.127295
   6        9.384841
   7        9.445804
   8       12.639094
 
 -0.2500000E+00  0.1250000E+00  0.0000000E+00  0.5859375E-02
   1       -4.923306
   2        1.063485
   3        3.365559
   4        4.846111
   5        8.316734
   6        9.318974
   7        9.471808
   8       11.858551
 
 -0.1875000E+00  0.1250000E+00  0.0000000E+00  0.5859375E-02
   1       -5.311774
   2        2.052155
   3        3.604677
   4        5.101473
   5        8.517335
   6        9.071417
   7        9.335143
   8       11.355622
 
 -0.1250000E+00  0.1250000E+00  0.0000000E+00  0.2929688E-02
   1       -5.617782
   2        2.958390
   3        4.037002
   4        5.309453
   5        8.635095
   6        8.767802
   7        8.961071
   8       11.079126
 
  0.1875000E+00  0.1875000E+00  0.0000000E+00  0.1464844E-02
   1       -5.547584
   2        3.215049
   3        4.271110
   4        4.271110
   5        7.227631
   6        9.673597
   7       10.267470
   8       10.267470
 
  0.2500000E+00  0.1875000E+00  0.0000000E+00  0.5859375E-02
   1       -5.301891
   2        2.491982
   3        4.001234
   4        4.030916
   5        7.199234
   6        9.344771
   7       10.545930
   8       10.706876
 
  0.3125000E+00  0.1875000E+00  0.0000000E+00  0.5859375E-02
   1       -4.966477
   2        1.601697
   3        3.655701
   4        3.854387
   5        7.390779
   6        9.296879
   7       10.483936
   8       10.928013
 
  0.3750000E+00  0.1875000E+00  0.0000000E+00  0.5859375E-02
   1       -4.554201
   2        0.693613
   3        3.287419
   4        3.750871
   5        7.516955
   6        9.701277
   7       10.327044
   8       10.905645
 
  0.4375000E+00  0.1875000E+00  0.0000000E+00  0.5859375E-02
   1       -4.094961
   2       -0.144814
   3        2.953930
   4        3.724061
   5        7.547843
   6       10.172129
   7       10.497591
   8       10.741936
 
  0.5000000E+00  0.1875000E+00  0.0000000E+00  0.5859375E-02
   1       -3.669204
   2       -0.804143
   3        2.683084
   4        3.773860
   5        7.588131
   6       10.055191
   7       10.540347
   8       11.525735
 
 -0.4375000E+00  0.1875000E+00  0.0000000E+00  0.5859375E-02
   1       -3.476632
   2       -1.071154
   3        2.490106
   4        3.896931
   5        7.690805
   6        9.989928
   7       10.356069
   8       12.685901
 
 -0.3750000E+00  0.1875000E+00  0.0000000E+00  0.5859375E-02
   1       -3.684640
   2       -0.776171
   3        2.387447
   4        4.086343
   5        7.866263
   6        9.979923
   7       10.203226
   8       13.467807
 
 -0.3125000E+00  0.1875000E+00  0.0000000E+00  0.5859375E-02
   1       -4.113718
   2       -0.109851
   3        2.391853
   4        4.330026
   5        8.102131
   6       10.009295
   7       10.053273
   8       12.474151
 
 -0.2500000E+00  0.1875000E+00  0.0000000E+00  0.5859375E-02
   1       -4.570955
   2        0.697010
   3        2.538707
   4        4.607633
   5        8.365128
   6        9.822662
   7        9.992925
   8       11.641009
 
 -0.1875000E+00  0.1875000E+00  0.0000000E+00  0.2929688E-02
   1       -4.979885
   2        1.468603
   3        2.913663
   4        4.884162
   5        8.579510
   6        9.453510
   7        9.709722
   8       11.273391
 
  0.2500000E+00  0.2500000E+00  0.0000000E+00  0.1464844E-02
   1       -5.087040
   2        2.119777
   3        3.775044
   4        3.775044
   5        6.816174
   6        8.800939
   7       11.315363
   8       11.315363
 
  0.3125000E+00  0.2500000E+00  0.0000000E+00  0.5859375E-02
   1       -4.780679
   2        1.472889
   3        3.464310
   4        3.582528
   5        6.830110
   6        8.483281
   7       11.586502
   8       11.727794
 
  0.3750000E+00  0.2500000E+00  0.0000000E+00  0.5859375E-02
   1       -4.392292
   2        0.730247
   3        3.019397
   4        3.464202
   5        7.032024
   6        8.563137
   7       11.538890
   8       11.837689
 
  0.4375000E+00  0.2500000E+00  0.0000000E+00  0.5859375E-02
   1       -3.943264
   2       -0.015981
   3        2.565052
   4        3.424910
   5        7.140347
   6        9.149763
   7       11.405900
   8       11.722728
 
  0.5000000E+00  0.2500000E+00  0.0000000E+00  0.5859375E-02
   1       -3.489937
   2       -0.671698
   3        2.178889
   4        3.465565
   5        7.206131
   6       10.073014
   7       11.284921
   8       11.517905
 
 -0.4375000E+00  0.2500000E+00  0.0000000E+00  0.5859375E-02
   1       -3.193340
   2       -1.054385
   3        1.894490
   4        3.583779
   5        7.323903
   6       10.961442
   7       11.301460
   8       11.422722
 
 -0.3750000E+00  0.2500000E+00  0.0000000E+00  0.5859375E-02
   1       -3.293421
   2       -0.920561
   3        1.734534
   4        3.773502
   5        7.520709
   6       11.024211
   7       11.091889
   8       12.526058
 
 -0.3125000E+00  0.2500000E+00  0.0000000E+00  0.5859375E-02
   1       -3.689396
   2       -0.396284
   3        1.735420
   4        4.023411
   5        7.790712
   6       10.836811
   7       10.973821
   8       12.402331
 
 -0.2500000E+00  0.2500000E+00  0.0000000E+00  0.2929688E-02
   1       -4.147942
   2        0.208525
   3        1.974369
   4        4.313335
   5        8.101920
   6       10.404915
   7       10.694354
   8       11.701660
 
  0.3125000E+00  0.3125000E+00  0.0000000E+00  0.1464844E-02
   1       -4.502874
   2        1.019452
   3        3.371583
   4        3.371583
   5        6.501443
   6        7.941161
   7       12.417387
   8       12.417387
 
  0.3750000E+00  0.3125000E+00  0.0000000E+00  0.5859375E-02
   1       -4.139958
   2        0.429838
   3        3.057147
   4        3.234277
   5        6.569390
   6        7.720851
   7       12.709448
   8       12.786533
 
  0.4375000E+00  0.3125000E+00  0.0000000E+00  0.5859375E-02
   1       -3.707103
   2       -0.188529
   3        2.555778
   4        3.176743
   5        6.762088
   6        7.991720
   7       12.680501
   8       12.798699
 
  0.5000000E+00  0.3125000E+00  0.0000000E+00  0.5859375E-02
   1       -3.242985
   2       -0.769718
   3        2.046072
   4        3.200929
   5        6.859730
   6        8.775147
   7       12.560349
   8       12.624623
 
 -0.4375000E+00  0.3125000E+00  0.0000000E+00  0.5859375E-02
   1       -2.871009
   2       -1.186829
   3        1.638928
   4        3.305474
   5        6.978815
   6        9.833216
   7       12.387544
   8       12.439556
 
 -0.3750000E+00  0.3125000E+00  0.0000000E+00  0.5859375E-02
   1       -2.875209
   2       -1.170971
   3        1.400791
   4        3.485418
   5        7.176677
   6       11.014751
   7       12.098610
   8       12.363612
 
 -0.3125000E+00  0.3125000E+00  0.0000000E+00  0.2929688E-02
   1       -3.239309
   2       -0.789080
   3        1.404032
   4        3.730817
   5        7.455863
   6       11.608503
   7       11.762620
   8       12.589901
 
  0.3750000E+00  0.3750000E+00  0.0000000E+00  0.1464844E-02
   1       -3.801872
   2       -0.063196
   3        3.076171
   4        3.076171
   5        6.316687
   6        7.242584
   7       13.557306
   8       13.557306
 
  0.4375000E+00  0.3750000E+00  0.0000000E+00  0.5859375E-02
   1       -3.388352
   2       -0.605102
   3        2.785206
   4        2.997497
   5        6.439754
   6        7.145996
   7       13.868263
   8       13.877798
 
  0.5000000E+00  0.3750000E+00  0.0000000E+00  0.5859375E-02
   1       -2.925149
   2       -1.125573
   3        2.280726
   4        3.001288
   5        6.596831
   6        7.641683
   7       13.808140
   8       13.855915
 
 -0.4375000E+00  0.3750000E+00  0.0000000E+00  0.5859375E-02
   1       -2.507632
   2       -1.534925
   3        1.782509
   4        3.087178
   5        6.711765
   6        8.591075
   7       13.550974
   8       13.745823
 
 -0.3750000E+00  0.3750000E+00  0.0000000E+00  0.2929688E-02
   1       -2.503434
   2       -1.509331
   3        1.445652
   4        3.251342
   5        6.900288
   6        9.754054
   7       13.032928
   8       13.523218
 
  0.4375000E+00  0.4375000E+00  0.0000000E+00  0.1464844E-02
   1       -2.993350
   2       -1.106618
   3        2.896475
   4        2.896475
   5        6.283564
   6        6.734946
   7       14.715368
   8       14.715368
 
  0.5000000E+00  0.4375000E+00  0.0000000E+00  0.5859375E-02
   1       -2.537898
   2       -1.602041
   3        2.649210
   4        2.877887
   5        6.436991
   6        6.792312
   7       14.953593
   8       15.021255
 
 -0.4375000E+00  0.4375000E+00  0.0000000E+00  0.2929688E-02
   1       -2.161194
   2       -1.944256
   3        2.190103
   4        2.942356
   5        6.541477
   6        7.524169
   7       14.576464
   8       14.926238
 
  0.5000000E+00  0.5000000E+00  0.0000000E+00  0.7324219E-03
   1       -2.089675
   2       -2.089675
   3        2.836209
   4        2.836209
   5        6.418489
   6        6.418489
   7       15.583069
   8       15.583069
 
  0.1875000E+00  0.1250000E+00  0.6250000E-01  0.5859375E-02
   1       -5.814023
   2        3.734747
   3        4.570976
   4        5.185497
   5        8.029075
   6        8.866632
   7        9.187447
   8       10.452549
 
  0.2500000E+00  0.1250000E+00  0.6250000E-01  0.1171875E-01
   1       -5.568291
   2        2.790688
   3        4.166851
   4        5.030647
   5        8.187471
   6        8.861091
   7        9.558793
   8       10.794727
 
  0.3125000E+00  0.1250000E+00  0.6250000E-01  0.1171875E-01
   1       -5.232505
   2        1.745196
   3        3.900487
   4        4.802209
   5        8.223244
   6        8.920331
   7        9.791015
   8       11.000558
 
  0.3750000E+00  0.1250000E+00  0.6250000E-01  0.1171875E-01
   1       -4.819862
   2        0.734374
   3        3.719109
   4        4.568136
   5        8.115016
   6        8.971042
   7        9.808873
   8       11.484129
 
  0.4375000E+00  0.1250000E+00  0.6250000E-01  0.1171875E-01
   1       -4.361051
   2       -0.168336
   3        3.605595
   4        4.370663
   5        7.997004
   6        8.928161
   7        9.722693
   8       12.264105
 
  0.5000000E+00  0.1250000E+00  0.6250000E-01  0.1171875E-01
   1       -3.936777
   2       -0.864208
   3        3.546811
   4        4.237958
   5        7.917535
   6        8.867430
   7        9.635327
   8       13.169269
 
 -0.4375000E+00  0.1250000E+00  0.6250000E-01  0.5859375E-02
   1       -3.740473
   2       -1.151795
   3        3.529381
   4        4.190827
   5        7.890089
   6        8.842213
   7        9.600879
   8       13.719155
 
  0.2500000E+00  0.1875000E+00  0.6250000E-01  0.5859375E-02
   1       -5.483785
   2        2.835524
   3        4.013499
   4        4.559430
   5        7.596335
   6        9.515997
   7       10.170363
   8       10.207224
 
  0.3125000E+00  0.1875000E+00  0.6250000E-01  0.1171875E-01
   1       -5.177677
   2        1.973201
   3        3.605929
   4        4.383441
   5        7.796110
   6        9.490979
   7       10.084970
   8       10.530983
 
  0.3750000E+00  0.1875000E+00  0.6250000E-01  0.1171875E-01
   1       -4.789204
   2        1.033685
   3        3.326033
   4        4.162398
   5        7.954870
   6        9.535958
   7       10.146938
   8       10.671690
 
  0.4375000E+00  0.1875000E+00  0.6250000E-01  0.1171875E-01
   1       -4.340672
   2        0.137066
   3        3.117760
   4        3.980076
   5        7.990991
   6        9.404123
   7       10.574979
   8       10.829629
 
  0.5000000E+00  0.1875000E+00  0.6250000E-01  0.1171875E-01
   1       -3.889157
   2       -0.617216
   3        2.954807
   4        3.883317
   5        8.005256
   6        9.231738
   7       10.501835
   8       11.750480
 
 -0.4375000E+00  0.1875000E+00  0.6250000E-01  0.1171875E-01
   1       -3.587165
   2       -1.058345
   3        2.832732
   4        3.887998
   5        8.062465
   6        9.098134
   7       10.416758
   8       12.846200
 
 -0.3750000E+00  0.1875000E+00  0.6250000E-01  0.1171875E-01
   1       -3.659779
   2       -0.954880
   3        2.762462
   4        3.988212
   5        8.178122
   6        9.024762
   7       10.372197
   8       13.130267
 
 -0.3125000E+00  0.1875000E+00  0.6250000E-01  0.1171875E-01
   1       -4.040025
   2       -0.376351
   3        2.760912
   4        4.167578
   5        8.341509
   6        9.011750
   7       10.362978
   8       12.097559
 
 -0.2500000E+00  0.1875000E+00  0.6250000E-01  0.1171875E-01
   1       -4.500726
   2        0.435680
   3        2.848461
   4        4.403865
   5        8.523290
   6        9.018994
   7       10.343909
   8       11.243696
 
 -0.1875000E+00  0.1875000E+00  0.6250000E-01  0.1171875E-01
   1       -4.932006
   2        1.331154
   3        3.059801
   4        4.665274
   5        8.646759
   6        8.955110
   7       10.234320
   8       10.716590
 
 -0.1250000E+00  0.1875000E+00  0.6250000E-01  0.5859375E-02
   1       -5.293433
   2        2.166625
   3        3.474886
   4        4.900283
   5        8.463593
   6        8.946989
   7        9.920152
   8       10.635814
 
  0.3125000E+00  0.2500000E+00  0.6250000E-01  0.5859375E-02
   1       -5.026213
   2        1.885748
   3        3.518376
   4        3.932337
   5        7.195003
   6        9.017387
   7       10.731266
   8       11.248881
 
  0.3750000E+00  0.2500000E+00  0.6250000E-01  0.1171875E-01
   1       -4.664348
   2        1.132029
   3        3.104988
   4        3.743510
   5        7.426734
   6        8.993582
   7       10.618090
   8       11.591024
 
  0.4375000E+00  0.2500000E+00  0.6250000E-01  0.1171875E-01
   1       -4.232492
   2        0.332967
   3        2.753621
   4        3.578710
   5        7.583964
   6        9.449963
   7       10.414976
   8       11.651616
 
  0.5000000E+00  0.2500000E+00  0.6250000E-01  0.1171875E-01
   1       -3.770714
   2       -0.407890
   3        2.454011
   4        3.506263
   5        7.649519
   6       10.125446
   7       10.378461
   8       11.570934
 
 -0.4375000E+00  0.2500000E+00  0.6250000E-01  0.1171875E-01
   1       -3.391435
   2       -0.941695
   3        2.217692
   4        3.536785
   5        7.737877
   6        9.980980
   7       11.385744
   8       11.486030
 
 -0.3750000E+00  0.2500000E+00  0.6250000E-01  0.1171875E-01
   1       -3.333637
   2       -1.014457
   3        2.063583
   4        3.660928
   5        7.894243
   6        9.834461
   7       11.362476
   8       12.595980
 
 -0.3125000E+00  0.2500000E+00  0.6250000E-01  0.1171875E-01
   1       -3.651495
   2       -0.575978
   3        2.015009
   4        3.863726
   5        8.122233
   6        9.723549
   7       11.271624
   8       12.030817
 
 -0.2500000E+00  0.2500000E+00  0.6250000E-01  0.1171875E-01
   1       -4.105188
   2        0.101539
   3        2.111494
   4        4.124501
   5        8.402392
   6        9.585128
   7       11.019849
   8       11.260823
 
 -0.1875000E+00  0.2500000E+00  0.6250000E-01  0.5859375E-02
   1       -4.549399
   2        0.788407
   3        2.432887
   4        4.410483
   5        8.683648
   6        9.243266
   7       10.652157
   8       10.824812
 
  0.3750000E+00  0.3125000E+00  0.6250000E-01  0.5859375E-02
   1       -4.446636
   2        0.894474
   3        3.121812
   4        3.408198
   5        6.883119
   6        8.200147
   7       11.703480
   8       12.380514
 
  0.4375000E+00  0.3125000E+00  0.6250000E-01  0.1171875E-01
   1       -4.035880
   2        0.249054
   3        2.690919
   4        3.241878
   5        7.138795
   6        8.316859
   7       11.555933
   8       12.713468
 
  0.5000000E+00  0.3125000E+00  0.6250000E-01  0.1171875E-01
   1       -3.576194
   2       -0.395422
   3        2.241797
   4        3.174361
   5        7.274654
   6        8.971909
   7       11.341806
   8       12.735019
 
 -0.4375000E+00  0.3125000E+00  0.6250000E-01  0.1171875E-01
   1       -3.146999
   2       -0.935032
   3        1.863179
   4        3.210730
   5        7.374860
   6        9.950939
   7       11.142114
   8       12.636394
 
 -0.3750000E+00  0.3125000E+00  0.6250000E-01  0.1171875E-01
   1       -2.970469
   2       -1.136421
   3        1.606639
   4        3.340017
   5        7.535676
   6       10.771254
   7       11.296999
   8       12.498785
 
 -0.3125000E+00  0.3125000E+00  0.6250000E-01  0.1171875E-01
   1       -3.217801
   2       -0.842031
   3        1.515148
   4        3.549552
   5        7.774940
   6       10.677003
   7       11.989419
   8       12.235833
 
 -0.2500000E+00  0.3125000E+00  0.6250000E-01  0.5859375E-02
   1       -3.656863
   2       -0.341364
   3        1.657072
   4        3.821247
   5        8.079584
   6       10.307945
   7       11.270420
   8       11.934223
 
  0.4375000E+00  0.3750000E+00  0.6250000E-01  0.5859375E-02
   1       -3.752691
   2       -0.115754
   3        2.840694
   4        3.018532
   5        6.693946
   6        7.534950
   7       12.739678
   8       13.545404
 
  0.5000000E+00  0.3750000E+00  0.6250000E-01  0.1171875E-01
   1       -3.303684
   2       -0.668295
   3        2.392719
   4        2.916343
   5        6.952552
   6        7.836567
   7       12.563072
   8       13.870446
 
 -0.4375000E+00  0.3750000E+00  0.6250000E-01  0.1171875E-01
   1       -2.846950
   2       -1.164706
   3        1.896687
   4        2.945662
   5        7.074656
   6        8.689265
   7       12.340276
   8       13.840130
 
 -0.3750000E+00  0.3750000E+00  0.6250000E-01  0.1171875E-01
   1       -2.583837
   2       -1.420367
   3        1.519086
   4        3.069469
   5        7.228876
   6        9.796991
   7       12.117116
   8       13.265817
 
 -0.3125000E+00  0.3750000E+00  0.6250000E-01  0.5859375E-02
   1       -2.794603
   2       -1.200705
   3        1.360166
   4        3.275849
   5        7.464411
   6       10.972133
   7       11.799630
   8       12.305289
 
  0.5000000E+00  0.4375000E+00  0.6250000E-01  0.5859375E-02
   1       -2.955129
   2       -1.113761
   3        2.684471
   4        2.769395
   5        6.649257
   6        7.057272
   7       13.822975
   8       14.709236
 
 -0.4375000E+00  0.4375000E+00  0.6250000E-01  0.1171875E-01
   1       -2.487145
   2       -1.584774
   3        2.237292
   4        2.759005
   5        6.866568
   6        7.585792
   7       13.628833
   8       14.660829
 
 -0.3750000E+00  0.4375000E+00  0.6250000E-01  0.5859375E-02
   1       -2.247847
   2       -1.778523
   3        1.777543
   4        2.871645
   5        7.005794
   6        8.596292
   7       13.263979
   8       13.589977
 
 -0.4375000E+00  0.5000000E+00  0.6250000E-01  0.2929688E-02
   1       -2.068823
   2       -2.068822
   3        2.659208
   4        2.659209
   5        6.765673
   6        6.765673
   7       14.905802
   8       14.905807
 
  0.3750000E+00  0.2500000E+00  0.1250000E+00  0.5859375E-02
   1       -4.845327
   2        1.374083
   3        2.983491
   4        4.219120
   5        8.094228
   6        9.491120
   7        9.845297
   8       11.068609
 
  0.4375000E+00  0.2500000E+00  0.1250000E+00  0.1171875E-01
   1       -4.435967
   2        0.631017
   3        2.594355
   4        3.971765
   5        8.390575
   6        9.435617
   7        9.914265
   8       11.411786
 
  0.5000000E+00  0.2500000E+00  0.1250000E+00  0.1171875E-01
   1       -3.978153
   2       -0.138019
   3        2.383816
   4        3.737522
   5        8.516745
   6        9.179248
   7       10.628566
   8       11.507705
 
 -0.4375000E+00  0.2500000E+00  0.1250000E+00  0.1171875E-01
   1       -3.548813
   2       -0.777408
   3        2.282759
   4        3.574772
   5        8.597734
   6        8.938578
   7       11.473304
   8       11.671605
 
 -0.3750000E+00  0.2500000E+00  0.1250000E+00  0.5859375E-02
   1       -3.345909
   2       -1.053565
   3        2.253161
   4        3.516667
   5        8.678980
   6        8.794930
   7       11.483958
   8       12.691440
 
  0.4375000E+00  0.3125000E+00  0.1250000E+00  0.5859375E-02
   1       -4.280405
   2        0.564826
   3        2.602133
   4        3.520598
   5        7.797729
   6        8.916994
   7       10.433629
   8       12.274971
 
  0.5000000E+00  0.3125000E+00  0.1250000E+00  0.1171875E-01
   1       -3.834771
   2       -0.072584
   3        2.234928
   4        3.281549
   5        8.106436
   6        9.311276
   7       10.184069
   8       12.626451
 
 -0.4375000E+00  0.3125000E+00  0.1250000E+00  0.1171875E-01
   1       -3.379735
   2       -0.682599
   3        1.981426
   4        3.129525
   5        8.237970
   6        9.821677
   7       10.303588
   8       12.697995
 
 -0.3750000E+00  0.3125000E+00  0.1250000E+00  0.1171875E-01
   1       -3.069575
   2       -1.067796
   3        1.817779
   4        3.105017
   5        8.375124
   6        9.647413
   7       11.371482
   8       12.661346
 
 -0.3125000E+00  0.3125000E+00  0.1250000E+00  0.1171875E-01
   1       -3.157369
   2       -0.958073
   3        1.750080
   4        3.207003
   5        8.576129
   6        9.479291
   7       11.620109
   8       12.572597
 
 -0.2500000E+00  0.3125000E+00  0.1250000E+00  0.1171875E-01
   1       -3.552578
   2       -0.460274
   3        1.814401
   4        3.413264
   5        8.842785
   6        9.320900
   7       10.600839
   8       12.495149
 
 -0.1875000E+00  0.3125000E+00  0.1250000E+00  0.5859375E-02
   1       -4.012118
   2        0.125619
   3        2.075768
   4        3.687936
   5        8.979856
   6        9.151864
   7        9.978139
   8       12.117590
 
  0.5000000E+00  0.3750000E+00  0.1250000E+00  0.5859375E-02
   1       -3.609135
   2       -0.277739
   3        2.351334
   4        2.937316
   5        7.609530
   6        8.316379
   7       11.324596
   8       13.508993
 