 vasp.5.3.3 18Dez12 (build Jan 30 2013 10:57:47) complex                        
  
 executed on             LinuxIFC date 2016.06.21  13:51:33
 running on   16 total cores
 distrk:  each k-point on   16 cores,    1 groups
 distr:  one band on NCORES_PER_BAND=   4 cores,    4 groups


--------------------------------------------------------------------------------------------------------


 INCAR:
 POTCAR:    PAW_PBE Si 05Jan2001                  

 ----------------------------------------------------------------------------- 
|                                                                             |
|  ADVICE TO THIS USER RUNNING 'VASP/VAMP'   (HEAR YOUR MASTER'S VOICE ...):  |
|                                                                             |
|      You have switched on vdW-DFT.                                          |
|      This routine was written and supplied by Jiri Klimes.                  |
|      We recommed that you carefully read and cite the following             |
|      publication                                                            |
|      J. Klimes, D.R. Bowler, A. Michelides                                  |
|        J. Phys.: Cond Matt. 22 022201 (2010)                                |
|      J. Klimes, D.R. Bowler, A. Michelides                                  |
|        Phys. Rev. B. 83, 195131 (2011)                                      |
|      and references therein.                                                |
|                                                                             |
 ----------------------------------------------------------------------------- 

 POTCAR:    PAW_PBE Si 05Jan2001                  
   VRHFIN =Si: s2p2                                                             
   LEXCH  = PE                                                                  
   EATOM  =   103.0669 eV,    7.5752 Ry                                         
                                                                                
   TITEL  = PAW_PBE Si 05Jan2001                                                
   LULTRA =        F    use ultrasoft PP ?                                      
   IUNSCR =        1    unscreen: 0-lin 1-nonlin 2-no                           
   RPACOR =    1.500    partial core radius                                     
   POMASS =   28.085; ZVAL   =    4.000    mass and valenz                      
   RCORE  =    1.900    outmost cutoff radius                                   
   RWIGS  =    2.480; RWIGS  =    1.312    wigner-seitz radius (au A)           
   ENMAX  =  245.345; ENMIN  =  184.009 eV                                      
   ICORE  =        2    local potential                                         
   LCOR   =        T    correct aug charges                                     
   LPAW   =        T    paw PP                                                  
   EAUG   =  322.069                                                            
   DEXC   =    0.000                                                            
   RMAX   =    1.950    core radius for proj-oper                               
   RAUG   =    1.300    factor for augmentation sphere                          
   RDEP   =    1.993    radius for radial grids                                 
   RDEPT  =    1.837    core radius for aug-charge                              
                                                                                
   Atomic configuration                                                         
    6 entries                                                                   
     n  l   j            E        occ.                                          
     1  0  0.50     -1785.8828   2.0000                                         
     2  0  0.50      -139.4969   2.0000                                         
     2  1  1.50       -95.5546   6.0000                                         
     3  0  0.50       -10.8127   2.0000                                         
     3  1  0.50        -4.0811   2.0000                                         
     3  2  1.50        -4.0817   0.0000                                         
   Description                                                                  
     l       E           TYP  RCUT    TYP  RCUT                                 
     0    -10.8127223     23  1.900                                             
     0     -7.6451159     23  1.900                                             
     1     -4.0811372     23  1.900                                             
     1      2.4879257     23  1.900                                             
     2     -4.0817478      7  1.900                                             
  local pseudopotential read in
  partial core-charges read in
  partial kinetic energy density read in
  atomic valenz-charges read in
  non local Contribution for L=           0  read in
    real space projection operators read in
  non local Contribution for L=           0  read in
    real space projection operators read in
  non local Contribution for L=           1  read in
    real space projection operators read in
  non local Contribution for L=           1  read in
    real space projection operators read in
    PAW grid and wavefunctions read in
 
   number of l-projection  operators is LMAX  =           4
   number of lm-projection operators is LMMAX =           8
 

 ----------------------------------------------------------------------------- 
|                                                                             |
|  ADVICE TO THIS USER RUNNING 'VASP/VAMP'   (HEAR YOUR MASTER'S VOICE ...):  |
|                                                                             |
|      You enforced a specific xc-type in the INCAR file,                     |
|      a different type was found on the POTCAR file                          |
|          I HOPE YOU KNOW, WHAT YOU ARE  DOING                               |
|                                                                             |
 ----------------------------------------------------------------------------- 

  PAW_PBE Si 05Jan2001                  :
 energy of atom  1       EATOM= -103.0669
 kinetic energy error for atom=    0.0004 (will be added to EATOM!!)
 
 
 POSCAR: bulk@mp_149                             
  positions in direct lattice
  No initial velocities read in
 exchange correlation table for  LEXCH =       42
   RHO(1)=    0.500       N(1)  =     2000
   RHO(2)=  100.500       N(2)  =     4000
 


--------------------------------------------------------------------------------------------------------


 ion  position               nearest neighbor table
   1  0.875  0.875  0.875-   2 2.37   2 2.37   2 2.37   2 2.37
   2  0.125  0.125  0.125-   1 2.37   1 2.37   1 2.37   1 2.37
 
  LATTYP: Found a face centered cubic cell.
 ALAT       =     5.4687284904
  
  Lattice vectors:
  
 A1 = (   3.3488980000,   0.0000000000,   1.9334870000)
 A2 = (   1.1162990000,   3.1573720000,   1.9334870000)
 A3 = (   0.0000000000,   0.0000000000,   3.8669750000)


Analysis of symmetry for initial positions (statically):
=====================================================================
 Subroutine PRICEL returns:
 Original cell was already a primitive cell.
 

 Routine SETGRP: Setting up the symmetry group for a 
 face centered cubic supercell.


 Subroutine GETGRP returns: Found 48 space group operations
 (whereof 12 operations were pure point group operations)
 out of a pool of 48 trial point group operations.


The static configuration has the point symmetry D_3d.
 The point group associated with its full space group is O_h .


Analysis of symmetry for dynamics (positions and initial velocities):
=====================================================================
 Subroutine PRICEL returns:
 Original cell was already a primitive cell.
 

 Routine SETGRP: Setting up the symmetry group for a 
 face centered cubic supercell.


 Subroutine GETGRP returns: Found 48 space group operations
 (whereof 12 operations were pure point group operations)
 out of a pool of 48 trial point group operations.


The dynamic configuration has the point symmetry D_3d.
 The point group associated with its full space group is O_h .


 irot  :   1
 --------------------------------------------------------------------
 isymop:   1   0   0
           0   1   0
           0   0   1

 gtrans:     0.0000000     0.0000000     0.0000000

 ptrans:     0.0000000     0.0000000     0.0000000
 rotmap:
 (   1->   1)  (   2->   2) 


 irot  :   2
 --------------------------------------------------------------------
 isymop:  -1   0   0
           0  -1   0
           0   0  -1

 gtrans:     0.0000000     0.0000000     0.0000000

 ptrans:     0.0000000     0.0000000     0.0000000
 rotmap:
 (   1->   2)  (   2->   1) 


 irot  :   3
 --------------------------------------------------------------------
 isymop:   0   0   1
           1   0   0
           0   1   0

 gtrans:     0.0000000     0.0000000     0.0000000

 ptrans:     0.0000000     0.0000000     0.0000000
 rotmap:
 (   1->   1)  (   2->   2) 


 irot  :   4
 --------------------------------------------------------------------
 isymop:   0   0  -1
          -1   0   0
           0  -1   0

 gtrans:     0.0000000     0.0000000     0.0000000

 ptrans:     0.0000000     0.0000000     0.0000000
 rotmap:
 (   1->   2)  (   2->   1) 


 irot  :   5
 --------------------------------------------------------------------
 isymop:   0   1   0
           0   0   1
           1   0   0

 gtrans:     0.0000000     0.0000000     0.0000000

 ptrans:     0.0000000     0.0000000     0.0000000
 rotmap:
 (   1->   1)  (   2->   2) 


 irot  :   6
 --------------------------------------------------------------------
 isymop:   0  -1   0
           0   0  -1
          -1   0   0

 gtrans:     0.0000000     0.0000000     0.0000000

 ptrans:     0.0000000     0.0000000     0.0000000
 rotmap:
 (   1->   2)  (   2->   1) 


 irot  :   7
 --------------------------------------------------------------------
 isymop:  -1   0   0
           0   0  -1
           0  -1   0

 gtrans:     0.0000000     0.0000000     0.0000000

 ptrans:     0.0000000     0.0000000     0.0000000
 rotmap:
 (   1->   2)  (   2->   1) 


 irot  :   8
 --------------------------------------------------------------------
 isymop:   1   0   0
           0   0   1
           0   1   0

 gtrans:     0.0000000     0.0000000     0.0000000

 ptrans:     0.0000000     0.0000000     0.0000000
 rotmap:
 (   1->   1)  (   2->   2) 


 irot  :   9
 --------------------------------------------------------------------
 isymop:   0  -1   0
          -1   0   0
           0   0  -1

 gtrans:     0.0000000     0.0000000     0.0000000

 ptrans:     0.0000000     0.0000000     0.0000000
 rotmap:
 (   1->   2)  (   2->   1) 


 irot  :  10
 --------------------------------------------------------------------
 isymop:   0   1   0
           1   0   0
           0   0   1

 gtrans:     0.0000000     0.0000000     0.0000000

 ptrans:     0.0000000     0.0000000     0.0000000
 rotmap:
 (   1->   1)  (   2->   2) 


 irot  :  11
 --------------------------------------------------------------------
 isymop:   0   0  -1
           0  -1   0
          -1   0   0

 gtrans:     0.0000000     0.0000000     0.0000000

 ptrans:     0.0000000     0.0000000     0.0000000
 rotmap:
 (   1->   2)  (   2->   1) 


 irot  :  12
 --------------------------------------------------------------------
 isymop:   0   0   1
           0   1   0
           1   0   0

 gtrans:     0.0000000     0.0000000     0.0000000

 ptrans:     0.0000000     0.0000000     0.0000000
 rotmap:
 (   1->   1)  (   2->   2) 


 irot  :  13
 --------------------------------------------------------------------
 isymop:   1   1   1
           0   0  -1
          -1   0   0

 gtrans:     0.5000000     0.0000000     0.0000000

 ptrans:     0.0000000     0.0000000     0.0000000
 rotmap:
 (   1->   2)  (   2->   1) 


 irot  :  14
 --------------------------------------------------------------------
 isymop:  -1  -1  -1
           0   0   1
           1   0   0

 gtrans:     0.5000000     0.0000000     0.0000000

 ptrans:     0.0000000     0.0000000     0.0000000
 rotmap:
 (   1->   1)  (   2->   2) 


 irot  :  15
 --------------------------------------------------------------------
 isymop:   1   1   1
           0  -1   0
           0   0  -1

 gtrans:     0.5000000     0.0000000     0.0000000

 ptrans:     0.0000000     0.0000000     0.0000000
 rotmap:
 (   1->   2)  (   2->   1) 


 irot  :  16
 --------------------------------------------------------------------
 isymop:  -1  -1  -1
           0   1   0
           0   0   1

 gtrans:     0.5000000     0.0000000     0.0000000

 ptrans:     0.0000000     0.0000000     0.0000000
 rotmap:
 (   1->   1)  (   2->   2) 


 irot  :  17
 --------------------------------------------------------------------
 isymop:   1   1   1
          -1   0   0
           0  -1   0

 gtrans:     0.5000000     0.0000000     0.0000000

 ptrans:     0.0000000     0.0000000     0.0000000
 rotmap:
 (   1->   2)  (   2->   1) 


 irot  :  18
 --------------------------------------------------------------------
 isymop:  -1  -1  -1
           1   0   0
           0   1   0

 gtrans:     0.5000000     0.0000000     0.0000000

 ptrans:     0.0000000     0.0000000     0.0000000
 rotmap:
 (   1->   1)  (   2->   2) 


 irot  :  19
 --------------------------------------------------------------------
 isymop:   0   1   0
           1   0   0
          -1  -1  -1

 gtrans:     0.0000000     0.0000000     0.5000000

 ptrans:     0.0000000     0.0000000     0.0000000
 rotmap:
 (   1->   1)  (   2->   2) 


 irot  :  20
 --------------------------------------------------------------------
 isymop:   0  -1   0
          -1   0   0
           1   1   1

 gtrans:     0.0000000     0.0000000     0.5000000

 ptrans:     0.0000000     0.0000000     0.0000000
 rotmap:
 (   1->   2)  (   2->   1) 


 irot  :  21
 --------------------------------------------------------------------
 isymop:   1   0   0
           0   0   1
          -1  -1  -1

 gtrans:     0.0000000     0.0000000     0.5000000

 ptrans:     0.0000000     0.0000000     0.0000000
 rotmap:
 (   1->   1)  (   2->   2) 


 irot  :  22
 --------------------------------------------------------------------
 isymop:  -1   0   0
           0   0  -1
           1   1   1

 gtrans:     0.0000000     0.0000000     0.5000000

 ptrans:     0.0000000     0.0000000     0.0000000
 rotmap:
 (   1->   2)  (   2->   1) 


 irot  :  23
 --------------------------------------------------------------------
 isymop:   0   0   1
           0   1   0
          -1  -1  -1

 gtrans:     0.0000000     0.0000000     0.5000000

 ptrans:     0.0000000     0.0000000     0.0000000
 rotmap:
 (   1->   1)  (   2->   2) 


 irot  :  24
 --------------------------------------------------------------------
 isymop:   0   0  -1
           0  -1   0
           1   1   1

 gtrans:     0.0000000     0.0000000     0.5000000

 ptrans:     0.0000000     0.0000000     0.0000000
 rotmap:
 (   1->   2)  (   2->   1) 


 irot  :  25
 --------------------------------------------------------------------
 isymop:   0   0  -1
           1   1   1
           0  -1   0

 gtrans:     0.0000000     0.5000000     0.0000000

 ptrans:     0.0000000     0.0000000     0.0000000
 rotmap:
 (   1->   2)  (   2->   1) 


 irot  :  26
 --------------------------------------------------------------------
 isymop:   0   0   1
          -1  -1  -1
           0   1   0

 gtrans:     0.0000000     0.5000000     0.0000000

 ptrans:     0.0000000     0.0000000     0.0000000
 rotmap:
 (   1->   1)  (   2->   2) 


 irot  :  27
 --------------------------------------------------------------------
 isymop:   0  -1   0
           1   1   1
          -1   0   0

 gtrans:     0.0000000     0.5000000     0.0000000

 ptrans:     0.0000000     0.0000000     0.0000000
 rotmap:
 (   1->   2)  (   2->   1) 


 irot  :  28
 --------------------------------------------------------------------
 isymop:   0   1   0
          -1  -1  -1
           1   0   0

 gtrans:     0.0000000     0.5000000     0.0000000

 ptrans:     0.0000000     0.0000000     0.0000000
 rotmap:
 (   1->   1)  (   2->   2) 


 irot  :  29
 --------------------------------------------------------------------
 isymop:  -1   0   0
           1   1   1
           0   0  -1

 gtrans:     0.0000000     0.5000000     0.0000000

 ptrans:     0.0000000     0.0000000     0.0000000
 rotmap:
 (   1->   2)  (   2->   1) 


 irot  :  30
 --------------------------------------------------------------------
 isymop:   1   0   0
          -1  -1  -1
           0   0   1

 gtrans:     0.0000000     0.5000000     0.0000000

 ptrans:     0.0000000     0.0000000     0.0000000
 rotmap:
 (   1->   1)  (   2->   2) 


 irot  :  31
 --------------------------------------------------------------------
 isymop:  -1  -1  -1
           0   1   0
           1   0   0

 gtrans:     0.5000000     0.0000000     0.0000000

 ptrans:     0.0000000     0.0000000     0.0000000
 rotmap:
 (   1->   1)  (   2->   2) 


 irot  :  32
 --------------------------------------------------------------------
 isymop:   1   1   1
           0  -1   0
          -1   0   0

 gtrans:     0.5000000     0.0000000     0.0000000

 ptrans:     0.0000000     0.0000000     0.0000000
 rotmap:
 (   1->   2)  (   2->   1) 


 irot  :  33
 --------------------------------------------------------------------
 isymop:  -1  -1  -1
           1   0   0
           0   0   1

 gtrans:     0.5000000     0.0000000     0.0000000

 ptrans:     0.0000000     0.0000000     0.0000000
 rotmap:
 (   1->   1)  (   2->   2) 


 irot  :  34
 --------------------------------------------------------------------
 isymop:   1   1   1
          -1   0   0
           0   0  -1

 gtrans:     0.5000000     0.0000000     0.0000000

 ptrans:     0.0000000     0.0000000     0.0000000
 rotmap:
 (   1->   2)  (   2->   1) 


 irot  :  35
 --------------------------------------------------------------------
 isymop:  -1  -1  -1
           0   0   1
           0   1   0

 gtrans:     0.5000000     0.0000000     0.0000000

 ptrans:     0.0000000     0.0000000     0.0000000
 rotmap:
 (   1->   1)  (   2->   2) 


 irot  :  36
 --------------------------------------------------------------------
 isymop:   1   1   1
           0   0  -1
           0  -1   0

 gtrans:     0.5000000     0.0000000     0.0000000

 ptrans:     0.0000000     0.0000000     0.0000000
 rotmap:
 (   1->   2)  (   2->   1) 


 irot  :  37
 --------------------------------------------------------------------
 isymop:   0  -1   0
           0   0  -1
           1   1   1

 gtrans:     0.0000000     0.0000000     0.5000000

 ptrans:     0.0000000     0.0000000     0.0000000
 rotmap:
 (   1->   2)  (   2->   1) 


 irot  :  38
 --------------------------------------------------------------------
 isymop:   0   1   0
           0   0   1
          -1  -1  -1

 gtrans:     0.0000000     0.0000000     0.5000000

 ptrans:     0.0000000     0.0000000     0.0000000
 rotmap:
 (   1->   1)  (   2->   2) 


 irot  :  39
 --------------------------------------------------------------------
 isymop:  -1   0   0
           0  -1   0
           1   1   1

 gtrans:     0.0000000     0.0000000     0.5000000

 ptrans:     0.0000000     0.0000000     0.0000000
 rotmap:
 (   1->   2)  (   2->   1) 


 irot  :  40
 --------------------------------------------------------------------
 isymop:   1   0   0
           0   1   0
          -1  -1  -1

 gtrans:     0.0000000     0.0000000     0.5000000

 ptrans:     0.0000000     0.0000000     0.0000000
 rotmap:
 (   1->   1)  (   2->   2) 


 irot  :  41
 --------------------------------------------------------------------
 isymop:   0   0  -1
          -1   0   0
           1   1   1

 gtrans:     0.0000000     0.0000000     0.5000000

 ptrans:     0.0000000     0.0000000     0.0000000
 rotmap:
 (   1->   2)  (   2->   1) 


 irot  :  42
 --------------------------------------------------------------------
 isymop:   0   0   1
           1   0   0
          -1  -1  -1

 gtrans:     0.0000000     0.0000000     0.5000000

 ptrans:     0.0000000     0.0000000     0.0000000
 rotmap:
 (   1->   1)  (   2->   2) 


 irot  :  43
 --------------------------------------------------------------------
 isymop:   1   0   0
          -1  -1  -1
           0   1   0

 gtrans:     0.0000000     0.5000000     0.0000000

 ptrans:     0.0000000     0.0000000     0.0000000
 rotmap:
 (   1->   1)  (   2->   2) 


 irot  :  44
 --------------------------------------------------------------------
 isymop:  -1   0   0
           1   1   1
           0  -1   0

 gtrans:     0.0000000     0.5000000     0.0000000

 ptrans:     0.0000000     0.0000000     0.0000000
 rotmap:
 (   1->   2)  (   2->   1) 


 irot  :  45
 --------------------------------------------------------------------
 isymop:   0   0   1
          -1  -1  -1
           1   0   0

 gtrans:     0.0000000     0.5000000     0.0000000

 ptrans:     0.0000000     0.0000000     0.0000000
 rotmap:
 (   1->   1)  (   2->   2) 


 irot  :  46
 --------------------------------------------------------------------
 isymop:   0   0  -1
           1   1   1
          -1   0   0

 gtrans:     0.0000000     0.5000000     0.0000000

 ptrans:     0.0000000     0.0000000     0.0000000
 rotmap:
 (   1->   2)  (   2->   1) 


 irot  :  47
 --------------------------------------------------------------------
 isymop:   0   1   0
          -1  -1  -1
           0   0   1

 gtrans:     0.0000000     0.5000000     0.0000000

 ptrans:     0.0000000     0.0000000     0.0000000
 rotmap:
 (   1->   1)  (   2->   2) 


 irot  :  48
 --------------------------------------------------------------------
 isymop:   0  -1   0
           1   1   1
           0   0  -1

 gtrans:     0.0000000     0.5000000     0.0000000

 ptrans:     0.0000000     0.0000000     0.0000000
 rotmap:
 (   1->   2)  (   2->   1) 
 
 
 KPOINTS: Automatic kpoint scheme                 

Automatic generation of k-mesh.
Space group operators:
 irot       det(A)        alpha          n_x          n_y          n_z        tau_x        tau_y        tau_z
    1     1.000000     0.000000     1.000000     0.000000     0.000000     0.000000     0.000000     0.000000
    2    -1.000000     0.000000     1.000000     0.000000     0.000000     0.000000     0.000000     0.000000
    3     1.000000   120.000000    -0.471405    -0.333333    -0.816497     0.000000     0.000000     0.000000
    4    -1.000000   120.000000    -0.471405    -0.333333    -0.816497     0.000000     0.000000     0.000000
    5     1.000000   120.000000     0.471405     0.333334     0.816496     0.000000     0.000000     0.000000
    6    -1.000000   120.000000     0.471405     0.333334     0.816496     0.000000     0.000000     0.000000
    7     1.000000   180.000000     0.288675     0.816497    -0.500000     0.000000     0.000000     0.000000
    8    -1.000000   180.000000     0.288675     0.816497    -0.500000     0.000000     0.000000     0.000000
    9     1.000000   180.000000     0.577350    -0.816497     0.000000     0.000000     0.000000     0.000000
   10    -1.000000   180.000000     0.577350    -0.816497     0.000000     0.000000     0.000000     0.000000
   11     1.000000   180.000000     0.866025     0.000000    -0.500000     0.000000     0.000000     0.000000
   12    -1.000000   180.000000     0.866025     0.000000    -0.500000     0.000000     0.000000     0.000000
   13     1.000000    90.000000    -0.816496    -0.577350     0.000000     0.500000     0.000000     0.000000
   14    -1.000000    90.000000    -0.816496    -0.577350     0.000000     0.500000     0.000000     0.000000
   15     1.000000   180.000000     0.866025     0.000000     0.500000     0.500000     0.000000     0.000000
   16    -1.000000   180.000000     0.866025     0.000000     0.500000     0.500000     0.000000     0.000000
   17     1.000000    90.000000     0.408248    -0.577350     0.707107     0.500000     0.000000     0.000000
   18    -1.000000    90.000000     0.408248    -0.577350     0.707107     0.500000     0.000000     0.000000
   19     1.000000   180.000000     0.816497     0.577350     0.000000     0.000000     0.000000     0.500000
   20    -1.000000   180.000000     0.816497     0.577350     0.000000     0.000000     0.000000     0.500000
   21     1.000000   120.000000     0.942809    -0.333333     0.000000     0.000000     0.000000     0.500000
   22    -1.000000   120.000000     0.942809    -0.333333     0.000000     0.000000     0.000000     0.500000
   23     1.000000   120.000000     0.000000    -1.000000     0.000000     0.000000     0.000000     0.500000
   24    -1.000000   120.000000     0.000000    -1.000000     0.000000     0.000000     0.000000     0.500000
   25     1.000000    90.000000     0.816497     0.577350     0.000000     0.000000     0.500000     0.000000
   26    -1.000000    90.000000     0.816497     0.577350     0.000000     0.000000     0.500000     0.000000
   27     1.000000    90.000000     0.408248    -0.577350    -0.707107     0.000000     0.500000     0.000000
   28    -1.000000    90.000000     0.408248    -0.577350    -0.707107     0.000000     0.500000     0.000000
   29     1.000000   180.000000     0.288675     0.816497     0.500000     0.000000     0.500000     0.000000
   30    -1.000000   180.000000     0.288675     0.816497     0.500000     0.000000     0.500000     0.000000
   31     1.000000   120.000000     0.000000     1.000000     0.000000     0.500000     0.000000     0.000000
   32    -1.000000   120.000000     0.000000     1.000000     0.000000     0.500000     0.000000     0.000000
   33     1.000000   120.000000     0.471404     0.333333    -0.816497     0.500000     0.000000     0.000000
   34    -1.000000   120.000000     0.471404     0.333333    -0.816497     0.500000     0.000000     0.000000
   35     1.000000   180.000000    -0.408248     0.577350     0.707107     0.500000     0.000000     0.000000
   36    -1.000000   180.000000    -0.408248     0.577350     0.707107     0.500000     0.000000     0.000000
   37     1.000000    90.000000    -0.408248     0.577350    -0.707107     0.000000     0.000000     0.500000
   38    -1.000000    90.000000    -0.408248     0.577350    -0.707107     0.000000     0.000000     0.500000
   39     1.000000   180.000000     0.000000     0.000000     1.000000     0.000000     0.000000     0.500000
   40    -1.000000   180.000000     0.000000     0.000000     1.000000     0.000000     0.000000     0.500000
   41     1.000000    90.000000    -0.408248     0.577350     0.707107     0.000000     0.000000     0.500000
   42    -1.000000    90.000000    -0.408248     0.577350     0.707107     0.000000     0.000000     0.500000
   43     1.000000   120.000000    -0.942809     0.333333     0.000000     0.000000     0.500000     0.000000
   44    -1.000000   120.000000    -0.942809     0.333333     0.000000     0.000000     0.500000     0.000000
   45     1.000000   179.999999    -0.408248     0.577350    -0.707107     0.000000     0.500000     0.000000
   46    -1.000000   179.999999    -0.408248     0.577350    -0.707107     0.000000     0.500000     0.000000
   47     1.000000   120.000000    -0.471404    -0.333333     0.816497     0.000000     0.500000     0.000000
   48    -1.000000   120.000000    -0.471404    -0.333333     0.816497     0.000000     0.500000     0.000000
 
 Subroutine IBZKPT returns following result:
 ===========================================
 
 Found    145 irreducible k-points:
 
 Following reciprocal coordinates:
            Coordinates               Weight
  0.000000  0.000000  0.000000      1.000000
  0.062500  0.000000  0.000000      8.000000
  0.125000  0.000000  0.000000      8.000000
  0.187500  0.000000  0.000000      8.000000
  0.250000  0.000000  0.000000      8.000000
  0.312500  0.000000  0.000000      8.000000
  0.375000  0.000000  0.000000      8.000000
  0.437500  0.000000  0.000000      8.000000
  0.500000  0.000000  0.000000      4.000000
  0.062500  0.062500  0.000000      6.000000
  0.125000  0.062500  0.000000     24.000000
  0.187500  0.062500  0.000000     24.000000
  0.250000  0.062500  0.000000     24.000000
  0.312500  0.062500  0.000000     24.000000
  0.375000  0.062500  0.000000     24.000000
  0.437500  0.062500  0.000000     24.000000
  0.500000  0.062500  0.000000     24.000000
 -0.437500  0.062500  0.000000     24.000000
 -0.375000  0.062500  0.000000     24.000000
 -0.312500  0.062500  0.000000     24.000000
 -0.250000  0.062500  0.000000     24.000000
 -0.187500  0.062500  0.000000     24.000000
 -0.125000  0.062500  0.000000     24.000000
 -0.062500  0.062500  0.000000     12.000000
  0.125000  0.125000  0.000000      6.000000
  0.187500  0.125000  0.000000     24.000000
  0.250000  0.125000  0.000000     24.000000
  0.312500  0.125000  0.000000     24.000000
  0.375000  0.125000  0.000000     24.000000
  0.437500  0.125000  0.000000     24.000000
  0.500000  0.125000  0.000000     24.000000
 -0.437500  0.125000  0.000000     24.000000
 -0.375000  0.125000  0.000000     24.000000
 -0.312500  0.125000  0.000000     24.000000
 -0.250000  0.125000  0.000000     24.000000
 -0.187500  0.125000  0.000000     24.000000
 -0.125000  0.125000  0.000000     12.000000
  0.187500  0.187500  0.000000      6.000000
  0.250000  0.187500  0.000000     24.000000
  0.312500  0.187500  0.000000     24.000000
  0.375000  0.187500  0.000000     24.000000
  0.437500  0.187500  0.000000     24.000000
  0.500000  0.187500  0.000000     24.000000
 -0.437500  0.187500  0.000000     24.000000
 -0.375000  0.187500  0.000000     24.000000
 -0.312500  0.187500  0.000000     24.000000
 -0.250000  0.187500  0.000000     24.000000
 -0.187500  0.187500  0.000000     12.000000
  0.250000  0.250000  0.000000      6.000000
  0.312500  0.250000  0.000000     24.000000
  0.375000  0.250000  0.000000     24.000000
  0.437500  0.250000  0.000000     24.000000
  0.500000  0.250000  0.000000     24.000000
 -0.437500  0.250000  0.000000     24.000000
 -0.375000  0.250000  0.000000     24.000000
 -0.312500  0.250000  0.000000     24.000000
 -0.250000  0.250000  0.000000     12.000000
  0.312500  0.312500  0.000000      6.000000
  0.375000  0.312500  0.000000     24.000000
  0.437500  0.312500  0.000000     24.000000
  0.500000  0.312500  0.000000     24.000000
 -0.437500  0.312500  0.000000     24.000000
 -0.375000  0.312500  0.000000     24.000000
 -0.312500  0.312500  0.000000     12.000000
  0.375000  0.375000  0.000000      6.000000
  0.437500  0.375000  0.000000     24.000000
  0.500000  0.375000  0.000000     24.000000
 -0.437500  0.375000  0.000000     24.000000
 -0.375000  0.375000  0.000000     12.000000
  0.437500  0.437500  0.000000      6.000000
  0.500000  0.437500  0.000000     24.000000
 -0.437500  0.437500  0.000000     12.000000
  0.500000  0.500000  0.000000      3.000000
  0.187500  0.125000  0.062500     24.000000
  0.250000  0.125000  0.062500     48.000000
  0.312500  0.125000  0.062500     48.000000
  0.375000  0.125000  0.062500     48.000000
  0.437500  0.125000  0.062500     48.000000
  0.500000  0.125000  0.062500     48.000000
 -0.437500  0.125000  0.062500     24.000000
  0.250000  0.187500  0.062500     24.000000
  0.312500  0.187500  0.062500     48.000000
  0.375000  0.187500  0.062500     48.000000
  0.437500  0.187500  0.062500     48.000000
  0.500000  0.187500  0.062500     48.000000
 -0.437500  0.187500  0.062500     48.000000
 -0.375000  0.187500  0.062500     48.000000
 -0.312500  0.187500  0.062500     48.000000
 -0.250000  0.187500  0.062500     48.000000
 -0.187500  0.187500  0.062500     48.000000
 -0.125000  0.187500  0.062500     24.000000
  0.312500  0.250000  0.062500     24.000000
  0.375000  0.250000  0.062500     48.000000
  0.437500  0.250000  0.062500     48.000000
  0.500000  0.250000  0.062500     48.000000
 -0.437500  0.250000  0.062500     48.000000
 -0.375000  0.250000  0.062500     48.000000
 -0.312500  0.250000  0.062500     48.000000
 -0.250000  0.250000  0.062500     48.000000
 -0.187500  0.250000  0.062500     24.000000
  0.375000  0.312500  0.062500     24.000000
  0.437500  0.312500  0.062500     48.000000
  0.500000  0.312500  0.062500     48.000000
 -0.437500  0.312500  0.062500     48.000000
 -0.375000  0.312500  0.062500     48.000000
 -0.312500  0.312500  0.062500     48.000000
 -0.250000  0.312500  0.062500     24.000000
  0.437500  0.375000  0.062500     24.000000
  0.500000  0.375000  0.062500     48.000000
 -0.437500  0.375000  0.062500     48.000000
 -0.375000  0.375000  0.062500     48.000000
 -0.312500  0.375000  0.062500     24.000000
  0.500000  0.437500  0.062500     24.000000
 -0.437500  0.437500  0.062500     48.000000
 -0.375000  0.437500  0.062500     24.000000
 -0.437500  0.500000  0.062500     12.000000
  0.375000  0.250000  0.125000     24.000000
  0.437500  0.250000  0.125000     48.000000
  0.500000  0.250000  0.125000     48.000000
 -0.437500  0.250000  0.125000     48.000000
 -0.375000  0.250000  0.125000     24.000000
  0.437500  0.312500  0.125000     24.000000
  0.500000  0.312500  0.125000     48.000000
 -0.437500  0.312500  0.125000     48.000000
 -0.375000  0.312500  0.125000     48.000000
 -0.312500  0.312500  0.125000     48.000000
 -0.250000  0.312500  0.125000     48.000000
 -0.187500  0.312500  0.125000     24.000000
  0.500000  0.375000  0.125000     24.000000
 -0.437500  0.375000  0.125000     48.000000
 -0.375000  0.375000  0.125000     48.000000
 -0.312500  0.375000  0.125000     48.000000
 -0.250000  0.375000  0.125000     24.000000
 -0.437500  0.437500  0.125000     24.000000
 -0.375000  0.437500  0.125000     48.000000
 -0.312500  0.437500  0.125000     24.000000
 -0.375000  0.500000  0.125000     12.000000
 -0.437500  0.375000  0.187500     24.000000
 -0.375000  0.375000  0.187500     48.000000
 -0.312500  0.375000  0.187500     24.000000
 -0.375000  0.437500  0.187500     24.000000
 -0.312500  0.437500  0.187500     48.000000
 -0.250000  0.437500  0.187500     24.000000
 -0.312500  0.500000  0.187500     12.000000
 -0.250000  0.500000  0.250000      6.000000
 
 Following cartesian coordinates:
            Coordinates               Weight
  0.000000  0.000000  0.000000      1.000000
  0.018663 -0.006598  0.000000      8.000000
  0.037326 -0.013197  0.000000      8.000000
  0.055989 -0.019795  0.000000      8.000000
  0.074651 -0.026393  0.000000      8.000000
  0.093314 -0.032992  0.000000      8.000000
  0.111977 -0.039590  0.000000      8.000000
  0.130640 -0.046188  0.000000      8.000000
  0.149303 -0.052786  0.000000      4.000000
  0.018663  0.013197  0.000000      6.000000
  0.037326  0.006598  0.000000     24.000000
  0.055989  0.000000  0.000000     24.000000
  0.074651 -0.006598  0.000000     24.000000
  0.093314 -0.013197  0.000000     24.000000
  0.111977 -0.019795  0.000000     24.000000
  0.130640 -0.026393  0.000000     24.000000
  0.149303 -0.032992  0.000000     24.000000
 -0.130640  0.065983  0.000000     24.000000
 -0.111977  0.059385  0.000000     24.000000
 -0.093314  0.052787  0.000000     24.000000
 -0.074651  0.046188  0.000000     24.000000
 -0.055989  0.039590  0.000000     24.000000
 -0.037326  0.032992  0.000000     24.000000
 -0.018663  0.026393  0.000000     12.000000
  0.037326  0.026393  0.000000      6.000000
  0.055989  0.019795  0.000000     24.000000
  0.074651  0.013197  0.000000     24.000000
  0.093314  0.006598  0.000000     24.000000
  0.111977  0.000000  0.000000     24.000000
  0.130640 -0.006598  0.000000     24.000000
  0.149303 -0.013197  0.000000     24.000000
 -0.130640  0.085778  0.000000     24.000000
 -0.111977  0.079180  0.000000     24.000000
 -0.093314  0.072581  0.000000     24.000000
 -0.074651  0.065983  0.000000     24.000000
 -0.055989  0.059385  0.000000     24.000000
 -0.037326  0.052787  0.000000     12.000000
  0.055989  0.039590  0.000000      6.000000
  0.074651  0.032992  0.000000     24.000000
  0.093314  0.026393  0.000000     24.000000
  0.111977  0.019795  0.000000     24.000000
  0.130640  0.013197  0.000000     24.000000
  0.149303  0.006598  0.000000     24.000000
 -0.130640  0.105573  0.000000     24.000000
 -0.111977  0.098975  0.000000     24.000000
 -0.093314  0.092376  0.000000     24.000000
 -0.074651  0.085778  0.000000     24.000000
 -0.055989  0.079180  0.000000     12.000000
  0.074651  0.052787  0.000000      6.000000
  0.093314  0.046188  0.000000     24.000000
  0.111977  0.039590  0.000000     24.000000
  0.130640  0.032992  0.000000     24.000000
  0.149303  0.026393  0.000000     24.000000
 -0.130640  0.125368  0.000000     24.000000
 -0.111977  0.118770  0.000000     24.000000
 -0.093314  0.112171  0.000000     24.000000
 -0.074651  0.105573  0.000000     12.000000
  0.093314  0.065983  0.000000      6.000000
  0.111977  0.059385  0.000000     24.000000
  0.130640  0.052787  0.000000     24.000000
  0.149303  0.046188  0.000000     24.000000
 -0.130640  0.145163  0.000000     24.000000
 -0.111977  0.138565  0.000000     24.000000
 -0.093314  0.131966  0.000000     12.000000
  0.111977  0.079180  0.000000      6.000000
  0.130640  0.072581  0.000000     24.000000
  0.149303  0.065983  0.000000     24.000000
 -0.130640  0.164958  0.000000     24.000000
 -0.111977  0.158360  0.000000     12.000000
  0.130640  0.092376  0.000000      6.000000
  0.149303  0.085778  0.000000     24.000000
 -0.130640  0.184753  0.000000     12.000000
  0.149303  0.105573  0.000000      3.000000
  0.046657  0.013197  0.016163     24.000000
  0.065320  0.006598  0.016163     48.000000
  0.083983  0.000000  0.016163     48.000000
  0.102646 -0.006598  0.016163     48.000000
  0.121309 -0.013197  0.016163     48.000000
  0.139971 -0.019795  0.016163     48.000000
 -0.139971  0.079180  0.016163     24.000000
  0.065320  0.026393  0.016163     24.000000
  0.083983  0.019795  0.016163     48.000000
  0.102646  0.013197  0.016163     48.000000
  0.121309  0.006598  0.016163     48.000000
  0.139971  0.000000  0.016163     48.000000
 -0.139971  0.098975  0.016163     48.000000
 -0.121309  0.092376  0.016163     48.000000
 -0.102646  0.085778  0.016163     48.000000
 -0.083983  0.079180  0.016163     48.000000
 -0.065320  0.072581  0.016163     48.000000
 -0.046657  0.065983  0.016163     24.000000
  0.083983  0.039590  0.016163     24.000000
  0.102646  0.032992  0.016163     48.000000
  0.121309  0.026393  0.016163     48.000000
  0.139971  0.019795  0.016163     48.000000
 -0.139971  0.118770  0.016163     48.000000
 -0.121309  0.112171  0.016163     48.000000
 -0.102646  0.105573  0.016163     48.000000
 -0.083983  0.098975  0.016163     48.000000
 -0.065320  0.092376  0.016163     24.000000
  0.102646  0.052787  0.016163     24.000000
  0.121309  0.046188  0.016163     48.000000
  0.139971  0.039590  0.016163     48.000000
 -0.139971  0.138565  0.016163     48.000000
 -0.121309  0.131966  0.016163     48.000000
 -0.102646  0.125368  0.016163     48.000000
 -0.083983  0.118770  0.016163     24.000000
  0.121309  0.065983  0.016163     24.000000
  0.139971  0.059385  0.016163     48.000000
 -0.139971  0.158360  0.016163     48.000000
 -0.121309  0.151761  0.016163     48.000000
 -0.102646  0.145163  0.016163     24.000000
  0.139971  0.079180  0.016163     24.000000
 -0.139971  0.178154  0.016163     48.000000
 -0.121309  0.171556  0.016163     24.000000
 -0.139971  0.197949  0.016163     12.000000
  0.093314  0.026393  0.032325     24.000000
  0.111977  0.019795  0.032325     48.000000
  0.130640  0.013197  0.032325     48.000000
 -0.149303  0.112171  0.032325     48.000000
 -0.130640  0.105573  0.032325     24.000000
  0.111977  0.039590  0.032325     24.000000
  0.130640  0.032992  0.032325     48.000000
 -0.149303  0.131966  0.032325     48.000000
 -0.130640  0.125368  0.032325     48.000000
 -0.111977  0.118770  0.032325     48.000000
 -0.093314  0.112171  0.032325     48.000000
 -0.074651  0.105573  0.032325     24.000000
  0.130640  0.052787  0.032325     24.000000
 -0.149303  0.151761  0.032325     48.000000
 -0.130640  0.145163  0.032325     48.000000
 -0.111977  0.138565  0.032325     48.000000
 -0.093314  0.131966  0.032325     24.000000
 -0.149303  0.171556  0.032325     24.000000
 -0.130640  0.164958  0.032325     48.000000
 -0.111977  0.158360  0.032325     24.000000
 -0.130640  0.184753  0.032325     12.000000
 -0.158634  0.145163  0.048488     24.000000
 -0.139971  0.138565  0.048488     48.000000
 -0.121309  0.131966  0.048488     24.000000
 -0.139971  0.158360  0.048488     24.000000
 -0.121309  0.151761  0.048488     48.000000
 -0.102646  0.145163  0.048488     24.000000
 -0.121309  0.171556  0.048488     12.000000
 -0.111977  0.158360  0.064650      6.000000
 


--------------------------------------------------------------------------------------------------------




 Dimension of arrays:
   k-points           NKPTS =    145   k-points in BZ     NKDIM =    145   number of bands    NBANDS=      8
   number of dos      NEDOS =    301   number of ions     NIONS =      2
   non local maximal  LDIM  =      4   non local SUM 2l+1 LMDIM =      8
   total plane-waves  NPLWV =  27000
   max r-space proj   IRMAX =      1   max aug-charges    IRDMAX=  22275
   dimension x,y,z NGX =    30 NGY =   30 NGZ =   30
   dimension x,y,z NGXF=    60 NGYF=   60 NGZF=   60
   support grid    NGXF=    60 NGYF=   60 NGZF=   60
   ions per type =               2
 NGX,Y,Z   is equivalent  to a cutoff of  12.90, 12.90, 12.90 a.u.
 NGXF,Y,Z  is equivalent  to a cutoff of  25.79, 25.79, 25.79 a.u.


 I would recommend the setting:
   dimension x,y,z NGX =    30 NGY =   30 NGZ =   30
 SYSTEM =  unknown system                          
 POSCAR =  bulk@mp_149                             

 Startparameter for this run:
   NWRITE =      2    write-flag & timer
   PREC   = accura    normal or accurate (medium, high low for compatibility)
   ISTART =      0    job   : 0-new  1-cont  2-samecut
   ICHARG =      2    charge: 1-file 2-atom 10-const
   ISPIN  =      1    spin polarized calculation?
   LNONCOLLINEAR =      F non collinear calculations
   LSORBIT =      F    spin-orbit coupling
   INIWAV =      1    electr: 0-lowe 1-rand  2-diag
   LASPH  =      F    aspherical Exc in radial PAW
   METAGGA=      F    non-selfconsistent MetaGGA calc.

 Electronic Relaxation 1
   ENCUT  =  550.0 eV  40.42 Ry    6.36 a.u.   7.39  7.39  7.39*2*pi/ulx,y,z
   ENINI  =  550.0     initial cutoff
   ENAUG  =  322.1 eV  augmentation charge cutoff
   NELM   =    400;   NELMIN=  2; NELMDL= -5     # of ELM steps 
   EDIFF  = 0.1E-06   stopping-criterion for ELM
   LREAL  =      F    real-space projection
   NLSPLINE    = F    spline interpolate recip. space projectors
   LCOMPAT=      F    compatible to vasp.4.4
   GGA_COMPAT  = T    GGA compatible to vasp.4.4-vasp.4.6
   LMAXPAW     = -100 max onsite density
   LMAXMIX     =    2 max onsite mixed and CHGCAR
   VOSKOWN=      0    Vosko Wilk Nusair interpolation
   ROPT   =    0.00000
 Ionic relaxation
   EDIFFG = 0.1E-05   stopping-criterion for IOM
   NSW    =      1    number of steps for IOM
   NBLOCK =      1;   KBLOCK =      1    inner block; outer block 
   IBRION =      2    ionic relax: 0-MD 1-quasi-New 2-CG
   NFREE  =      1    steps in history (QN), initial steepest desc. (CG)
   ISIF   =      2    stress and relaxation
   IWAVPR =     11    prediction:  0-non 1-charg 2-wave 3-comb
   ISYM   =      2    0-nonsym 1-usesym 2-fastsym
   LCORR  =      T    Harris-Foulkes like correction to forces

   POTIM  = 0.5000    time-step for ionic-motion
   TEIN   =    0.0    initial temperature
   TEBEG  =    0.0;   TEEND  =   0.0 temperature during run
   SMASS  =  -3.00    Nose mass-parameter (am)
   estimated Nose-frequenzy (Omega)   =  0.10E-29 period in steps =****** mass=  -0.342E-27a.u.
   SCALEE = 1.0000    scale energy and forces
   NPACO  =    256;   APACO  = 16.0  distance and # of slots for P.C.
   PSTRESS=    0.0 pullay stress

  Mass of Ions in am
   POMASS =  28.09
  Ionic Valenz
   ZVAL   =   4.00
  Atomic Wigner-Seitz radii
   RWIGS  =  -1.00
  virtual crystal weights 
   VCA    =   1.00
   NELECT =       8.0000    total number of electrons
   NUPDOWN=      -1.0000    fix difference up-down

 DOS related values:
   EMIN   =  10.00;   EMAX   =-10.00  energy-range for DOS
   EFERMI =   0.00
   ISMEAR =     0;   SIGMA  =   0.20  broadening in eV -4-tet -1-fermi 0-gaus

 Electronic relaxation 2 (details)
   IALGO  =     38    algorithm
   LDIAG  =      T    sub-space diagonalisation (order eigenvalues)
   LSUBROT=      T    optimize rotation matrix (better conditioning)
   TURBO    =      0    0=normal 1=particle mesh
   IRESTART =      0    0=no restart 2=restart with 2 vectors
   NREBOOT  =      0    no. of reboots
   NMIN     =      0    reboot dimension
   EREF     =   0.00    reference energy to select bands
   IMIX   =      4    mixing-type and parameters
     AMIX     =   0.40;   BMIX     =  1.00
     AMIX_MAG =   1.60;   BMIX_MAG =  1.00
     AMIN     =   0.10
     WC   =   100.;   INIMIX=   1;  MIXPRE=   1;  MAXMIX= -45

 Intra band minimization:
   WEIMIN = 0.0010     energy-eigenvalue tresh-hold
   EBREAK =  0.31E-08  absolut break condition
   DEPER  =   0.30     relativ break condition  

   TIME   =   0.40     timestep for ELM

  volume/ion in A,a.u.               =      20.44       137.96
  Fermi-wavevector in a.u.,A,eV,Ry     =   0.950397  1.795990 12.289528  0.903255
  Thomas-Fermi vector in A             =   2.078770
 
 Write flags
   LWAVE  =      F    write WAVECAR
   LCHARG =      F    write CHGCAR
   LVTOT  =      F    write LOCPOT, total local potential
   LVHAR  =      F    write LOCPOT, Hartree potential only
   LELF   =      F    write electronic localiz. function (ELF)
   LORBIT =      0    0 simple, 1 ext, 2 COOP (PROOUT)


 Dipole corrections
   LMONO  =      F    monopole corrections only (constant potential shift)
   LDIPOL =      F    correct potential (dipole corrections)
   IDIPOL =      0    1-x, 2-y, 3-z, 4-all directions 
   EPSILON=  1.0000000 bulk dielectric constant

 Exchange correlation treatment:
   GGA     =    BO    GGA type
   LEXCH   =    42    internal setting for exchange type
   VOSKOWN=      0    Vosko Wilk Nusair interpolation
   LHFCALC =     F    Hartree Fock is set to
   LHFONE  =     F    Hartree Fock one center treatment
   AEXX    =    0.0000 exact exchange contribution

 vdW DFT:
   LUSE_VDW   =     T    switch on vdW DFT
   Zab_VDW    =-.8491    correlation parameter
   PARAM1     =0.1833
   PARAM2     =0.2200
   PARAM3     =0.0000

 Linear response parameters
   LEPSILON=     F    determine dielectric tensor
   LRPA    =     F    only Hartree local field effects (RPA)
   LNABLA  =     F    use nabla operator in PAW spheres
   LVEL    =     F    velocity operator in full k-point grid
   LINTERFAST=   F  fast interpolation
   KINTER  =     0    interpolate to denser k-point grid
   CSHIFT  =0.1000    complex shift for real part using Kramers Kronig
   OMEGAMAX=  -1.0    maximum frequency
   DEG_THRESHOLD= 0.2000000E-02 threshold for treating states as degnerate
   RTIME   =    0.100 relaxation time in fs

 Orbital magnetization related:
   ORBITALMAG=     F  switch on orbital magnetization
   LCHIMAG   =     F  perturbation theory with respect to B field
   DQ        =  0.001000  dq finite difference perturbation B field



--------------------------------------------------------------------------------------------------------


 conjugate gradient relaxation of ions
 charge density and potential will be updated during run
 non-spin polarized calculation
 Variant of blocked Davidson
 Davidson routine will perform the subspace rotation
 perform sub-space diagonalisation
    after iterative eigenvector-optimisation
 modified Broyden-mixing scheme, WC =      100.0
 initial mixing is a Kerker type mixing with AMIX =  0.4000 and BMIX =      1.0000
 Hartree-type preconditioning will be used
 using additional bands            4
 reciprocal scheme for non local part
 use partial core corrections
 calculate Harris-corrections to forces 
   (improved forces if not selfconsistent)
 use gradient corrections 
 use of overlap-Matrix (Vanderbilt PP)
 Gauss-broadening in eV      SIGMA  =   0.20


--------------------------------------------------------------------------------------------------------


  energy-cutoff  :      550.00
  volume of cell :       40.89
      direct lattice vectors                 reciprocal lattice vectors
     3.348898000  0.000000000  1.933487000     0.298605691 -0.105573000  0.000000000
     1.116299000  3.157372000  1.933487000     0.000000000  0.316719094  0.000000000
     0.000000000  0.000000000  3.866975000    -0.149302807 -0.105573020  0.258600069

  length of vectors
     3.866974243  3.866974707  3.866975000     0.316719145  0.316719094  0.316719096


 
 k-points in units of 2pi/SCALE and weight: Automatic kpoint scheme                 
   0.00000000  0.00000000  0.00000000       0.000
   0.01866286 -0.00659831  0.00000000       0.002
   0.03732571 -0.01319662  0.00000000       0.002
   0.05598857 -0.01979494  0.00000000       0.002
   0.07465142 -0.02639325  0.00000000       0.002
   0.09331428 -0.03299156  0.00000000       0.002
   0.11197713 -0.03958987  0.00000000       0.002
   0.13063999 -0.04618819  0.00000000       0.002
   0.14930285 -0.05278650  0.00000000       0.001
   0.01866286  0.01319663  0.00000000       0.001
   0.03732571  0.00659832  0.00000000       0.006
   0.05598857  0.00000001  0.00000000       0.006
   0.07465142 -0.00659831  0.00000000       0.006
   0.09331428 -0.01319662  0.00000000       0.006
   0.11197713 -0.01979493  0.00000000       0.006
   0.13063999 -0.02639324  0.00000000       0.006
   0.14930285 -0.03299156  0.00000000       0.006
  -0.13063999  0.06598313  0.00000000       0.006
  -0.11197713  0.05938482  0.00000000       0.006
  -0.09331428  0.05278651  0.00000000       0.006
  -0.07465142  0.04618819  0.00000000       0.006
  -0.05598857  0.03958988  0.00000000       0.006
  -0.03732571  0.03299157  0.00000000       0.006
  -0.01866286  0.02639326  0.00000000       0.003
   0.03732571  0.02639326  0.00000000       0.001
   0.05598857  0.01979495  0.00000000       0.006
   0.07465142  0.01319664  0.00000000       0.006
   0.09331428  0.00659832  0.00000000       0.006
   0.11197713  0.00000001  0.00000000       0.006
   0.13063999 -0.00659830  0.00000000       0.006
   0.14930285 -0.01319661  0.00000000       0.006
  -0.13063999  0.08577807  0.00000000       0.006
  -0.11197713  0.07917976  0.00000000       0.006
  -0.09331428  0.07258145  0.00000000       0.006
  -0.07465142  0.06598314  0.00000000       0.006
  -0.05598857  0.05938482  0.00000000       0.006
  -0.03732571  0.05278651  0.00000000       0.003
   0.05598857  0.03958989  0.00000000       0.001
   0.07465142  0.03299158  0.00000000       0.006
   0.09331428  0.02639327  0.00000000       0.006
   0.11197713  0.01979496  0.00000000       0.006
   0.13063999  0.01319664  0.00000000       0.006
   0.14930285  0.00659833  0.00000000       0.006
  -0.13063999  0.10557302  0.00000000       0.006
  -0.11197713  0.09897471  0.00000000       0.006
  -0.09331428  0.09237639  0.00000000       0.006
  -0.07465142  0.08577808  0.00000000       0.006
  -0.05598857  0.07917977  0.00000000       0.003
   0.07465142  0.05278652  0.00000000       0.001
   0.09331428  0.04618821  0.00000000       0.006
   0.11197713  0.03958990  0.00000000       0.006
   0.13063999  0.03299159  0.00000000       0.006
   0.14930285  0.02639327  0.00000000       0.006
  -0.13063999  0.12536796  0.00000000       0.006
  -0.11197713  0.11876965  0.00000000       0.006
  -0.09331428  0.11217134  0.00000000       0.006
  -0.07465142  0.10557302  0.00000000       0.003
   0.09331428  0.06598315  0.00000000       0.001
   0.11197713  0.05938484  0.00000000       0.006
   0.13063999  0.05278653  0.00000000       0.006
   0.14930285  0.04618822  0.00000000       0.006
  -0.13063999  0.14516290  0.00000000       0.006
  -0.11197713  0.13856459  0.00000000       0.006
  -0.09331428  0.13196628  0.00000000       0.003
   0.11197713  0.07917979  0.00000000       0.001
   0.13063999  0.07258147  0.00000000       0.006
   0.14930285  0.06598316  0.00000000       0.006
  -0.13063999  0.16495785  0.00000000       0.006
  -0.11197713  0.15835954  0.00000000       0.003
   0.13063999  0.09237642  0.00000000       0.001
   0.14930285  0.08577810  0.00000000       0.006
  -0.13063999  0.18475279  0.00000000       0.003
   0.14930285  0.10557305  0.00000000       0.001
   0.04665714  0.01319664  0.01616250       0.006
   0.06532000  0.00659832  0.01616250       0.012
   0.08398285  0.00000001  0.01616250       0.012
   0.10264571 -0.00659830  0.01616250       0.012
   0.12130856 -0.01319661  0.01616250       0.012
   0.13997142 -0.01979493  0.01616250       0.012
  -0.13997142  0.07917976  0.01616250       0.006
   0.06532000  0.02639327  0.01616250       0.006
   0.08398285  0.01979495  0.01616250       0.012
   0.10264571  0.01319664  0.01616250       0.012
   0.12130856  0.00659833  0.01616250       0.012
   0.13997142  0.00000002  0.01616250       0.012
  -0.13997142  0.09897470  0.01616250       0.012
  -0.12130856  0.09237639  0.01616250       0.012
  -0.10264570  0.08577808  0.01616250       0.012
  -0.08398285  0.07917977  0.01616250       0.012
  -0.06531999  0.07258145  0.01616250       0.012
  -0.04665714  0.06598314  0.01616250       0.006
   0.08398285  0.03958990  0.01616250       0.006
   0.10264571  0.03299158  0.01616250       0.012
   0.12130856  0.02639327  0.01616250       0.012
   0.13997142  0.01979496  0.01616250       0.012
  -0.13997142  0.11876965  0.01616250       0.012
  -0.12130856  0.11217133  0.01616250       0.012
  -0.10264570  0.10557302  0.01616250       0.012
  -0.08398285  0.09897471  0.01616250       0.012
  -0.06531999  0.09237640  0.01616250       0.006
   0.10264571  0.05278653  0.01616250       0.006
   0.12130856  0.04618822  0.01616250       0.012
   0.13997142  0.03958990  0.01616250       0.012
  -0.13997142  0.13856459  0.01616250       0.012
  -0.12130856  0.13196628  0.01616250       0.012
  -0.10264570  0.12536797  0.01616250       0.012
  -0.08398285  0.11876965  0.01616250       0.006
   0.12130856  0.06598316  0.01616250       0.006
   0.13997142  0.05938485  0.01616250       0.012
  -0.13997142  0.15835953  0.01616250       0.012
  -0.12130856  0.15176122  0.01616250       0.012
  -0.10264570  0.14516291  0.01616250       0.006
   0.13997142  0.07917979  0.01616250       0.006
  -0.13997142  0.17815448  0.01616250       0.012
  -0.12130856  0.17155616  0.01616250       0.006
  -0.13997142  0.19794942  0.01616250       0.003
   0.09331428  0.02639327  0.03232501       0.006
   0.11197714  0.01979496  0.03232501       0.012
   0.13063999  0.01319665  0.03232501       0.012
  -0.14930284  0.11217133  0.03232501       0.012
  -0.13063998  0.10557302  0.03232501       0.006
   0.11197714  0.03958990  0.03232501       0.006
   0.13063999  0.03299159  0.03232501       0.012
  -0.14930284  0.13196628  0.03232501       0.012
  -0.13063998  0.12536796  0.03232501       0.012
  -0.11197713  0.11876965  0.03232501       0.012
  -0.09331427  0.11217134  0.03232501       0.012
  -0.07465142  0.10557303  0.03232501       0.006
   0.13063999  0.05278653  0.03232501       0.006
  -0.14930284  0.15176122  0.03232501       0.012
  -0.13063998  0.14516291  0.03232501       0.012
  -0.11197713  0.13856460  0.03232501       0.012
  -0.09331427  0.13196628  0.03232501       0.006
  -0.14930284  0.17155616  0.03232501       0.006
  -0.13063998  0.16495785  0.03232501       0.012
  -0.11197713  0.15835954  0.03232501       0.006
  -0.13063998  0.18475279  0.03232501       0.003
  -0.15863427  0.14516291  0.04848751       0.006
  -0.13997141  0.13856459  0.04848751       0.012
  -0.12130855  0.13196628  0.04848751       0.006
  -0.13997141  0.15835954  0.04848751       0.006
  -0.12130855  0.15176122  0.04848751       0.012
  -0.10264570  0.14516291  0.04848751       0.006
  -0.12130855  0.17155617  0.04848751       0.003
  -0.11197712  0.15835954  0.06465002       0.001
 
 k-points in reciprocal lattice and weights: Automatic kpoint scheme                 
   0.00000000  0.00000000  0.00000000       0.000
   0.06250000  0.00000000  0.00000000       0.002
   0.12500000  0.00000000  0.00000000       0.002
   0.18750000  0.00000000  0.00000000       0.002
   0.25000000  0.00000000  0.00000000       0.002
   0.31250000  0.00000000  0.00000000       0.002
   0.37500000  0.00000000  0.00000000       0.002
   0.43750000  0.00000000  0.00000000       0.002
   0.50000000  0.00000000  0.00000000       0.001
   0.06250000  0.06250000  0.00000000       0.001
   0.12500000  0.06250000  0.00000000       0.006
   0.18750000  0.06250000  0.00000000       0.006
   0.25000000  0.06250000  0.00000000       0.006
   0.31250000  0.06250000  0.00000000       0.006
   0.37500000  0.06250000  0.00000000       0.006
   0.43750000  0.06250000  0.00000000       0.006
   0.50000000  0.06250000  0.00000000       0.006
  -0.43750000  0.06250000  0.00000000       0.006
  -0.37500000  0.06250000  0.00000000       0.006
  -0.31250000  0.06250000  0.00000000       0.006
  -0.25000000  0.06250000  0.00000000       0.006
  -0.18750000  0.06250000  0.00000000       0.006
  -0.12500000  0.06250000  0.00000000       0.006
  -0.06250000  0.06250000  0.00000000       0.003
   0.12500000  0.12500000  0.00000000       0.001
   0.18750000  0.12500000  0.00000000       0.006
   0.25000000  0.12500000  0.00000000       0.006
   0.31250000  0.12500000  0.00000000       0.006
   0.37500000  0.12500000  0.00000000       0.006
   0.43750000  0.12500000  0.00000000       0.006
   0.50000000  0.12500000  0.00000000       0.006
  -0.43750000  0.12500000  0.00000000       0.006
  -0.37500000  0.12500000  0.00000000       0.006
  -0.31250000  0.12500000  0.00000000       0.006
  -0.25000000  0.12500000  0.00000000       0.006
  -0.18750000  0.12500000  0.00000000       0.006
  -0.12500000  0.12500000  0.00000000       0.003
   0.18750000  0.18750000  0.00000000       0.001
   0.25000000  0.18750000  0.00000000       0.006
   0.31250000  0.18750000  0.00000000       0.006
   0.37500000  0.18750000  0.00000000       0.006
   0.43750000  0.18750000  0.00000000       0.006
   0.50000000  0.18750000  0.00000000       0.006
  -0.43750000  0.18750000  0.00000000       0.006
  -0.37500000  0.18750000  0.00000000       0.006
  -0.31250000  0.18750000  0.00000000       0.006
  -0.25000000  0.18750000  0.00000000       0.006
  -0.18750000  0.18750000  0.00000000       0.003
   0.25000000  0.25000000  0.00000000       0.001
   0.31250000  0.25000000  0.00000000       0.006
   0.37500000  0.25000000  0.00000000       0.006
   0.43750000  0.25000000  0.00000000       0.006
   0.50000000  0.25000000  0.00000000       0.006
  -0.43750000  0.25000000  0.00000000       0.006
  -0.37500000  0.25000000  0.00000000       0.006
  -0.31250000  0.25000000  0.00000000       0.006
  -0.25000000  0.25000000  0.00000000       0.003
   0.31250000  0.31250000  0.00000000       0.001
   0.37500000  0.31250000  0.00000000       0.006
   0.43750000  0.31250000  0.00000000       0.006
   0.50000000  0.31250000  0.00000000       0.006
  -0.43750000  0.31250000  0.00000000       0.006
  -0.37500000  0.31250000  0.00000000       0.006
  -0.31250000  0.31250000  0.00000000       0.003
   0.37500000  0.37500000  0.00000000       0.001
   0.43750000  0.37500000  0.00000000       0.006
   0.50000000  0.37500000  0.00000000       0.006
  -0.43750000  0.37500000  0.00000000       0.006
  -0.37500000  0.37500000  0.00000000       0.003
   0.43750000  0.43750000  0.00000000       0.001
   0.50000000  0.43750000  0.00000000       0.006
  -0.43750000  0.43750000  0.00000000       0.003
   0.50000000  0.50000000  0.00000000       0.001
   0.18750000  0.12500000  0.06250000       0.006
   0.25000000  0.12500000  0.06250000       0.012
   0.31250000  0.12500000  0.06250000       0.012
   0.37500000  0.12500000  0.06250000       0.012
   0.43750000  0.12500000  0.06250000       0.012
   0.50000000  0.12500000  0.06250000       0.012
  -0.43750000  0.12500000  0.06250000       0.006
   0.25000000  0.18750000  0.06250000       0.006
   0.31250000  0.18750000  0.06250000       0.012
   0.37500000  0.18750000  0.06250000       0.012
   0.43750000  0.18750000  0.06250000       0.012
   0.50000000  0.18750000  0.06250000       0.012
  -0.43750000  0.18750000  0.06250000       0.012
  -0.37500000  0.18750000  0.06250000       0.012
  -0.31250000  0.18750000  0.06250000       0.012
  -0.25000000  0.18750000  0.06250000       0.012
  -0.18750000  0.18750000  0.06250000       0.012
  -0.12500000  0.18750000  0.06250000       0.006
   0.31250000  0.25000000  0.06250000       0.006
   0.37500000  0.25000000  0.06250000       0.012
   0.43750000  0.25000000  0.06250000       0.012
   0.50000000  0.25000000  0.06250000       0.012
  -0.43750000  0.25000000  0.06250000       0.012
  -0.37500000  0.25000000  0.06250000       0.012
  -0.31250000  0.25000000  0.06250000       0.012
  -0.25000000  0.25000000  0.06250000       0.012
  -0.18750000  0.25000000  0.06250000       0.006
   0.37500000  0.31250000  0.06250000       0.006
   0.43750000  0.31250000  0.06250000       0.012
   0.50000000  0.31250000  0.06250000       0.012
  -0.43750000  0.31250000  0.06250000       0.012
  -0.37500000  0.31250000  0.06250000       0.012
  -0.31250000  0.31250000  0.06250000       0.012
  -0.25000000  0.31250000  0.06250000       0.006
   0.43750000  0.37500000  0.06250000       0.006
   0.50000000  0.37500000  0.06250000       0.012
  -0.43750000  0.37500000  0.06250000       0.012
  -0.37500000  0.37500000  0.06250000       0.012
  -0.31250000  0.37500000  0.06250000       0.006
   0.50000000  0.43750000  0.06250000       0.006
  -0.43750000  0.43750000  0.06250000       0.012
  -0.37500000  0.43750000  0.06250000       0.006
  -0.43750000  0.50000000  0.06250000       0.003
   0.37500000  0.25000000  0.12500000       0.006
   0.43750000  0.25000000  0.12500000       0.012
   0.50000000  0.25000000  0.12500000       0.012
  -0.43750000  0.25000000  0.12500000       0.012
  -0.37500000  0.25000000  0.12500000       0.006
   0.43750000  0.31250000  0.12500000       0.006
   0.50000000  0.31250000  0.12500000       0.012
  -0.43750000  0.31250000  0.12500000       0.012
  -0.37500000  0.31250000  0.12500000       0.012
  -0.31250000  0.31250000  0.12500000       0.012
  -0.25000000  0.31250000  0.12500000       0.012
  -0.18750000  0.31250000  0.12500000       0.006
   0.50000000  0.37500000  0.12500000       0.006
  -0.43750000  0.37500000  0.12500000       0.012
  -0.37500000  0.37500000  0.12500000       0.012
  -0.31250000  0.37500000  0.12500000       0.012
  -0.25000000  0.37500000  0.12500000       0.006
  -0.43750000  0.43750000  0.12500000       0.006
  -0.37500000  0.43750000  0.12500000       0.012
  -0.31250000  0.43750000  0.12500000       0.006
  -0.37500000  0.50000000  0.12500000       0.003
  -0.43750000  0.37500000  0.18750000       0.006
  -0.37500000  0.37500000  0.18750000       0.012
  -0.31250000  0.37500000  0.18750000       0.006
  -0.37500000  0.43750000  0.18750000       0.006
  -0.31250000  0.43750000  0.18750000       0.012
  -0.25000000  0.43750000  0.18750000       0.006
  -0.31250000  0.50000000  0.18750000       0.003
  -0.25000000  0.50000000  0.25000000       0.001
 
 position of ions in fractional coordinates (direct lattice) 
   0.87500000  0.87500000  0.87500000
   0.12500000  0.12500000  0.12500000
 
 position of ions in cartesian coordinates  (Angst):
   3.90704738  2.76270050  6.76720537
   0.55814962  0.39467150  0.96674362
 


--------------------------------------------------------------------------------------------------------


 k-point  1 :   0.0000 0.0000 0.0000  plane waves:    1243
 k-point  2 :   0.0625 0.0000 0.0000  plane waves:    1239
 k-point  3 :   0.1250 0.0000 0.0000  plane waves:    1209
 k-point  4 :   0.1875 0.0000 0.0000  plane waves:    1215
 k-point  5 :   0.2500 0.0000 0.0000  plane waves:    1203
 k-point  6 :   0.3125 0.0000 0.0000  plane waves:    1206
 k-point  7 :   0.3750 0.0000 0.0000  plane waves:    1191
 k-point  8 :   0.4375 0.0000 0.0000  plane waves:    1185
 k-point  9 :   0.5000 0.0000 0.0000  plane waves:    1194
 k-point 10 :   0.0625 0.0625 0.0000  plane waves:    1235
 k-point 11 :   0.1250 0.0625 0.0000  plane waves:    1215
 k-point 12 :   0.1875 0.0625 0.0000  plane waves:    1203
 k-point 13 :   0.2500 0.0625 0.0000  plane waves:    1206
 k-point 14 :   0.3125 0.0625 0.0000  plane waves:    1202
 k-point 15 :   0.3750 0.0625 0.0000  plane waves:    1197
 k-point 16 :   0.4375 0.0625 0.0000  plane waves:    1189
 k-point 17 :   0.5000 0.0625 0.0000  plane waves:    1192
 k-point 18 :  -0.4375 0.0625 0.0000  plane waves:    1189
 k-point 19 :  -0.3750 0.0625 0.0000  plane waves:    1194
 k-point 20 :  -0.3125 0.0625 0.0000  plane waves:    1201
 k-point 21 :  -0.2500 0.0625 0.0000  plane waves:    1203
 k-point 22 :  -0.1875 0.0625 0.0000  plane waves:    1206
 k-point 23 :  -0.1250 0.0625 0.0000  plane waves:    1206
 k-point 24 :  -0.0625 0.0625 0.0000  plane waves:    1219
 k-point 25 :   0.1250 0.1250 0.0000  plane waves:    1211
 k-point 26 :   0.1875 0.1250 0.0000  plane waves:    1206
 k-point 27 :   0.2500 0.1250 0.0000  plane waves:    1204
 k-point 28 :   0.3125 0.1250 0.0000  plane waves:    1205
 k-point 29 :   0.3750 0.1250 0.0000  plane waves:    1193
 k-point 30 :   0.4375 0.1250 0.0000  plane waves:    1198
 k-point 31 :   0.5000 0.1250 0.0000  plane waves:    1196
 k-point 32 :  -0.4375 0.1250 0.0000  plane waves:    1195
 k-point 33 :  -0.3750 0.1250 0.0000  plane waves:    1194
 k-point 34 :  -0.3125 0.1250 0.0000  plane waves:    1202
 k-point 35 :  -0.2500 0.1250 0.0000  plane waves:    1198
 k-point 36 :  -0.1875 0.1250 0.0000  plane waves:    1203
 k-point 37 :  -0.1250 0.1250 0.0000  plane waves:    1217
 k-point 38 :   0.1875 0.1875 0.0000  plane waves:    1199
 k-point 39 :   0.2500 0.1875 0.0000  plane waves:    1204
 k-point 40 :   0.3125 0.1875 0.0000  plane waves:    1210
 k-point 41 :   0.3750 0.1875 0.0000  plane waves:    1199
 k-point 42 :   0.4375 0.1875 0.0000  plane waves:    1198
 k-point 43 :   0.5000 0.1875 0.0000  plane waves:    1198
 k-point 44 :  -0.4375 0.1875 0.0000  plane waves:    1204
 k-point 45 :  -0.3750 0.1875 0.0000  plane waves:    1188
 k-point 46 :  -0.3125 0.1875 0.0000  plane waves:    1189
 k-point 47 :  -0.2500 0.1875 0.0000  plane waves:    1195
 k-point 48 :  -0.1875 0.1875 0.0000  plane waves:    1203
 k-point 49 :   0.2500 0.2500 0.0000  plane waves:    1198
 k-point 50 :   0.3125 0.2500 0.0000  plane waves:    1208
 k-point 51 :   0.3750 0.2500 0.0000  plane waves:    1202
 k-point 52 :   0.4375 0.2500 0.0000  plane waves:    1203
 k-point 53 :   0.5000 0.2500 0.0000  plane waves:    1197
 k-point 54 :  -0.4375 0.2500 0.0000  plane waves:    1194
 k-point 55 :  -0.3750 0.2500 0.0000  plane waves:    1191
 k-point 56 :  -0.3125 0.2500 0.0000  plane waves:    1187
 k-point 57 :  -0.2500 0.2500 0.0000  plane waves:    1195
 k-point 58 :   0.3125 0.3125 0.0000  plane waves:    1214
 k-point 59 :   0.3750 0.3125 0.0000  plane waves:    1207
 k-point 60 :   0.4375 0.3125 0.0000  plane waves:    1199
 k-point 61 :   0.5000 0.3125 0.0000  plane waves:    1201
 k-point 62 :  -0.4375 0.3125 0.0000  plane waves:    1191
 k-point 63 :  -0.3750 0.3125 0.0000  plane waves:    1190
 k-point 64 :  -0.3125 0.3125 0.0000  plane waves:    1196
 k-point 65 :   0.3750 0.3750 0.0000  plane waves:    1202
 k-point 66 :   0.4375 0.3750 0.0000  plane waves:    1199
 k-point 67 :   0.5000 0.3750 0.0000  plane waves:    1199
 k-point 68 :  -0.4375 0.3750 0.0000  plane waves:    1190
 k-point 69 :  -0.3750 0.3750 0.0000  plane waves:    1202
 k-point 70 :   0.4375 0.4375 0.0000  plane waves:    1190
 k-point 71 :   0.5000 0.4375 0.0000  plane waves:    1196
 k-point 72 :  -0.4375 0.4375 0.0000  plane waves:    1188
 k-point 73 :   0.5000 0.5000 0.0000  plane waves:    1186
 k-point 74 :   0.1875 0.1250 0.0625  plane waves:    1206
 k-point 75 :   0.2500 0.1250 0.0625  plane waves:    1205
 k-point 76 :   0.3125 0.1250 0.0625  plane waves:    1206
 k-point 77 :   0.3750 0.1250 0.0625  plane waves:    1201
 k-point 78 :   0.4375 0.1250 0.0625  plane waves:    1198
 k-point 79 :   0.5000 0.1250 0.0625  plane waves:    1198
 k-point 80 :  -0.4375 0.1250 0.0625  plane waves:    1192
 k-point 81 :   0.2500 0.1875 0.0625  plane waves:    1208
 k-point 82 :   0.3125 0.1875 0.0625  plane waves:    1207
 k-point 83 :   0.3750 0.1875 0.0625  plane waves:    1201
 k-point 84 :   0.4375 0.1875 0.0625  plane waves:    1198
 k-point 85 :   0.5000 0.1875 0.0625  plane waves:    1195
 k-point 86 :  -0.4375 0.1875 0.0625  plane waves:    1193
 k-point 87 :  -0.3750 0.1875 0.0625  plane waves:    1192
 k-point 88 :  -0.3125 0.1875 0.0625  plane waves:    1195
 k-point 89 :  -0.2500 0.1875 0.0625  plane waves:    1191
 k-point 90 :  -0.1875 0.1875 0.0625  plane waves:    1201
 k-point 91 :  -0.1250 0.1875 0.0625  plane waves:    1206
 k-point 92 :   0.3125 0.2500 0.0625  plane waves:    1205
 k-point 93 :   0.3750 0.2500 0.0625  plane waves:    1205
 k-point 94 :   0.4375 0.2500 0.0625  plane waves:    1196
 k-point 95 :   0.5000 0.2500 0.0625  plane waves:    1201
 k-point 96 :  -0.4375 0.2500 0.0625  plane waves:    1195
 k-point 97 :  -0.3750 0.2500 0.0625  plane waves:    1190
 k-point 98 :  -0.3125 0.2500 0.0625  plane waves:    1198
 k-point 99 :  -0.2500 0.2500 0.0625  plane waves:    1195
 k-point ** :  -0.1875 0.2500 0.0625  plane waves:    1202
 k-point ** :   0.3750 0.3125 0.0625  plane waves:    1200
 k-point ** :   0.4375 0.3125 0.0625  plane waves:    1204
 k-point ** :   0.5000 0.3125 0.0625  plane waves:    1199
 k-point ** :  -0.4375 0.3125 0.0625  plane waves:    1196
 k-point ** :  -0.3750 0.3125 0.0625  plane waves:    1187
 k-point ** :  -0.3125 0.3125 0.0625  plane waves:    1189
 k-point ** :  -0.2500 0.3125 0.0625  plane waves:    1188
 k-point ** :   0.4375 0.3750 0.0625  plane waves:    1203
 k-point ** :   0.5000 0.3750 0.0625  plane waves:    1198
 k-point ** :  -0.4375 0.3750 0.0625  plane waves:    1199
 k-point ** :  -0.3750 0.3750 0.0625  plane waves:    1188
 k-point ** :  -0.3125 0.3750 0.0625  plane waves:    1189
 k-point ** :   0.5000 0.4375 0.0625  plane waves:    1195
 k-point ** :  -0.4375 0.4375 0.0625  plane waves:    1193
 k-point ** :  -0.3750 0.4375 0.0625  plane waves:    1188
 k-point ** :  -0.4375 0.5000 0.0625  plane waves:    1196
 k-point ** :   0.3750 0.2500 0.1250  plane waves:    1210
 k-point ** :   0.4375 0.2500 0.1250  plane waves:    1199
 k-point ** :   0.5000 0.2500 0.1250  plane waves:    1198
 k-point ** :  -0.4375 0.2500 0.1250  plane waves:    1189
 k-point ** :  -0.3750 0.2500 0.1250  plane waves:    1198
 k-point ** :   0.4375 0.3125 0.1250  plane waves:    1204
 k-point ** :   0.5000 0.3125 0.1250  plane waves:    1199
 k-point ** :  -0.4375 0.3125 0.1250  plane waves:    1203
 k-point ** :  -0.3750 0.3125 0.1250  plane waves:    1192
 k-point ** :  -0.3125 0.3125 0.1250  plane waves:    1192
 k-point ** :  -0.2500 0.3125 0.1250  plane waves:    1195
 k-point ** :  -0.1875 0.3125 0.1250  plane waves:    1193
 k-point ** :   0.5000 0.3750 0.1250  plane waves:    1191
 k-point ** :  -0.4375 0.3750 0.1250  plane waves:    1197
 k-point ** :  -0.3750 0.3750 0.1250  plane waves:    1193
 k-point ** :  -0.3125 0.3750 0.1250  plane waves:    1190
 k-point ** :  -0.2500 0.3750 0.1250  plane waves:    1195
 k-point ** :  -0.4375 0.4375 0.1250  plane waves:    1195
 k-point ** :  -0.3750 0.4375 0.1250  plane waves:    1193
 k-point ** :  -0.3125 0.4375 0.1250  plane waves:    1197
 k-point ** :  -0.3750 0.5000 0.1250  plane waves:    1192
 k-point ** :  -0.4375 0.3750 0.1875  plane waves:    1198
 k-point ** :  -0.3750 0.3750 0.1875  plane waves:    1201
 k-point ** :  -0.3125 0.3750 0.1875  plane waves:    1192
 k-point ** :  -0.3750 0.4375 0.1875  plane waves:    1190
 k-point ** :  -0.3125 0.4375 0.1875  plane waves:    1195
 k-point ** :  -0.2500 0.4375 0.1875  plane waves:    1197
 k-point ** :  -0.3125 0.5000 0.1875  plane waves:    1194
 k-point ** :  -0.2500 0.5000 0.2500  plane waves:    1216

 maximum and minimum number of plane-waves per node :       318      289

 maximum number of plane-waves:      1243
 maximum index in each direction: 
   IXMAX=    7   IYMAX=    7   IZMAX=    7
   IXMIN=   -7   IYMIN=   -7   IZMIN=   -7

 NGX is ok and might be reduce to  30
 NGY is ok and might be reduce to  30
 NGZ is ok and might be reduce to  30

 parallel 3D FFT for wavefunctions:
    minimum data exchange during FFTs selected (reduces bandwidth)
 parallel 3D FFT for charge:
    minimum data exchange during FFTs selected (reduces bandwidth)


 total amount of memory used by VASP on root node    36201. kBytes
========================================================================

   base      :      30000. kBytes
   nonl-proj :       2979. kBytes
   fftplans  :        700. kBytes
   grid      :        998. kBytes
   one-center:          3. kBytes
   wavefun   :       1521. kBytes
 
 Broyden mixing: mesh for mixing (old mesh)
   NGX = 15   NGY = 15   NGZ = 15
  (NGX  = 60   NGY  = 60   NGZ  = 60)
  gives a total of   3375 points

 initial charge density was supplied:
 charge density of overlapping atoms calculated
 number of electron       8.0000000 magnetization 
 keeping initial charge density in first step


--------------------------------------------------------------------------------------------------------


 Maximum index for augmentation-charges         1526 (set IRDMAX)


--------------------------------------------------------------------------------------------------------


 First call to EWALD:  gamma=   0.514
 Maximum number of real-space cells 3x 3x 3
 Maximum number of reciprocal cells 3x 3x 3

 FEWALD executed in parallel
    FEWALD:  cpu time    0.00: real time    0.00


----------------------------------------- Iteration    1(   1)  ---------------------------------------


vdW kernel read from vdw_kernel.bindat
  0.0000  0.2424  0.5071  0.7962  1.1119  1.4567  1.8333  2.2446  2.6937  3.1842
  3.7199  4.3049  4.9438  5.6415  6.4036  7.2358  8.1446  9.1372 10.2212 11.4050
 12.6979 14.1099 15.6519 17.3360 19.1751 21.1837 23.3773 25.7729 28.3892 31.2465
 34.3669 37.7748 41.4965 45.5611 50.0000
 
    POTLOK:  cpu time    3.93: real time    4.08
    SETDIJ:  cpu time    0.01: real time    0.01
     EDDAV:  cpu time    1.42: real time    1.42
       DOS:  cpu time    0.00: real time    0.00
    --------------------------------------------
      LOOP:  cpu time    5.36: real time    6.12

 eigenvalue-minimisations  :  2320
 total energy-change (2. order) : 0.7863785E+01  (-0.3299503E+03)
 number of electron       8.0000000 magnetization 
 augmentation part        8.0000000 magnetization 

 Free energy of the ion-electron system (eV)
  ---------------------------------------------------
  alpha Z        PSCENC =         3.29317992
  Ewald energy   TEWEN  =      -226.94489173
  -1/2 Hartree   DENC   =       -11.32339116
  -exchange  EXHF       =         0.00000000
  -V(xc)+E(xc)   XCENC  =       -20.24410379
  PAW double counting   =       189.40224250     -152.61488262
  entropy T*S    EENTRO =        -0.00611621
  eigenvalues    EBANDS =        17.70758538
  atomic energy  EATOM  =       208.59416316
  ---------------------------------------------------
  free energy    TOTEN  =         7.86378544 eV

  energy without entropy =        7.86990164  energy(sigma->0) =        7.86684354


--------------------------------------------------------------------------------------------------------




----------------------------------------- Iteration    1(   2)  ---------------------------------------


     EDDAV:  cpu time    2.80: real time    2.80
       DOS:  cpu time    0.01: real time    0.01
    --------------------------------------------
      LOOP:  cpu time    2.81: real time    3.25

 eigenvalue-minimisations  :  3448
 total energy-change (2. order) :-0.1606329E+02  (-0.1547621E+02)
 number of electron       8.0000000 magnetization 
 augmentation part        8.0000000 magnetization 

 Free energy of the ion-electron system (eV)
  ---------------------------------------------------
  alpha Z        PSCENC =         3.29317992
  Ewald energy   TEWEN  =      -226.94489173
  -1/2 Hartree   DENC   =       -11.32339116
  -exchange  EXHF       =         0.00000000
  -V(xc)+E(xc)   XCENC  =       -20.24410379
  PAW double counting   =       189.40224250     -152.61488262
  entropy T*S    EENTRO =        -0.00000211
  eigenvalues    EBANDS =         1.63817954
  atomic energy  EATOM  =       208.59416316
  ---------------------------------------------------
  free energy    TOTEN  =        -8.19950630 eV

  energy without entropy =       -8.19950420  energy(sigma->0) =       -8.19950525


--------------------------------------------------------------------------------------------------------




----------------------------------------- Iteration    1(   3)  ---------------------------------------


     EDDAV:  cpu time    2.70: real time    2.70
       DOS:  cpu time    0.00: real time    0.00
    --------------------------------------------
      LOOP:  cpu time    2.70: real time    4.19

 eigenvalue-minimisations  :  3120
 total energy-change (2. order) :-0.2142700E+00  (-0.2142696E+00)
 number of electron       8.0000000 magnetization 
 augmentation part        8.0000000 magnetization 

 Free energy of the ion-electron system (eV)
  ---------------------------------------------------
  alpha Z        PSCENC =         3.29317992
  Ewald energy   TEWEN  =      -226.94489173
  -1/2 Hartree   DENC   =       -11.32339116
  -exchange  EXHF       =         0.00000000
  -V(xc)+E(xc)   XCENC  =       -20.24410379
  PAW double counting   =       189.40224250     -152.61488262
  entropy T*S    EENTRO =        -0.00000128
  eigenvalues    EBANDS =         1.42390869
  atomic energy  EATOM  =       208.59416316
  ---------------------------------------------------
  free energy    TOTEN  =        -8.41377633 eV

  energy without entropy =       -8.41377505  energy(sigma->0) =       -8.41377569


--------------------------------------------------------------------------------------------------------




----------------------------------------- Iteration    1(   4)  ---------------------------------------


     EDDAV:  cpu time    3.09: real time    3.09
       DOS:  cpu time    0.00: real time    0.00
    --------------------------------------------
      LOOP:  cpu time    3.10: real time    3.33

 eigenvalue-minimisations  :  3600
 total energy-change (2. order) :-0.1002297E-02  (-0.1002297E-02)
 number of electron       8.0000000 magnetization 
 augmentation part        8.0000000 magnetization 

 Free energy of the ion-electron system (eV)
  ---------------------------------------------------
  alpha Z        PSCENC =         3.29317992
  Ewald energy   TEWEN  =      -226.94489173
  -1/2 Hartree   DENC   =       -11.32339116
  -exchange  EXHF       =         0.00000000
  -V(xc)+E(xc)   XCENC  =       -20.24410379
  PAW double counting   =       189.40224250     -152.61488262
  entropy T*S    EENTRO =        -0.00000128
  eigenvalues    EBANDS =         1.42290639
[...]

 k-point 110 :      -0.4375    0.3750    0.0625
  band No.  band energies     occupation 
      1      -2.8470      2.00000
      2      -1.1647      2.00000
      3       1.8967      2.00000
      4       2.9457      2.00000
      5       7.0747      0.00000
      6       8.6893      0.00000
      7      12.3403      0.00000
      8      13.8401      0.00000

 k-point 111 :      -0.3750    0.3750    0.0625
  band No.  band energies     occupation 
      1      -2.5838      2.00000
      2      -1.4204      2.00000
      3       1.5191      2.00000
      4       3.0695      2.00000
      5       7.2289      0.00000
      6       9.7970      0.00000
      7      12.1171      0.00000
      8      13.2658      0.00000

 k-point 112 :      -0.3125    0.3750    0.0625
  band No.  band energies     occupation 
      1      -2.7946      2.00000
      2      -1.2007      2.00000
      3       1.3602      2.00000
      4       3.2758      2.00000
      5       7.4644      0.00000
      6      10.9721      0.00000
      7      11.7996      0.00000
      8      12.3053      0.00000

 k-point 113 :       0.5000    0.4375    0.0625
  band No.  band energies     occupation 
      1      -2.9551      2.00000
      2      -1.1138      2.00000
      3       2.6845      2.00000
      4       2.7694      2.00000
      5       6.6493      0.00000
      6       7.0573      0.00000
      7      13.8230      0.00000
      8      14.7092      0.00000

 k-point 114 :      -0.4375    0.4375    0.0625
  band No.  band energies     occupation 
      1      -2.4871      2.00000
      2      -1.5848      2.00000
      3       2.2373      2.00000
      4       2.7590      2.00000
      5       6.8666      0.00000
      6       7.5858      0.00000
      7      13.6288      0.00000
      8      14.6608      0.00000

 k-point 115 :      -0.3750    0.4375    0.0625
  band No.  band energies     occupation 
      1      -2.2478      2.00000
      2      -1.7785      2.00000
      3       1.7775      2.00000
      4       2.8716      2.00000
      5       7.0058      0.00000
      6       8.5963      0.00000
      7      13.2640      0.00000
      8      13.5900      0.00000

 k-point 116 :      -0.4375    0.5000    0.0625
  band No.  band energies     occupation 
      1      -2.0688      2.00000
      2      -2.0688      2.00000
      3       2.6592      2.00000
      4       2.6592      2.00000
      5       6.7657      0.00000
      6       6.7657      0.00000
      7      14.9058      0.00000
      8      14.9058      0.00000

 k-point 117 :       0.3750    0.2500    0.1250
  band No.  band energies     occupation 
      1      -4.8453      2.00000
      2       1.3741      2.00000
      3       2.9835      2.00000
      4       4.2191      2.00000
      5       8.0942      0.00000
      6       9.4911      0.00000
      7       9.8453      0.00000
      8      11.0686      0.00000

 k-point 118 :       0.4375    0.2500    0.1250
  band No.  band energies     occupation 
      1      -4.4360      2.00000
      2       0.6310      2.00000
      3       2.5944      2.00000
      4       3.9718      2.00000
      5       8.3906      0.00000
      6       9.4356      0.00000
      7       9.9143      0.00000
      8      11.4118      0.00000

 k-point 119 :       0.5000    0.2500    0.1250
  band No.  band energies     occupation 
      1      -3.9782      2.00000
      2      -0.1380      2.00000
      3       2.3838      2.00000
      4       3.7375      2.00000
      5       8.5167      0.00000
      6       9.1792      0.00000
      7      10.6286      0.00000
      8      11.5077      0.00000

 k-point 120 :      -0.4375    0.2500    0.1250
  band No.  band energies     occupation 
      1      -3.5488      2.00000
      2      -0.7774      2.00000
      3       2.2828      2.00000
      4       3.5748      2.00000
      5       8.5977      0.00000
      6       8.9386      0.00000
      7      11.4733      0.00000
      8      11.6716      0.00000

 k-point 121 :      -0.3750    0.2500    0.1250
  band No.  band energies     occupation 
      1      -3.3459      2.00000
      2      -1.0536      2.00000
      3       2.2532      2.00000
      4       3.5167      2.00000
      5       8.6790      0.00000
      6       8.7949      0.00000
      7      11.4840      0.00000
      8      12.6914      0.00000

 k-point 122 :       0.4375    0.3125    0.1250
  band No.  band energies     occupation 
      1      -4.2804      2.00000
      2       0.5648      2.00000
      3       2.6021      2.00000
      4       3.5206      2.00000
      5       7.7977      0.00000
      6       8.9170      0.00000
      7      10.4336      0.00000
      8      12.2750      0.00000

 k-point 123 :       0.5000    0.3125    0.1250
  band No.  band energies     occupation 
      1      -3.8348      2.00000
      2      -0.0726      2.00000
      3       2.2349      2.00000
      4       3.2815      2.00000
      5       8.1064      0.00000
      6       9.3113      0.00000
      7      10.1841      0.00000
      8      12.6265      0.00000

 k-point 124 :      -0.4375    0.3125    0.1250
  band No.  band energies     occupation 
      1      -3.3797      2.00000
      2      -0.6826      2.00000
      3       1.9814      2.00000
      4       3.1295      2.00000
      5       8.2380      0.00000
      6       9.8217      0.00000
      7      10.3036      0.00000
      8      12.6980      0.00000

 k-point 125 :      -0.3750    0.3125    0.1250
  band No.  band energies     occupation 
      1      -3.0696      2.00000
      2      -1.0678      2.00000
      3       1.8178      2.00000
      4       3.1050      2.00000
      5       8.3751      0.00000
      6       9.6474      0.00000
      7      11.3715      0.00000
      8      12.6613      0.00000

 k-point 126 :      -0.3125    0.3125    0.1250
  band No.  band energies     occupation 
      1      -3.1574      2.00000
      2      -0.9581      2.00000
      3       1.7501      2.00000
      4       3.2070      2.00000
      5       8.5761      0.00000
      6       9.4793      0.00000
      7      11.6201      0.00000
      8      12.5726      0.00000

 k-point 127 :      -0.2500    0.3125    0.1250
  band No.  band energies     occupation 
      1      -3.5526      2.00000
      2      -0.4603      2.00000
      3       1.8144      2.00000
      4       3.4133      2.00000
      5       8.8428      0.00000
      6       9.3209      0.00000
      7      10.6008      0.00000
      8      12.4951      0.00000

 k-point 128 :      -0.1875    0.3125    0.1250
  band No.  band energies     occupation 
      1      -4.0121      2.00000
      2       0.1256      2.00000
      3       2.0758      2.00000
      4       3.6879      2.00000
      5       8.9799      0.00000
      6       9.1519      0.00000
      7       9.9781      0.00000
      8      12.1176      0.00000

 k-point 129 :       0.5000    0.3750    0.1250
  band No.  band energies     occupation 
      1      -3.6091      2.00000
      2      -0.2777      2.00000
      3       2.3513      2.00000
      4       2.9373      2.00000
      5       7.6095      0.00000
      6       8.3164      0.00000
      7      11.3246      0.00000
      8      13.5090      0.00000

 k-point 130 :      -0.4375    0.3750    0.1250
  band No.  band energies     occupation 
      1      -3.1464      2.00000
      2      -0.8071      2.00000
      3       1.9941      2.00000
      4       2.7524      2.00000
      5       7.9036      0.00000
      6       8.9070      0.00000
      7      11.0664      0.00000
      8      13.8530      0.00000

 k-point 131 :      -0.3750    0.3750    0.1250
  band No.  band energies     occupation 
      1      -2.7582      2.00000
      2      -1.2225      2.00000
      3       1.6766      2.00000
      4       2.7435      2.00000
      5       8.0494      0.00000
      6       9.9070      0.00000
      7      10.8625      0.00000
      8      12.9952      0.00000

 k-point 132 :      -0.3125    0.3750    0.1250
  band No.  band energies     occupation 
      1      -2.7382      2.00000
      2      -1.2358      2.00000
      3       1.4917      2.00000
      4       2.8726      2.00000
      5       8.2470      0.00000
      6      10.4639      0.00000
      7      11.2671      0.00000
      8      11.7999      0.00000

 k-point 133 :      -0.2500    0.3750    0.1250
  band No.  band energies     occupation 
      1      -3.1008      2.00000
      2      -0.8660      2.00000
      3       1.5155      2.00000
      4       3.1070      2.00000
      5       8.5169      0.00000
      6      10.1527      0.00000
      7      10.8159      0.00000
      8      12.6000      0.00000

 k-point 134 :      -0.4375    0.4375    0.1250
  band No.  band energies     occupation 
      1      -2.8470      2.00000
      2      -1.1478      2.00000
      3       2.2458      2.00000
      4       2.5267      2.00000
      5       7.5520      0.00000
      6       7.8925      0.00000
      7      12.3134      0.00000
      8      14.4504      0.00000

 k-point 135 :      -0.3750    0.4375    0.1250
  band No.  band energies     occupation 
      1      -2.4082      2.00000
      2      -1.5648      2.00000
      3       1.8753      2.00000
      4       2.4700      2.00000
      5       7.7995      0.00000
      6       8.7049      0.00000
      7      12.0613      0.00000
      8      13.1687      0.00000

 k-point 136 :      -0.3125    0.4375    0.1250
  band No.  band energies     occupation 
      1      -2.3610      2.00000
      2      -1.5830      2.00000
      3       1.5578      2.00000
      4       2.6174      2.00000
      5       7.9844      0.00000
      6       9.8440      0.00000
      7      11.7394      0.00000
      8      11.9990      0.00000

 k-point 137 :      -0.3750    0.5000    0.1250
  band No.  band energies     occupation 
      1      -2.0163      2.00000
      2      -2.0163      2.00000
      3       2.2995      2.00000
      4       2.2995      2.00000
      5       7.6417      0.00000
      6       7.6417      0.00000
      7      13.3892      0.00000
      8      13.3892      0.00000

 k-point 138 :      -0.4375    0.3750    0.1875
  band No.  band energies     occupation 
      1      -3.3840      2.00000
      2      -0.5412      2.00000
      3       1.8685      2.00000
      4       2.9607      2.00000
      5       8.8053      0.00000
      6       9.3710      0.00000
      7       9.9422      0.00000
      8      13.4469      0.00000

 k-point 139 :      -0.3750    0.3750    0.1875
  band No.  band energies     occupation 
      1      -2.9432      2.00000
      2      -1.0123      2.00000
      3       1.6720      2.00000
      4       2.7276      2.00000
      5       9.1066      0.00000
      6       9.5314      0.00000
      7      10.3093      0.00000
      8      12.7727      0.00000

 k-point 140 :      -0.3125    0.3750    0.1875
  band No.  band energies     occupation 
      1      -2.7174      2.00000
      2      -1.2532      2.00000
      3       1.6133      2.00000
      4       2.6429      2.00000
      5       9.1863      0.00000
      6       9.4378      0.00000
      7      11.2445      0.00000
      8      11.6684      0.00000

 k-point 141 :      -0.3750    0.4375    0.1875
  band No.  band energies     occupation 
      1      -2.6889      2.00000
      2      -1.2357      2.00000
      3       1.8341      2.00000
      4       2.3752      2.00000
      5       8.7451      0.00000
      6       9.0280      0.00000
      7      10.7965      0.00000
      8      12.9384      0.00000

 k-point 142 :      -0.3125    0.4375    0.1875
  band No.  band energies     occupation 
      1      -2.3456      2.00000
      2      -1.5555      2.00000
      3       1.6794      2.00000
      4       2.2583      2.00000
      5       9.0118      0.00000
      6       9.9216      0.00000
      7      10.6345      0.00000
      8      11.6227      0.00000

 k-point 143 :      -0.2500    0.4375    0.1875
  band No.  band energies     occupation 
      1      -2.5144      2.00000
      2      -1.3886      2.00000
      3       1.5820      2.00000
      4       2.4116      2.00000
      5       9.2186      0.00000
      6      10.0653      0.00000
      7      10.5268      0.00000
      8      11.4516      0.00000

 k-point 144 :      -0.3125    0.5000    0.1875
  band No.  band energies     occupation 
      1      -1.9603      2.00000
      2      -1.9602      2.00000
      3       1.9968      2.00000
      4       1.9968      2.00000
      5       8.8157      0.00000
      6       8.8157      0.00000
      7      11.8101      0.00000
      8      11.8101      0.00000

 k-point 145 :      -0.2500    0.5000    0.2500
  band No.  band energies     occupation 
      1      -1.9359      2.00000
      2      -1.9359      2.00000
      3       1.8821      2.00000
      4       1.8821      2.00000
      5       9.8997      0.00000
      6       9.8997      0.00000
      7      10.5924      0.00000
      8      10.5924      0.00000


--------------------------------------------------------------------------------------------------------


 soft charge-density along one line, spin component           1
         0         1         2         3         4         5         6         7         8         9
 total charge-density along one line
 
 pseudopotential strength for first ion, spin component:           1
 18.530  25.848   0.000   0.000   0.000   0.000   0.000   0.000
 25.848  36.061   0.000   0.000   0.000   0.000   0.000   0.000
  0.000   0.000   4.199   0.000   0.000   7.816   0.000   0.000
  0.000   0.000   0.000   4.199   0.000   0.000   7.816   0.000
  0.000   0.000   0.000   0.000   4.199   0.000   0.000   7.816
  0.000   0.000   7.816   0.000   0.000  14.561   0.000   0.000
  0.000   0.000   0.000   7.816   0.000   0.000  14.561   0.000
  0.000   0.000   0.000   0.000   7.816   0.000   0.000  14.561
 total augmentation occupancy for first ion, spin component:           1
  3.252  -0.964   0.000   0.000   0.000   0.000   0.000   0.000
 -0.964   0.490   0.000   0.000   0.000   0.000   0.000   0.000
  0.000   0.000   2.261   0.000   0.000  -0.407   0.000   0.000
  0.000   0.000   0.000   2.261   0.000   0.000  -0.407   0.000
  0.000   0.000   0.000   0.000   2.261   0.000   0.000  -0.407
  0.000   0.000  -0.407   0.000   0.000   0.084   0.000   0.000
  0.000   0.000   0.000  -0.407   0.000   0.000   0.084   0.000
  0.000   0.000   0.000   0.000  -0.407   0.000   0.000   0.084


------------------------ aborting loop because EDIFF is reached ----------------------------------------


    CHARGE:  cpu time    0.14: real time    0.14
    FORLOC:  cpu time    0.00: real time    0.00
    FORNL :  cpu time    0.15: real time    0.15
    STRESS:  cpu time    0.84: real time    0.84
    FORCOR:  cpu time    1.78: real time    1.78
    FORHAR:  cpu time    0.00: real time    0.01
    MIXING:  cpu time    0.00: real time    0.00

  FORCE on cell =-STRESS in cart. coord.  units (eV):
  Direction    XX          YY          ZZ          XY          YZ          ZX
  --------------------------------------------------------------------------------------
  Alpha Z     3.29318     3.29318     3.29318
  Ewald     -75.64832   -75.64835   -75.64832    -0.00001     0.00001     0.00001
  Hartree     5.12416     5.12416     5.12416     0.00000     0.00000     0.00000
  E(xc)     -25.38040   -25.38040   -25.38040     0.00000     0.00000     0.00000
  Local     -29.55365   -29.55365   -29.55366     0.00001     0.00000     0.00000
  n-local    74.22320    77.61288    81.74868    -0.89156    -0.96626    -0.01862
  augment   -11.98052   -11.98052   -11.98053     0.00000     0.00000     0.00000
  Kinetic    53.36101    55.39029    61.04071     0.85048     1.23973    -0.56728
  Fock        0.00000     0.00000     0.00000     0.00000     0.00000     0.00000
  -------------------------------------------------------------------------------------
  Total       0.31335     0.31335     0.31335     0.00000     0.00000     0.00000
  in kB      12.27833    12.27833    12.27833     0.00000     0.00000     0.00000
  external pressure =       12.28 kB  Pullay stress =        0.00 kB


 VOLUME and BASIS-vectors are now :
 -----------------------------------------------------------------------------
  energy-cutoff  :      550.00
  volume of cell :       40.89
      direct lattice vectors                 reciprocal lattice vectors
     3.348898000  0.000000000  1.933487000     0.298605691 -0.105573000  0.000000000
     1.116299000  3.157372000  1.933487000     0.000000000  0.316719094  0.000000000
     0.000000000  0.000000000  3.866975000    -0.149302807 -0.105573020  0.258600069

  length of vectors
     3.866974243  3.866974707  3.866975000     0.316719145  0.316719094  0.316719096


 FORCES acting on ions
    electron-ion (+dipol)            ewald-force                    non-local-force                 convergence-correction
 -----------------------------------------------------------------------------------------------
   -.378E-05 0.692E-05 0.844E-05   0.634E-05 -.116E-04 -.142E-04   0.538E-16 0.694E-17 -.361E-15   0.151E-11 0.287E-11 0.544E-11
   0.378E-05 -.692E-05 -.844E-05   -.634E-05 0.116E-04 0.142E-04   -.130E-15 -.902E-16 0.416E-15   -.151E-11 -.287E-11 -.544E-11
 -----------------------------------------------------------------------------------------------
   0.176E-12 -.494E-13 -.558E-14   -.469E-16 0.276E-16 -.294E-16   -.763E-16 -.833E-16 0.555E-16   -.668E-16 0.185E-16 -.196E-14
 
 
 POSITION                                       TOTAL-FORCE (eV/Angst)
 -----------------------------------------------------------------------------------
      3.90705      2.76270      6.76721         0.000000      0.000000      0.000000
      0.55815      0.39467      0.96674         0.000000      0.000000      0.000000
 -----------------------------------------------------------------------------------
    total drift:                                0.000000      0.000000      0.000000


--------------------------------------------------------------------------------------------------------



  FREE ENERGIE OF THE ION-ELECTRON SYSTEM (eV)
  ---------------------------------------------------
  free  energy   TOTEN  =        -8.34036020 eV

  energy  without entropy=       -8.34032904  energy(sigma->0) =       -8.34034462
 


--------------------------------------------------------------------------------------------------------


    POTLOK:  cpu time    2.56: real time    3.09


--------------------------------------------------------------------------------------------------------




--------------------------------------------------------------------------------------------------------


  
 reached required accuracy - stopping structural energy minimisation
     LOOP+:  cpu time   67.20: real time   99.67
    4ORBIT:  cpu time    0.00: real time    0.00

 total amount of memory used by VASP on root node    36201. kBytes
========================================================================

   base      :      30000. kBytes
   nonl-proj :       2979. kBytes
   fftplans  :        700. kBytes
   grid      :        998. kBytes
   one-center:          3. kBytes
   wavefun   :       1521. kBytes
 
  
  
 General timing and accounting informations for this job:
 ========================================================
  
                  Total CPU time used (sec):       70.488
                            User time (sec):       69.856
                          System time (sec):        0.632
                         Elapsed time (sec):      113.570
  
                   Maximum memory used (kb):      107484.
                   Average memory used (kb):           0.
  
                          Minor page faults:        54590
                          Major page faults:            5
                 Voluntary context switches:          996
