<?xml version="1.0" encoding="ISO-8859-1"?>
<modeling>
 <generator>
  <i name="program" type="string">vasp </i>
  <i name="version" type="string">5.3.3  </i>
  <i name="subversion" type="string">18Dez12 (build Jan 30 2013 10:57:47) complex                          parallel </i>
  <i name="platform" type="string">LinuxIFC </i>
  <i name="date" type="string">2016 06 21 </i>
  <i name="time" type="string">13:51:33 </i>
 </generator>
 <incar>
  <i type="string" name="PREC">accurate</i>
  <i type="int" name="NELM">   400</i>
  <i type="int" name="IBRION">     2</i>
  <i name="EDIFF">      0.00000010</i>
  <i type="int" name="NSW">     1</i>
  <i name="ENCUT">    550.00000000</i>
  <i type="int" name="ISMEAR">     0</i>
  <i type="logical" name="LWAVE"> F  </i>
  <i type="logical" name="LCHARG"> F  </i>
  <i type="int" name="NELM">   400</i>
  <i type="string" name="GGA"> BO</i>
  <i name="PARAM1">      0.18333333</i>
  <i name="PARAM2">      0.22000000</i>
  <i type="logical" name="LUSE_VDW"> T  </i>
  <i name="AGGAC">      0.00000000</i>
 </incar>
 <kpoints>
  <generation param="Gamma">
   <v type="int" name="divisions">      16       16       16 </v>
   <v name="usershift">      0.00000000       0.00000000       0.00000000 </v>
   <v name="genvec1">      0.06250000       0.00000000       0.00000000 </v>
   <v name="genvec2">      0.00000000       0.06250000       0.00000000 </v>
   <v name="genvec3">      0.00000000       0.00000000       0.06250000 </v>
   <v name="shift">      0.00000000       0.00000000       0.00000000 </v>
  </generation>
  <varray name="kpointlist" >
   <v>       0.00000000       0.00000000       0.00000000 </v>
   <v>       0.06250000       0.00000000       0.00000000 </v>
   <v>       0.12500000       0.00000000       0.00000000 </v>
   <v>       0.18750000       0.00000000       0.00000000 </v>
   <v>       0.25000000       0.00000000       0.00000000 </v>
   <v>       0.31250000       0.00000000       0.00000000 </v>
   <v>       0.37500000       0.00000000       0.00000000 </v>
   <v>       0.43750000       0.00000000       0.00000000 </v>
   <v>       0.50000000       0.00000000       0.00000000 </v>
   <v>       0.06250000       0.06250000       0.00000000 </v>
   <v>       0.12500000       0.06250000       0.00000000 </v>
   <v>       0.18750000       0.06250000       0.00000000 </v>
   <v>       0.25000000       0.06250000       0.00000000 </v>
   <v>       0.31250000       0.06250000       0.00000000 </v>
   <v>       0.37500000       0.06250000       0.00000000 </v>
   <v>       0.43750000       0.06250000       0.00000000 </v>
   <v>       0.50000000       0.06250000       0.00000000 </v>
   <v>      -0.43750000       0.06250000       0.00000000 </v>
   <v>      -0.37500000       0.06250000       0.00000000 </v>
   <v>      -0.31250000       0.06250000       0.00000000 </v>
   <v>      -0.25000000       0.06250000       0.00000000 </v>
   <v>      -0.18750000       0.06250000       0.00000000 </v>
   <v>      -0.12500000       0.06250000       0.00000000 </v>
   <v>      -0.06250000       0.06250000       0.00000000 </v>
   <v>       0.12500000       0.12500000       0.00000000 </v>
   <v>       0.18750000       0.12500000       0.00000000 </v>
   <v>       0.25000000       0.12500000       0.00000000 </v>
   <v>       0.31250000       0.12500000       0.00000000 </v>
   <v>       0.37500000       0.12500000       0.00000000 </v>
   <v>       0.43750000       0.12500000       0.00000000 </v>
   <v>       0.50000000       0.12500000       0.00000000 </v>
   <v>      -0.43750000       0.12500000       0.00000000 </v>
   <v>      -0.37500000       0.12500000       0.00000000 </v>
   <v>      -0.31250000       0.12500000       0.00000000 </v>
   <v>      -0.25000000       0.12500000       0.00000000 </v>
   <v>      -0.18750000       0.12500000       0.00000000 </v>
   <v>      -0.12500000       0.12500000       0.00000000 </v>
   <v>       0.18750000       0.18750000       0.00000000 </v>
   <v>       0.25000000       0.18750000       0.00000000 </v>
   <v>       0.31250000       0.18750000       0.00000000 </v>
   <v>       0.37500000       0.18750000       0.00000000 </v>
   <v>       0.43750000       0.18750000       0.00000000 </v>
   <v>       0.50000000       0.18750000       0.00000000 </v>
   <v>      -0.43750000       0.18750000       0.00000000 </v>
   <v>      -0.37500000       0.18750000       0.00000000 </v>
   <v>      -0.31250000       0.18750000       0.00000000 </v>
   <v>      -0.25000000       0.18750000       0.00000000 </v>
   <v>      -0.18750000       0.18750000       0.00000000 </v>
   <v>       0.25000000       0.25000000       0.00000000 </v>
   <v>       0.31250000       0.25000000       0.00000000 </v>
   <v>       0.37500000       0.25000000       0.00000000 </v>
   <v>       0.43750000       0.25000000       0.00000000 </v>
   <v>       0.50000000       0.25000000       0.00000000 </v>
   <v>      -0.43750000       0.25000000       0.00000000 </v>
   <v>      -0.37500000       0.25000000       0.00000000 </v>
   <v>      -0.31250000       0.25000000       0.00000000 </v>
   <v>      -0.25000000       0.25000000       0.00000000 </v>
   <v>       0.31250000       0.31250000       0.00000000 </v>
   <v>       0.37500000       0.31250000       0.00000000 </v>
   <v>       0.43750000       0.31250000       0.00000000 </v>
   <v>       0.50000000       0.31250000       0.00000000 </v>
   <v>      -0.43750000       0.31250000       0.00000000 </v>
   <v>      -0.37500000       0.31250000       0.00000000 </v>
   <v>      -0.31250000       0.31250000       0.00000000 </v>
   <v>       0.37500000       0.37500000       0.00000000 </v>
   <v>       0.43750000       0.37500000       0.00000000 </v>
   <v>       0.50000000       0.37500000       0.00000000 </v>
   <v>      -0.43750000       0.37500000       0.00000000 </v>
   <v>      -0.37500000       0.37500000       0.00000000 </v>
   <v>       0.43750000       0.43750000       0.00000000 </v>
   <v>       0.50000000       0.43750000       0.00000000 </v>
   <v>      -0.43750000       0.43750000       0.00000000 </v>
   <v>       0.50000000       0.50000000       0.00000000 </v>
   <v>       0.18750000       0.12500000       0.06250000 </v>
   <v>       0.25000000       0.12500000       0.06250000 </v>
   <v>       0.31250000       0.12500000       0.06250000 </v>
   <v>       0.37500000       0.12500000       0.06250000 </v>
   <v>       0.43750000       0.12500000       0.06250000 </v>
   <v>       0.50000000       0.12500000       0.06250000 </v>
   <v>      -0.43750000       0.12500000       0.06250000 </v>
   <v>       0.25000000       0.18750000       0.06250000 </v>
   <v>       0.31250000       0.18750000       0.06250000 </v>
   <v>       0.37500000       0.18750000       0.06250000 </v>
   <v>       0.43750000       0.18750000       0.06250000 </v>
   <v>       0.50000000       0.18750000       0.06250000 </v>
   <v>      -0.43750000       0.18750000       0.06250000 </v>
   <v>      -0.37500000       0.18750000       0.06250000 </v>
   <v>      -0.31250000       0.18750000       0.06250000 </v>
   <v>      -0.25000000       0.18750000       0.06250000 </v>
   <v>      -0.18750000       0.18750000       0.06250000 </v>
   <v>      -0.12500000       0.18750000       0.06250000 </v>
   <v>       0.31250000       0.25000000       0.06250000 </v>
   <v>       0.37500000       0.25000000       0.06250000 </v>
   <v>       0.43750000       0.25000000       0.06250000 </v>
   <v>       0.50000000       0.25000000       0.06250000 </v>
   <v>      -0.43750000       0.25000000       0.06250000 </v>
   <v>      -0.37500000       0.25000000       0.06250000 </v>
   <v>      -0.31250000       0.25000000       0.06250000 </v>
   <v>      -0.25000000       0.25000000       0.06250000 </v>
   <v>      -0.18750000       0.25000000       0.06250000 </v>
   <v>       0.37500000       0.31250000       0.06250000 </v>
   <v>       0.43750000       0.31250000       0.06250000 </v>
   <v>       0.50000000       0.31250000       0.06250000 </v>
   <v>      -0.43750000       0.31250000       0.06250000 </v>
   <v>      -0.37500000       0.31250000       0.06250000 </v>
   <v>      -0.31250000       0.31250000       0.06250000 </v>
   <v>      -0.25000000       0.31250000       0.06250000 </v>
   <v>       0.43750000       0.37500000       0.06250000 </v>
   <v>       0.50000000       0.37500000       0.06250000 </v>
   <v>      -0.43750000       0.37500000       0.06250000 </v>
   <v>      -0.37500000       0.37500000       0.06250000 </v>
   <v>      -0.31250000       0.37500000       0.06250000 </v>
   <v>       0.50000000       0.43750000       0.06250000 </v>
   <v>      -0.43750000       0.43750000       0.06250000 </v>
   <v>      -0.37500000       0.43750000       0.06250000 </v>
   <v>      -0.43750000       0.50000000       0.06250000 </v>
   <v>       0.37500000       0.25000000       0.12500000 </v>
   <v>       0.43750000       0.25000000       0.12500000 </v>
   <v>       0.50000000       0.25000000       0.12500000 </v>
   <v>      -0.43750000       0.25000000       0.12500000 </v>
   <v>      -0.37500000       0.25000000       0.12500000 </v>
   <v>       0.43750000       0.31250000       0.12500000 </v>
   <v>       0.50000000       0.31250000       0.12500000 </v>
   <v>      -0.43750000       0.31250000       0.12500000 </v>
   <v>      -0.37500000       0.31250000       0.12500000 </v>
   <v>      -0.31250000       0.31250000       0.12500000 </v>
   <v>      -0.25000000       0.31250000       0.12500000 </v>
   <v>      -0.18750000       0.31250000       0.12500000 </v>
   <v>       0.50000000       0.37500000       0.12500000 </v>
   <v>      -0.43750000       0.37500000       0.12500000 </v>
   <v>      -0.37500000       0.37500000       0.12500000 </v>
   <v>      -0.31250000       0.37500000       0.12500000 </v>
   <v>      -0.25000000       0.37500000       0.12500000 </v>
   <v>      -0.43750000       0.43750000       0.12500000 </v>
   <v>      -0.37500000       0.43750000       0.12500000 </v>
   <v>      -0.31250000       0.43750000       0.12500000 </v>
   <v>      -0.37500000       0.50000000       0.12500000 </v>
   <v>      -0.43750000       0.37500000       0.18750000 </v>
   <v>      -0.37500000       0.37500000       0.18750000 </v>
   <v>      -0.31250000       0.37500000       0.18750000 </v>
   <v>      -0.37500000       0.43750000       0.18750000 </v>
   <v>      -0.31250000       0.43750000       0.18750000 </v>
   <v>      -0.25000000       0.43750000       0.18750000 </v>
   <v>      -0.31250000       0.50000000       0.18750000 </v>
   <v>      -0.25000000       0.50000000       0.25000000 </v>
  </varray>
  <varray name="weights" >
   <v>       0.00024414 </v>
   <v>       0.00195312 </v>
   <v>       0.00195312 </v>
   <v>       0.00195312 </v>
   <v>       0.00195312 </v>
   <v>       0.00195312 </v>
   <v>       0.00195312 </v>
   <v>       0.00195312 </v>
   <v>       0.00097656 </v>
   <v>       0.00146484 </v>
   <v>       0.00585938 </v>
   <v>       0.00585938 </v>
   <v>       0.00585938 </v>
   <v>       0.00585938 </v>
   <v>       0.00585938 </v>
   <v>       0.00585938 </v>
   <v>       0.00585938 </v>
   <v>       0.00585938 </v>
   <v>       0.00585938 </v>
   <v>       0.00585938 </v>
   <v>       0.00585938 </v>
   <v>       0.00585938 </v>
   <v>       0.00585938 </v>
   <v>       0.00292969 </v>
   <v>       0.00146484 </v>
   <v>       0.00585938 </v>
   <v>       0.00585938 </v>
   <v>       0.00585938 </v>
   <v>       0.00585938 </v>
   <v>       0.00585938 </v>
   <v>       0.00585938 </v>
   <v>       0.00585938 </v>
   <v>       0.00585938 </v>
   <v>       0.00585938 </v>
   <v>       0.00585938 </v>
   <v>       0.00585938 </v>
   <v>       0.00292969 </v>
   <v>       0.00146484 </v>
   <v>       0.00585938 </v>
   <v>       0.00585938 </v>
   <v>       0.00585938 </v>
   <v>       0.00585938 </v>
   <v>       0.00585938 </v>
   <v>       0.00585938 </v>
   <v>       0.00585938 </v>
   <v>       0.00585938 </v>
   <v>       0.00585938 </v>
   <v>       0.00292969 </v>
   <v>       0.00146484 </v>
   <v>       0.00585938 </v>
   <v>       0.00585938 </v>
   <v>       0.00585938 </v>
   <v>       0.00585938 </v>
   <v>       0.00585938 </v>
   <v>       0.00585938 </v>
   <v>       0.00585938 </v>
   <v>       0.00292969 </v>
   <v>       0.00146484 </v>
   <v>       0.00585938 </v>
   <v>       0.00585938 </v>
   <v>       0.00585938 </v>
   <v>       0.00585938 </v>
   <v>       0.00585938 </v>
   <v>       0.00292969 </v>
   <v>       0.00146484 </v>
   <v>       0.00585938 </v>
   <v>       0.00585938 </v>
   <v>       0.00585938 </v>
   <v>       0.00292969 </v>
   <v>       0.00146484 </v>
   <v>       0.00585938 </v>
   <v>       0.00292969 </v>
   <v>       0.00073242 </v>
   <v>       0.00585938 </v>
   <v>       0.01171875 </v>
   <v>       0.01171875 </v>
   <v>       0.01171875 </v>
   <v>       0.01171875 </v>
   <v>       0.01171875 </v>
   <v>       0.00585938 </v>
   <v>       0.00585938 </v>
   <v>       0.01171875 </v>
   <v>       0.01171875 </v>
   <v>       0.01171875 </v>
   <v>       0.01171875 </v>
   <v>       0.01171875 </v>
   <v>       0.01171875 </v>
   <v>       0.01171875 </v>
   <v>       0.01171875 </v>
   <v>       0.01171875 </v>
   <v>       0.00585938 </v>
   <v>       0.00585938 </v>
   <v>       0.01171875 </v>
   <v>       0.01171875 </v>
   <v>       0.01171875 </v>
   <v>       0.01171875 </v>
   <v>       0.01171875 </v>
   <v>       0.01171875 </v>
   <v>       0.01171875 </v>
   <v>       0.00585938 </v>
   <v>       0.00585938 </v>
   <v>       0.01171875 </v>
   <v>       0.01171875 </v>
   <v>       0.01171875 </v>
   <v>       0.01171875 </v>
   <v>       0.01171875 </v>
   <v>       0.00585938 </v>
   <v>       0.00585938 </v>
   <v>       0.01171875 </v>
   <v>       0.01171875 </v>
   <v>       0.01171875 </v>
   <v>       0.00585938 </v>
   <v>       0.00585938 </v>
   <v>       0.01171875 </v>
   <v>       0.00585938 </v>
   <v>       0.00292969 </v>
   <v>       0.00585938 </v>
   <v>       0.01171875 </v>
   <v>       0.01171875 </v>
   <v>       0.01171875 </v>
   <v>       0.00585938 </v>
   <v>       0.00585938 </v>
   <v>       0.01171875 </v>
   <v>       0.01171875 </v>
   <v>       0.01171875 </v>
   <v>       0.01171875 </v>
   <v>       0.01171875 </v>
   <v>       0.00585938 </v>
   <v>       0.00585938 </v>
   <v>       0.01171875 </v>
   <v>       0.01171875 </v>
   <v>       0.01171875 </v>
   <v>       0.00585938 </v>
   <v>       0.00585938 </v>
   <v>       0.01171875 </v>
   <v>       0.00585938 </v>
   <v>       0.00292969 </v>
   <v>       0.00585938 </v>
   <v>       0.01171875 </v>
   <v>       0.00585938 </v>
   <v>       0.00585938 </v>
   <v>       0.01171875 </v>
   <v>       0.00585938 </v>
   <v>       0.00292969 </v>
   <v>       0.00146484 </v>
  </varray>
 </kpoints>
 <parameters>
  <separator name="general" >
   <i type="string" name="SYSTEM">unknown system</i>
   <i type="logical" name="LCOMPAT"> F  </i>
  </separator>
  <separator name="electronic" >
   <i type="string" name="PREC">accura</i>
   <i name="ENMAX">    550.00000000</i>
   <i name="ENAUG">    322.06900000</i>
   <i name="EDIFF">      0.00000010</i>
   <i type="int" name="IALGO">    38</i>
   <i type="int" name="IWAVPR">    11</i>
   <i type="int" name="NBANDS">     8</i>
   <i name="NELECT">      8.00000000</i>
   <i type="int" name="TURBO">     0</i>
   <i type="int" name="IRESTART">     0</i>
   <i type="int" name="NREBOOT">     0</i>
   <i type="int" name="NMIN">     0</i>
   <i name="EREF">      0.00000000</i>
   <separator name="electronic smearing" >
    <i type="int" name="ISMEAR">     0</i>
    <i name="SIGMA">      0.20000000</i>
    <i name="KSPACING">      0.50000000</i>
    <i type="logical" name="KGAMMA"> T  </i>
   </separator>
   <separator name="electronic projectors" >
    <i type="logical" name="LREAL"> F  </i>
    <v name="ROPT">      0.00000000</v>
    <i type="int" name="LMAXPAW">  -100</i>
    <i type="int" name="LMAXMIX">     2</i>
    <i type="logical" name="NLSPLINE"> F  </i>
   </separator>
   <separator name="electronic startup" >
    <i type="int" name="ISTART">     0</i>
    <i type="int" name="ICHARG">     2</i>
    <i type="int" name="INIWAV">     1</i>
   </separator>
   <separator name="electronic spin" >
    <i type="int" name="ISPIN">     1</i>
    <i type="logical" name="LNONCOLLINEAR"> F  </i>
    <v name="MAGMOM">      1.00000000      1.00000000</v>
    <i name="NUPDOWN">     -1.00000000</i>
    <i type="logical" name="LSORBIT"> F  </i>
    <v name="SAXIS">      0.00000000      0.00000000      1.00000000</v>
    <i type="logical" name="LSPIRAL"> F  </i>
    <v name="QSPIRAL">      0.00000000      0.00000000      0.00000000</v>
    <i type="logical" name="LZEROZ"> F  </i>
   </separator>
   <separator name="electronic exchange-correlation" >
    <i type="logical" name="LASPH"> F  </i>
    <i type="logical" name="LMETAGGA"> F  </i>
   </separator>
   <separator name="electronic convergence" >
    <i type="int" name="NELM">   400</i>
    <i type="int" name="NELMDL">    -5</i>
    <i type="int" name="NELMIN">     2</i>
    <i name="ENINI">    550.00000000</i>
    <separator name="electronic convergence detail" >
     <i type="logical" name="LDIAG"> T  </i>
     <i type="logical" name="LSUBROT"> T  </i>
     <i name="WEIMIN">      0.00100000</i>
     <i name="EBREAK">      0.00000000</i>
     <i name="DEPER">      0.30000000</i>
     <i type="int" name="NRMM">     4</i>
     <i name="TIME">      0.40000000</i>
    </separator>
   </separator>
   <separator name="electronic mixer" >
    <i name="AMIX">      0.40000000</i>
    <i name="BMIX">      1.00000000</i>
    <i name="AMIN">      0.10000000</i>
    <i name="AMIX_MAG">      1.60000000</i>
    <i name="BMIX_MAG">      1.00000000</i>
    <separator name="electronic mixer details" >
     <i type="int" name="IMIX">     4</i>
     <i type="int" name="MAXMIX">   -45</i>
     <i name="WC">    100.00000000</i>
     <i type="int" name="INIMIX">     1</i>
     <i type="int" name="MIXPRE">     1</i>
     <i type="int" name="MREMOVE">     5</i>
    </separator>
   </separator>
   <separator name="electronic dipolcorrection" >
    <i type="logical" name="LDIPOL"> F  </i>
    <i type="logical" name="LMONO"> F  </i>
    <i type="int" name="IDIPOL">     0</i>
    <i name="EPSILON">      1.00000000</i>
    <v name="DIPOL">   -100.00000000   -100.00000000   -100.00000000</v>
    <i name="EFIELD">      0.00000000</i>
   </separator>
  </separator>
  <separator name="grids" >
   <i type="int" name="NGX">    30</i>
   <i type="int" name="NGY">    30</i>
   <i type="int" name="NGZ">    30</i>
   <i type="int" name="NGXF">    60</i>
   <i type="int" name="NGYF">    60</i>
   <i type="int" name="NGZF">    60</i>
   <i type="logical" name="ADDGRID"> F  </i>
  </separator>
  <separator name="ionic" >
   <i type="int" name="NSW">     1</i>
   <i type="int" name="IBRION">     2</i>
   <i type="int" name="ISIF">     2</i>
   <i name="PSTRESS">      0.00000000</i>
   <i name="EDIFFG">      0.00000100</i>
   <i type="int" name="NFREE">     1</i>
   <i name="POTIM">      0.50000000</i>
   <i name="SMASS">     -3.00000000</i>
   <i name="SCALEE">      1.00000000</i>
  </separator>
  <separator name="ionic md" >
   <i name="TEBEG">      0.00010000</i>
   <i name="TEEND">      0.00010000</i>
   <i type="int" name="NBLOCK">     1</i>
   <i type="int" name="KBLOCK">     1</i>
   <i type="int" name="NPACO">   256</i>
   <i name="APACO">     16.00000000</i>
  </separator>
  <separator name="symmetry" >
   <i type="int" name="ISYM">     2</i>
   <i name="SYMPREC">      0.00001000</i>
  </separator>
  <separator name="dos" >
   <i type="logical" name="LORBIT"> F  </i>
   <v name="RWIGS">     -1.00000000</v>
   <i type="int" name="NEDOS">   301</i>
   <i name="EMIN">     10.00000000</i>
   <i name="EMAX">    -10.00000000</i>
   <i name="EFERMI">      0.00000000</i>
  </separator>
  <separator name="writing" >
   <i type="int" name="NWRITE">     2</i>
   <i type="logical" name="LWAVE"> F  </i>
   <i type="logical" name="LCHARG"> F  </i>
   <i type="logical" name="LPARD"> F  </i>
   <i type="logical" name="LVTOT"> F  </i>
   <i type="logical" name="LVHAR"> F  </i>
   <i type="logical" name="LELF"> F  </i>
   <i type="logical" name="LOPTICS"> F  </i>
   <v name="STM">      0.00000000      0.00000000      0.00000000      0.00000000      0.00000000      0.00000000      0.00000000</v>
  </separator>
  <separator name="performance" >
   <i type="int" name="NPAR">     4</i>
   <i type="int" name="NSIM">     4</i>
   <i type="int" name="NBLK">    -1</i>
   <i type="logical" name="LPLANE"> T  </i>
   <i type="logical" name="LSCALAPACK"> F  </i>
   <i type="logical" name="LSCAAWARE"> F  </i>
   <i type="logical" name="LSCALU"> F  </i>
   <i type="logical" name="LASYNC"> F  </i>
   <i type="logical" name="LORBITALREAL"> F  </i>
  </separator>
  <separator name="miscellaneous" >
   <i type="int" name="IDIOT">     3</i>
   <i type="logical" name="LMUSIC"> F  </i>
   <v name="POMASS">     28.08500000</v>
   <v name="DARWINR">      0.00000000</v>
   <v name="DARWINV">      1.00000000</v>
   <i type="logical" name="LCORR"> T  </i>
  </separator>
  <i type="logical" name="GGA_COMPAT"> T  </i>
  <i type="logical" name="LBERRY"> F  </i>
  <i type="int" name="ICORELEVEL">     0</i>
  <i type="logical" name="LDAU"> F  </i>
  <i type="int" name="I_CONSTRAINED_M">     0</i>
  <separator name="electronic exchange-correlation" >
   <i type="string" name="GGA">BO</i>
   <i type="int" name="VOSKOWN">     0</i>
   <i type="logical" name="LHFCALC"> F  </i>
   <i type="string" name="PRECFOCK"></i>
   <i type="logical" name="LSYMGRAD"> F  </i>
   <i type="logical" name="LHFONE"> F  </i>
   <i type="logical" name="LRHFCALC"> F  </i>
   <i type="logical" name="LTHOMAS"> F  </i>
   <i type="logical" name="LMODELHF"> F  </i>
   <i name="ENCUT4O">     -1.00000000</i>
   <i type="int" name="EXXOEP">     0</i>
   <i type="int" name="FOURORBIT">     0</i>
   <i name="AEXX">      0.00000000</i>
   <i name="HFALPHA">      0.00000000</i>
   <i name="MCALPHA">      0.00000000</i>
   <i name="ALDAX">      1.00000000</i>
   <i name="AGGAX">      1.00000000</i>
   <i name="ALDAC">      1.00000000</i>
   <i name="AGGAC">      0.00000000</i>
   <i type="int" name="NKREDX">     1</i>
   <i type="int" name="NKREDY">     1</i>
   <i type="int" name="NKREDZ">     1</i>
   <i type="logical" name="SHIFTRED"> F  </i>
   <i type="logical" name="ODDONLY"> F  </i>
   <i type="logical" name="EVENONLY"> F  </i>
   <i type="int" name="LMAXFOCK">     0</i>
   <i type="int" name="NMAXFOCKAE">     0</i>
   <i type="logical" name="LFOCKAEDFT"> F  </i>
   <i name="HFSCREEN">      0.00000000</i>
   <i name="HFSCREENC">      0.00000000</i>
   <i type="int" name="NBANDSGWLOW">     0</i>
  </separator>
  <separator name="vdW DFT" >
   <i type="logical" name="LUSE_VDW"> T  </i>
   <i name="Zab_VDW">     -0.84910000</i>
   <i name="PARAM1">      0.18333333</i>
   <i name="PARAM2">      0.22000000</i>
   <i name="PARAM3">      0.00000000</i>
  </separator>
  <separator name="model GW" >
   <i type="int" name="MODEL_GW">     0</i>
   <i name="MODEL_EPS0">     12.26648953</i>
   <i name="MODEL_ALPHA">      1.00000000</i>
  </separator>
  <separator name="linear response parameters" >
   <i type="logical" name="LEPSILON"> F  </i>
   <i type="logical" name="LRPA"> F  </i>
   <i type="logical" name="LNABLA"> F  </i>
   <i type="logical" name="LVEL"> F  </i>
   <i type="int" name="KINTER">     0</i>
   <i name="CSHIFT">      0.10000000</i>
   <i name="OMEGAMAX">     -1.00000000</i>
   <i name="DEG_THRESHOLD">      0.00200000</i>
  </separator>
  <separator name="orbital magnetization" >
   <i type="logical" name="NUCIND"> F  </i>
   <v name="MAGPOS">      0.00000000      0.00000000      0.00000000</v>
   <i type="logical" name="LNICSALL"> T  </i>
   <i type="logical" name="ORBITALMAG"> F  </i>
   <i type="logical" name="LMAGBLOCH"> F  </i>
   <i type="logical" name="LCHIMAG"> F  </i>
   <i type="logical" name="LGAUGE"> T  </i>
   <i type="int" name="MAGATOM">     0</i>
   <v name="MAGDIPOL">      0.00000000      0.00000000      0.00000000</v>
   <v name="AVECCONST">      0.00000000      0.00000000      0.00000000</v>
  </separator>
  <separator name="response functions" >
   <i type="logical" name="LADDER"> F  </i>
   <i type="logical" name="LFXC"> F  </i>
   <i type="logical" name="LHARTREE"> T  </i>
   <i type="int" name="IBSE">     0</i>
   <i type="logical" name="LTCTE"> F  </i>
   <i type="logical" name="LTETE"> F  </i>
   <i type="logical" name="LTRIPLET"> F  </i>
   <i type="logical" name="LFXCEPS"> F  </i>
   <i type="logical" name="L2ORDER"> F  </i>
   <i type="logical" name="LUSEW"> F  </i>
   <i name="ENCUTGW">     -2.00000000</i>
   <i name="ENCUTGWSOFT">     -2.00000000</i>
   <i name="ENCUTLF">     -1.00000000</i>
   <i type="int" name="LMAXMP2">    -1</i>
   <i name="SCISSOR">      0.00000000</i>
   <i type="int" name="NOMEGA">     0</i>
   <i type="int" name="NOMEGAR">     0</i>
   <i type="int" name="NBANDSGW">    -1</i>
   <i type="int" name="NBANDSO">    -1</i>
   <i type="int" name="NBANDSV">    -1</i>
   <i type="int" name="NELM">   400</i>
   <i type="int" name="DIM">     3</i>
   <i type="int" name="ANTIRES">     0</i>
   <i name="OMEGAMAX">    -30.00000000</i>
   <i name="OMEGATL">   -200.00000000</i>
   <i type="int" name="OMEGAGRID">     0</i>
   <i name="CSHIFT">     -0.10000000</i>
   <i type="logical" name="SELFENERGY"> F  </i>
   <i type="logical" name="LSPECTRAL"> F  </i>
   <i type="logical" name="ODDONLYGW"> F  </i>
   <i type="logical" name="EVENONLYGW"> F  </i>
   <i type="int" name="NKREDLFX">     1</i>
   <i type="int" name="NKREDLFY">     1</i>
   <i type="int" name="NKREDLFZ">     1</i>
   <i type="int" name="MAXMEM">  1800</i>
   <i type="int" name="TELESCOPE">     0</i>
  </separator>
 </parameters>
 <atominfo>
  <atoms>       2 </atoms>
  <types>       1 </types>
  <array name="atoms" >
   <dimension dim="1">ion</dimension>
   <field type="string">element</field>
   <field type="int">atomtype</field>
   <set>
    <rc><c>Si</c><c>   1</c></rc>
    <rc><c>Si</c><c>   1</c></rc>
   </set>
  </array>
  <array name="atomtypes" >
   <dimension dim="1">type</dimension>
   <field type="int">atomspertype</field>
   <field type="string">element</field>
   <field>mass</field>
   <field>valence</field>
   <field type="string">pseudopotential</field>
   <set>
    <rc><c>   2</c><c>Si</c><c>     28.08500000</c><c>      4.00000000</c><c>  PAW_PBE Si 05Jan2001                  </c></rc>
   </set>
  </array>
 </atominfo>
 <structure name="initialpos" >
  <crystal>
   <varray name="basis" >
    <v>       3.34889800       0.00000000       1.93348700 </v>
    <v>       1.11629900       3.15737200       1.93348700 </v>
    <v>       0.00000000       0.00000000       3.86697500 </v>
   </varray>
   <i name="volume">     40.88829843 </i>
   <varray name="rec_basis" >
    <v>       0.29860569      -0.10557300       0.00000000 </v>
    <v>       0.00000000       0.31671909       0.00000000 </v>
    <v>      -0.14930281      -0.10557302       0.25860007 </v>
   </varray>
  </crystal>
  <varray name="positions" >
   <v>       0.87500000       0.87500000       0.87500000 </v>
   <v>       0.12500000       0.12500000       0.12500000 </v>
  </varray>
 </structure>
 <calculation>
  <scstep>
   <time name="dav">    1.42    1.42</time>
   <time name="total">    5.36    6.12</time>
   <energy>
    <i name="alphaZ">      3.29317992 </i>
    <i name="ewald">   -226.94489173 </i>
    <i name="hartreedc">    -11.32339116 </i>
    <i name="XCdc">    -20.24410379 </i>
    <i name="pawpsdc">    189.40224250 </i>
    <i name="pawaedc">   -152.61488262 </i>
    <i name="eentropy">     -0.00611621 </i>
    <i name="bandstr">     17.70758538 </i>
    <i name="atom">    208.59416316 </i>
    <i name="e_fr_energy">      7.86378544 </i>
    <i name="e_wo_entrp">      7.86990164 </i>
    <i name="e_0_energy">      7.86684354 </i>
   </energy>
  </scstep>
  <scstep>
   <time name="dav">    2.80    2.80</time>
   <time name="total">    2.81    3.25</time>
   <energy>
    <i name="e_fr_energy">     -8.19950630 </i>
    <i name="e_wo_entrp">     -8.19950420 </i>
    <i name="e_0_energy">     -8.19950525 </i>
   </energy>
  </scstep>
  <scstep>
   <time name="dav">    2.70    2.70</time>
   <time name="total">    2.70    4.19</time>
   <energy>
    <i name="e_fr_energy">     -8.41377633 </i>
    <i name="e_wo_entrp">     -8.41377505 </i>
    <i name="e_0_energy">     -8.41377569 </i>
   </energy>
  </scstep>
  <scstep>
   <time name="dav">    3.09    3.09</time>
   <time name="total">    3.10    3.33</time>
   <energy>
    <i name="e_fr_energy">     -8.41477862 </i>
    <i name="e_wo_entrp">     -8.41477735 </i>
    <i name="e_0_energy">     -8.41477799 </i>
   </energy>
  </scstep>
  <scstep>
   <time name="dav">    2.54    2.54</time>
   <time name="total">    2.66    4.54</time>
   <energy>
    <i name="e_fr_energy">     -8.41477998 </i>
    <i name="e_wo_entrp">     -8.41477871 </i>
    <i name="e_0_energy">     -8.41477935 </i>
   </energy>
  </scstep>
  <scstep>
   <time name="dav">    2.73    2.74</time>
   <time name="total">    4.71    7.05</time>
   <energy>
    <i name="e_fr_energy">     -8.36149914 </i>
    <i name="e_wo_entrp">     -8.36149346 </i>
    <i name="e_0_energy">     -8.36149630 </i>
   </energy>
  </scstep>
  <scstep>
   <time name="dav">    3.18    3.20</time>
   <time name="total">    5.18    5.96</time>
   <energy>
    <i name="e_fr_energy">     -8.35619331 </i>
    <i name="e_wo_entrp">     -8.35615143 </i>
    <i name="e_0_energy">     -8.35617237 </i>
   </energy>
  </scstep>
  <scstep>
   <time name="dav">    2.30    2.31</time>
   <time name="total">    4.48    6.55</time>
   <energy>
    <i name="e_fr_energy">     -8.33943314 </i>
    <i name="e_wo_entrp">     -8.33940402 </i>
    <i name="e_0_energy">     -8.33941858 </i>
   </energy>
  </scstep>
  <scstep>
   <time name="dav">    2.88    2.89</time>
   <time name="total">    4.99    6.14</time>
   <energy>
    <i name="e_fr_energy">     -8.34109522 </i>
    <i name="e_wo_entrp">     -8.34106331 </i>
    <i name="e_0_energy">     -8.34107927 </i>
   </energy>
  </scstep>
  <scstep>
   <time name="dav">    1.52    1.51</time>
   <time name="total">    3.34    3.65</time>
   <energy>
    <i name="e_fr_energy">     -8.34039676 </i>
    <i name="e_wo_entrp">     -8.34036565 </i>
    <i name="e_0_energy">     -8.34038121 </i>
   </energy>
  </scstep>
  <scstep>
   <time name="dav">    2.59    2.59</time>
   <time name="total">    4.28    7.09</time>
   <energy>
    <i name="e_fr_energy">     -8.34036505 </i>
    <i name="e_wo_entrp">     -8.34033387 </i>
    <i name="e_0_energy">     -8.34034946 </i>
   </energy>
  </scstep>
  <scstep>
   <time name="dav">    2.04    2.05</time>
   <time name="total">    3.84    4.51</time>
   <energy>
    <i name="e_fr_energy">     -8.34036408 </i>
    <i name="e_wo_entrp">     -8.34033292 </i>
    <i name="e_0_energy">     -8.34034850 </i>
   </energy>
  </scstep>
  <scstep>
   <time name="dav">    1.82    1.81</time>
   <time name="total">    4.00    4.39</time>
   <energy>
    <i name="e_fr_energy">     -8.34036061 </i>
    <i name="e_wo_entrp">     -8.34032946 </i>
    <i name="e_0_energy">     -8.34034504 </i>
   </energy>
  </scstep>
  <scstep>
   <time name="dav">    0.95    0.95</time>
   <time name="total">    3.17    8.07</time>
   <energy>
    <i name="e_fr_energy">     -8.34036041 </i>
    <i name="e_wo_entrp">     -8.34032926 </i>
    <i name="e_0_energy">     -8.34034484 </i>
   </energy>
  </scstep>
  <scstep>
   <time name="dav">    1.40    1.40</time>
   <time name="total">    3.68    4.09</time>
   <energy>
    <i name="e_fr_energy">     -8.34036016 </i>
    <i name="e_wo_entrp">     -8.34032900 </i>
    <i name="e_0_energy">     -8.34034458 </i>
   </energy>
  </scstep>
  <scstep>
   <time name="dav">    1.01    1.01</time>
   <time name="total">    3.35    3.76</time>
   <energy>
    <i name="alphaZ">      3.29317992 </i>
    <i name="ewald">   -226.94489173 </i>
    <i name="hartreedc">    -15.37247133 </i>
    <i name="XCdc">    -19.57624364 </i>
    <i name="pawpsdc">    538.68706181 </i>
    <i name="pawaedc">   -502.15043754 </i>
    <i name="eentropy">     -0.00003116 </i>
    <i name="bandstr">      5.12931032 </i>
    <i name="atom">    208.59416316 </i>
    <i name="e_fr_energy">     -8.34036020 </i>
    <i name="e_wo_entrp">     -8.34032904 </i>
    <i name="e_0_energy">     -8.34034462 </i>
   </energy>
  </scstep>
  <structure>
   <crystal>
    <varray name="basis" >
     <v>       3.34889800       0.00000000       1.93348700 </v>
     <v>       1.11629900       3.15737200       1.93348700 </v>
     <v>       0.00000000       0.00000000       3.86697500 </v>
    </varray>
    <i name="volume">     40.88829843 </i>
    <varray name="rec_basis" >
     <v>       0.29860569      -0.10557300       0.00000000 </v>
     <v>       0.00000000       0.31671909       0.00000000 </v>
     <v>      -0.14930281      -0.10557302       0.25860007 </v>
    </varray>
   </crystal>
   <varray name="positions" >
    <v>       0.87500000       0.87500000       0.87500000 </v>
    <v>       0.12500000       0.12500000       0.12500000 </v>
   </varray>
  </structure>
  <varray name="forces" >
   <v>       0.00000000       0.00000000       0.00000000 </v>
   <v>       0.00000000       0.00000000       0.00000000 </v>
  </varray>
  <varray name="stress" >
   <v>      12.27832512      -0.00000130      -0.00000183 </v>
   <v>      -0.00000130      12.27833046      -0.00000130 </v>
   <v>      -0.00000183      -0.00000130      12.27832942 </v>
  </varray>
  <energy>
   <i name="e_fr_energy">     -8.34036020 </i>
   <i name="e_wo_entrp">     -8.34034462 </i>
   <i name="e_0_energy">     -0.00003116 </i>
  </energy>
  <time name="totalsc">   67.20   99.67</time>
  <eigenvalues>
   <array>
    <dimension dim="1">band</dimension>
    <dimension dim="2">kpoint</dimension>
    <dimension dim="3">spin</dimension>
    <field>eigene</field>
    <field>occ</field>
    <set>
     <set comment="spin 1">
      <set comment="kpoint 1">
       <r>   -6.1472    1.0000 </r>
       <r>    5.5936    0.9922 </r>
       <r>    5.5936    0.9922 </r>
       <r>    5.5936    0.9922 </r>
       <r>    8.2162    0.0000 </r>
       <r>    8.2162    0.0000 </r>
       <r>    8.2162    0.0000 </r>
       <r>    8.8215    0.0000 </r>
      </set>
      <set comment="kpoint 2">
       <r>   -6.0969    1.0000 </r>
       <r>    5.0770    1.0000 </r>
       <r>    5.5137    0.9986 </r>
       <r>    5.5137    0.9986 </r>
       <r>    8.2565    0.0000 </r>
       <r>    8.3350    0.0000 </r>
       <r>    8.3350    0.0000 </r>
       <r>    9.2124    0.0000 </r>
      </set>
      <set comment="kpoint 3">
       <r>   -5.9471    1.0000 </r>
       <r>    4.0335    1.0000 </r>
       <r>    5.3187    1.0000 </r>
       <r>    5.3187    1.0000 </r>
       <r>    8.1078    0.0000 </r>
       <r>    8.6251    0.0000 </r>
       <r>    8.6252    0.0000 </r>
       <r>   10.1853    0.0000 </r>
      </set>
      <set comment="kpoint 4">
       <r>   -5.7007    1.0000 </r>
       <r>    2.8838    1.0000 </r>
       <r>    5.0850    1.0000 </r>
       <r>    5.0850    1.0000 </r>
       <r>    7.8691    0.0000 </r>
       <r>    8.9420    0.0000 </r>
       <r>    8.9420    0.0000 </r>
       <r>   11.2956    0.0000 </r>
      </set>
      <set comment="kpoint 5">
       <r>   -5.3641    1.0000 </r>
       <r>    1.7555    1.0000 </r>
       <r>    4.8635    1.0000 </r>
       <r>    4.8635    1.0000 </r>
       <r>    7.6269    0.0000 </r>
       <r>    9.1413    0.0000 </r>
       <r>    9.1413    0.0000 </r>
       <r>   12.3867    0.0000 </r>
      </set>
      <set comment="kpoint 6">
       <r>   -4.9506    1.0000 </r>
       <r>    0.7043    1.0000 </r>
       <r>    4.6794    1.0000 </r>
       <r>    4.6794    1.0000 </r>
       <r>    7.4191    0.0000 </r>
       <r>    9.1734    0.0000 </r>
       <r>    9.1734    0.0000 </r>
       <r>   13.2772    0.0000 </r>
      </set>
      <set comment="kpoint 7">
       <r>   -4.4917    1.0000 </r>
       <r>   -0.2195    1.0000 </r>
       <r>    4.5440    1.0000 </r>
       <r>    4.5440    1.0000 </r>
       <r>    7.2632    0.0000 </r>
       <r>    9.1086    0.0000 </r>
       <r>    9.1086    0.0000 </r>
       <r>   13.5005    0.0000 </r>
      </set>
      <set comment="kpoint 8">
       <r>   -4.0689    1.0000 </r>
       <r>   -0.9244    1.0000 </r>
       <r>    4.4617    1.0000 </r>
       <r>    4.4617    1.0000 </r>
       <r>    7.1675    0.0000 </r>
       <r>    9.0358    0.0000 </r>
       <r>    9.0358    0.0000 </r>
       <r>   13.4164    0.0000 </r>
      </set>
      <set comment="kpoint 9">
       <r>   -3.8743    1.0000 </r>
       <r>   -1.2136    1.0000 </r>
       <r>    4.4342    1.0000 </r>
       <r>    4.4342    1.0000 </r>
       <r>    7.1353    0.0000 </r>
       <r>    9.0065    0.0000 </r>
       <r>    9.0065    0.0000 </r>
       <r>   13.3725    0.0000 </r>
      </set>
      <set comment="kpoint 10">
       <r>   -6.0802    1.0000 </r>
       <r>    5.1737    1.0000 </r>
       <r>    5.3459    1.0000 </r>
       <r>    5.3459    1.0000 </r>
       <r>    8.0588    0.0000 </r>
       <r>    8.5463    0.0000 </r>
       <r>    8.5463    0.0000 </r>
       <r>    9.2234    0.0000 </r>
      </set>
      <set comment="kpoint 11">
       <r>   -5.9634    1.0000 </r>
       <r>    4.3394    1.0000 </r>
       <r>    5.1009    1.0000 </r>
       <r>    5.2554    1.0000 </r>
       <r>    8.0504    0.0000 </r>
       <r>    8.6217    0.0000 </r>
       <r>    8.9001    0.0000 </r>
       <r>    9.9341    0.0000 </r>
      </set>
      <set comment="kpoint 12">
       <r>   -5.7488    1.0000 </r>
       <r>    3.2433    1.0000 </r>
       <r>    4.8485    1.0000 </r>
       <r>    5.0686    1.0000 </r>
       <r>    8.1167    0.0000 </r>
       <r>    8.6215    0.0000 </r>
       <r>    9.2660    0.0000 </r>
       <r>   10.8169    0.0000 </r>
      </set>
      <set comment="kpoint 13">
       <r>   -5.4414    1.0000 </r>
       <r>    2.1220    1.0000 </r>
       <r>    4.6291    1.0000 </r>
       <r>    4.8242    1.0000 </r>
       <r>    7.9852    0.0000 </r>
       <r>    8.8095    0.0000 </r>
       <r>    9.5068    0.0000 </r>
       <r>   11.3679    0.0000 </r>
      </set>
      <set comment="kpoint 14">
       <r>   -5.0516    1.0000 </r>
       <r>    1.0525    1.0000 </r>
       <r>    4.4625    1.0000 </r>
       <r>    4.5811    1.0000 </r>
       <r>    7.7964    0.0000 </r>
       <r>    8.9363    0.0000 </r>
       <r>    9.5516    0.0000 </r>
       <r>   11.8497    0.0000 </r>
      </set>
      <set comment="kpoint 15">
       <r>   -4.6024    1.0000 </r>
       <r>    0.0867    1.0000 </r>
       <r>    4.3570    1.0000 </r>
       <r>    4.3686    1.0000 </r>
       <r>    7.6344    0.0000 </r>
       <r>    8.9445    0.0000 </r>
       <r>    9.4554    0.0000 </r>
       <r>   12.5449    0.0000 </r>
      </set>
      <set comment="kpoint 16">
       <r>   -4.1525    1.0000 </r>
       <r>   -0.7029    1.0000 </r>
       <r>    4.2011    1.0000 </r>
       <r>    4.3151    1.0000 </r>
       <r>    7.5227    0.0000 </r>
       <r>    8.9218    0.0000 </r>
       <r>    9.3170    0.0000 </r>
       <r>   13.2607    0.0000 </r>
      </set>
      <set comment="kpoint 17">
       <r>   -3.8533    1.0000 </r>
       <r>   -1.1575    1.0000 </r>
       <r>    4.0868    1.0000 </r>
       <r>    4.3356    1.0000 </r>
       <r>    7.4700    0.0000 </r>
       <r>    8.9354    0.0000 </r>
       <r>    9.2027    0.0000 </r>
       <r>   13.5246    0.0000 </r>
      </set>
      <set comment="kpoint 18">
       <r>   -3.9216    1.0000 </r>
       <r>   -1.0578    1.0000 </r>
       <r>    4.0312    1.0000 </r>
       <r>    4.4154    1.0000 </r>
       <r>    7.4793    0.0000 </r>
       <r>    9.0099    0.0000 </r>
       <r>    9.1407    0.0000 </r>
       <r>   13.5571    0.0000 </r>
      </set>
      <set comment="kpoint 19">
       <r>   -4.2966    1.0000 </r>
       <r>   -0.4651    1.0000 </r>
       <r>    4.0385    1.0000 </r>
       <r>    4.5493    1.0000 </r>
       <r>    7.5507    0.0000 </r>
       <r>    9.1285    0.0000 </r>
       <r>    9.1378    0.0000 </r>
       <r>   13.4416    0.0000 </r>
      </set>
      <set comment="kpoint 20">
       <r>   -4.7568    1.0000 </r>
       <r>    0.3950    1.0000 </r>
       <r>    4.1118    1.0000 </r>
       <r>    4.7305    1.0000 </r>
       <r>    7.6813    0.0000 </r>
       <r>    9.1295    0.0000 </r>
       <r>    9.2780    0.0000 </r>
       <r>   12.9046    0.0000 </r>
      </set>
      <set comment="kpoint 21">
       <r>   -5.1901    1.0000 </r>
       <r>    1.4006    1.0000 </r>
       <r>    4.2523    1.0000 </r>
       <r>    4.9481    1.0000 </r>
       <r>    7.8644    0.0000 </r>
       <r>    9.0666    0.0000 </r>
       <r>    9.3403    0.0000 </r>
       <r>   12.1857    0.0000 </r>
      </set>
      <set comment="kpoint 22">
       <r>   -5.5541    1.0000 </r>
       <r>    2.4895    1.0000 </r>
       <r>    4.4593    1.0000 </r>
       <r>    5.1830    1.0000 </r>
       <r>    8.0847    0.0000 </r>
       <r>    8.8678    0.0000 </r>
       <r>    9.2049    0.0000 </r>
       <r>   11.4788    0.0000 </r>
      </set>
      <set comment="kpoint 23">
       <r>   -5.8312    1.0000 </r>
       <r>    3.5975    1.0000 </r>
       <r>    4.7317    1.0000 </r>
       <r>    5.3987    0.9999 </r>
       <r>    8.3087    0.0000 </r>
       <r>    8.5787    0.0000 </r>
       <r>    8.8563    0.0000 </r>
       <r>   10.6562    0.0000 </r>
      </set>
      <set comment="kpoint 24">
       <r>   -6.0135    1.0000 </r>
       <r>    4.5674    1.0000 </r>
       <r>    5.0963    1.0000 </r>
       <r>    5.5315    0.9979 </r>
       <r>    8.3544    0.0000 </r>
       <r>    8.4396    0.0000 </r>
       <r>    8.4656    0.0000 </r>
       <r>    9.7711    0.0000 </r>
      </set>
      <set comment="kpoint 25">
       <r>   -5.8797    1.0000 </r>
       <r>    4.2684    1.0000 </r>
       <r>    4.8253    1.0000 </r>
       <r>    4.8253    1.0000 </r>
       <r>    7.6773    0.0000 </r>
       <r>    9.3118    0.0000 </r>
       <r>    9.3118    0.0000 </r>
       <r>    9.8851    0.0000 </r>
      </set>
      <set comment="kpoint 26">
       <r>   -5.6975    1.0000 </r>
       <r>    3.4564    1.0000 </r>
       <r>    4.5558    1.0000 </r>
       <r>    4.6385    1.0000 </r>
       <r>    7.6336    0.0000 </r>
       <r>    9.3700    0.0000 </r>
       <r>    9.7441    0.0000 </r>
       <r>   10.2719    0.0000 </r>
      </set>
      <set comment="kpoint 27">
       <r>   -5.4207    1.0000 </r>
       <r>    2.4312    1.0000 </r>
       <r>    4.3289    1.0000 </r>
       <r>    4.3949    1.0000 </r>
       <r>    7.7993    0.0000 </r>
       <r>    9.2823    0.0000 </r>
       <r>   10.0637    0.0000 </r>
       <r>   10.3862    0.0000 </r>
      </set>
      <set comment="kpoint 28">
       <r>   -5.0571    1.0000 </r>
       <r>    1.3939    1.0000 </r>
       <r>    4.1023    1.0000 </r>
       <r>    4.1628    1.0000 </r>
       <r>    7.9049    0.0000 </r>
       <r>    9.2810    0.0000 </r>
       <r>   10.1693    0.0000 </r>
       <r>   10.5384    0.0000 </r>
      </set>
      <set comment="kpoint 29">
       <r>   -4.6241    1.0000 </r>
       <r>    0.4204    1.0000 </r>
       <r>    3.8187    1.0000 </r>
       <r>    4.0657    1.0000 </r>
       <r>    7.8839    0.0000 </r>
       <r>    9.2462    0.0000 </r>
       <r>   10.0854    0.0000 </r>
       <r>   11.0836    0.0000 </r>
      </set>
      <set comment="kpoint 30">
       <r>   -4.1634    1.0000 </r>
       <r>   -0.4208    1.0000 </r>
       <r>    3.5744    1.0000 </r>
       <r>    4.0406    1.0000 </r>
       <r>    7.8348    0.0000 </r>
       <r>    9.1760    0.0000 </r>
       <r>    9.9163    0.0000 </r>
       <r>   11.9453    0.0000 </r>
      </set>
      <set comment="kpoint 31">
       <r>   -3.7875    1.0000 </r>
       <r>   -1.0040    1.0000 </r>
       <r>    3.3854    1.0000 </r>
       <r>    4.0864    1.0000 </r>
       <r>    7.8227    0.0000 </r>
       <r>    9.1378    0.0000 </r>
       <r>    9.7441    0.0000 </r>
       <r>   12.9475    0.0000 </r>
      </set>
      <set comment="kpoint 32">
       <r>   -3.7211    1.0000 </r>
       <r>   -1.0985    1.0000 </r>
       <r>    3.2619    1.0000 </r>
       <r>    4.1991    1.0000 </r>
       <r>    7.8688    0.0000 </r>
       <r>    9.1621    0.0000 </r>
       <r>    9.6093    0.0000 </r>
       <r>   13.7971    0.0000 </r>
      </set>
      <set comment="kpoint 33">
       <r>   -4.0240    1.0000 </r>
       <r>   -0.6442    1.0000 </r>
       <r>    3.2119    1.0000 </r>
       <r>    4.3717    1.0000 </r>
       <r>    7.9733    0.0000 </r>
       <r>    9.2528    0.0000 </r>
       <r>    9.5190    0.0000 </r>
       <r>   13.4727    0.0000 </r>
      </set>
      <set comment="kpoint 34">
       <r>   -4.4750    1.0000 </r>
       <r>    0.1319    1.0000 </r>
       <r>    3.2429    1.0000 </r>
       <r>    4.5931    1.0000 </r>
       <r>    8.1273    0.0000 </r>
       <r>    9.3848    0.0000 </r>
       <r>    9.4458    0.0000 </r>
       <r>   12.6391    0.0000 </r>
      </set>
      <set comment="kpoint 35">
       <r>   -4.9233    1.0000 </r>
       <r>    1.0635    1.0000 </r>
       <r>    3.3656    1.0000 </r>
       <r>    4.8461    1.0000 </r>
       <r>    8.3167    0.0000 </r>
       <r>    9.3190    0.0000 </r>
       <r>    9.4718    0.0000 </r>
       <r>   11.8586    0.0000 </r>
      </set>
      <set comment="kpoint 36">
       <r>   -5.3118    1.0000 </r>
       <r>    2.0522    1.0000 </r>
       <r>    3.6047    1.0000 </r>
       <r>    5.1015    1.0000 </r>
       <r>    8.5173    0.0000 </r>
       <r>    9.0714    0.0000 </r>
       <r>    9.3351    0.0000 </r>
       <r>   11.3556    0.0000 </r>
      </set>
      <set comment="kpoint 37">
       <r>   -5.6178    1.0000 </r>
       <r>    2.9584    1.0000 </r>
       <r>    4.0370    1.0000 </r>
       <r>    5.3095    1.0000 </r>
       <r>    8.6351    0.0000 </r>
       <r>    8.7678    0.0000 </r>
       <r>    8.9611    0.0000 </r>
       <r>   11.0791    0.0000 </r>
      </set>
      <set comment="kpoint 38">
       <r>   -5.5476    1.0000 </r>
       <r>    3.2150    1.0000 </r>
       <r>    4.2711    1.0000 </r>
       <r>    4.2711    1.0000 </r>
       <r>    7.2276    0.0000 </r>
       <r>    9.6736    0.0000 </r>
       <r>   10.2675    0.0000 </r>
       <r>   10.2675    0.0000 </r>
      </set>
      <set comment="kpoint 39">
       <r>   -5.3019    1.0000 </r>
       <r>    2.4920    1.0000 </r>
       <r>    4.0012    1.0000 </r>
       <r>    4.0309    1.0000 </r>
       <r>    7.1992    0.0000 </r>
       <r>    9.3448    0.0000 </r>
       <r>   10.5459    0.0000 </r>
       <r>   10.7069    0.0000 </r>
      </set>
      <set comment="kpoint 40">
       <r>   -4.9665    1.0000 </r>
       <r>    1.6017    1.0000 </r>
       <r>    3.6557    1.0000 </r>
       <r>    3.8544    1.0000 </r>
       <r>    7.3908    0.0000 </r>
       <r>    9.2969    0.0000 </r>
       <r>   10.4839    0.0000 </r>
       <r>   10.9280    0.0000 </r>
      </set>
      <set comment="kpoint 41">
       <r>   -4.5542    1.0000 </r>
       <r>    0.6936    1.0000 </r>
       <r>    3.2874    1.0000 </r>
       <r>    3.7509    1.0000 </r>
       <r>    7.5170    0.0000 </r>
       <r>    9.7013    0.0000 </r>
       <r>   10.3270    0.0000 </r>
       <r>   10.9056    0.0000 </r>
      </set>
      <set comment="kpoint 42">
       <r>   -4.0950    1.0000 </r>
       <r>   -0.1448    1.0000 </r>
       <r>    2.9539    1.0000 </r>
       <r>    3.7241    1.0000 </r>
       <r>    7.5478    0.0000 </r>
       <r>   10.1721    0.0000 </r>
       <r>   10.4976    0.0000 </r>
       <r>   10.7419    0.0000 </r>
      </set>
      <set comment="kpoint 43">
       <r>   -3.6692    1.0000 </r>
       <r>   -0.8041    1.0000 </r>
       <r>    2.6831    1.0000 </r>
       <r>    3.7739    1.0000 </r>
       <r>    7.5881    0.0000 </r>
       <r>   10.0552    0.0000 </r>
       <r>   10.5403    0.0000 </r>
       <r>   11.5257    0.0000 </r>
      </set>
      <set comment="kpoint 44">
       <r>   -3.4766    1.0000 </r>
       <r>   -1.0712    1.0000 </r>
       <r>    2.4901    1.0000 </r>
       <r>    3.8969    1.0000 </r>
       <r>    7.6908    0.0000 </r>
       <r>    9.9899    0.0000 </r>
       <r>   10.3561    0.0000 </r>
       <r>   12.6859    0.0000 </r>
      </set>
      <set comment="kpoint 45">
       <r>   -3.6846    1.0000 </r>
       <r>   -0.7762    1.0000 </r>
       <r>    2.3874    1.0000 </r>
       <r>    4.0863    1.0000 </r>
       <r>    7.8663    0.0000 </r>
       <r>    9.9799    0.0000 </r>
       <r>   10.2032    0.0000 </r>
       <r>   13.4678    0.0000 </r>
      </set>
      <set comment="kpoint 46">
       <r>   -4.1137    1.0000 </r>
       <r>   -0.1099    1.0000 </r>
       <r>    2.3919    1.0000 </r>
       <r>    4.3300    1.0000 </r>
       <r>    8.1021    0.0000 </r>
       <r>   10.0093    0.0000 </r>
       <r>   10.0533    0.0000 </r>
       <r>   12.4742    0.0000 </r>
      </set>
      <set comment="kpoint 47">
       <r>   -4.5710    1.0000 </r>
       <r>    0.6970    1.0000 </r>
       <r>    2.5387    1.0000 </r>
       <r>    4.6076    1.0000 </r>
       <r>    8.3651    0.0000 </r>
       <r>    9.8227    0.0000 </r>
       <r>    9.9929    0.0000 </r>
       <r>   11.6410    0.0000 </r>
      </set>
      <set comment="kpoint 48">
       <r>   -4.9799    1.0000 </r>
       <r>    1.4686    1.0000 </r>
       <r>    2.9137    1.0000 </r>
       <r>    4.8842    1.0000 </r>
       <r>    8.5795    0.0000 </r>
       <r>    9.4535    0.0000 </r>
       <r>    9.7097    0.0000 </r>
       <r>   11.2734    0.0000 </r>
      </set>
      <set comment="kpoint 49">
       <r>   -5.0870    1.0000 </r>
       <r>    2.1198    1.0000 </r>
       <r>    3.7750    1.0000 </r>
       <r>    3.7750    1.0000 </r>
       <r>    6.8162    0.0000 </r>
       <r>    8.8009    0.0000 </r>
       <r>   11.3154    0.0000 </r>
       <r>   11.3154    0.0000 </r>
      </set>
      <set comment="kpoint 50">
       <r>   -4.7807    1.0000 </r>
       <r>    1.4729    1.0000 </r>
       <r>    3.4643    1.0000 </r>
       <r>    3.5825    1.0000 </r>
       <r>    6.8301    0.0000 </r>
       <r>    8.4833    0.0000 </r>
       <r>   11.5865    0.0000 </r>
       <r>   11.7278    0.0000 </r>
      </set>
      <set comment="kpoint 51">
       <r>   -4.3923    1.0000 </r>
       <r>    0.7302    1.0000 </r>
       <r>    3.0194    1.0000 </r>
       <r>    3.4642    1.0000 </r>
       <r>    7.0320    0.0000 </r>
       <r>    8.5631    0.0000 </r>
       <r>   11.5389    0.0000 </r>
       <r>   11.8377    0.0000 </r>
      </set>
      <set comment="kpoint 52">
       <r>   -3.9433    1.0000 </r>
       <r>   -0.0160    1.0000 </r>
       <r>    2.5651    1.0000 </r>
       <r>    3.4249    1.0000 </r>
       <r>    7.1403    0.0000 </r>
       <r>    9.1498    0.0000 </r>
       <r>   11.4059    0.0000 </r>
       <r>   11.7227    0.0000 </r>
      </set>
      <set comment="kpoint 53">
       <r>   -3.4899    1.0000 </r>
       <r>   -0.6717    1.0000 </r>
       <r>    2.1789    1.0000 </r>
       <r>    3.4656    1.0000 </r>
       <r>    7.2061    0.0000 </r>
       <r>   10.0730    0.0000 </r>
       <r>   11.2849    0.0000 </r>
       <r>   11.5179    0.0000 </r>
      </set>
      <set comment="kpoint 54">
       <r>   -3.1933    1.0000 </r>
       <r>   -1.0544    1.0000 </r>
       <r>    1.8945    1.0000 </r>
       <r>    3.5838    1.0000 </r>
       <r>    7.3239    0.0000 </r>
       <r>   10.9614    0.0000 </r>
       <r>   11.3015    0.0000 </r>
       <r>   11.4227    0.0000 </r>
      </set>
      <set comment="kpoint 55">
       <r>   -3.2934    1.0000 </r>
       <r>   -0.9206    1.0000 </r>
       <r>    1.7345    1.0000 </r>
       <r>    3.7735    1.0000 </r>
       <r>    7.5207    0.0000 </r>
       <r>   11.0242    0.0000 </r>
       <r>   11.0919    0.0000 </r>
       <r>   12.5261    0.0000 </r>
      </set>
      <set comment="kpoint 56">
       <r>   -3.6894    1.0000 </r>
       <r>   -0.3963    1.0000 </r>
       <r>    1.7354    1.0000 </r>
       <r>    4.0234    1.0000 </r>
       <r>    7.7907    0.0000 </r>
       <r>   10.8368    0.0000 </r>
       <r>   10.9738    0.0000 </r>
       <r>   12.4023    0.0000 </r>
      </set>
      <set comment="kpoint 57">
       <r>   -4.1479    1.0000 </r>
       <r>    0.2085    1.0000 </r>
       <r>    1.9744    1.0000 </r>
       <r>    4.3133    1.0000 </r>
       <r>    8.1019    0.0000 </r>
       <r>   10.4049    0.0000 </r>
       <r>   10.6944    0.0000 </r>
       <r>   11.7017    0.0000 </r>
      </set>
      <set comment="kpoint 58">
       <r>   -4.5029    1.0000 </r>
       <r>    1.0195    1.0000 </r>
       <r>    3.3716    1.0000 </r>
       <r>    3.3716    1.0000 </r>
       <r>    6.5014    0.0000 </r>
       <r>    7.9412    0.0000 </r>
       <r>   12.4174    0.0000 </r>
       <r>   12.4174    0.0000 </r>
      </set>
      <set comment="kpoint 59">
       <r>   -4.1400    1.0000 </r>
       <r>    0.4298    1.0000 </r>
       <r>    3.0571    1.0000 </r>
       <r>    3.2343    1.0000 </r>
       <r>    6.5694    0.0000 </r>
       <r>    7.7209    0.0000 </r>
       <r>   12.7094    0.0000 </r>
       <r>   12.7865    0.0000 </r>
      </set>
      <set comment="kpoint 60">
       <r>   -3.7071    1.0000 </r>
       <r>   -0.1885    1.0000 </r>
       <r>    2.5558    1.0000 </r>
       <r>    3.1767    1.0000 </r>
       <r>    6.7621    0.0000 </r>
       <r>    7.9917    0.0000 </r>
       <r>   12.6805    0.0000 </r>
       <r>   12.7987    0.0000 </r>
      </set>
      <set comment="kpoint 61">
       <r>   -3.2430    1.0000 </r>
       <r>   -0.7697    1.0000 </r>
       <r>    2.0461    1.0000 </r>
       <r>    3.2009    1.0000 </r>
       <r>    6.8597    0.0000 </r>
       <r>    8.7751    0.0000 </r>
       <r>   12.5603    0.0000 </r>
       <r>   12.6246    0.0000 </r>
      </set>
      <set comment="kpoint 62">
       <r>   -2.8710    1.0000 </r>
       <r>   -1.1868    1.0000 </r>
       <r>    1.6389    1.0000 </r>
       <r>    3.3055    1.0000 </r>
       <r>    6.9788    0.0000 </r>
       <r>    9.8332    0.0000 </r>
       <r>   12.3875    0.0000 </r>
       <r>   12.4396    0.0000 </r>
      </set>
      <set comment="kpoint 63">
       <r>   -2.8752    1.0000 </r>
       <r>   -1.1710    1.0000 </r>
       <r>    1.4008    1.0000 </r>
       <r>    3.4854    1.0000 </r>
       <r>    7.1767    0.0000 </r>
       <r>   11.0148    0.0000 </r>
       <r>   12.0986    0.0000 </r>
       <r>   12.3636    0.0000 </r>
      </set>
      <set comment="kpoint 64">
       <r>   -3.2393    1.0000 </r>
       <r>   -0.7891    1.0000 </r>
       <r>    1.4040    1.0000 </r>
       <r>    3.7308    1.0000 </r>
       <r>    7.4559    0.0000 </r>
       <r>   11.6085    0.0000 </r>
       <r>   11.7626    0.0000 </r>
       <r>   12.5899    0.0000 </r>
      </set>
      <set comment="kpoint 65">
       <r>   -3.8019    1.0000 </r>
       <r>   -0.0632    1.0000 </r>
       <r>    3.0762    1.0000 </r>
       <r>    3.0762    1.0000 </r>
       <r>    6.3167    0.0035 </r>
       <r>    7.2426    0.0000 </r>
       <r>   13.5573    0.0000 </r>
       <r>   13.5573    0.0000 </r>
      </set>
      <set comment="kpoint 66">
       <r>   -3.3884    1.0000 </r>
       <r>   -0.6051    1.0000 </r>
       <r>    2.7852    1.0000 </r>
       <r>    2.9975    1.0000 </r>
       <r>    6.4398    0.0002 </r>
       <r>    7.1460    0.0000 </r>
       <r>   13.8683    0.0000 </r>
       <r>   13.8778    0.0000 </r>
      </set>
      <set comment="kpoint 67">
       <r>   -2.9251    1.0000 </r>
       <r>   -1.1256    1.0000 </r>
       <r>    2.2807    1.0000 </r>
       <r>    3.0013    1.0000 </r>
       <r>    6.5968    0.0000 </r>
       <r>    7.6417    0.0000 </r>
       <r>   13.8081    0.0000 </r>
       <r>   13.8559    0.0000 </r>
      </set>
      <set comment="kpoint 68">
       <r>   -2.5076    1.0000 </r>
       <r>   -1.5349    1.0000 </r>
       <r>    1.7825    1.0000 </r>
       <r>    3.0872    1.0000 </r>
       <r>    6.7118    0.0000 </r>
       <r>    8.5911    0.0000 </r>
       <r>   13.5510    0.0000 </r>
       <r>   13.7458    0.0000 </r>
      </set>
      <set comment="kpoint 69">
       <r>   -2.5034    1.0000 </r>
       <r>   -1.5093    1.0000 </r>
       <r>    1.4457    1.0000 </r>
       <r>    3.2513    1.0000 </r>
       <r>    6.9003    0.0000 </r>
       <r>    9.7541    0.0000 </r>
       <r>   13.0329    0.0000 </r>
       <r>   13.5232    0.0000 </r>
      </set>
      <set comment="kpoint 70">
       <r>   -2.9933    1.0000 </r>
       <r>   -1.1066    1.0000 </r>
       <r>    2.8965    1.0000 </r>
       <r>    2.8965    1.0000 </r>
       <r>    6.2836    0.0069 </r>
       <r>    6.7349    0.0000 </r>
       <r>   14.7154    0.0000 </r>
       <r>   14.7154    0.0000 </r>
      </set>
      <set comment="kpoint 71">
       <r>   -2.5379    1.0000 </r>
       <r>   -1.6020    1.0000 </r>
       <r>    2.6492    1.0000 </r>
       <r>    2.8779    1.0000 </r>
       <r>    6.4370    0.0002 </r>
       <r>    6.7923    0.0000 </r>
       <r>   14.9536    0.0000 </r>
       <r>   15.0213    0.0000 </r>
      </set>
      <set comment="kpoint 72">
       <r>   -2.1612    1.0000 </r>
       <r>   -1.9443    1.0000 </r>
       <r>    2.1901    1.0000 </r>
       <r>    2.9424    1.0000 </r>
       <r>    6.5415    0.0000 </r>
       <r>    7.5242    0.0000 </r>
       <r>   14.5765    0.0000 </r>
       <r>   14.9262    0.0000 </r>
      </set>
      <set comment="kpoint 73">
       <r>   -2.0897    1.0000 </r>
       <r>   -2.0897    1.0000 </r>
       <r>    2.8362    1.0000 </r>
       <r>    2.8362    1.0000 </r>
       <r>    6.4185    0.0003 </r>
       <r>    6.4185    0.0003 </r>
       <r>   15.5831    0.0000 </r>
       <r>   15.5831    0.0000 </r>
      </set>
      <set comment="kpoint 74">
       <r>   -5.8140    1.0000 </r>
       <r>    3.7347    1.0000 </r>
       <r>    4.5710    1.0000 </r>
       <r>    5.1855    1.0000 </r>
       <r>    8.0291    0.0000 </r>
       <r>    8.8666    0.0000 </r>
       <r>    9.1874    0.0000 </r>
       <r>   10.4525    0.0000 </r>
      </set>
      <set comment="kpoint 75">
       <r>   -5.5683    1.0000 </r>
       <r>    2.7907    1.0000 </r>
       <r>    4.1669    1.0000 </r>
       <r>    5.0306    1.0000 </r>
       <r>    8.1875    0.0000 </r>
       <r>    8.8611    0.0000 </r>
       <r>    9.5588    0.0000 </r>
       <r>   10.7947    0.0000 </r>
      </set>
      <set comment="kpoint 76">
       <r>   -5.2325    1.0000 </r>
       <r>    1.7452    1.0000 </r>
       <r>    3.9005    1.0000 </r>
       <r>    4.8022    1.0000 </r>
       <r>    8.2232    0.0000 </r>
       <r>    8.9203    0.0000 </r>
       <r>    9.7910    0.0000 </r>
       <r>   11.0006    0.0000 </r>
      </set>
      <set comment="kpoint 77">
       <r>   -4.8199    1.0000 </r>
       <r>    0.7344    1.0000 </r>
       <r>    3.7191    1.0000 </r>
       <r>    4.5681    1.0000 </r>
       <r>    8.1150    0.0000 </r>
       <r>    8.9710    0.0000 </r>
       <r>    9.8089    0.0000 </r>
       <r>   11.4841    0.0000 </r>
      </set>
      <set comment="kpoint 78">
       <r>   -4.3611    1.0000 </r>
       <r>   -0.1683    1.0000 </r>
       <r>    3.6056    1.0000 </r>
       <r>    4.3707    1.0000 </r>
       <r>    7.9970    0.0000 </r>
       <r>    8.9282    0.0000 </r>
       <r>    9.7227    0.0000 </r>
       <r>   12.2641    0.0000 </r>
      </set>
      <set comment="kpoint 79">
       <r>   -3.9368    1.0000 </r>
       <r>   -0.8642    1.0000 </r>
       <r>    3.5468    1.0000 </r>
       <r>    4.2380    1.0000 </r>
       <r>    7.9175    0.0000 </r>
       <r>    8.8674    0.0000 </r>
       <r>    9.6353    0.0000 </r>
       <r>   13.1693    0.0000 </r>
      </set>
      <set comment="kpoint 80">
       <r>   -3.7405    1.0000 </r>
       <r>   -1.1518    1.0000 </r>
       <r>    3.5294    1.0000 </r>
       <r>    4.1908    1.0000 </r>
       <r>    7.8901    0.0000 </r>
       <r>    8.8422    0.0000 </r>
       <r>    9.6009    0.0000 </r>
       <r>   13.7192    0.0000 </r>
      </set>
      <set comment="kpoint 81">
       <r>   -5.4838    1.0000 </r>
       <r>    2.8355    1.0000 </r>
       <r>    4.0135    1.0000 </r>
       <r>    4.5594    1.0000 </r>
       <r>    7.5963    0.0000 </r>
       <r>    9.5160    0.0000 </r>
       <r>   10.1704    0.0000 </r>
       <r>   10.2072    0.0000 </r>
      </set>
      <set comment="kpoint 82">
       <r>   -5.1777    1.0000 </r>
       <r>    1.9732    1.0000 </r>
       <r>    3.6059    1.0000 </r>
       <r>    4.3834    1.0000 </r>
       <r>    7.7961    0.0000 </r>
       <r>    9.4910    0.0000 </r>
       <r>   10.0850    0.0000 </r>
       <r>   10.5310    0.0000 </r>
      </set>
      <set comment="kpoint 83">
       <r>   -4.7892    1.0000 </r>
       <r>    1.0337    1.0000 </r>
       <r>    3.3260    1.0000 </r>
       <r>    4.1624    1.0000 </r>
       <r>    7.9549    0.0000 </r>
       <r>    9.5360    0.0000 </r>
       <r>   10.1469    0.0000 </r>
       <r>   10.6717    0.0000 </r>
      </set>
      <set comment="kpoint 84">
       <r>   -4.3407    1.0000 </r>
       <r>    0.1371    1.0000 </r>
       <r>    3.1178    1.0000 </r>
       <r>    3.9801    1.0000 </r>
       <r>    7.9910    0.0000 </r>
       <r>    9.4041    0.0000 </r>
       <r>   10.5750    0.0000 </r>
       <r>   10.8296    0.0000 </r>
      </set>
      <set comment="kpoint 85">
       <r>   -3.8892    1.0000 </r>
       <r>   -0.6172    1.0000 </r>
       <r>    2.9548    1.0000 </r>
       <r>    3.8833    1.0000 </r>
       <r>    8.0053    0.0000 </r>
       <r>    9.2317    0.0000 </r>
       <r>   10.5018    0.0000 </r>
       <r>   11.7505    0.0000 </r>
      </set>
      <set comment="kpoint 86">
       <r>   -3.5872    1.0000 </r>
       <r>   -1.0583    1.0000 </r>
       <r>    2.8327    1.0000 </r>
       <r>    3.8880    1.0000 </r>
       <r>    8.0625    0.0000 </r>
       <r>    9.0981    0.0000 </r>
       <r>   10.4168    0.0000 </r>
       <r>   12.8462    0.0000 </r>
      </set>
      <set comment="kpoint 87">
       <r>   -3.6598    1.0000 </r>
       <r>   -0.9549    1.0000 </r>
       <r>    2.7625    1.0000 </r>
       <r>    3.9882    1.0000 </r>
       <r>    8.1781    0.0000 </r>
       <r>    9.0248    0.0000 </r>
       <r>   10.3722    0.0000 </r>
       <r>   13.1303    0.0000 </r>
      </set>
      <set comment="kpoint 88">
       <r>   -4.0400    1.0000 </r>
       <r>   -0.3764    1.0000 </r>
       <r>    2.7609    1.0000 </r>
       <r>    4.1676    1.0000 </r>
       <r>    8.3415    0.0000 </r>
       <r>    9.0118    0.0000 </r>
       <r>   10.3630    0.0000 </r>
       <r>   12.0976    0.0000 </r>
      </set>
      <set comment="kpoint 89">
       <r>   -4.5007    1.0000 </r>
       <r>    0.4357    1.0000 </r>
       <r>    2.8485    1.0000 </r>
       <r>    4.4039    1.0000 </r>
       <r>    8.5233    0.0000 </r>
       <r>    9.0190    0.0000 </r>
       <r>   10.3439    0.0000 </r>
       <r>   11.2437    0.0000 </r>
      </set>
      <set comment="kpoint 90">
       <r>   -4.9320    1.0000 </r>
       <r>    1.3312    1.0000 </r>
       <r>    3.0598    1.0000 </r>
       <r>    4.6653    1.0000 </r>
       <r>    8.6468    0.0000 </r>
       <r>    8.9551    0.0000 </r>
       <r>   10.2343    0.0000 </r>
       <r>   10.7166    0.0000 </r>
      </set>
      <set comment="kpoint 91">
       <r>   -5.2934    1.0000 </r>
       <r>    2.1666    1.0000 </r>
       <r>    3.4749    1.0000 </r>
       <r>    4.9003    1.0000 </r>
       <r>    8.4636    0.0000 </r>
       <r>    8.9470    0.0000 </r>
       <r>    9.9202    0.0000 </r>
       <r>   10.6358    0.0000 </r>
      </set>
      <set comment="kpoint 92">
       <r>   -5.0262    1.0000 </r>
       <r>    1.8857    1.0000 </r>
       <r>    3.5184    1.0000 </r>
       <r>    3.9323    1.0000 </r>
       <r>    7.1950    0.0000 </r>
       <r>    9.0174    0.0000 </r>
       <r>   10.7313    0.0000 </r>
       <r>   11.2489    0.0000 </r>
      </set>
      <set comment="kpoint 93">
       <r>   -4.6643    1.0000 </r>
       <r>    1.1320    1.0000 </r>
       <r>    3.1050    1.0000 </r>
       <r>    3.7435    1.0000 </r>
       <r>    7.4267    0.0000 </r>
       <r>    8.9936    0.0000 </r>
       <r>   10.6181    0.0000 </r>
       <r>   11.5910    0.0000 </r>
      </set>
      <set comment="kpoint 94">
       <r>   -4.2325    1.0000 </r>
       <r>    0.3330    1.0000 </r>
       <r>    2.7536    1.0000 </r>
       <r>    3.5787    1.0000 </r>
       <r>    7.5840    0.0000 </r>
       <r>    9.4500    0.0000 </r>
       <r>   10.4150    0.0000 </r>
       <r>   11.6516    0.0000 </r>
      </set>
      <set comment="kpoint 95">
       <r>   -3.7707    1.0000 </r>
       <r>   -0.4079    1.0000 </r>
       <r>    2.4540    1.0000 </r>
       <r>    3.5063    1.0000 </r>
       <r>    7.6495    0.0000 </r>
       <r>   10.1254    0.0000 </r>
       <r>   10.3785    0.0000 </r>
       <r>   11.5709    0.0000 </r>
      </set>
      <set comment="kpoint 96">
       <r>   -3.3914    1.0000 </r>
       <r>   -0.9417    1.0000 </r>
       <r>    2.2177    1.0000 </r>
       <r>    3.5368    1.0000 </r>
       <r>    7.7379    0.0000 </r>
       <r>    9.9810    0.0000 </r>
       <r>   11.3857    0.0000 </r>
       <r>   11.4860    0.0000 </r>
      </set>
      <set comment="kpoint 97">
       <r>   -3.3336    1.0000 </r>
       <r>   -1.0145    1.0000 </r>
       <r>    2.0636    1.0000 </r>
       <r>    3.6609    1.0000 </r>
       <r>    7.8942    0.0000 </r>
       <r>    9.8345    0.0000 </r>
       <r>   11.3625    0.0000 </r>
       <r>   12.5960    0.0000 </r>
      </set>
      <set comment="kpoint 98">
       <r>   -3.6515    1.0000 </r>
       <r>   -0.5760    1.0000 </r>
       <r>    2.0150    1.0000 </r>
       <r>    3.8637    1.0000 </r>
       <r>    8.1222    0.0000 </r>
       <r>    9.7235    0.0000 </r>
       <r>   11.2716    0.0000 </r>
       <r>   12.0308    0.0000 </r>
      </set>
      <set comment="kpoint 99">
       <r>   -4.1052    1.0000 </r>
       <r>    0.1015    1.0000 </r>
       <r>    2.1115    1.0000 </r>
       <r>    4.1245    1.0000 </r>
       <r>    8.4024    0.0000 </r>
       <r>    9.5851    0.0000 </r>
       <r>   11.0198    0.0000 </r>
       <r>   11.2608    0.0000 </r>
      </set>
      <set comment="kpoint 100">
       <r>   -4.5494    1.0000 </r>
       <r>    0.7884    1.0000 </r>
       <r>    2.4329    1.0000 </r>
       <r>    4.4105    1.0000 </r>
       <r>    8.6836    0.0000 </r>
       <r>    9.2433    0.0000 </r>
       <r>   10.6522    0.0000 </r>
       <r>   10.8248    0.0000 </r>
      </set>
      <set comment="kpoint 101">
       <r>   -4.4466    1.0000 </r>
       <r>    0.8945    1.0000 </r>
       <r>    3.1218    1.0000 </r>
       <r>    3.4082    1.0000 </r>
       <r>    6.8831    0.0000 </r>
       <r>    8.2001    0.0000 </r>
       <r>   11.7035    0.0000 </r>
       <r>   12.3805    0.0000 </r>
      </set>
      <set comment="kpoint 102">
       <r>   -4.0359    1.0000 </r>
       <r>    0.2491    1.0000 </r>
       <r>    2.6909    1.0000 </r>
       <r>    3.2419    1.0000 </r>
       <r>    7.1388    0.0000 </r>
       <r>    8.3169    0.0000 </r>
       <r>   11.5559    0.0000 </r>
       <r>   12.7135    0.0000 </r>
      </set>
      <set comment="kpoint 103">
       <r>   -3.5762    1.0000 </r>
       <r>   -0.3954    1.0000 </r>
       <r>    2.2418    1.0000 </r>
       <r>    3.1744    1.0000 </r>
       <r>    7.2747    0.0000 </r>
       <r>    8.9719    0.0000 </r>
       <r>   11.3418    0.0000 </r>
       <r>   12.7350    0.0000 </r>
      </set>
      <set comment="kpoint 104">
       <r>   -3.1470    1.0000 </r>
       <r>   -0.9350    1.0000 </r>
       <r>    1.8632    1.0000 </r>
       <r>    3.2107    1.0000 </r>
       <r>    7.3749    0.0000 </r>
       <r>    9.9509    0.0000 </r>
       <r>   11.1421    0.0000 </r>
       <r>   12.6364    0.0000 </r>
      </set>
      <set comment="kpoint 105">
       <r>   -2.9705    1.0000 </r>
       <r>   -1.1364    1.0000 </r>
       <r>    1.6066    1.0000 </r>
       <r>    3.3400    1.0000 </r>
       <r>    7.5357    0.0000 </r>
       <r>   10.7713    0.0000 </r>
       <r>   11.2970    0.0000 </r>
       <r>   12.4988    0.0000 </r>
      </set>
      <set comment="kpoint 106">
       <r>   -3.2178    1.0000 </r>
       <r>   -0.8420    1.0000 </r>
       <r>    1.5151    1.0000 </r>
       <r>    3.5496    1.0000 </r>
       <r>    7.7749    0.0000 </r>
       <r>   10.6770    0.0000 </r>
       <r>   11.9894    0.0000 </r>
       <r>   12.2358    0.0000 </r>
      </set>
      <set comment="kpoint 107">
       <r>   -3.6569    1.0000 </r>
       <r>   -0.3414    1.0000 </r>
       <r>    1.6571    1.0000 </r>
       <r>    3.8212    1.0000 </r>
       <r>    8.0796    0.0000 </r>
       <r>   10.3079    0.0000 </r>
       <r>   11.2704    0.0000 </r>
       <r>   11.9342    0.0000 </r>
      </set>
      <set comment="kpoint 108">
       <r>   -3.7527    1.0000 </r>
       <r>   -0.1158    1.0000 </r>
       <r>    2.8407    1.0000 </r>
       <r>    3.0185    1.0000 </r>
       <r>    6.6939    0.0000 </r>
       <r>    7.5350    0.0000 </r>
       <r>   12.7397    0.0000 </r>
       <r>   13.5454    0.0000 </r>
      </set>
      <set comment="kpoint 109">
       <r>   -3.3037    1.0000 </r>
       <r>   -0.6683    1.0000 </r>
       <r>    2.3927    1.0000 </r>
       <r>    2.9163    1.0000 </r>
       <r>    6.9526    0.0000 </r>
       <r>    7.8366    0.0000 </r>
       <r>   12.5631    0.0000 </r>
       <r>   13.8704    0.0000 </r>
      </set>
      <set comment="kpoint 110">
       <r>   -2.8470    1.0000 </r>
       <r>   -1.1647    1.0000 </r>
       <r>    1.8967    1.0000 </r>
       <r>    2.9457    1.0000 </r>
       <r>    7.0747    0.0000 </r>
       <r>    8.6893    0.0000 </r>
       <r>   12.3403    0.0000 </r>
       <r>   13.8401    0.0000 </r>
      </set>
      <set comment="kpoint 111">
       <r>   -2.5838    1.0000 </r>
       <r>   -1.4204    1.0000 </r>
       <r>    1.5191    1.0000 </r>
       <r>    3.0695    1.0000 </r>
       <r>    7.2289    0.0000 </r>
       <r>    9.7970    0.0000 </r>
       <r>   12.1171    0.0000 </r>
       <r>   13.2658    0.0000 </r>
      </set>
      <set comment="kpoint 112">
       <r>   -2.7946    1.0000 </r>
       <r>   -1.2007    1.0000 </r>
       <r>    1.3602    1.0000 </r>
       <r>    3.2758    1.0000 </r>
       <r>    7.4644    0.0000 </r>
       <r>   10.9721    0.0000 </r>
       <r>   11.7996    0.0000 </r>
       <r>   12.3053    0.0000 </r>
      </set>
      <set comment="kpoint 113">
       <r>   -2.9551    1.0000 </r>
       <r>   -1.1138    1.0000 </r>
       <r>    2.6845    1.0000 </r>
       <r>    2.7694    1.0000 </r>
       <r>    6.6493    0.0000 </r>
       <r>    7.0573    0.0000 </r>
       <r>   13.8230    0.0000 </r>
       <r>   14.7092    0.0000 </r>
      </set>
      <set comment="kpoint 114">
       <r>   -2.4871    1.0000 </r>
       <r>   -1.5848    1.0000 </r>
       <r>    2.2373    1.0000 </r>
       <r>    2.7590    1.0000 </r>
       <r>    6.8666    0.0000 </r>
       <r>    7.5858    0.0000 </r>
       <r>   13.6288    0.0000 </r>
       <r>   14.6608    0.0000 </r>
      </set>
      <set comment="kpoint 115">
       <r>   -2.2478    1.0000 </r>
       <r>   -1.7785    1.0000 </r>
       <r>    1.7775    1.0000 </r>
       <r>    2.8716    1.0000 </r>
       <r>    7.0058    0.0000 </r>
       <r>    8.5963    0.0000 </r>
       <r>   13.2640    0.0000 </r>
       <r>   13.5900    0.0000 </r>
      </set>
      <set comment="kpoint 116">
       <r>   -2.0688    1.0000 </r>
       <r>   -2.0688    1.0000 </r>
       <r>    2.6592    1.0000 </r>
       <r>    2.6592    1.0000 </r>
       <r>    6.7657    0.0000 </r>
       <r>    6.7657    0.0000 </r>
       <r>   14.9058    0.0000 </r>
       <r>   14.9058    0.0000 </r>
      </set>
      <set comment="kpoint 117">
       <r>   -4.8453    1.0000 </r>
       <r>    1.3741    1.0000 </r>
       <r>    2.9835    1.0000 </r>
       <r>    4.2191    1.0000 </r>
       <r>    8.0942    0.0000 </r>
       <r>    9.4911    0.0000 </r>
       <r>    9.8453    0.0000 </r>
       <r>   11.0686    0.0000 </r>
      </set>
      <set comment="kpoint 118">
       <r>   -4.4360    1.0000 </r>
       <r>    0.6310    1.0000 </r>
       <r>    2.5944    1.0000 </r>
       <r>    3.9718    1.0000 </r>
       <r>    8.3906    0.0000 </r>
       <r>    9.4356    0.0000 </r>
       <r>    9.9143    0.0000 </r>
       <r>   11.4118    0.0000 </r>
      </set>
      <set comment="kpoint 119">
       <r>   -3.9782    1.0000 </r>
       <r>   -0.1380    1.0000 </r>
       <r>    2.3838    1.0000 </r>
       <r>    3.7375    1.0000 </r>
       <r>    8.5167    0.0000 </r>
       <r>    9.1792    0.0000 </r>
       <r>   10.6286    0.0000 </r>
       <r>   11.5077    0.0000 </r>
      </set>
      <set comment="kpoint 120">
       <r>   -3.5488    1.0000 </r>
       <r>   -0.7774    1.0000 </r>
       <r>    2.2828    1.0000 </r>
       <r>    3.5748    1.0000 </r>
       <r>    8.5977    0.0000 </r>
       <r>    8.9386    0.0000 </r>
       <r>   11.4733    0.0000 </r>
       <r>   11.6716    0.0000 </r>
      </set>
      <set comment="kpoint 121">
       <r>   -3.3459    1.0000 </r>
       <r>   -1.0536    1.0000 </r>
       <r>    2.2532    1.0000 </r>
       <r>    3.5167    1.0000 </r>
       <r>    8.6790    0.0000 </r>
       <r>    8.7949    0.0000 </r>
       <r>   11.4840    0.0000 </r>
       <r>   12.6914    0.0000 </r>
      </set>
      <set comment="kpoint 122">
       <r>   -4.2804    1.0000 </r>
       <r>    0.5648    1.0000 </r>
       <r>    2.6021    1.0000 </r>
       <r>    3.5206    1.0000 </r>
       <r>    7.7977    0.0000 </r>
       <r>    8.9170    0.0000 </r>
       <r>   10.4336    0.0000 </r>
       <r>   12.2750    0.0000 </r>
      </set>
      <set comment="kpoint 123">
       <r>   -3.8348    1.0000 </r>
       <r>   -0.0726    1.0000 </r>
       <r>    2.2349    1.0000 </r>
       <r>    3.2815    1.0000 </r>
       <r>    8.1064    0.0000 </r>
       <r>    9.3113    0.0000 </r>
       <r>   10.1841    0.0000 </r>
       <r>   12.6265    0.0000 </r>
      </set>
      <set comment="kpoint 124">
       <r>   -3.3797    1.0000 </r>
       <r>   -0.6826    1.0000 </r>
       <r>    1.9814    1.0000 </r>
       <r>    3.1295    1.0000 </r>
       <r>    8.2380    0.0000 </r>
       <r>    9.8217    0.0000 </r>
       <r>   10.3036    0.0000 </r>
       <r>   12.6980    0.0000 </r>
      </set>
      <set comment="kpoint 125">
       <r>   -3.0696    1.0000 </r>
       <r>   -1.0678    1.0000 </r>
       <r>    1.8178    1.0000 </r>
       <r>    3.1050    1.0000 </r>
       <r>    8.3751    0.0000 </r>
       <r>    9.6474    0.0000 </r>
       <r>   11.3715    0.0000 </r>
       <r>   12.6613    0.0000 </r>
      </set>
      <set comment="kpoint 126">
       <r>   -3.1574    1.0000 </r>
       <r>   -0.9581    1.0000 </r>
       <r>    1.7501    1.0000 </r>
       <r>    3.2070    1.0000 </r>
       <r>    8.5761    0.0000 </r>
       <r>    9.4793    0.0000 </r>
       <r>   11.6201    0.0000 </r>
       <r>   12.5726    0.0000 </r>
      </set>
      <set comment="kpoint 127">
       <r>   -3.5526    1.0000 </r>
       <r>   -0.4603    1.0000 </r>
       <r>    1.8144    1.0000 </r>
       <r>    3.4133    1.0000 </r>
       <r>    8.8428    0.0000 </r>
       <r>    9.3209    0.0000 </r>
       <r>   10.6008    0.0000 </r>
       <r>   12.4951    0.0000 </r>
      </set>
      <set comment="kpoint 128">
       <r>   -4.0121    1.0000 </r>
       <r>    0.1256    1.0000 </r>
       <r>    2.0758    1.0000 </r>
       <r>    3.6879    1.0000 </r>
       <r>    8.9799    0.0000 </r>
       <r>    9.1519    0.0000 </r>
       <r>    9.9781    0.0000 </r>
       <r>   12.1176    0.0000 </r>
      </set>
      <set comment="kpoint 129">
       <r>   -3.6091    1.0000 </r>
       <r>   -0.2777    1.0000 </r>
       <r>    2.3513    1.0000 </r>
       <r>    2.9373    1.0000 </r>
       <r>    7.6095    0.0000 </r>
       <r>    8.3164    0.0000 </r>
       <r>   11.3246    0.0000 </r>
       <r>   13.5090    0.0000 </r>
      </set>
      <set comment="kpoint 130">
       <r>   -3.1464    1.0000 </r>
       <r>   -0.8071    1.0000 </r>
       <r>    1.9941    1.0000 </r>
       <r>    2.7524    1.0000 </r>
       <r>    7.9036    0.0000 </r>
       <r>    8.9070    0.0000 </r>
       <r>   11.0664    0.0000 </r>
       <r>   13.8530    0.0000 </r>
      </set>
      <set comment="kpoint 131">
       <r>   -2.7582    1.0000 </r>
       <r>   -1.2225    1.0000 </r>
       <r>    1.6766    1.0000 </r>
       <r>    2.7435    1.0000 </r>
       <r>    8.0494    0.0000 </r>
       <r>    9.9070    0.0000 </r>
       <r>   10.8625    0.0000 </r>
       <r>   12.9952    0.0000 </r>
      </set>
      <set comment="kpoint 132">
       <r>   -2.7382    1.0000 </r>
       <r>   -1.2358    1.0000 </r>
       <r>    1.4917    1.0000 </r>
       <r>    2.8726    1.0000 </r>
       <r>    8.2470    0.0000 </r>
       <r>   10.4639    0.0000 </r>
       <r>   11.2671    0.0000 </r>
       <r>   11.7999    0.0000 </r>
      </set>
      <set comment="kpoint 133">
       <r>   -3.1008    1.0000 </r>
       <r>   -0.8660    1.0000 </r>
       <r>    1.5155    1.0000 </r>
       <r>    3.1070    1.0000 </r>
       <r>    8.5169    0.0000 </r>
       <r>   10.1527    0.0000 </r>
       <r>   10.8159    0.0000 </r>
       <r>   12.6000    0.0000 </r>
      </set>
      <set comment="kpoint 134">
       <r>   -2.8470    1.0000 </r>
       <r>   -1.1478    1.0000 </r>
       <r>    2.2458    1.0000 </r>
       <r>    2.5267    1.0000 </r>
       <r>    7.5520    0.0000 </r>
       <r>    7.8925    0.0000 </r>
       <r>   12.3134    0.0000 </r>
       <r>   14.4504    0.0000 </r>
      </set>
      <set comment="kpoint 135">
       <r>   -2.4082    1.0000 </r>
       <r>   -1.5648    1.0000 </r>
       <r>    1.8753    1.0000 </r>
       <r>    2.4700    1.0000 </r>
       <r>    7.7995    0.0000 </r>
       <r>    8.7049    0.0000 </r>
       <r>   12.0613    0.0000 </r>
       <r>   13.1687    0.0000 </r>
      </set>
      <set comment="kpoint 136">
       <r>   -2.3610    1.0000 </r>
       <r>   -1.5830    1.0000 </r>
       <r>    1.5578    1.0000 </r>
       <r>    2.6174    1.0000 </r>
       <r>    7.9844    0.0000 </r>
       <r>    9.8440    0.0000 </r>
       <r>   11.7394    0.0000 </r>
       <r>   11.9990    0.0000 </r>
      </set>
      <set comment="kpoint 137">
       <r>   -2.0163    1.0000 </r>
       <r>   -2.0163    1.0000 </r>
       <r>    2.2995    1.0000 </r>
       <r>    2.2995    1.0000 </r>
       <r>    7.6417    0.0000 </r>
       <r>    7.6417    0.0000 </r>
       <r>   13.3892    0.0000 </r>
       <r>   13.3892    0.0000 </r>
      </set>
      <set comment="kpoint 138">
       <r>   -3.3840    1.0000 </r>
       <r>   -0.5412    1.0000 </r>
       <r>    1.8685    1.0000 </r>
       <r>    2.9607    1.0000 </r>
       <r>    8.8053    0.0000 </r>
       <r>    9.3710    0.0000 </r>
       <r>    9.9422    0.0000 </r>
       <r>   13.4469    0.0000 </r>
      </set>
      <set comment="kpoint 139">
       <r>   -2.9432    1.0000 </r>
       <r>   -1.0123    1.0000 </r>
       <r>    1.6720    1.0000 </r>
       <r>    2.7276    1.0000 </r>
       <r>    9.1066    0.0000 </r>
       <r>    9.5314    0.0000 </r>
       <r>   10.3093    0.0000 </r>
       <r>   12.7727    0.0000 </r>
      </set>
      <set comment="kpoint 140">
       <r>   -2.7174    1.0000 </r>
       <r>   -1.2532    1.0000 </r>
       <r>    1.6133    1.0000 </r>
       <r>    2.6429    1.0000 </r>
       <r>    9.1863    0.0000 </r>
       <r>    9.4378    0.0000 </r>
       <r>   11.2445    0.0000 </r>
       <r>   11.6684    0.0000 </r>
      </set>
      <set comment="kpoint 141">
       <r>   -2.6889    1.0000 </r>
       <r>   -1.2357    1.0000 </r>
       <r>    1.8341    1.0000 </r>
       <r>    2.3752    1.0000 </r>
       <r>    8.7451    0.0000 </r>
       <r>    9.0280    0.0000 </r>
       <r>   10.7965    0.0000 </r>
       <r>   12.9384    0.0000 </r>
      </set>
      <set comment="kpoint 142">
       <r>   -2.3456    1.0000 </r>
       <r>   -1.5555    1.0000 </r>
       <r>    1.6794    1.0000 </r>
       <r>    2.2583    1.0000 </r>
       <r>    9.0118    0.0000 </r>
       <r>    9.9216    0.0000 </r>
       <r>   10.6345    0.0000 </r>
       <r>   11.6227    0.0000 </r>
      </set>
      <set comment="kpoint 143">
       <r>   -2.5144    1.0000 </r>
       <r>   -1.3886    1.0000 </r>
       <r>    1.5820    1.0000 </r>
       <r>    2.4116    1.0000 </r>
       <r>    9.2186    0.0000 </r>
       <r>   10.0653    0.0000 </r>
       <r>   10.5268    0.0000 </r>
       <r>   11.4516    0.0000 </r>
      </set>
      <set comment="kpoint 144">
       <r>   -1.9603    1.0000 </r>
       <r>   -1.9602    1.0000 </r>
       <r>    1.9968    1.0000 </r>
       <r>    1.9968    1.0000 </r>
       <r>    8.8157    0.0000 </r>
       <r>    8.8157    0.0000 </r>
       <r>   11.8101    0.0000 </r>
       <r>   11.8101    0.0000 </r>
      </set>
      <set comment="kpoint 145">
       <r>   -1.9359    1.0000 </r>
       <r>   -1.9359    1.0000 </r>
       <r>    1.8821    1.0000 </r>
       <r>    1.8821    1.0000 </r>
       <r>    9.8997    0.0000 </r>
       <r>    9.8997    0.0000 </r>
       <r>   10.5924    0.0000 </r>
       <r>   10.5924    0.0000 </r>
      </set>
     </set>
    </set>
   </array>
  </eigenvalues>
  <separator name="orbital magnetization" >
   <v name="MAGDIPOLOUT">      0.00000000      0.00000000      0.00000000</v>
  </separator>
  <dos>
   <i name="efermi">      5.93552402 </i>
   <total>
    <array>
     <dimension dim="1">gridpoints</dimension>
     <dimension dim="2">spin</dimension>
     <field>energy</field>
     <field>total</field>
     <field>integrated</field>
     <set>
      <set comment="spin 1">
       <r>    -8.1472     0.0000     0.0000 </r>
       <r>    -8.0614     0.0000     0.0000 </r>
       <r>    -7.9756     0.0000     0.0000 </r>
       <r>    -7.8899     0.0000     0.0000 </r>
       <r>    -7.8041     0.0000     0.0000 </r>
       <r>    -7.7183     0.0000     0.0000 </r>
       <r>    -7.6326     0.0000     0.0000 </r>
       <r>    -7.5468     0.0000     0.0000 </r>
       <r>    -7.4610     0.0000     0.0000 </r>
       <r>    -7.3753     0.0000     0.0000 </r>
       <r>    -7.2895     0.0000     0.0000 </r>
       <r>    -7.2037     0.0000     0.0000 </r>
       <r>    -7.1179     0.0000     0.0000 </r>
       <r>    -7.0322     0.0000     0.0000 </r>
       <r>    -6.9464     0.0000     0.0000 </r>
       <r>    -6.8606     0.0000     0.0000 </r>
       <r>    -6.7749     0.0000     0.0000 </r>
       <r>    -6.6891     0.0000     0.0000 </r>
       <r>    -6.6033     0.0000     0.0000 </r>
       <r>    -6.5176     0.0001     0.0000 </r>
       <r>    -6.4318     0.0008     0.0001 </r>
       <r>    -6.3460     0.0036     0.0004 </r>
       <r>    -6.2603     0.0120     0.0014 </r>
       <r>    -6.1745     0.0308     0.0041 </r>
       <r>    -6.0887     0.0619     0.0094 </r>
       <r>    -6.0030     0.1016     0.0181 </r>
       <r>    -5.9172     0.1426     0.0303 </r>
       <r>    -5.8314     0.1795     0.0457 </r>
       <r>    -5.7457     0.2108     0.0638 </r>
       <r>    -5.6599     0.2385     0.0843 </r>
       <r>    -5.5741     0.2643     0.1069 </r>
       <r>    -5.4884     0.2863     0.1315 </r>
       <r>    -5.4026     0.3062     0.1577 </r>
       <r>    -5.3168     0.3295     0.1860 </r>
       <r>    -5.2311     0.3532     0.2163 </r>
       <r>    -5.1453     0.3693     0.2480 </r>
       <r>    -5.0595     0.3833     0.2808 </r>
       <r>    -4.9738     0.4068     0.3157 </r>
       <r>    -4.8880     0.4354     0.3531 </r>
       <r>    -4.8022     0.4540     0.3920 </r>
       <r>    -4.7165     0.4617     0.4316 </r>
       <r>    -4.6307     0.4772     0.4725 </r>
       <r>    -4.5449     0.5117     0.5164 </r>
       <r>    -4.4592     0.5491     0.5635 </r>
       <r>    -4.3734     0.5670     0.6122 </r>
       <r>    -4.2876     0.5720     0.6612 </r>
       <r>    -4.2019     0.5966     0.7124 </r>
       <r>    -4.1161     0.6569     0.7687 </r>
       <r>    -4.0303     0.7255     0.8309 </r>
       <r>    -3.9446     0.7671     0.8967 </r>
       <r>    -3.8588     0.7865     0.9642 </r>
       <r>    -3.7730     0.8150     1.0341 </r>
       <r>    -3.6873     0.8536     1.1073 </r>
       <r>    -3.6015     0.8629     1.1813 </r>
       <r>    -3.5157     0.8228     1.2519 </r>
       <r>    -3.4299     0.7684     1.3178 </r>
       <r>    -3.3442     0.7397     1.3812 </r>
       <r>    -3.2584     0.7293     1.4438 </r>
       <r>    -3.1726     0.7064     1.5044 </r>
       <r>    -3.0869     0.6629     1.5612 </r>
       <r>    -3.0011     0.6198     1.6144 </r>
       <r>    -2.9153     0.5952     1.6654 </r>
       <r>    -2.8296     0.5756     1.7148 </r>
       <r>    -2.7438     0.5373     1.7609 </r>
       <r>    -2.6580     0.4855     1.8025 </r>
       <r>    -2.5723     0.4470     1.8408 </r>
       <r>    -2.4865     0.4257     1.8773 </r>
       <r>    -2.4007     0.3931     1.9111 </r>
       <r>    -2.3150     0.3296     1.9393 </r>
       <r>    -2.2292     0.2528     1.9610 </r>
       <r>    -2.1434     0.1966     1.9779 </r>
       <r>    -2.0577     0.1738     1.9928 </r>
       <r>    -1.9719     0.1666     2.0071 </r>
       <r>    -1.8861     0.1574     2.0206 </r>
       <r>    -1.8004     0.1593     2.0342 </r>
       <r>    -1.7146     0.2043     2.0517 </r>
       <r>    -1.6288     0.2945     2.0770 </r>
       <r>    -1.5431     0.3807     2.1097 </r>
       <r>    -1.4573     0.4234     2.1460 </r>
       <r>    -1.3715     0.4655     2.1859 </r>
       <r>    -1.2858     0.5942     2.2369 </r>
       <r>    -1.2000     0.8237     2.3075 </r>
       <r>    -1.1142     1.0588     2.3983 </r>
       <r>    -1.0285     1.1881     2.5002 </r>
       <r>    -0.9427     1.1806     2.6015 </r>
       <r>    -0.8569     1.0840     2.6944 </r>
       <r>    -0.7712     0.9622     2.7770 </r>
       <r>    -0.6854     0.8500     2.8499 </r>
       <r>    -0.5996     0.7565     2.9147 </r>
       <r>    -0.5139     0.6860     2.9736 </r>
       <r>    -0.4281     0.6358     3.0281 </r>
       <r>    -0.3423     0.5891     3.0786 </r>
       <r>    -0.2566     0.5432     3.1252 </r>
       <r>    -0.1708     0.5138     3.1693 </r>
       <r>    -0.0850     0.4958     3.2118 </r>
       <r>     0.0007     0.4719     3.2523 </r>
       <r>     0.0865     0.4449     3.2905 </r>
       <r>     0.1723     0.4215     3.3266 </r>
       <r>     0.2580     0.3974     3.3607 </r>
       <r>     0.3438     0.3732     3.3927 </r>
       <r>     0.4296     0.3515     3.4228 </r>
       <r>     0.5154     0.3338     3.4515 </r>
       <r>     0.6011     0.3289     3.4797 </r>
       <r>     0.6869     0.3329     3.5082 </r>
       <r>     0.7727     0.3195     3.5356 </r>
       <r>     0.8584     0.2817     3.5598 </r>
       <r>     0.9442     0.2506     3.5813 </r>
       <r>     1.0300     0.2473     3.6025 </r>
       <r>     1.1157     0.2573     3.6245 </r>
       <r>     1.2015     0.2769     3.6483 </r>
       <r>     1.2873     0.3421     3.6776 </r>
       <r>     1.3730     0.4782     3.7186 </r>
       <r>     1.4588     0.6574     3.7750 </r>
       <r>     1.5446     0.8299     3.8462 </r>
       <r>     1.6303     0.9689     3.9293 </r>
       <r>     1.7161     1.0695     4.0210 </r>
       <r>     1.8019     1.1270     4.1177 </r>
       <r>     1.8876     1.1365     4.2152 </r>
       <r>     1.9734     1.1066     4.3101 </r>
       <r>     2.0592     1.0673     4.4016 </r>
       <r>     2.1449     1.0563     4.4922 </r>
       <r>     2.2307     1.0833     4.5851 </r>
       <r>     2.3165     1.1148     4.6807 </r>
       <r>     2.4022     1.1160     4.7765 </r>
       <r>     2.4880     1.0978     4.8706 </r>
       <r>     2.5738     1.1141     4.9662 </r>
       <r>     2.6595     1.2117     5.0701 </r>
       <r>     2.7453     1.3645     5.1871 </r>
       <r>     2.8311     1.4825     5.3143 </r>
       <r>     2.9168     1.5146     5.4442 </r>
       <r>     3.0026     1.4978     5.5726 </r>
       <r>     3.0884     1.4853     5.7000 </r>
       <r>     3.1741     1.4752     5.8265 </r>
       <r>     3.2599     1.4386     5.9499 </r>
       <r>     3.3457     1.3919     6.0693 </r>
       <r>     3.4314     1.3945     6.1889 </r>
       <r>     3.5172     1.4529     6.3135 </r>
       <r>     3.6030     1.4839     6.4408 </r>
       <r>     3.6887     1.4229     6.5628 </r>
       <r>     3.7745     1.3110     6.6753 </r>
       <r>     3.8603     1.2336     6.7811 </r>
       <r>     3.9460     1.2246     6.8861 </r>
       <r>     4.0318     1.2522     6.9935 </r>
       <r>     4.1176     1.2640     7.1019 </r>
       <r>     4.2034     1.2364     7.2080 </r>
       <r>     4.2891     1.1842     7.3095 </r>
       <r>     4.3749     1.1217     7.4057 </r>
       <r>     4.4607     1.0410     7.4950 </r>
       <r>     4.5464     0.9370     7.5754 </r>
       <r>     4.6322     0.8189     7.6456 </r>
       <r>     4.7180     0.6983     7.7055 </r>
       <r>     4.8037     0.5897     7.7561 </r>
       <r>     4.8895     0.5058     7.7994 </r>
       <r>     4.9753     0.4491     7.8380 </r>
       <r>     5.0610     0.4126     7.8734 </r>
       <r>     5.1468     0.3772     7.9057 </r>
       <r>     5.2326     0.3248     7.9336 </r>
       <r>     5.3183     0.2588     7.9558 </r>
       <r>     5.4041     0.1942     7.9724 </r>
       <r>     5.4899     0.1387     7.9843 </r>
       <r>     5.5756     0.0918     7.9922 </r>
       <r>     5.6614     0.0533     7.9968 </r>
       <r>     5.7472     0.0253     7.9989 </r>
       <r>     5.8329     0.0094     7.9997 </r>
       <r>     5.9187     0.0028     8.0000 </r>
       <r>     6.0045     0.0019     8.0001 </r>
       <r>     6.0902     0.0056     8.0006 </r>
       <r>     6.1760     0.0174     8.0021 </r>
       <r>     6.2618     0.0430     8.0058 </r>
       <r>     6.3475     0.0857     8.0131 </r>
       <r>     6.4333     0.1417     8.0253 </r>
       <r>     6.5191     0.2036     8.0428 </r>
       <r>     6.6048     0.2697     8.0659 </r>
       <r>     6.6906     0.3431     8.0953 </r>
       <r>     6.7764     0.4197     8.1313 </r>
       <r>     6.8621     0.4860     8.1730 </r>
       <r>     6.9479     0.5364     8.2190 </r>
       <r>     7.0337     0.5826     8.2690 </r>
       <r>     7.1194     0.6319     8.3232 </r>
       <r>     7.2052     0.6700     8.3806 </r>
       <r>     7.2910     0.6961     8.4403 </r>
       <r>     7.3767     0.7548     8.5051 </r>
       <r>     7.4625     0.8882     8.5812 </r>
       <r>     7.5483     1.0648     8.6726 </r>
       <r>     7.6340     1.2130     8.7766 </r>
       <r>     7.7198     1.3186     8.8897 </r>
       <r>     7.8056     1.4232     9.0117 </r>
       <r>     7.8914     1.5327     9.1432 </r>
       <r>     7.9771     1.6005     9.2805 </r>
       <r>     8.0629     1.5864     9.4165 </r>
       <r>     8.1487     1.4899     9.5443 </r>
       <r>     8.2344     1.3490     9.6600 </r>
       <r>     8.3202     1.2200     9.7647 </r>
       <r>     8.4060     1.1432     9.8627 </r>
       <r>     8.4917     1.1273     9.9594 </r>
       <r>     8.5775     1.1532    10.0583 </r>
       <r>     8.6633     1.2033    10.1615 </r>
       <r>     8.7490     1.3121    10.2740 </r>
       <r>     8.8348     1.5315    10.4054 </r>
       <r>     8.9206     1.8081    10.5605 </r>
       <r>     9.0063     1.9893    10.7311 </r>
       <r>     9.0921     1.9935    10.9020 </r>
       <r>     9.1779     1.8834    11.0636 </r>
       <r>     9.2636     1.7552    11.2141 </r>
       <r>     9.3494     1.6500    11.3556 </r>
       <r>     9.4352     1.5635    11.4897 </r>
       <r>     9.5209     1.4724    11.6160 </r>
       <r>     9.6067     1.3708    11.7336 </r>
       <r>     9.6925     1.3034    11.8454 </r>
       <r>     9.7782     1.3139    11.9581 </r>
       <r>     9.8640     1.3696    12.0755 </r>
       <r>     9.9498     1.3928    12.1950 </r>
       <r>    10.0355     1.3522    12.3110 </r>
       <r>    10.1213     1.2850    12.4212 </r>
       <r>    10.2071     1.2470    12.5281 </r>
       <r>    10.2928     1.2638    12.6365 </r>
       <r>    10.3786     1.3166    12.7494 </r>
       <r>    10.4644     1.3655    12.8666 </r>
       <r>    10.5501     1.3859    12.9854 </r>
       <r>    10.6359     1.3675    13.1027 </r>
       <r>    10.7217     1.2963    13.2139 </r>
       <r>    10.8074     1.1735    13.3145 </r>
       <r>    10.8932     1.0360    13.4034 </r>
       <r>    10.9790     0.9310    13.4832 </r>
       <r>    11.0647     0.8888    13.5595 </r>
       <r>    11.1505     0.9330    13.6395 </r>
       <r>    11.2363     1.0762    13.7318 </r>
       <r>    11.3220     1.2680    13.8406 </r>
       <r>    11.4078     1.4110    13.9616 </r>
       <r>    11.4936     1.4510    14.0860 </r>
       <r>    11.5793     1.3955    14.2057 </r>
       <r>    11.6651     1.2638    14.3141 </r>
       <r>    11.7509     1.0775    14.4065 </r>
       <r>    11.8367     0.8812    14.4821 </r>
       <r>    11.9224     0.7345    14.5451 </r>
       <r>    12.0082     0.6678    14.6024 </r>
       <r>    12.0940     0.6567    14.6587 </r>
       <r>    12.1797     0.6619    14.7155 </r>
       <r>    12.2655     0.6802    14.7738 </r>
       <r>    12.3513     0.7344    14.8368 </r>
       <r>    12.4370     0.8413    14.9089 </r>
       <r>    12.5228     0.9926    14.9941 </r>
       <r>    12.6086     1.1279    15.0908 </r>
       <r>    12.6943     1.1497    15.1894 </r>
       <r>    12.7801     1.0122    15.2762 </r>
       <r>    12.8659     0.7798    15.3431 </r>
       <r>    12.9516     0.5687    15.3919 </r>
       <r>    13.0374     0.4493    15.4304 </r>
       <r>    13.1232     0.4168    15.4662 </r>
       <r>    13.2089     0.4246    15.5026 </r>
       <r>    13.2947     0.4363    15.5400 </r>
       <r>    13.3805     0.4549    15.5790 </r>
       <r>    13.4662     0.4906    15.6211 </r>
       <r>    13.5520     0.5209    15.6658 </r>
       <r>    13.6378     0.5245    15.7107 </r>
       <r>    13.7235     0.5221    15.7555 </r>
       <r>    13.8093     0.5231    15.8004 </r>
       <r>    13.8951     0.4785    15.8414 </r>
       <r>    13.9808     0.3530    15.8717 </r>
       <r>    14.0666     0.1953    15.8885 </r>
       <r>    14.1524     0.0800    15.8953 </r>
       <r>    14.2381     0.0299    15.8979 </r>
       <r>    14.3239     0.0252    15.9000 </r>
       <r>    14.4097     0.0445    15.9039 </r>
       <r>    14.4954     0.0766    15.9104 </r>
       <r>    14.5812     0.1139    15.9202 </r>
       <r>    14.6670     0.1443    15.9326 </r>
       <r>    14.7527     0.1561    15.9460 </r>
       <r>    14.8385     0.1522    15.9590 </r>
       <r>    14.9243     0.1428    15.9713 </r>
       <r>    15.0100     0.1252    15.9820 </r>
       <r>    15.0958     0.0922    15.9899 </r>
       <r>    15.1816     0.0526    15.9944 </r>
       <r>    15.2673     0.0226    15.9964 </r>
       <r>    15.3531     0.0082    15.9971 </r>
       <r>    15.4389     0.0050    15.9975 </r>
       <r>    15.5247     0.0066    15.9981 </r>
       <r>    15.6104     0.0081    15.9988 </r>
       <r>    15.6962     0.0072    15.9994 </r>
       <r>    15.7820     0.0045    15.9998 </r>
       <r>    15.8677     0.0020    15.9999 </r>
       <r>    15.9535     0.0006    16.0000 </r>
       <r>    16.0393     0.0001    16.0000 </r>
       <r>    16.1250     0.0000    16.0000 </r>
       <r>    16.2108     0.0000    16.0000 </r>
       <r>    16.2966     0.0000    16.0000 </r>
       <r>    16.3823     0.0000    16.0000 </r>
       <r>    16.4681     0.0000    16.0000 </r>
       <r>    16.5539     0.0000    16.0000 </r>
       <r>    16.6396     0.0000    16.0000 </r>
       <r>    16.7254     0.0000    16.0000 </r>
       <r>    16.8112     0.0000    16.0000 </r>
       <r>    16.8969     0.0000    16.0000 </r>
       <r>    16.9827     0.0000    16.0000 </r>
       <r>    17.0685     0.0000    16.0000 </r>
       <r>    17.1542     0.0000    16.0000 </r>
       <r>    17.2400     0.0000    16.0000 </r>
       <r>    17.3258     0.0000    16.0000 </r>
       <r>    17.4115     0.0000    16.0000 </r>
       <r>    17.4973     0.0000    16.0000 </r>
       <r>    17.5831     0.0000    16.0000 </r>
      </set>
     </set>
    </array>
   </total>
  </dos>
 </calculation>
 <structure name="finalpos" >
  <crystal>
   <varray name="basis" >
    <v>       3.34889800       0.00000000       1.93348700 </v>
    <v>       1.11629900       3.15737200       1.93348700 </v>
    <v>       0.00000000       0.00000000       3.86697500 </v>
   </varray>
   <i name="volume">     40.88829843 </i>
   <varray name="rec_basis" >
    <v>       0.29860569      -0.10557300       0.00000000 </v>
    <v>       0.00000000       0.31671909       0.00000000 </v>
    <v>      -0.14930281      -0.10557302       0.25860007 </v>
   </varray>
  </crystal>
  <varray name="positions" >
   <v>       0.87500000       0.87500000       0.87500000 </v>
   <v>       0.12500000       0.12500000       0.12500000 </v>
  </varray>
 </structure>
</modeling>
