 vasp.5.3.3 18Dez12 (build Jan 30 2013 10:57:47) complex                        
  
 executed on             LinuxIFC date 2016.06.21  13:11:33
 running on   16 total cores
 distrk:  each k-point on   16 cores,    1 groups
 distr:  one band on NCORES_PER_BAND=   4 cores,    4 groups


--------------------------------------------------------------------------------------------------------


 INCAR:
 POTCAR:    PAW_PBE Si 05Jan2001                  

 ----------------------------------------------------------------------------- 
|                                                                             |
|  ADVICE TO THIS USER RUNNING 'VASP/VAMP'   (HEAR YOUR MASTER'S VOICE ...):  |
|                                                                             |
|      You have switched on vdW-DFT.                                          |
|      This routine was written and supplied by Jiri Klimes.                  |
|      We recommed that you carefully read and cite the following             |
|      publication                                                            |
|      J. Klimes, D.R. Bowler, A. Michelides                                  |
|        J. Phys.: Cond Matt. 22 022201 (2010)                                |
|      J. Klimes, D.R. Bowler, A. Michelides                                  |
|        Phys. Rev. B. 83, 195131 (2011)                                      |
|      and references therein.                                                |
|                                                                             |
 ----------------------------------------------------------------------------- 

 POTCAR:    PAW_PBE Si 05Jan2001                  
   VRHFIN =Si: s2p2                                                             
   LEXCH  = PE                                                                  
   EATOM  =   103.0669 eV,    7.5752 Ry                                         
                                                                                
   TITEL  = PAW_PBE Si 05Jan2001                                                
   LULTRA =        F    use ultrasoft PP ?                                      
   IUNSCR =        1    unscreen: 0-lin 1-nonlin 2-no                           
   RPACOR =    1.500    partial core radius                                     
   POMASS =   28.085; ZVAL   =    4.000    mass and valenz                      
   RCORE  =    1.900    outmost cutoff radius                                   
   RWIGS  =    2.480; RWIGS  =    1.312    wigner-seitz radius (au A)           
   ENMAX  =  245.345; ENMIN  =  184.009 eV                                      
   ICORE  =        2    local potential                                         
   LCOR   =        T    correct aug charges                                     
   LPAW   =        T    paw PP                                                  
   EAUG   =  322.069                                                            
   DEXC   =    0.000                                                            
   RMAX   =    1.950    core radius for proj-oper                               
   RAUG   =    1.300    factor for augmentation sphere                          
   RDEP   =    1.993    radius for radial grids                                 
   RDEPT  =    1.837    core radius for aug-charge                              
                                                                                
   Atomic configuration                                                         
    6 entries                                                                   
     n  l   j            E        occ.                                          
     1  0  0.50     -1785.8828   2.0000                                         
     2  0  0.50      -139.4969   2.0000                                         
     2  1  1.50       -95.5546   6.0000                                         
     3  0  0.50       -10.8127   2.0000                                         
     3  1  0.50        -4.0811   2.0000                                         
     3  2  1.50        -4.0817   0.0000                                         
   Description                                                                  
     l       E           TYP  RCUT    TYP  RCUT                                 
     0    -10.8127223     23  1.900                                             
     0     -7.6451159     23  1.900                                             
     1     -4.0811372     23  1.900                                             
     1      2.4879257     23  1.900                                             
     2     -4.0817478      7  1.900                                             
  local pseudopotential read in
  partial core-charges read in
  partial kinetic energy density read in
  atomic valenz-charges read in
  non local Contribution for L=           0  read in
    real space projection operators read in
  non local Contribution for L=           0  read in
    real space projection operators read in
  non local Contribution for L=           1  read in
    real space projection operators read in
  non local Contribution for L=           1  read in
    real space projection operators read in
    PAW grid and wavefunctions read in
 
   number of l-projection  operators is LMAX  =           4
   number of lm-projection operators is LMMAX =           8
 

 ----------------------------------------------------------------------------- 
|                                                                             |
|  ADVICE TO THIS USER RUNNING 'VASP/VAMP'   (HEAR YOUR MASTER'S VOICE ...):  |
|                                                                             |
|      You enforced a specific xc-type in the INCAR file,                     |
|      a different type was found on the POTCAR file                          |
|          I HOPE YOU KNOW, WHAT YOU ARE  DOING                               |
|                                                                             |
 ----------------------------------------------------------------------------- 

  PAW_PBE Si 05Jan2001                  :
 energy of atom  1       EATOM= -103.0669
 kinetic energy error for atom=    0.0004 (will be added to EATOM!!)
 
 
 POSCAR: bulk@mp_149                             
  positions in direct lattice
  No initial velocities read in
 exchange correlation table for  LEXCH =       42
   RHO(1)=    0.500       N(1)  =     2000
   RHO(2)=  100.500       N(2)  =     4000
 


--------------------------------------------------------------------------------------------------------


 ion  position               nearest neighbor table
   1  0.875  0.875  0.875-   2 2.37   2 2.37   2 2.37   2 2.37
   2  0.125  0.125  0.125-   1 2.37   1 2.37   1 2.37   1 2.37
 
  LATTYP: Found a face centered cubic cell.
 ALAT       =     5.4687284904
  
  Lattice vectors:
  
 A1 = (   3.3488980000,   0.0000000000,   1.9334870000)
 A2 = (   1.1162990000,   3.1573720000,   1.9334870000)
 A3 = (   0.0000000000,   0.0000000000,   3.8669750000)


Analysis of symmetry for initial positions (statically):
=====================================================================
 Subroutine PRICEL returns:
 Original cell was already a primitive cell.
 

 Routine SETGRP: Setting up the symmetry group for a 
 face centered cubic supercell.


 Subroutine GETGRP returns: Found 48 space group operations
 (whereof 12 operations were pure point group operations)
 out of a pool of 48 trial point group operations.


The static configuration has the point symmetry D_3d.
 The point group associated with its full space group is O_h .


Analysis of symmetry for dynamics (positions and initial velocities):
=====================================================================
 Subroutine PRICEL returns:
 Original cell was already a primitive cell.
 

 Routine SETGRP: Setting up the symmetry group for a 
 face centered cubic supercell.


 Subroutine GETGRP returns: Found 48 space group operations
 (whereof 12 operations were pure point group operations)
 out of a pool of 48 trial point group operations.


The dynamic configuration has the point symmetry D_3d.
 The point group associated with its full space group is O_h .


 irot  :   1
 --------------------------------------------------------------------
 isymop:   1   0   0
           0   1   0
           0   0   1

 gtrans:     0.0000000     0.0000000     0.0000000

 ptrans:     0.0000000     0.0000000     0.0000000
 rotmap:
 (   1->   1)  (   2->   2) 


 irot  :   2
 --------------------------------------------------------------------
 isymop:  -1   0   0
           0  -1   0
           0   0  -1

 gtrans:     0.0000000     0.0000000     0.0000000

 ptrans:     0.0000000     0.0000000     0.0000000
 rotmap:
 (   1->   2)  (   2->   1) 


 irot  :   3
 --------------------------------------------------------------------
 isymop:   0   0   1
           1   0   0
           0   1   0

 gtrans:     0.0000000     0.0000000     0.0000000

 ptrans:     0.0000000     0.0000000     0.0000000
 rotmap:
 (   1->   1)  (   2->   2) 


 irot  :   4
 --------------------------------------------------------------------
 isymop:   0   0  -1
          -1   0   0
           0  -1   0

 gtrans:     0.0000000     0.0000000     0.0000000

 ptrans:     0.0000000     0.0000000     0.0000000
 rotmap:
 (   1->   2)  (   2->   1) 


 irot  :   5
 --------------------------------------------------------------------
 isymop:   0   1   0
           0   0   1
           1   0   0

 gtrans:     0.0000000     0.0000000     0.0000000

 ptrans:     0.0000000     0.0000000     0.0000000
 rotmap:
 (   1->   1)  (   2->   2) 


 irot  :   6
 --------------------------------------------------------------------
 isymop:   0  -1   0
           0   0  -1
          -1   0   0

 gtrans:     0.0000000     0.0000000     0.0000000

 ptrans:     0.0000000     0.0000000     0.0000000
 rotmap:
 (   1->   2)  (   2->   1) 


 irot  :   7
 --------------------------------------------------------------------
 isymop:  -1   0   0
           0   0  -1
           0  -1   0

 gtrans:     0.0000000     0.0000000     0.0000000

 ptrans:     0.0000000     0.0000000     0.0000000
 rotmap:
 (   1->   2)  (   2->   1) 


 irot  :   8
 --------------------------------------------------------------------
 isymop:   1   0   0
           0   0   1
           0   1   0

 gtrans:     0.0000000     0.0000000     0.0000000

 ptrans:     0.0000000     0.0000000     0.0000000
 rotmap:
 (   1->   1)  (   2->   2) 


 irot  :   9
 --------------------------------------------------------------------
 isymop:   0  -1   0
          -1   0   0
           0   0  -1

 gtrans:     0.0000000     0.0000000     0.0000000

 ptrans:     0.0000000     0.0000000     0.0000000
 rotmap:
 (   1->   2)  (   2->   1) 


 irot  :  10
 --------------------------------------------------------------------
 isymop:   0   1   0
           1   0   0
           0   0   1

 gtrans:     0.0000000     0.0000000     0.0000000

 ptrans:     0.0000000     0.0000000     0.0000000
 rotmap:
 (   1->   1)  (   2->   2) 


 irot  :  11
 --------------------------------------------------------------------
 isymop:   0   0  -1
           0  -1   0
          -1   0   0

 gtrans:     0.0000000     0.0000000     0.0000000

 ptrans:     0.0000000     0.0000000     0.0000000
 rotmap:
 (   1->   2)  (   2->   1) 


 irot  :  12
 --------------------------------------------------------------------
 isymop:   0   0   1
           0   1   0
           1   0   0

 gtrans:     0.0000000     0.0000000     0.0000000

 ptrans:     0.0000000     0.0000000     0.0000000
 rotmap:
 (   1->   1)  (   2->   2) 


 irot  :  13
 --------------------------------------------------------------------
 isymop:   1   1   1
           0   0  -1
          -1   0   0

 gtrans:     0.5000000     0.0000000     0.0000000

 ptrans:     0.0000000     0.0000000     0.0000000
 rotmap:
 (   1->   2)  (   2->   1) 


 irot  :  14
 --------------------------------------------------------------------
 isymop:  -1  -1  -1
           0   0   1
           1   0   0

 gtrans:     0.5000000     0.0000000     0.0000000

 ptrans:     0.0000000     0.0000000     0.0000000
 rotmap:
 (   1->   1)  (   2->   2) 


 irot  :  15
 --------------------------------------------------------------------
 isymop:   1   1   1
           0  -1   0
           0   0  -1

 gtrans:     0.5000000     0.0000000     0.0000000

 ptrans:     0.0000000     0.0000000     0.0000000
 rotmap:
 (   1->   2)  (   2->   1) 


 irot  :  16
 --------------------------------------------------------------------
 isymop:  -1  -1  -1
           0   1   0
           0   0   1

 gtrans:     0.5000000     0.0000000     0.0000000

 ptrans:     0.0000000     0.0000000     0.0000000
 rotmap:
 (   1->   1)  (   2->   2) 


 irot  :  17
 --------------------------------------------------------------------
 isymop:   1   1   1
          -1   0   0
           0  -1   0

 gtrans:     0.5000000     0.0000000     0.0000000

 ptrans:     0.0000000     0.0000000     0.0000000
 rotmap:
 (   1->   2)  (   2->   1) 


 irot  :  18
 --------------------------------------------------------------------
 isymop:  -1  -1  -1
           1   0   0
           0   1   0

 gtrans:     0.5000000     0.0000000     0.0000000

 ptrans:     0.0000000     0.0000000     0.0000000
 rotmap:
 (   1->   1)  (   2->   2) 


 irot  :  19
 --------------------------------------------------------------------
 isymop:   0   1   0
           1   0   0
          -1  -1  -1

 gtrans:     0.0000000     0.0000000     0.5000000

 ptrans:     0.0000000     0.0000000     0.0000000
 rotmap:
 (   1->   1)  (   2->   2) 


 irot  :  20
 --------------------------------------------------------------------
 isymop:   0  -1   0
          -1   0   0
           1   1   1

 gtrans:     0.0000000     0.0000000     0.5000000

 ptrans:     0.0000000     0.0000000     0.0000000
 rotmap:
 (   1->   2)  (   2->   1) 


 irot  :  21
 --------------------------------------------------------------------
 isymop:   1   0   0
           0   0   1
          -1  -1  -1

 gtrans:     0.0000000     0.0000000     0.5000000

 ptrans:     0.0000000     0.0000000     0.0000000
 rotmap:
 (   1->   1)  (   2->   2) 


 irot  :  22
 --------------------------------------------------------------------
 isymop:  -1   0   0
           0   0  -1
           1   1   1

 gtrans:     0.0000000     0.0000000     0.5000000

 ptrans:     0.0000000     0.0000000     0.0000000
 rotmap:
 (   1->   2)  (   2->   1) 


 irot  :  23
 --------------------------------------------------------------------
 isymop:   0   0   1
           0   1   0
          -1  -1  -1

 gtrans:     0.0000000     0.0000000     0.5000000

 ptrans:     0.0000000     0.0000000     0.0000000
 rotmap:
 (   1->   1)  (   2->   2) 


 irot  :  24
 --------------------------------------------------------------------
 isymop:   0   0  -1
           0  -1   0
           1   1   1

 gtrans:     0.0000000     0.0000000     0.5000000

 ptrans:     0.0000000     0.0000000     0.0000000
 rotmap:
 (   1->   2)  (   2->   1) 


 irot  :  25
 --------------------------------------------------------------------
 isymop:   0   0  -1
           1   1   1
           0  -1   0

 gtrans:     0.0000000     0.5000000     0.0000000

 ptrans:     0.0000000     0.0000000     0.0000000
 rotmap:
 (   1->   2)  (   2->   1) 


 irot  :  26
 --------------------------------------------------------------------
 isymop:   0   0   1
          -1  -1  -1
           0   1   0

 gtrans:     0.0000000     0.5000000     0.0000000

 ptrans:     0.0000000     0.0000000     0.0000000
 rotmap:
 (   1->   1)  (   2->   2) 


 irot  :  27
 --------------------------------------------------------------------
 isymop:   0  -1   0
           1   1   1
          -1   0   0

 gtrans:     0.0000000     0.5000000     0.0000000

 ptrans:     0.0000000     0.0000000     0.0000000
 rotmap:
 (   1->   2)  (   2->   1) 


 irot  :  28
 --------------------------------------------------------------------
 isymop:   0   1   0
          -1  -1  -1
           1   0   0

 gtrans:     0.0000000     0.5000000     0.0000000

 ptrans:     0.0000000     0.0000000     0.0000000
 rotmap:
 (   1->   1)  (   2->   2) 


 irot  :  29
 --------------------------------------------------------------------
 isymop:  -1   0   0
           1   1   1
           0   0  -1

 gtrans:     0.0000000     0.5000000     0.0000000

 ptrans:     0.0000000     0.0000000     0.0000000
 rotmap:
 (   1->   2)  (   2->   1) 


 irot  :  30
 --------------------------------------------------------------------
 isymop:   1   0   0
          -1  -1  -1
           0   0   1

 gtrans:     0.0000000     0.5000000     0.0000000

 ptrans:     0.0000000     0.0000000     0.0000000
 rotmap:
 (   1->   1)  (   2->   2) 


 irot  :  31
 --------------------------------------------------------------------
 isymop:  -1  -1  -1
           0   1   0
           1   0   0

 gtrans:     0.5000000     0.0000000     0.0000000

 ptrans:     0.0000000     0.0000000     0.0000000
 rotmap:
 (   1->   1)  (   2->   2) 


 irot  :  32
 --------------------------------------------------------------------
 isymop:   1   1   1
           0  -1   0
          -1   0   0

 gtrans:     0.5000000     0.0000000     0.0000000

 ptrans:     0.0000000     0.0000000     0.0000000
 rotmap:
 (   1->   2)  (   2->   1) 


 irot  :  33
 --------------------------------------------------------------------
 isymop:  -1  -1  -1
           1   0   0
           0   0   1

 gtrans:     0.5000000     0.0000000     0.0000000

 ptrans:     0.0000000     0.0000000     0.0000000
 rotmap:
 (   1->   1)  (   2->   2) 


 irot  :  34
 --------------------------------------------------------------------
 isymop:   1   1   1
          -1   0   0
           0   0  -1

 gtrans:     0.5000000     0.0000000     0.0000000

 ptrans:     0.0000000     0.0000000     0.0000000
 rotmap:
 (   1->   2)  (   2->   1) 


 irot  :  35
 --------------------------------------------------------------------
 isymop:  -1  -1  -1
           0   0   1
           0   1   0

 gtrans:     0.5000000     0.0000000     0.0000000

 ptrans:     0.0000000     0.0000000     0.0000000
 rotmap:
 (   1->   1)  (   2->   2) 


 irot  :  36
 --------------------------------------------------------------------
 isymop:   1   1   1
           0   0  -1
           0  -1   0

 gtrans:     0.5000000     0.0000000     0.0000000

 ptrans:     0.0000000     0.0000000     0.0000000
 rotmap:
 (   1->   2)  (   2->   1) 


 irot  :  37
 --------------------------------------------------------------------
 isymop:   0  -1   0
           0   0  -1
           1   1   1

 gtrans:     0.0000000     0.0000000     0.5000000

 ptrans:     0.0000000     0.0000000     0.0000000
 rotmap:
 (   1->   2)  (   2->   1) 


 irot  :  38
 --------------------------------------------------------------------
 isymop:   0   1   0
           0   0   1
          -1  -1  -1

 gtrans:     0.0000000     0.0000000     0.5000000

 ptrans:     0.0000000     0.0000000     0.0000000
 rotmap:
 (   1->   1)  (   2->   2) 


 irot  :  39
 --------------------------------------------------------------------
 isymop:  -1   0   0
           0  -1   0
           1   1   1

 gtrans:     0.0000000     0.0000000     0.5000000

 ptrans:     0.0000000     0.0000000     0.0000000
 rotmap:
 (   1->   2)  (   2->   1) 


 irot  :  40
 --------------------------------------------------------------------
 isymop:   1   0   0
           0   1   0
          -1  -1  -1

 gtrans:     0.0000000     0.0000000     0.5000000

 ptrans:     0.0000000     0.0000000     0.0000000
 rotmap:
 (   1->   1)  (   2->   2) 


 irot  :  41
 --------------------------------------------------------------------
 isymop:   0   0  -1
          -1   0   0
           1   1   1

 gtrans:     0.0000000     0.0000000     0.5000000

 ptrans:     0.0000000     0.0000000     0.0000000
 rotmap:
 (   1->   2)  (   2->   1) 


 irot  :  42
 --------------------------------------------------------------------
 isymop:   0   0   1
           1   0   0
          -1  -1  -1

 gtrans:     0.0000000     0.0000000     0.5000000

 ptrans:     0.0000000     0.0000000     0.0000000
 rotmap:
 (   1->   1)  (   2->   2) 


 irot  :  43
 --------------------------------------------------------------------
 isymop:   1   0   0
          -1  -1  -1
           0   1   0

 gtrans:     0.0000000     0.5000000     0.0000000

 ptrans:     0.0000000     0.0000000     0.0000000
 rotmap:
 (   1->   1)  (   2->   2) 


 irot  :  44
 --------------------------------------------------------------------
 isymop:  -1   0   0
           1   1   1
           0  -1   0

 gtrans:     0.0000000     0.5000000     0.0000000

 ptrans:     0.0000000     0.0000000     0.0000000
 rotmap:
 (   1->   2)  (   2->   1) 


 irot  :  45
 --------------------------------------------------------------------
 isymop:   0   0   1
          -1  -1  -1
           1   0   0

 gtrans:     0.0000000     0.5000000     0.0000000

 ptrans:     0.0000000     0.0000000     0.0000000
 rotmap:
 (   1->   1)  (   2->   2) 


 irot  :  46
 --------------------------------------------------------------------
 isymop:   0   0  -1
           1   1   1
          -1   0   0

 gtrans:     0.0000000     0.5000000     0.0000000

 ptrans:     0.0000000     0.0000000     0.0000000
 rotmap:
 (   1->   2)  (   2->   1) 


 irot  :  47
 --------------------------------------------------------------------
 isymop:   0   1   0
          -1  -1  -1
           0   0   1

 gtrans:     0.0000000     0.5000000     0.0000000

 ptrans:     0.0000000     0.0000000     0.0000000
 rotmap:
 (   1->   1)  (   2->   2) 


 irot  :  48
 --------------------------------------------------------------------
 isymop:   0  -1   0
           1   1   1
           0   0  -1

 gtrans:     0.0000000     0.5000000     0.0000000

 ptrans:     0.0000000     0.0000000     0.0000000
 rotmap:
 (   1->   2)  (   2->   1) 
 
 
 KPOINTS: Automatic kpoint scheme                 

Automatic generation of k-mesh.
Space group operators:
 irot       det(A)        alpha          n_x          n_y          n_z        tau_x        tau_y        tau_z
    1     1.000000     0.000000     1.000000     0.000000     0.000000     0.000000     0.000000     0.000000
    2    -1.000000     0.000000     1.000000     0.000000     0.000000     0.000000     0.000000     0.000000
    3     1.000000   120.000000    -0.471405    -0.333333    -0.816497     0.000000     0.000000     0.000000
    4    -1.000000   120.000000    -0.471405    -0.333333    -0.816497     0.000000     0.000000     0.000000
    5     1.000000   120.000000     0.471405     0.333334     0.816496     0.000000     0.000000     0.000000
    6    -1.000000   120.000000     0.471405     0.333334     0.816496     0.000000     0.000000     0.000000
    7     1.000000   180.000000     0.288675     0.816497    -0.500000     0.000000     0.000000     0.000000
    8    -1.000000   180.000000     0.288675     0.816497    -0.500000     0.000000     0.000000     0.000000
    9     1.000000   180.000000     0.577350    -0.816497     0.000000     0.000000     0.000000     0.000000
   10    -1.000000   180.000000     0.577350    -0.816497     0.000000     0.000000     0.000000     0.000000
   11     1.000000   180.000000     0.866025     0.000000    -0.500000     0.000000     0.000000     0.000000
   12    -1.000000   180.000000     0.866025     0.000000    -0.500000     0.000000     0.000000     0.000000
   13     1.000000    90.000000    -0.816496    -0.577350     0.000000     0.500000     0.000000     0.000000
   14    -1.000000    90.000000    -0.816496    -0.577350     0.000000     0.500000     0.000000     0.000000
   15     1.000000   180.000000     0.866025     0.000000     0.500000     0.500000     0.000000     0.000000
   16    -1.000000   180.000000     0.866025     0.000000     0.500000     0.500000     0.000000     0.000000
   17     1.000000    90.000000     0.408248    -0.577350     0.707107     0.500000     0.000000     0.000000
   18    -1.000000    90.000000     0.408248    -0.577350     0.707107     0.500000     0.000000     0.000000
   19     1.000000   180.000000     0.816497     0.577350     0.000000     0.000000     0.000000     0.500000
   20    -1.000000   180.000000     0.816497     0.577350     0.000000     0.000000     0.000000     0.500000
   21     1.000000   120.000000     0.942809    -0.333333     0.000000     0.000000     0.000000     0.500000
   22    -1.000000   120.000000     0.942809    -0.333333     0.000000     0.000000     0.000000     0.500000
   23     1.000000   120.000000     0.000000    -1.000000     0.000000     0.000000     0.000000     0.500000
   24    -1.000000   120.000000     0.000000    -1.000000     0.000000     0.000000     0.000000     0.500000
   25     1.000000    90.000000     0.816497     0.577350     0.000000     0.000000     0.500000     0.000000
   26    -1.000000    90.000000     0.816497     0.577350     0.000000     0.000000     0.500000     0.000000
   27     1.000000    90.000000     0.408248    -0.577350    -0.707107     0.000000     0.500000     0.000000
   28    -1.000000    90.000000     0.408248    -0.577350    -0.707107     0.000000     0.500000     0.000000
   29     1.000000   180.000000     0.288675     0.816497     0.500000     0.000000     0.500000     0.000000
   30    -1.000000   180.000000     0.288675     0.816497     0.500000     0.000000     0.500000     0.000000
   31     1.000000   120.000000     0.000000     1.000000     0.000000     0.500000     0.000000     0.000000
   32    -1.000000   120.000000     0.000000     1.000000     0.000000     0.500000     0.000000     0.000000
   33     1.000000   120.000000     0.471404     0.333333    -0.816497     0.500000     0.000000     0.000000
   34    -1.000000   120.000000     0.471404     0.333333    -0.816497     0.500000     0.000000     0.000000
   35     1.000000   180.000000    -0.408248     0.577350     0.707107     0.500000     0.000000     0.000000
   36    -1.000000   180.000000    -0.408248     0.577350     0.707107     0.500000     0.000000     0.000000
   37     1.000000    90.000000    -0.408248     0.577350    -0.707107     0.000000     0.000000     0.500000
   38    -1.000000    90.000000    -0.408248     0.577350    -0.707107     0.000000     0.000000     0.500000
   39     1.000000   180.000000     0.000000     0.000000     1.000000     0.000000     0.000000     0.500000
   40    -1.000000   180.000000     0.000000     0.000000     1.000000     0.000000     0.000000     0.500000
   41     1.000000    90.000000    -0.408248     0.577350     0.707107     0.000000     0.000000     0.500000
   42    -1.000000    90.000000    -0.408248     0.577350     0.707107     0.000000     0.000000     0.500000
   43     1.000000   120.000000    -0.942809     0.333333     0.000000     0.000000     0.500000     0.000000
   44    -1.000000   120.000000    -0.942809     0.333333     0.000000     0.000000     0.500000     0.000000
   45     1.000000   179.999999    -0.408248     0.577350    -0.707107     0.000000     0.500000     0.000000
   46    -1.000000   179.999999    -0.408248     0.577350    -0.707107     0.000000     0.500000     0.000000
   47     1.000000   120.000000    -0.471404    -0.333333     0.816497     0.000000     0.500000     0.000000
   48    -1.000000   120.000000    -0.471404    -0.333333     0.816497     0.000000     0.500000     0.000000
 
 Subroutine IBZKPT returns following result:
 ===========================================
 
 Found     84 irreducible k-points:
 
 Following reciprocal coordinates:
            Coordinates               Weight
  0.000000  0.000000  0.000000      1.000000
  0.076923  0.000000  0.000000      8.000000
  0.153846  0.000000  0.000000      8.000000
  0.230769  0.000000  0.000000      8.000000
  0.307692  0.000000  0.000000      8.000000
  0.384615  0.000000  0.000000      8.000000
  0.461538  0.000000  0.000000      8.000000
  0.076923  0.076923  0.000000      6.000000
  0.153846  0.076923  0.000000     24.000000
  0.230769  0.076923  0.000000     24.000000
  0.307692  0.076923  0.000000     24.000000
  0.384615  0.076923  0.000000     24.000000
  0.461538  0.076923  0.000000     24.000000
 -0.461538  0.076923  0.000000     24.000000
 -0.384615  0.076923  0.000000     24.000000
 -0.307692  0.076923  0.000000     24.000000
 -0.230769  0.076923  0.000000     24.000000
 -0.153846  0.076923  0.000000     24.000000
 -0.076923  0.076923  0.000000     12.000000
  0.153846  0.153846  0.000000      6.000000
  0.230769  0.153846  0.000000     24.000000
  0.307692  0.153846  0.000000     24.000000
  0.384615  0.153846  0.000000     24.000000
  0.461538  0.153846  0.000000     24.000000
 -0.461538  0.153846  0.000000     24.000000
 -0.384615  0.153846  0.000000     24.000000
 -0.307692  0.153846  0.000000     24.000000
 -0.230769  0.153846  0.000000     24.000000
 -0.153846  0.153846  0.000000     12.000000
  0.230769  0.230769  0.000000      6.000000
  0.307692  0.230769  0.000000     24.000000
  0.384615  0.230769  0.000000     24.000000
  0.461538  0.230769  0.000000     24.000000
 -0.461538  0.230769  0.000000     24.000000
 -0.384615  0.230769  0.000000     24.000000
 -0.307692  0.230769  0.000000     24.000000
 -0.230769  0.230769  0.000000     12.000000
  0.307692  0.307692  0.000000      6.000000
  0.384615  0.307692  0.000000     24.000000
  0.461538  0.307692  0.000000     24.000000
 -0.461538  0.307692  0.000000     24.000000
 -0.384615  0.307692  0.000000     24.000000
 -0.307692  0.307692  0.000000     12.000000
  0.384615  0.384615  0.000000      6.000000
  0.461538  0.384615  0.000000     24.000000
 -0.461538  0.384615  0.000000     24.000000
 -0.384615  0.384615  0.000000     12.000000
  0.461538  0.461538  0.000000      6.000000
 -0.461538  0.461538  0.000000     12.000000
  0.230769  0.153846  0.076923     24.000000
  0.307692  0.153846  0.076923     48.000000
  0.384615  0.153846  0.076923     48.000000
  0.461538  0.153846  0.076923     48.000000
 -0.461538  0.153846  0.076923     48.000000
  0.307692  0.230769  0.076923     24.000000
  0.384615  0.230769  0.076923     48.000000
  0.461538  0.230769  0.076923     48.000000
 -0.461538  0.230769  0.076923     48.000000
 -0.384615  0.230769  0.076923     48.000000
 -0.307692  0.230769  0.076923     48.000000
 -0.230769  0.230769  0.076923     48.000000
 -0.153846  0.230769  0.076923     24.000000
  0.384615  0.307692  0.076923     24.000000
  0.461538  0.307692  0.076923     48.000000
 -0.461538  0.307692  0.076923     48.000000
 -0.384615  0.307692  0.076923     48.000000
 -0.307692  0.307692  0.076923     48.000000
 -0.230769  0.307692  0.076923     24.000000
  0.461538  0.384615  0.076923     24.000000
 -0.461538  0.384615  0.076923     48.000000
 -0.384615  0.384615  0.076923     48.000000
 -0.307692  0.384615  0.076923     24.000000
 -0.461538  0.461538  0.076923     24.000000
 -0.384615  0.461538  0.076923     24.000000
  0.461538  0.307692  0.153846     24.000000
 -0.461538  0.307692  0.153846     48.000000
 -0.384615  0.307692  0.153846     48.000000
 -0.461538  0.384615  0.153846     24.000000
 -0.384615  0.384615  0.153846     48.000000
 -0.307692  0.384615  0.153846     48.000000
 -0.230769  0.384615  0.153846     24.000000
 -0.384615  0.461538  0.153846     24.000000
 -0.307692  0.461538  0.153846     24.000000
 -0.307692  0.461538  0.230769     24.000000
 
 Following cartesian coordinates:
            Coordinates               Weight
  0.000000  0.000000  0.000000      1.000000
  0.022970 -0.008121  0.000000      8.000000
  0.045939 -0.016242  0.000000      8.000000
  0.068909 -0.024363  0.000000      8.000000
  0.091879 -0.032484  0.000000      8.000000
  0.114848 -0.040605  0.000000      8.000000
  0.137818 -0.048726  0.000000      8.000000
  0.022970  0.016242  0.000000      6.000000
  0.045939  0.008121  0.000000     24.000000
  0.068909  0.000000  0.000000     24.000000
  0.091879 -0.008121  0.000000     24.000000
  0.114848 -0.016242  0.000000     24.000000
  0.137818 -0.024363  0.000000     24.000000
 -0.137818  0.073089  0.000000     24.000000
 -0.114848  0.064968  0.000000     24.000000
 -0.091879  0.056847  0.000000     24.000000
 -0.068909  0.048726  0.000000     24.000000
 -0.045939  0.040605  0.000000     24.000000
 -0.022970  0.032484  0.000000     12.000000
  0.045939  0.032484  0.000000      6.000000
  0.068909  0.024363  0.000000     24.000000
  0.091879  0.016242  0.000000     24.000000
  0.114848  0.008121  0.000000     24.000000
  0.137818  0.000000  0.000000     24.000000
 -0.137818  0.097452  0.000000     24.000000
 -0.114848  0.089331  0.000000     24.000000
 -0.091879  0.081210  0.000000     24.000000
 -0.068909  0.073089  0.000000     24.000000
 -0.045939  0.064968  0.000000     12.000000
  0.068909  0.048726  0.000000      6.000000
  0.091879  0.040605  0.000000     24.000000
  0.114848  0.032484  0.000000     24.000000
  0.137818  0.024363  0.000000     24.000000
 -0.137818  0.121815  0.000000     24.000000
 -0.114848  0.113694  0.000000     24.000000
 -0.091879  0.105573  0.000000     24.000000
 -0.068909  0.097452  0.000000     12.000000
  0.091879  0.064968  0.000000      6.000000
  0.114848  0.056847  0.000000     24.000000
  0.137818  0.048726  0.000000     24.000000
 -0.137818  0.146178  0.000000     24.000000
 -0.114848  0.138057  0.000000     24.000000
 -0.091879  0.129936  0.000000     12.000000
  0.114848  0.081210  0.000000      6.000000
  0.137818  0.073089  0.000000     24.000000
 -0.137818  0.170541  0.000000     24.000000
 -0.114848  0.162420  0.000000     12.000000
  0.137818  0.097452  0.000000      6.000000
 -0.137818  0.194904  0.000000     12.000000
  0.057424  0.016242  0.019892     24.000000
  0.080394  0.008121  0.019892     48.000000
  0.103364  0.000000  0.019892     48.000000
  0.126333 -0.008121  0.019892     48.000000
 -0.149303  0.089331  0.019892     48.000000
  0.080394  0.032484  0.019892     24.000000
  0.103364  0.024363  0.019892     48.000000
  0.126333  0.016242  0.019892     48.000000
 -0.149303  0.113694  0.019892     48.000000
 -0.126333  0.105573  0.019892     48.000000
 -0.103364  0.097452  0.019892     48.000000
 -0.080394  0.089331  0.019892     48.000000
 -0.057424  0.081210  0.019892     24.000000
  0.103364  0.048726  0.019892     24.000000
  0.126333  0.040605  0.019892     48.000000
 -0.149303  0.138057  0.019892     48.000000
 -0.126333  0.129936  0.019892     48.000000
 -0.103364  0.121815  0.019892     48.000000
 -0.080394  0.113694  0.019892     24.000000
  0.126333  0.064968  0.019892     24.000000
 -0.149303  0.162420  0.019892     48.000000
 -0.126333  0.154299  0.019892     48.000000
 -0.103364  0.146178  0.019892     24.000000
 -0.149303  0.186783  0.019892     24.000000
 -0.126333  0.178662  0.019892     24.000000
  0.114848  0.032484  0.039785     24.000000
 -0.160788  0.129936  0.039785     48.000000
 -0.137818  0.121815  0.039785     48.000000
 -0.160788  0.154299  0.039785     24.000000
 -0.137818  0.146178  0.039785     48.000000
 -0.114848  0.138057  0.039785     48.000000
 -0.091879  0.129936  0.039785     24.000000
 -0.137818  0.170541  0.039785     24.000000
 -0.114848  0.162420  0.039785     24.000000
 -0.126333  0.154299  0.059677     24.000000
 


--------------------------------------------------------------------------------------------------------




 Dimension of arrays:
   k-points           NKPTS =     84   k-points in BZ     NKDIM =     84   number of bands    NBANDS=      8
   number of dos      NEDOS =    301   number of ions     NIONS =      2
   non local maximal  LDIM  =      4   non local SUM 2l+1 LMDIM =      8
   total plane-waves  NPLWV =  27000
   max r-space proj   IRMAX =      1   max aug-charges    IRDMAX=  22275
   dimension x,y,z NGX =    30 NGY =   30 NGZ =   30
   dimension x,y,z NGXF=    60 NGYF=   60 NGZF=   60
   support grid    NGXF=    60 NGYF=   60 NGZF=   60
   ions per type =               2
 NGX,Y,Z   is equivalent  to a cutoff of  12.90, 12.90, 12.90 a.u.
 NGXF,Y,Z  is equivalent  to a cutoff of  25.79, 25.79, 25.79 a.u.


 I would recommend the setting:
   dimension x,y,z NGX =    30 NGY =   30 NGZ =   30
 SYSTEM =  unknown system                          
 POSCAR =  bulk@mp_149                             

 Startparameter for this run:
   NWRITE =      2    write-flag & timer
   PREC   = accura    normal or accurate (medium, high low for compatibility)
   ISTART =      0    job   : 0-new  1-cont  2-samecut
   ICHARG =      2    charge: 1-file 2-atom 10-const
   ISPIN  =      1    spin polarized calculation?
   LNONCOLLINEAR =      F non collinear calculations
   LSORBIT =      F    spin-orbit coupling
   INIWAV =      1    electr: 0-lowe 1-rand  2-diag
   LASPH  =      F    aspherical Exc in radial PAW
   METAGGA=      F    non-selfconsistent MetaGGA calc.

 Electronic Relaxation 1
   ENCUT  =  550.0 eV  40.42 Ry    6.36 a.u.   7.39  7.39  7.39*2*pi/ulx,y,z
   ENINI  =  550.0     initial cutoff
   ENAUG  =  322.1 eV  augmentation charge cutoff
   NELM   =    400;   NELMIN=  2; NELMDL= -5     # of ELM steps 
   EDIFF  = 0.1E-06   stopping-criterion for ELM
   LREAL  =      F    real-space projection
   NLSPLINE    = F    spline interpolate recip. space projectors
   LCOMPAT=      F    compatible to vasp.4.4
   GGA_COMPAT  = T    GGA compatible to vasp.4.4-vasp.4.6
   LMAXPAW     = -100 max onsite density
   LMAXMIX     =    2 max onsite mixed and CHGCAR
   VOSKOWN=      0    Vosko Wilk Nusair interpolation
   ROPT   =    0.00000
 Ionic relaxation
   EDIFFG = 0.1E-05   stopping-criterion for IOM
   NSW    =      1    number of steps for IOM
   NBLOCK =      1;   KBLOCK =      1    inner block; outer block 
   IBRION =      2    ionic relax: 0-MD 1-quasi-New 2-CG
   NFREE  =      1    steps in history (QN), initial steepest desc. (CG)
   ISIF   =      2    stress and relaxation
   IWAVPR =     11    prediction:  0-non 1-charg 2-wave 3-comb
   ISYM   =      2    0-nonsym 1-usesym 2-fastsym
   LCORR  =      T    Harris-Foulkes like correction to forces

   POTIM  = 0.5000    time-step for ionic-motion
   TEIN   =    0.0    initial temperature
   TEBEG  =    0.0;   TEEND  =   0.0 temperature during run
   SMASS  =  -3.00    Nose mass-parameter (am)
   estimated Nose-frequenzy (Omega)   =  0.10E-29 period in steps =****** mass=  -0.342E-27a.u.
   SCALEE = 1.0000    scale energy and forces
   NPACO  =    256;   APACO  = 16.0  distance and # of slots for P.C.
   PSTRESS=    0.0 pullay stress

  Mass of Ions in am
   POMASS =  28.09
  Ionic Valenz
   ZVAL   =   4.00
  Atomic Wigner-Seitz radii
   RWIGS  =  -1.00
  virtual crystal weights 
   VCA    =   1.00
   NELECT =       8.0000    total number of electrons
   NUPDOWN=      -1.0000    fix difference up-down

 DOS related values:
   EMIN   =  10.00;   EMAX   =-10.00  energy-range for DOS
   EFERMI =   0.00
   ISMEAR =     0;   SIGMA  =   0.20  broadening in eV -4-tet -1-fermi 0-gaus

 Electronic relaxation 2 (details)
   IALGO  =     38    algorithm
   LDIAG  =      T    sub-space diagonalisation (order eigenvalues)
   LSUBROT=      T    optimize rotation matrix (better conditioning)
   TURBO    =      0    0=normal 1=particle mesh
   IRESTART =      0    0=no restart 2=restart with 2 vectors
   NREBOOT  =      0    no. of reboots
   NMIN     =      0    reboot dimension
   EREF     =   0.00    reference energy to select bands
   IMIX   =      4    mixing-type and parameters
     AMIX     =   0.40;   BMIX     =  1.00
     AMIX_MAG =   1.60;   BMIX_MAG =  1.00
     AMIN     =   0.10
     WC   =   100.;   INIMIX=   1;  MIXPRE=   1;  MAXMIX= -45

 Intra band minimization:
   WEIMIN = 0.0010     energy-eigenvalue tresh-hold
   EBREAK =  0.31E-08  absolut break condition
   DEPER  =   0.30     relativ break condition  

   TIME   =   0.40     timestep for ELM

  volume/ion in A,a.u.               =      20.44       137.96
  Fermi-wavevector in a.u.,A,eV,Ry     =   0.950397  1.795990 12.289528  0.903255
  Thomas-Fermi vector in A             =   2.078770
 
 Write flags
   LWAVE  =      F    write WAVECAR
   LCHARG =      F    write CHGCAR
   LVTOT  =      F    write LOCPOT, total local potential
   LVHAR  =      F    write LOCPOT, Hartree potential only
   LELF   =      F    write electronic localiz. function (ELF)
   LORBIT =      0    0 simple, 1 ext, 2 COOP (PROOUT)


 Dipole corrections
   LMONO  =      F    monopole corrections only (constant potential shift)
   LDIPOL =      F    correct potential (dipole corrections)
   IDIPOL =      0    1-x, 2-y, 3-z, 4-all directions 
   EPSILON=  1.0000000 bulk dielectric constant

 Exchange correlation treatment:
   GGA     =    BO    GGA type
   LEXCH   =    42    internal setting for exchange type
   VOSKOWN=      0    Vosko Wilk Nusair interpolation
   LHFCALC =     F    Hartree Fock is set to
   LHFONE  =     F    Hartree Fock one center treatment
   AEXX    =    0.0000 exact exchange contribution

 vdW DFT:
   LUSE_VDW   =     T    switch on vdW DFT
   Zab_VDW    =-.8491    correlation parameter
   PARAM1     =0.1833
   PARAM2     =0.2200
   PARAM3     =0.0000

 Linear response parameters
   LEPSILON=     F    determine dielectric tensor
   LRPA    =     F    only Hartree local field effects (RPA)
   LNABLA  =     F    use nabla operator in PAW spheres
   LVEL    =     F    velocity operator in full k-point grid
   LINTERFAST=   F  fast interpolation
   KINTER  =     0    interpolate to denser k-point grid
   CSHIFT  =0.1000    complex shift for real part using Kramers Kronig
   OMEGAMAX=  -1.0    maximum frequency
   DEG_THRESHOLD= 0.2000000E-02 threshold for treating states as degnerate
   RTIME   =    0.100 relaxation time in fs

 Orbital magnetization related:
   ORBITALMAG=     F  switch on orbital magnetization
   LCHIMAG   =     F  perturbation theory with respect to B field
   DQ        =  0.001000  dq finite difference perturbation B field



--------------------------------------------------------------------------------------------------------


 conjugate gradient relaxation of ions
 charge density and potential will be updated during run
 non-spin polarized calculation
 Variant of blocked Davidson
 Davidson routine will perform the subspace rotation
 perform sub-space diagonalisation
    after iterative eigenvector-optimisation
 modified Broyden-mixing scheme, WC =      100.0
 initial mixing is a Kerker type mixing with AMIX =  0.4000 and BMIX =      1.0000
 Hartree-type preconditioning will be used
 using additional bands            4
 reciprocal scheme for non local part
 use partial core corrections
 calculate Harris-corrections to forces 
   (improved forces if not selfconsistent)
 use gradient corrections 
 use of overlap-Matrix (Vanderbilt PP)
 Gauss-broadening in eV      SIGMA  =   0.20


--------------------------------------------------------------------------------------------------------


  energy-cutoff  :      550.00
  volume of cell :       40.89
      direct lattice vectors                 reciprocal lattice vectors
     3.348898000  0.000000000  1.933487000     0.298605691 -0.105573000  0.000000000
     1.116299000  3.157372000  1.933487000     0.000000000  0.316719094  0.000000000
     0.000000000  0.000000000  3.866975000    -0.149302807 -0.105573020  0.258600069

  length of vectors
     3.866974243  3.866974707  3.866975000     0.316719145  0.316719094  0.316719096


 
 k-points in units of 2pi/SCALE and weight: Automatic kpoint scheme                 
   0.00000000  0.00000000  0.00000000       0.000
   0.02296967 -0.00812100  0.00000000       0.004
   0.04593934 -0.01624200  0.00000000       0.004
   0.06890901 -0.02436300  0.00000000       0.004
   0.09187867 -0.03248400  0.00000000       0.004
   0.11484834 -0.04060500  0.00000000       0.004
   0.13781801 -0.04872600  0.00000000       0.004
   0.02296967  0.01624201  0.00000000       0.003
   0.04593934  0.00812101  0.00000000       0.011
   0.06890901  0.00000001  0.00000000       0.011
   0.09187867 -0.00812099  0.00000000       0.011
   0.11484834 -0.01624199  0.00000000       0.011
   0.13781801 -0.02436299  0.00000000       0.011
  -0.13781801  0.07308901  0.00000000       0.011
  -0.11484834  0.06496801  0.00000000       0.011
  -0.09187867  0.05684701  0.00000000       0.011
  -0.06890901  0.04872601  0.00000000       0.011
  -0.04593934  0.04060501  0.00000000       0.011
  -0.02296967  0.03248401  0.00000000       0.005
   0.04593934  0.03248401  0.00000000       0.003
   0.06890901  0.02436301  0.00000000       0.011
   0.09187867  0.01624201  0.00000000       0.011
   0.11484834  0.00812101  0.00000000       0.011
   0.13781801  0.00000001  0.00000000       0.011
  -0.13781801  0.09745201  0.00000000       0.011
  -0.11484834  0.08933101  0.00000000       0.011
  -0.09187867  0.08121001  0.00000000       0.011
  -0.06890901  0.07308901  0.00000000       0.011
  -0.04593934  0.06496801  0.00000000       0.005
   0.06890901  0.04872602  0.00000000       0.003
   0.09187867  0.04060502  0.00000000       0.011
   0.11484834  0.03248402  0.00000000       0.011
   0.13781801  0.02436302  0.00000000       0.011
  -0.13781801  0.12181502  0.00000000       0.011
  -0.11484834  0.11369402  0.00000000       0.011
  -0.09187867  0.10557302  0.00000000       0.011
  -0.06890901  0.09745202  0.00000000       0.005
   0.09187867  0.06496803  0.00000000       0.003
   0.11484834  0.05684703  0.00000000       0.011
   0.13781801  0.04872603  0.00000000       0.011
  -0.13781801  0.14617803  0.00000000       0.011
  -0.11484834  0.13805703  0.00000000       0.011
  -0.09187867  0.12993603  0.00000000       0.005
   0.11484834  0.08121004  0.00000000       0.003
   0.13781801  0.07308904  0.00000000       0.011
  -0.13781801  0.17054104  0.00000000       0.011
  -0.11484834  0.16242004  0.00000000       0.005
   0.13781801  0.09745204  0.00000000       0.003
  -0.13781801  0.19490404  0.00000000       0.005
   0.05742417  0.01624201  0.01989231       0.011
   0.08039384  0.00812101  0.01989231       0.022
   0.10336351  0.00000001  0.01989231       0.022
   0.12633318 -0.00812099  0.01989231       0.022
  -0.14930284  0.08933101  0.01989231       0.022
   0.08039384  0.03248402  0.01989231       0.011
   0.10336351  0.02436302  0.01989231       0.022
   0.12633318  0.01624202  0.01989231       0.022
  -0.14930284  0.11369402  0.01989231       0.022
  -0.12633317  0.10557302  0.01989231       0.022
  -0.10336351  0.09745202  0.01989231       0.022
  -0.08039384  0.08933102  0.01989231       0.022
  -0.05742417  0.08121002  0.01989231       0.011
   0.10336351  0.04872603  0.01989231       0.011
   0.12633318  0.04060503  0.01989231       0.022
  -0.14930284  0.13805703  0.01989231       0.022
  -0.12633317  0.12993603  0.01989231       0.022
  -0.10336351  0.12181503  0.01989231       0.022
  -0.08039384  0.11369403  0.01989231       0.011
   0.12633318  0.06496803  0.01989231       0.011
  -0.14930284  0.16242003  0.01989231       0.022
  -0.12633317  0.15429903  0.01989231       0.022
  -0.10336351  0.14617803  0.01989231       0.011
  -0.14930284  0.18678304  0.01989231       0.011
  -0.12633317  0.17866204  0.01989231       0.011
   0.11484835  0.03248403  0.03978463       0.011
  -0.16078767  0.12993603  0.03978463       0.022
  -0.13781801  0.12181503  0.03978463       0.022
  -0.16078767  0.15429903  0.03978463       0.011
  -0.13781801  0.14617803  0.03978463       0.022
  -0.11484834  0.13805703  0.03978463       0.022
  -0.09187867  0.12993603  0.03978463       0.011
  -0.13781801  0.17054104  0.03978463       0.011
  -0.11484834  0.16242004  0.03978463       0.011
  -0.12633317  0.15429904  0.05967694       0.011
 
 k-points in reciprocal lattice and weights: Automatic kpoint scheme                 
   0.00000000  0.00000000  0.00000000       0.000
   0.07692308  0.00000000  0.00000000       0.004
   0.15384615  0.00000000  0.00000000       0.004
   0.23076923  0.00000000  0.00000000       0.004
   0.30769231  0.00000000  0.00000000       0.004
   0.38461538  0.00000000  0.00000000       0.004
   0.46153846  0.00000000  0.00000000       0.004
   0.07692308  0.07692308  0.00000000       0.003
   0.15384615  0.07692308  0.00000000       0.011
   0.23076923  0.07692308  0.00000000       0.011
   0.30769231  0.07692308  0.00000000       0.011
   0.38461538  0.07692308  0.00000000       0.011
   0.46153846  0.07692308  0.00000000       0.011
  -0.46153846  0.07692308  0.00000000       0.011
  -0.38461538  0.07692308  0.00000000       0.011
  -0.30769231  0.07692308  0.00000000       0.011
  -0.23076923  0.07692308  0.00000000       0.011
  -0.15384615  0.07692308  0.00000000       0.011
  -0.07692308  0.07692308  0.00000000       0.005
   0.15384615  0.15384615  0.00000000       0.003
   0.23076923  0.15384615  0.00000000       0.011
   0.30769231  0.15384615  0.00000000       0.011
   0.38461538  0.15384615  0.00000000       0.011
   0.46153846  0.15384615  0.00000000       0.011
  -0.46153846  0.15384615  0.00000000       0.011
  -0.38461538  0.15384615  0.00000000       0.011
  -0.30769231  0.15384615  0.00000000       0.011
  -0.23076923  0.15384615  0.00000000       0.011
  -0.15384615  0.15384615  0.00000000       0.005
   0.23076923  0.23076923  0.00000000       0.003
   0.30769231  0.23076923  0.00000000       0.011
   0.38461538  0.23076923  0.00000000       0.011
   0.46153846  0.23076923  0.00000000       0.011
  -0.46153846  0.23076923  0.00000000       0.011
  -0.38461538  0.23076923  0.00000000       0.011
  -0.30769231  0.23076923  0.00000000       0.011
  -0.23076923  0.23076923  0.00000000       0.005
   0.30769231  0.30769231  0.00000000       0.003
   0.38461538  0.30769231  0.00000000       0.011
   0.46153846  0.30769231  0.00000000       0.011
  -0.46153846  0.30769231  0.00000000       0.011
  -0.38461538  0.30769231  0.00000000       0.011
  -0.30769231  0.30769231  0.00000000       0.005
   0.38461538  0.38461538  0.00000000       0.003
   0.46153846  0.38461538  0.00000000       0.011
  -0.46153846  0.38461538  0.00000000       0.011
  -0.38461538  0.38461538  0.00000000       0.005
   0.46153846  0.46153846  0.00000000       0.003
  -0.46153846  0.46153846  0.00000000       0.005
   0.23076923  0.15384615  0.07692308       0.011
   0.30769231  0.15384615  0.07692308       0.022
   0.38461538  0.15384615  0.07692308       0.022
   0.46153846  0.15384615  0.07692308       0.022
  -0.46153846  0.15384615  0.07692308       0.022
   0.30769231  0.23076923  0.07692308       0.011
   0.38461538  0.23076923  0.07692308       0.022
   0.46153846  0.23076923  0.07692308       0.022
  -0.46153846  0.23076923  0.07692308       0.022
  -0.38461538  0.23076923  0.07692308       0.022
  -0.30769231  0.23076923  0.07692308       0.022
  -0.23076923  0.23076923  0.07692308       0.022
  -0.15384615  0.23076923  0.07692308       0.011
   0.38461538  0.30769231  0.07692308       0.011
   0.46153846  0.30769231  0.07692308       0.022
  -0.46153846  0.30769231  0.07692308       0.022
  -0.38461538  0.30769231  0.07692308       0.022
  -0.30769231  0.30769231  0.07692308       0.022
  -0.23076923  0.30769231  0.07692308       0.011
   0.46153846  0.38461538  0.07692308       0.011
  -0.46153846  0.38461538  0.07692308       0.022
  -0.38461538  0.38461538  0.07692308       0.022
  -0.30769231  0.38461538  0.07692308       0.011
  -0.46153846  0.46153846  0.07692308       0.011
  -0.38461538  0.46153846  0.07692308       0.011
   0.46153846  0.30769231  0.15384615       0.011
  -0.46153846  0.30769231  0.15384615       0.022
  -0.38461538  0.30769231  0.15384615       0.022
  -0.46153846  0.38461538  0.15384615       0.011
  -0.38461538  0.38461538  0.15384615       0.022
  -0.30769231  0.38461538  0.15384615       0.022
  -0.23076923  0.38461538  0.15384615       0.011
  -0.38461538  0.46153846  0.15384615       0.011
  -0.30769231  0.46153846  0.15384615       0.011
  -0.30769231  0.46153846  0.23076923       0.011
 
 position of ions in fractional coordinates (direct lattice) 
   0.87500000  0.87500000  0.87500000
   0.12500000  0.12500000  0.12500000
 
 position of ions in cartesian coordinates  (Angst):
   3.90704738  2.76270050  6.76720537
   0.55814962  0.39467150  0.96674362
 


--------------------------------------------------------------------------------------------------------


 k-point  1 :   0.0000 0.0000 0.0000  plane waves:    1243
 k-point  2 :   0.0769 0.0000 0.0000  plane waves:    1230
 k-point  3 :   0.1538 0.0000 0.0000  plane waves:    1209
 k-point  4 :   0.2308 0.0000 0.0000  plane waves:    1197
 k-point  5 :   0.3077 0.0000 0.0000  plane waves:    1206
 k-point  6 :   0.3846 0.0000 0.0000  plane waves:    1188
 k-point  7 :   0.4615 0.0000 0.0000  plane waves:    1188
 k-point  8 :   0.0769 0.0769 0.0000  plane waves:    1227
 k-point  9 :   0.1538 0.0769 0.0000  plane waves:    1211
 k-point 10 :   0.2308 0.0769 0.0000  plane waves:    1204
 k-point 11 :   0.3077 0.0769 0.0000  plane waves:    1206
 k-point 12 :   0.3846 0.0769 0.0000  plane waves:    1196
 k-point 13 :   0.4615 0.0769 0.0000  plane waves:    1193
 k-point 14 :  -0.4615 0.0769 0.0000  plane waves:    1195
 k-point 15 :  -0.3846 0.0769 0.0000  plane waves:    1192
 k-point 16 :  -0.3077 0.0769 0.0000  plane waves:    1198
 k-point 17 :  -0.2308 0.0769 0.0000  plane waves:    1204
 k-point 18 :  -0.1538 0.0769 0.0000  plane waves:    1206
 k-point 19 :  -0.0769 0.0769 0.0000  plane waves:    1215
 k-point 20 :   0.1538 0.1538 0.0000  plane waves:    1207
 k-point 21 :   0.2308 0.1538 0.0000  plane waves:    1200
 k-point 22 :   0.3077 0.1538 0.0000  plane waves:    1204
 k-point 23 :   0.3846 0.1538 0.0000  plane waves:    1199
 k-point 24 :   0.4615 0.1538 0.0000  plane waves:    1195
 k-point 25 :  -0.4615 0.1538 0.0000  plane waves:    1196
 k-point 26 :  -0.3846 0.1538 0.0000  plane waves:    1189
 k-point 27 :  -0.3077 0.1538 0.0000  plane waves:    1192
 k-point 28 :  -0.2308 0.1538 0.0000  plane waves:    1203
 k-point 29 :  -0.1538 0.1538 0.0000  plane waves:    1201
 k-point 30 :   0.2308 0.2308 0.0000  plane waves:    1198
 k-point 31 :   0.3077 0.2308 0.0000  plane waves:    1212
 k-point 32 :   0.3846 0.2308 0.0000  plane waves:    1200
 k-point 33 :   0.4615 0.2308 0.0000  plane waves:    1197
 k-point 34 :  -0.4615 0.2308 0.0000  plane waves:    1194
 k-point 35 :  -0.3846 0.2308 0.0000  plane waves:    1189
 k-point 36 :  -0.3077 0.2308 0.0000  plane waves:    1190
 k-point 37 :  -0.2308 0.2308 0.0000  plane waves:    1197
 k-point 38 :   0.3077 0.3077 0.0000  plane waves:    1214
 k-point 39 :   0.3846 0.3077 0.0000  plane waves:    1203
 k-point 40 :   0.4615 0.3077 0.0000  plane waves:    1203
 k-point 41 :  -0.4615 0.3077 0.0000  plane waves:    1202
 k-point 42 :  -0.3846 0.3077 0.0000  plane waves:    1193
 k-point 43 :  -0.3077 0.3077 0.0000  plane waves:    1194
 k-point 44 :   0.3846 0.3846 0.0000  plane waves:    1202
 k-point 45 :   0.4615 0.3846 0.0000  plane waves:    1195
 k-point 46 :  -0.4615 0.3846 0.0000  plane waves:    1194
 k-point 47 :  -0.3846 0.3846 0.0000  plane waves:    1190
 k-point 48 :   0.4615 0.4615 0.0000  plane waves:    1190
 k-point 49 :  -0.4615 0.4615 0.0000  plane waves:    1186
 k-point 50 :   0.2308 0.1538 0.0769  plane waves:    1204
 k-point 51 :   0.3077 0.1538 0.0769  plane waves:    1210
 k-point 52 :   0.3846 0.1538 0.0769  plane waves:    1202
 k-point 53 :   0.4615 0.1538 0.0769  plane waves:    1194
 k-point 54 :  -0.4615 0.1538 0.0769  plane waves:    1196
 k-point 55 :   0.3077 0.2308 0.0769  plane waves:    1201
 k-point 56 :   0.3846 0.2308 0.0769  plane waves:    1204
 k-point 57 :   0.4615 0.2308 0.0769  plane waves:    1199
 k-point 58 :  -0.4615 0.2308 0.0769  plane waves:    1196
 k-point 59 :  -0.3846 0.2308 0.0769  plane waves:    1196
 k-point 60 :  -0.3077 0.2308 0.0769  plane waves:    1190
 k-point 61 :  -0.2308 0.2308 0.0769  plane waves:    1196
 k-point 62 :  -0.1538 0.2308 0.0769  plane waves:    1199
 k-point 63 :   0.3846 0.3077 0.0769  plane waves:    1208
 k-point 64 :   0.4615 0.3077 0.0769  plane waves:    1200
 k-point 65 :  -0.4615 0.3077 0.0769  plane waves:    1200
 k-point 66 :  -0.3846 0.3077 0.0769  plane waves:    1195
 k-point 67 :  -0.3077 0.3077 0.0769  plane waves:    1186
 k-point 68 :  -0.2308 0.3077 0.0769  plane waves:    1194
 k-point 69 :   0.4615 0.3846 0.0769  plane waves:    1199
 k-point 70 :  -0.4615 0.3846 0.0769  plane waves:    1192
 k-point 71 :  -0.3846 0.3846 0.0769  plane waves:    1188
 k-point 72 :  -0.3077 0.3846 0.0769  plane waves:    1185
 k-point 73 :  -0.4615 0.4615 0.0769  plane waves:    1192
 k-point 74 :  -0.3846 0.4615 0.0769  plane waves:    1187
 k-point 75 :   0.4615 0.3077 0.1538  plane waves:    1200
 k-point 76 :  -0.4615 0.3077 0.1538  plane waves:    1198
 k-point 77 :  -0.3846 0.3077 0.1538  plane waves:    1193
 k-point 78 :  -0.4615 0.3846 0.1538  plane waves:    1196
 k-point 79 :  -0.3846 0.3846 0.1538  plane waves:    1202
 k-point 80 :  -0.3077 0.3846 0.1538  plane waves:    1193
 k-point 81 :  -0.2308 0.3846 0.1538  plane waves:    1195
 k-point 82 :  -0.3846 0.4615 0.1538  plane waves:    1196
 k-point 83 :  -0.3077 0.4615 0.1538  plane waves:    1191
 k-point 84 :  -0.3077 0.4615 0.2308  plane waves:    1200

 maximum and minimum number of plane-waves per node :       319      288

 maximum number of plane-waves:      1243
 maximum index in each direction: 
   IXMAX=    7   IYMAX=    7   IZMAX=    7
   IXMIN=   -7   IYMIN=   -7   IZMIN=   -7

 NGX is ok and might be reduce to  30
 NGY is ok and might be reduce to  30
 NGZ is ok and might be reduce to  30

 parallel 3D FFT for wavefunctions:
    minimum data exchange during FFTs selected (reduces bandwidth)
 parallel 3D FFT for charge:
    minimum data exchange during FFTs selected (reduces bandwidth)


 total amount of memory used by VASP on root node    34312. kBytes
========================================================================

   base      :      30000. kBytes
   nonl-proj :       1730. kBytes
   fftplans  :        700. kBytes
   grid      :        998. kBytes
   one-center:          3. kBytes
   wavefun   :        881. kBytes
 
 Broyden mixing: mesh for mixing (old mesh)
   NGX = 15   NGY = 15   NGZ = 15
  (NGX  = 60   NGY  = 60   NGZ  = 60)
  gives a total of   3375 points

 initial charge density was supplied:
 charge density of overlapping atoms calculated
 number of electron       8.0000000 magnetization 
 keeping initial charge density in first step


--------------------------------------------------------------------------------------------------------


 Maximum index for augmentation-charges         1526 (set IRDMAX)


--------------------------------------------------------------------------------------------------------


 First call to EWALD:  gamma=   0.514
 Maximum number of real-space cells 3x 3x 3
 Maximum number of reciprocal cells 3x 3x 3

 FEWALD executed in parallel
    FEWALD:  cpu time    0.00: real time    0.00


----------------------------------------- Iteration    1(   1)  ---------------------------------------


vdW kernel read from vdw_kernel.bindat
  0.0000  0.2424  0.5071  0.7962  1.1119  1.4567  1.8333  2.2446  2.6937  3.1842
  3.7199  4.3049  4.9438  5.6415  6.4036  7.2358  8.1446  9.1372 10.2212 11.4050
 12.6979 14.1099 15.6519 17.3360 19.1751 21.1837 23.3773 25.7729 28.3892 31.2465
 34.3669 37.7748 41.4965 45.5611 50.0000
 
    POTLOK:  cpu time    3.25: real time    3.27
    SETDIJ:  cpu time    0.00: real time    0.00
     EDDAV:  cpu time    0.90: real time    0.90
       DOS:  cpu time    0.00: real time    0.00
    --------------------------------------------
      LOOP:  cpu time    4.16: real time    4.37

 eigenvalue-minimisations  :  1344
 total energy-change (2. order) : 0.8451959E+01  (-0.3290658E+03)
 number of electron       8.0000000 magnetization 
 augmentation part        8.0000000 magnetization 

 Free energy of the ion-electron system (eV)
  ---------------------------------------------------
  alpha Z        PSCENC =         3.29317992
  Ewald energy   TEWEN  =      -226.94489173
  -1/2 Hartree   DENC   =       -11.32339116
  -exchange  EXHF       =         0.00000000
  -V(xc)+E(xc)   XCENC  =       -20.24410379
  PAW double counting   =       189.40224250     -152.61488262
  entropy T*S    EENTRO =        -0.01271249
  eigenvalues    EBANDS =        18.30235488
  atomic energy  EATOM  =       208.59416316
  ---------------------------------------------------
  free energy    TOTEN  =         8.45195866 eV

  energy without entropy =        8.46467115  energy(sigma->0) =        8.45831490


--------------------------------------------------------------------------------------------------------




----------------------------------------- Iteration    1(   2)  ---------------------------------------


     EDDAV:  cpu time    1.22: real time    1.23
       DOS:  cpu time    0.00: real time    0.00
    --------------------------------------------
      LOOP:  cpu time    1.22: real time    2.81

 eigenvalue-minimisations  :  2088
 total energy-change (2. order) :-0.1665106E+02  (-0.1598791E+02)
 number of electron       8.0000000 magnetization 
 augmentation part        8.0000000 magnetization 

 Free energy of the ion-electron system (eV)
  ---------------------------------------------------
  alpha Z        PSCENC =         3.29317992
  Ewald energy   TEWEN  =      -226.94489173
  -1/2 Hartree   DENC   =       -11.32339116
  -exchange  EXHF       =         0.00000000
  -V(xc)+E(xc)   XCENC  =       -20.24410379
  PAW double counting   =       189.40224250     -152.61488262
  entropy T*S    EENTRO =        -0.00000201
  eigenvalues    EBANDS =         1.63858172
  atomic energy  EATOM  =       208.59416316
  ---------------------------------------------------
  free energy    TOTEN  =        -8.19910402 eV

  energy without entropy =       -8.19910201  energy(sigma->0) =       -8.19910302


--------------------------------------------------------------------------------------------------------




----------------------------------------- Iteration    1(   3)  ---------------------------------------


     EDDAV:  cpu time    1.03: real time    1.04
       DOS:  cpu time    0.00: real time    0.00
    --------------------------------------------
      LOOP:  cpu time    1.04: real time    4.06

 eigenvalue-minimisations  :  1728
 total energy-change (2. order) :-0.2147069E+00  (-0.2147068E+00)
 number of electron       8.0000000 magnetization 
 augmentation part        8.0000000 magnetization 

 Free energy of the ion-electron system (eV)
  ---------------------------------------------------
  alpha Z        PSCENC =         3.29317992
  Ewald energy   TEWEN  =      -226.94489173
  -1/2 Hartree   DENC   =       -11.32339116
  -exchange  EXHF       =         0.00000000
  -V(xc)+E(xc)   XCENC  =       -20.24410379
  PAW double counting   =       189.40224250     -152.61488262
  entropy T*S    EENTRO =        -0.00000157
  eigenvalues    EBANDS =         1.42387439
  atomic energy  EATOM  =       208.59416316
  ---------------------------------------------------
  free energy    TOTEN  =        -8.41381092 eV

  energy without entropy =       -8.41380934  energy(sigma->0) =       -8.41381013


--------------------------------------------------------------------------------------------------------




----------------------------------------- Iteration    1(   4)  ---------------------------------------


     EDDAV:  cpu time    1.44: real time    1.46
       DOS:  cpu time    0.00: real time    0.00
    --------------------------------------------
      LOOP:  cpu time    1.44: real time    2.58

 eigenvalue-minimisations  :  2152
 total energy-change (2. order) :-0.9253309E-03  (-0.9253314E-03)
 number of electron       8.0000000 magnetization 
 augmentation part        8.0000000 magnetization 

 Free energy of the ion-electron system (eV)
  ---------------------------------------------------
  alpha Z        PSCENC =         3.29317992
  Ewald energy   TEWEN  =      -226.94489173
  -1/2 Hartree   DENC   =       -11.32339116
  -exchange  EXHF       =         0.00000000
  -V(xc)+E(xc)   XCENC  =       -20.24410379
  PAW double counting   =       189.40224250     -152.61488262
  entropy T*S    EENTRO =        -0.00000159
  eigenvalues    EBANDS =         1.42294908
  atomic energy  EATOM  =       208.59416316
  ---------------------------------------------------
  free energy    TOTEN  =        -8.41473625 eV

  energy without entropy =       -8.41473466  energy(sigma->0) =       -8.41473545


--------------------------------------------------------------------------------------------------------




----------------------------------------- Iteration    1(   5)  ---------------------------------------


     EDDAV:  cpu time    0.78: real time    0.78
       DOS:  cpu time    0.00: real time    0.00
    CHARGE:  cpu time    0.06: real time    0.10
    MIXING:  cpu time    0.00: real time    0.00
    --------------------------------------------
      LOOP:  cpu time    0.85: real time    4.97

 eigenvalue-minimisations  :  1832
 total energy-change (2. order) :-0.8846136E-06  (-0.8842006E-06)
 number of electron       8.0000000 magnetization 
 augmentation part       -0.4831190 magnetization 

 Broyden mixing:
  rms(total) = 0.37366E+00    rms(broyden)= 0.37366E+00
  rms(prec ) = 0.89805E+00
  weight for this iteration     100.00

 Free energy of the ion-electron system (eV)
  ---------------------------------------------------
  alpha Z        PSCENC =         3.29317992
  Ewald energy   TEWEN  =      -226.94489173
  -1/2 Hartree   DENC   =       -11.32339116
  -exchange  EXHF       =         0.00000000
  -V(xc)+E(xc)   XCENC  =       -20.24410379
  PAW double counting   =       189.40224250     -152.61488262
  entropy T*S    EENTRO =        -0.00000159
  eigenvalues    EBANDS =         1.42294819
  atomic energy  EATOM  =       208.59416316
  ---------------------------------------------------
  free energy    TOTEN  =        -8.41473713 eV

  energy without entropy =       -8.41473554  energy(sigma->0) =       -8.41473634


--------------------------------------------------------------------------------------------------------




----------------------------------------- Iteration    1(   6)  ---------------------------------------


    POTLOK:  cpu time    1.50: real time    1.52
    SETDIJ:  cpu time    0.00: real time    0.01
     EDDAV:  cpu time    1.00: real time    1.01
       DOS:  cpu time    0.00: real time    0.00
    CHARGE:  cpu time    0.06: real time    0.06
    MIXING:  cpu time    0.00: real time    0.00
    --------------------------------------------
      LOOP:  cpu time    2.57: real time    7.18

 eigenvalue-minimisations  :  1632
 total energy-change (2. order) : 0.5328825E-01  (-0.8884250E-02)
 number of electron       8.0000000 magnetization 
 augmentation part       -0.4761915 magnetization 

 Broyden mixing:
  rms(total) = 0.22929E+00    rms(broyden)= 0.22929E+00
  rms(prec ) = 0.54164E+00
  weight for this iteration     100.00

 eigenvalues of (default mixing * dielectric matrix)
  average eigenvalue GAMMA=   2.5722
  2.5722

 Free energy of the ion-electron system (eV)
  ---------------------------------------------------
  alpha Z        PSCENC =         3.29317992
  Ewald energy   TEWEN  =      -226.94489173
  -1/2 Hartree   DENC   =       -12.87023863
  -exchange  EXHF       =         0.00000000
  -V(xc)+E(xc)   XCENC  =       -20.00583388
  PAW double counting   =       308.82118316     -272.16852697
  entropy T*S    EENTRO =        -0.00000701
  eigenvalues    EBANDS =         2.91952311
  atomic energy  EATOM  =       208.59416316
  ---------------------------------------------------
  free energy    TOTEN  =        -8.36144888 eV

  energy without entropy =       -8.36144187  energy(sigma->0) =       -8.36144537


--------------------------------------------------------------------------------------------------------




----------------------------------------- Iteration    1(   7)  ---------------------------------------


    POTLOK:  cpu time    1.70: real time    1.71
    SETDIJ:  cpu time    0.01: real time    0.01
     EDDAV:  cpu time    1.20: real time    1.20
       DOS:  cpu time    0.00: real time    0.00
    CHARGE:  cpu time    0.06: real time    0.06
    MIXING:  cpu time    0.00: real time    0.00
    --------------------------------------------
      LOOP:  cpu time    2.97: real time    3.71

 eigenvalue-minimisations  :  1752
 total energy-change (2. order) : 0.5317081E-02  (-0.2025173E-01)
 number of electron       8.0000000 magnetization 
 augmentation part       -0.4668212 magnetization 

 Broyden mixing:
  rms(total) = 0.18586E-01    rms(broyden)= 0.18586E-01
  rms(prec ) = 0.48579E-01
  weight for this iteration     100.00

 eigenvalues of (default mixing * dielectric matrix)
  average eigenvalue GAMMA=   2.2996
  2.2996  2.2996

 Free energy of the ion-electron system (eV)
  ---------------------------------------------------
  alpha Z        PSCENC =         3.29317992
  Ewald energy   TEWEN  =      -226.94489173
  -1/2 Hartree   DENC   =       -15.47788709
  -exchange  EXHF       =         0.00000000
  -V(xc)+E(xc)   XCENC  =       -19.58117535
  PAW double counting   =       559.26171812     -522.78418430
  entropy T*S    EENTRO =        -0.00005128
  eigenvalues    EBANDS =         5.28299676
  atomic energy  EATOM  =       208.59416316
  ---------------------------------------------------
  free energy    TOTEN  =        -8.35613180 eV

  energy without entropy =       -8.35608051  energy(sigma->0) =       -8.35610616


--------------------------------------------------------------------------------------------------------




----------------------------------------- Iteration    1(   8)  ---------------------------------------


    POTLOK:  cpu time    1.64: real time    1.66
    SETDIJ:  cpu time    0.00: real time    0.01
     EDDAV:  cpu time    0.96: real time    0.97
       DOS:  cpu time    0.00: real time    0.00
    CHARGE:  cpu time    0.05: real time    0.05
    MIXING:  cpu time    0.00: real time    0.00
    --------------------------------------------
      LOOP:  cpu time    2.66: real time    3.29

 eigenvalue-minimisations  :  1664
 total energy-change (2. order) : 0.1673947E-01  (-0.6174776E-03)
 number of electron       8.0000000 magnetization 
 augmentation part       -0.4684406 magnetization 

 Broyden mixing:
  rms(total) = 0.98174E-02    rms(broyden)= 0.98174E-02
  rms(prec ) = 0.23661E-01
  weight for this iteration     100.00

 eigenvalues of (default mixing * dielectric matrix)
  average eigenvalue GAMMA=   2.0955
  2.7595  1.7635  1.7635

 Free energy of the ion-electron system (eV)
  ---------------------------------------------------
  alpha Z        PSCENC =         3.29317992
  Ewald energy   TEWEN  =      -226.94489173
  -1/2 Hartree   DENC   =       -15.24760501
  -exchange  EXHF       =         0.00000000
  -V(xc)+E(xc)   XCENC  =       -19.59589188
  PAW double counting   =       543.20624155     -506.66322652
  entropy T*S    EENTRO =        -0.00003571
  eigenvalues    EBANDS =         5.01867390
  atomic energy  EATOM  =       208.59416316
  ---------------------------------------------------
  free energy    TOTEN  =        -8.33939233 eV

  energy without entropy =       -8.33935662  energy(sigma->0) =       -8.33937448


--------------------------------------------------------------------------------------------------------




----------------------------------------- Iteration    1(   9)  ---------------------------------------


    POTLOK:  cpu time    1.64: real time    1.71
    SETDIJ:  cpu time    0.01: real time    0.01
     EDDAV:  cpu time    1.60: real time    1.60
       DOS:  cpu time    0.00: real time    0.00
    CHARGE:  cpu time    0.06: real time    0.06
    MIXING:  cpu time    0.00: real time    0.00
    --------------------------------------------
      LOOP:  cpu time    3.31: real time    6.72

 eigenvalue-minimisations  :  1896
 total energy-change (2. order) :-0.1646564E-02  (-0.5865912E-04)
 number of electron       8.0000000 magnetization 
 augmentation part       -0.4680961 magnetization 

 Broyden mixing:
  rms(total) = 0.72810E-02    rms(broyden)= 0.72810E-02
  rms(prec ) = 0.82278E-02
  weight for this iteration     100.00

 eigenvalues of (default mixing * dielectric matrix)
  average eigenvalue GAMMA=   2.3880
  3.5974  0.9794  2.6705  2.3047

 Free energy of the ion-electron system (eV)
  ---------------------------------------------------
  alpha Z        PSCENC =         3.29317992
  Ewald energy   TEWEN  =      -226.94489173
  -1/2 Hartree   DENC   =       -15.38614392
  -exchange  EXHF       =         0.00000000
  -V(xc)+E(xc)   XCENC  =       -19.57367793
  PAW double counting   =       550.22732224     -513.69333194
  entropy T*S    EENTRO =        -0.00003911
  eigenvalues    EBANDS =         5.14238044
  atomic energy  EATOM  =       208.59416316
  ---------------------------------------------------
  free energy    TOTEN  =        -8.34103890 eV

  energy without entropy =       -8.34099978  energy(sigma->0) =       -8.34101934


--------------------------------------------------------------------------------------------------------




----------------------------------------- Iteration    1(  10)  ---------------------------------------


    POTLOK:  cpu time    1.76: real time    1.76
    SETDIJ:  cpu time    0.01: real time    0.01
     EDDAV:  cpu time    1.27: real time    1.28
       DOS:  cpu time    0.00: real time    0.00
    CHARGE:  cpu time    0.06: real time    0.06
    MIXING:  cpu time    0.00: real time    0.00
    --------------------------------------------
      LOOP:  cpu time    3.10: real time    3.45

 eigenvalue-minimisations  :  1768
 total energy-change (2. order) : 0.6971911E-03  (-0.3886241E-05)
 number of electron       8.0000000 magnetization 
 augmentation part       -0.4681281 magnetization 

 Broyden mixing:
  rms(total) = 0.28804E-02    rms(broyden)= 0.28804E-02
  rms(prec ) = 0.29770E-02
  weight for this iteration     100.00

 eigenvalues of (default mixing * dielectric matrix)
  average eigenvalue GAMMA=   1.9018
  2.9610  2.4265  2.2705  0.9254  0.9254

 Free energy of the ion-electron system (eV)
  ---------------------------------------------------
  alpha Z        PSCENC =         3.29317992
  Ewald energy   TEWEN  =      -226.94489173
  -1/2 Hartree   DENC   =       -15.37036914
  -exchange  EXHF       =         0.00000000
  -V(xc)+E(xc)   XCENC  =       -19.57703696
  PAW double counting   =       534.45021906     -497.91379746
  entropy T*S    EENTRO =        -0.00003815
  eigenvalues    EBANDS =         5.12822960
  atomic energy  EATOM  =       208.59416316
  ---------------------------------------------------
  free energy    TOTEN  =        -8.34034170 eV

  energy without entropy =       -8.34030356  energy(sigma->0) =       -8.34032263


--------------------------------------------------------------------------------------------------------




----------------------------------------- Iteration    1(  11)  ---------------------------------------


    POTLOK:  cpu time    1.73: real time    1.74
    SETDIJ:  cpu time    0.01: real time    0.01
     EDDAV:  cpu time    1.50: real time    1.50
       DOS:  cpu time    0.00: real time    0.00
    CHARGE:  cpu time    0.04: real time    0.05
    MIXING:  cpu time    0.00: real time    0.00
    --------------------------------------------
      LOOP:  cpu time    3.29: real time    6.11

 eigenvalue-minimisations  :  1920
 total energy-change (2. order) : 0.3353177E-04  (-0.7698228E-07)
 number of electron       8.0000000 magnetization 
 augmentation part       -0.4681416 magnetization 

 Broyden mixing:
  rms(total) = 0.29389E-03    rms(broyden)= 0.29389E-03
  rms(prec ) = 0.33182E-03
  weight for this iteration     100.00

 eigenvalues of (default mixing * dielectric matrix)
  average eigenvalue GAMMA=   2.0368
  2.9697  2.7584  2.3189  2.1951  0.9893  0.9893

 Free energy of the ion-electron system (eV)
  ---------------------------------------------------
  alpha Z        PSCENC =         3.29317992
  Ewald energy   TEWEN  =      -226.94489173
  -1/2 Hartree   DENC   =       -15.37280308
  -exchange  EXHF       =         0.00000000
  -V(xc)+E(xc)   XCENC  =       -19.57617310
  PAW double counting   =       538.24810159     -501.71152336
  entropy T*S    EENTRO =        -0.00003822
  eigenvalues    EBANDS =         5.12967667
  atomic energy  EATOM  =       208.59416316
  ---------------------------------------------------
  free energy    TOTEN  =        -8.34030817 eV

  energy without entropy =       -8.34026995  energy(sigma->0) =       -8.34028906


--------------------------------------------------------------------------------------------------------




----------------------------------------- Iteration    1(  12)  ---------------------------------------


    POTLOK:  cpu time    1.70: real time    1.70
    SETDIJ:  cpu time    0.01: real time    0.01
     EDDAV:  cpu time    1.16: real time    1.16
       DOS:  cpu time    0.00: real time    0.00
    CHARGE:  cpu time    0.06: real time    0.06
    MIXING:  cpu time    0.00: real time    0.00
    --------------------------------------------
      LOOP:  cpu time    2.93: real time    3.17

 eigenvalue-minimisations  :  1688
 total energy-change (2. order) : 0.8720947E-06  (-0.7256283E-08)
 number of electron       8.0000000 magnetization 
 augmentation part       -0.4681422 magnetization 

 Broyden mixing:
  rms(total) = 0.88610E-04    rms(broyden)= 0.88610E-04
  rms(prec ) = 0.91668E-04
  weight for this iteration     100.00

 eigenvalues of (default mixing * dielectric matrix)
  average eigenvalue GAMMA=   1.9369
  2.9826  2.7133  2.4802  2.1824  0.9824  0.9792  1.2380

 Free energy of the ion-electron system (eV)
  ---------------------------------------------------
  alpha Z        PSCENC =         3.29317992
  Ewald energy   TEWEN  =      -226.94489173
  -1/2 Hartree   DENC   =       -15.37278365
  -exchange  EXHF       =         0.00000000
  -V(xc)+E(xc)   XCENC  =       -19.57620345
  PAW double counting   =       538.56518149     -502.02858041
  entropy T*S    EENTRO =        -0.00003820
  eigenvalues    EBANDS =         5.12966558
  atomic energy  EATOM  =       208.59416316
  ---------------------------------------------------
  free energy    TOTEN  =        -8.34030730 eV

  energy without entropy =       -8.34026910  energy(sigma->0) =       -8.34028820


--------------------------------------------------------------------------------------------------------




----------------------------------------- Iteration    1(  13)  ---------------------------------------


    POTLOK:  cpu time    1.70: real time    1.89
    SETDIJ:  cpu time    0.00: real time    0.01
     EDDAV:  cpu time    0.87: real time    0.87
       DOS:  cpu time    0.00: real time    0.00
    CHARGE:  cpu time    0.06: real time    0.05
    MIXING:  cpu time    0.00: real time    0.00
    --------------------------------------------
      LOOP:  cpu time    2.64: real time    3.15

 eigenvalue-minimisations  :  1072
 total energy-change (2. order) : 0.3674475E-05  (-0.2215308E-09)
 number of electron       8.0000000 magnetization 
 augmentation part       -0.4681430 magnetization 

 Broyden mixing:
  rms(total) = 0.56701E-05    rms(broyden)= 0.56701E-05
  rms(prec ) = 0.69733E-05
[...]

 k-point  49 :      -0.4615    0.4615    0.0000
  band No.  band energies     occupation 
      1      -2.1137      2.00000
      2      -2.0345      2.00000
      3       2.5411      2.00000
      4       2.8766      2.00000
      5       6.4653      0.00016
      6       6.8850      0.00000
      7      15.1204      0.00000
      8      15.3013      0.00000

 k-point  50 :       0.2308    0.1538    0.0769
  band No.  band energies     occupation 
      1      -5.6443      2.00000
      2       3.1632      2.00000
      3       4.1982      2.00000
      4       5.0023      2.00000
      5       7.9956      0.00000
      6       9.0478      0.00000
      7       9.5709      0.00000
      8      10.5753      0.00000

 k-point  51 :       0.3077    0.1538    0.0769
  band No.  band energies     occupation 
      1      -5.2774      2.00000
      2       2.0268      2.00000
      3       3.7077      2.00000
      4       4.7732      2.00000
      5       8.2287      0.00000
      6       9.0393      0.00000
      7       9.9827      0.00000
      8      10.6122      0.00000

 k-point  52 :       0.3846    0.1538    0.0769
  band No.  band energies     occupation 
      1      -4.7869      2.00000
      2       0.8125      2.00000
      3       3.4338      2.00000
      4       4.4795      2.00000
      5       8.2558      0.00000
      6       9.0253      0.00000
      7      10.0911      0.00000
      8      11.0504      0.00000

 k-point  53 :       0.4615    0.1538    0.0769
  band No.  band energies     occupation 
      1      -4.2235      2.00000
      2      -0.2714      2.00000
      3       3.2847      2.00000
      4       4.2298      2.00000
      5       8.1667      0.00000
      6       8.9126      0.00000
      7      10.0229      0.00000
      8      12.0154      0.00000

 k-point  54 :      -0.4615    0.1538    0.0769
  band No.  band energies     occupation 
      1      -3.7519      2.00000
      2      -1.0112      2.00000
      3       3.2223      2.00000
      4       4.0870      2.00000
      5       8.1071      0.00000
      6       8.8135      0.00000
      7       9.9490      0.00000
      8      13.2293      0.00000

 k-point  55 :       0.3077    0.2308    0.0769
  band No.  band energies     occupation 
      1      -5.1485      2.00000
      2       2.0660      2.00000
      3       3.5494      2.00000
      4       4.1939      2.00000
      5       7.4841      0.00000
      6       9.3596      0.00000
      7      10.2702      0.00000
      8      10.8727      0.00000

 k-point  56 :       0.3846    0.2308    0.0769
  band No.  band energies     occupation 
      1      -4.6973      2.00000
      2       1.0801      2.00000
      3       3.0577      2.00000
      4       3.9449      2.00000
      5       7.7786      0.00000
      6       9.4574      0.00000
      7      10.0605      0.00000
      8      11.2546      0.00000

 k-point  57 :       0.4615    0.2308    0.0769
  band No.  band energies     occupation 
      1      -4.1491      2.00000
      2       0.0566      2.00000
      3       2.7291      2.00000
      4       3.7183      2.00000
      5       7.9093      0.00000
      6       9.7694      0.00000
      7      10.2363      0.00000
      8      11.2793      0.00000

 k-point  58 :      -0.4615    0.2308    0.0769
  band No.  band energies     occupation 
      1      -3.6118      2.00000
      2      -0.7777      2.00000
      3       2.4922      2.00000
      4       3.6286      2.00000
      5       7.9823      0.00000
      6       9.5053      0.00000
      7      11.1763      0.00000
      8      11.4635      0.00000

 k-point  59 :      -0.3846    0.2308    0.0769
  band No.  band energies     occupation 
      1      -3.4176      2.00000
      2      -1.0443      2.00000
      3       2.3402      2.00000
      4       3.6996      2.00000
      5       8.1344      0.00000
      6       9.3131      0.00000
      7      11.0914      0.00000
      8      12.8776      0.00000

 k-point  60 :      -0.3077    0.2308    0.0769
  band No.  band energies     occupation 
      1      -3.7888      2.00000
      2      -0.5148      2.00000
      3       2.3033      2.00000
      4       3.9091      2.00000
      5       8.3848      0.00000
      6       9.2015      0.00000
      7      11.0321      0.00000
      8      11.8717      0.00000

 k-point  61 :      -0.2308    0.2308    0.0769
  band No.  band energies     occupation 
      1      -4.3514      2.00000
      2       0.3992      2.00000
      3       2.4368      2.00000
      4       4.2146      2.00000
      5       8.6929      0.00000
      6       9.0950      0.00000
      7      10.7223      0.00000
      8      11.0247      0.00000

 k-point  62 :      -0.1538    0.2308    0.0769
  band No.  band energies     occupation 
      1      -4.8708      2.00000
      2       1.3321      2.00000
      3       2.8616      2.00000
      4       4.5457      2.00000
      5       8.7055      0.00000
      6       8.9919      0.00000
      7      10.3724      0.00000
      8      10.5873      0.00000

 k-point  63 :       0.3846    0.3077    0.0769
  band No.  band energies     occupation 
      1      -4.4664      2.00000
      2       0.9077      2.00000
      3       3.0394      2.00000
      4       3.4667      2.00000
      5       7.0796      0.00000
      6       8.3864      0.00000
      7      11.3523      0.00000
      8      12.2724      0.00000

 k-point  64 :       0.4615    0.3077    0.0769
  band No.  band energies     occupation 
      1      -3.9451      2.00000
      2       0.0968      2.00000
      3       2.5191      2.00000
      4       3.2479      2.00000
      5       7.3946      0.00000
      6       8.6844      0.00000
      7      11.1161      0.00000
      8      12.6349      0.00000

 k-point  65 :      -0.4615    0.3077    0.0769
  band No.  band energies     occupation 
      1      -3.3802      2.00000
      2      -0.6762      2.00000
      3       2.0488      2.00000
      4       3.1816      2.00000
      5       7.5275      0.00000
      6       9.6980      0.00000
      7      10.8463      0.00000
      8      12.6112      0.00000

 k-point  66 :      -0.3846    0.3077    0.0769
  band No.  band energies     occupation 
      1      -3.0251      2.00000
      2      -1.1089      2.00000
      3       1.7176      2.00000
      4       3.2789      2.00000
      5       7.6945      0.00000
      6      10.4793      0.00000
      7      11.1953      0.00000
      8      12.4819      0.00000

 k-point  67 :      -0.3077    0.3077    0.0769
  band No.  band energies     occupation 
      1      -3.2701      2.00000
      2      -0.8077      2.00000
      3       1.5953      2.00000
      4       3.5134      2.00000
      5       7.9738      0.00000
      6      10.3118      0.00000
      7      11.8108      0.00000
      8      12.2917      0.00000

 k-point  68 :      -0.2308    0.3077    0.0769
  band No.  band energies     occupation 
      1      -3.8162      2.00000
      2      -0.1543      2.00000
      3       1.7905      2.00000
      4       3.8476      2.00000
      5       8.3474      0.00000
      6       9.9044      0.00000
      7      10.8949      0.00000
      8      11.8869      0.00000

 k-point  69 :       0.4615    0.3846    0.0769
  band No.  band energies     occupation 
      1      -3.6121      2.00000
      2      -0.2942      2.00000
      3       2.7070      2.00000
      4       2.9431      2.00000
      5       6.8525      0.00000
      6       7.5944      0.00000
      7      12.5890      0.00000
      8      13.7218      0.00000

 k-point  70 :      -0.4615    0.3846    0.0769
  band No.  band energies     occupation 
      1      -3.0459      2.00000
      2      -0.9475      2.00000
      3       2.1497      2.00000
      4       2.8354      2.00000
      5       7.1501      0.00000
      6       8.1918      0.00000
      7      12.3223      0.00000
      8      14.0585      0.00000

 k-point  71 :      -0.3846    0.3846    0.0769
  band No.  band energies     occupation 
      1      -2.5828      2.00000
      2      -1.4157      2.00000
      3       1.6201      2.00000
      4       2.9322      2.00000
      5       7.3162      0.00000
      6       9.4484      0.00000
      7      12.0405      0.00000
      8      13.4155      0.00000

 k-point  72 :      -0.3077    0.3846    0.0769
  band No.  band energies     occupation 
      1      -2.7479      2.00000
      2      -1.2372      2.00000
      3       1.3766      2.00000
      4       3.1686      2.00000
      5       7.5888      0.00000
      6      10.8742      0.00000
      7      11.6970      0.00000
      8      12.1319      0.00000

 k-point  73 :      -0.4615    0.4615    0.0769
  band No.  band energies     occupation 
      1      -2.6075      2.00000
      2      -1.4858      2.00000
      3       2.5717      2.00000
      4       2.6466      2.00000
      5       6.8438      0.00000
      6       7.0831      0.00000
      7      13.9115      0.00000
      8      15.0042      0.00000

 k-point  74 :      -0.3846    0.4615    0.0769
  band No.  band energies     occupation 
      1      -2.1527      2.00000
      2      -1.8938      2.00000
      3       2.0182      2.00000
      4       2.7039      2.00000
      5       7.0669      0.00000
      6       8.0270      0.00000
      7      13.5462      0.00000
      8      13.7491      0.00000

 k-point  75 :       0.4615    0.3077    0.1538
  band No.  band energies     occupation 
      1      -4.2149      2.00000
      2       0.4272      2.00000
      3       2.3748      2.00000
      4       3.6501      2.00000
      5       8.3381      0.00000
      6       9.4183      0.00000
      7       9.7763      0.00000
      8      12.1100      0.00000

 k-point  76 :      -0.4615    0.3077    0.1538
  band No.  band energies     occupation 
      1      -3.6541      2.00000
      2      -0.3443      2.00000
      3       2.0024      2.00000
      4       3.3347      2.00000
      5       8.7001      0.00000
      6       9.3973      0.00000
      7      10.1397      0.00000
      8      12.5107      0.00000

 k-point  77 :      -0.3846    0.3077    0.1538
  band No.  band energies     occupation 
      1      -3.1679      2.00000
      2      -0.9750      2.00000
      3       1.8576      2.00000
      4       3.1447      2.00000
      5       8.8585      0.00000
      6       9.0996      0.00000
      7      11.4062      0.00000
      8      12.5819      0.00000

 k-point  78 :      -0.4615    0.3846    0.1538
  band No.  band energies     occupation 
      1      -3.4057      2.00000
      2      -0.5082      2.00000
      3       2.0958      2.00000
      4       2.8426      2.00000
      5       8.1184      0.00000
      6       8.7195      0.00000
      7      10.7939      0.00000
      8      13.6799      0.00000

 k-point  79 :      -0.3846    0.3846    0.1538
  band No.  band energies     occupation 
      1      -2.8572      2.00000
      2      -1.0959      2.00000
      3       1.7573      2.00000
      4       2.6223      2.00000
      5       8.4547      0.00000
      6       9.6388      0.00000
      7      10.5100      0.00000
      8      13.1122      0.00000

 k-point  80 :      -0.3077    0.3846    0.1538
  band No.  band energies     occupation 
      1      -2.6715      2.00000
      2      -1.2839      2.00000
      3       1.5507      2.00000
      4       2.6757      2.00000
      5       8.6767      0.00000
      6      10.0898      0.00000
      7      11.1546      0.00000
      8      11.6239      0.00000

 k-point  81 :      -0.2308    0.3846    0.1538
  band No.  band energies     occupation 
      1      -3.0979      2.00000
      2      -0.8496      2.00000
      3       1.5970      2.00000
      4       2.9407      2.00000
      5       8.9953      0.00000
      6       9.7119      0.00000
      7      10.3381      0.00000
      8      12.8783      0.00000

 k-point  82 :      -0.3846    0.4615    0.1538
  band No.  band energies     occupation 
      1      -2.4793      2.00000
      2      -1.4909      2.00000
      3       2.0590      2.00000
      4       2.2997      2.00000
      5       8.0900      0.00000
      6       8.2824      0.00000
      7      11.9932      0.00000
      8      13.3458      0.00000

 k-point  83 :      -0.3077    0.4615    0.1538
  band No.  band energies     occupation 
      1      -2.2078      2.00000
      2      -1.7158      2.00000
      3       1.6887      2.00000
      4       2.3446      2.00000
      5       8.3687      0.00000
      6       9.5288      0.00000
      7      11.6387      0.00000
      8      11.7931      0.00000

 k-point  84 :      -0.3077    0.4615    0.2308
  band No.  band energies     occupation 
      1      -2.3239      2.00000
      2      -1.5632      2.00000
      3       1.7083      2.00000
      4       2.1666      2.00000
      5       9.6629      0.00000
      6       9.6679      0.00000
      7      10.3299      0.00000
      8      11.4516      0.00000


--------------------------------------------------------------------------------------------------------


 soft charge-density along one line, spin component           1
         0         1         2         3         4         5         6         7         8         9
 total charge-density along one line
 
 pseudopotential strength for first ion, spin component:           1
 18.530  25.848   0.000   0.000   0.000   0.000   0.000   0.000
 25.848  36.061   0.000   0.000   0.000   0.000   0.000   0.000
  0.000   0.000   4.199   0.000   0.000   7.816   0.000   0.000
  0.000   0.000   0.000   4.199   0.000   0.000   7.816   0.000
  0.000   0.000   0.000   0.000   4.199   0.000   0.000   7.816
  0.000   0.000   7.816   0.000   0.000  14.561   0.000   0.000
  0.000   0.000   0.000   7.816   0.000   0.000  14.561   0.000
  0.000   0.000   0.000   0.000   7.816   0.000   0.000  14.561
 total augmentation occupancy for first ion, spin component:           1
  3.252  -0.963   0.000   0.000   0.000   0.000   0.000   0.000
 -0.963   0.489   0.000   0.000   0.000   0.000   0.000   0.000
  0.000   0.000   2.262   0.000   0.000  -0.407   0.000   0.000
  0.000   0.000   0.000   2.262   0.000   0.000  -0.407   0.000
  0.000   0.000   0.000   0.000   2.262   0.000   0.000  -0.407
  0.000   0.000  -0.407   0.000   0.000   0.084   0.000   0.000
  0.000   0.000   0.000  -0.407   0.000   0.000   0.084   0.000
  0.000   0.000   0.000   0.000  -0.407   0.000   0.000   0.084


------------------------ aborting loop because EDIFF is reached ----------------------------------------


    CHARGE:  cpu time    0.14: real time    0.29
    FORLOC:  cpu time    0.00: real time    0.00
    FORNL :  cpu time    0.04: real time    0.04
    STRESS:  cpu time    0.27: real time    0.27
    FORCOR:  cpu time    1.61: real time    1.61
    FORHAR:  cpu time    0.01: real time    0.01
    MIXING:  cpu time    0.00: real time    0.00

  FORCE on cell =-STRESS in cart. coord.  units (eV):
  Direction    XX          YY          ZZ          XY          YZ          ZX
  --------------------------------------------------------------------------------------
  Alpha Z     3.29318     3.29318     3.29318
  Ewald     -75.64832   -75.64835   -75.64832    -0.00001     0.00001     0.00001
  Hartree     5.12424     5.12424     5.12424     0.00000     0.00000     0.00000
  E(xc)     -25.38043   -25.38043   -25.38043     0.00000     0.00000     0.00000
  Local     -29.55374   -29.55374   -29.55374     0.00001     0.00000     0.00000
  n-local    74.21892    77.63140    81.73271    -0.90428    -0.92655    -0.02600
  augment   -11.98034   -11.98034   -11.98034     0.00000     0.00000     0.00000
  Kinetic    53.37521    55.37661    61.04111     0.84963     1.21540    -0.54750
  Fock        0.00000     0.00000     0.00000     0.00000     0.00000     0.00000
  -------------------------------------------------------------------------------------
  Total       0.31324     0.31324     0.31324     0.00000     0.00000     0.00000
  in kB      12.27397    12.27398    12.27398     0.00000     0.00000     0.00000
  external pressure =       12.27 kB  Pullay stress =        0.00 kB


 VOLUME and BASIS-vectors are now :
 -----------------------------------------------------------------------------
  energy-cutoff  :      550.00
  volume of cell :       40.89
      direct lattice vectors                 reciprocal lattice vectors
     3.348898000  0.000000000  1.933487000     0.298605691 -0.105573000  0.000000000
     1.116299000  3.157372000  1.933487000     0.000000000  0.316719094  0.000000000
     0.000000000  0.000000000  3.866975000    -0.149302807 -0.105573020  0.258600069

  length of vectors
     3.866974243  3.866974707  3.866975000     0.316719145  0.316719094  0.316719096


 FORCES acting on ions
    electron-ion (+dipol)            ewald-force                    non-local-force                 convergence-correction
 -----------------------------------------------------------------------------------------------
   -.378E-05 0.692E-05 0.844E-05   0.634E-05 -.116E-04 -.142E-04   -.102E-15 -.763E-16 -.437E-15   0.103E-11 0.273E-11 0.491E-11
   0.378E-05 -.692E-05 -.844E-05   -.634E-05 0.116E-04 0.142E-04   0.989E-16 0.132E-15 0.333E-15   -.103E-11 -.273E-11 -.491E-11
 -----------------------------------------------------------------------------------------------
   0.176E-12 -.598E-13 0.596E-14   -.469E-16 0.276E-16 -.294E-16   -.347E-17 0.555E-16 -.104E-15   -.116E-15 -.334E-17 -.193E-14
 
 
 POSITION                                       TOTAL-FORCE (eV/Angst)
 -----------------------------------------------------------------------------------
      3.90705      2.76270      6.76721         0.000000      0.000000      0.000000
      0.55815      0.39467      0.96674         0.000000      0.000000      0.000000
 -----------------------------------------------------------------------------------
    total drift:                                0.000000      0.000000      0.000000


--------------------------------------------------------------------------------------------------------



  FREE ENERGIE OF THE ION-ELECTRON SYSTEM (eV)
  ---------------------------------------------------
  free  energy   TOTEN  =        -8.34030321 eV

  energy  without entropy=       -8.34026502  energy(sigma->0) =       -8.34028412
 


--------------------------------------------------------------------------------------------------------


    POTLOK:  cpu time    1.94: real time    2.38


--------------------------------------------------------------------------------------------------------




--------------------------------------------------------------------------------------------------------


  
 reached required accuracy - stopping structural energy minimisation
     LOOP+:  cpu time   42.50: real time   97.91
    4ORBIT:  cpu time    0.00: real time    0.00

 total amount of memory used by VASP on root node    34312. kBytes
========================================================================

   base      :      30000. kBytes
   nonl-proj :       1730. kBytes
   fftplans  :        700. kBytes
   grid      :        998. kBytes
   one-center:          3. kBytes
   wavefun   :        881. kBytes
 
  
  
 General timing and accounting informations for this job:
 ========================================================
  
                  Total CPU time used (sec):       43.375
                            User time (sec):       42.863
                          System time (sec):        0.512
                         Elapsed time (sec):      116.037
  
                   Maximum memory used (kb):      104848.
                   Average memory used (kb):           0.
  
                          Minor page faults:        54132
                          Major page faults:            5
                 Voluntary context switches:         1230
