<?xml version="1.0" encoding="ISO-8859-1"?>
<modeling>
 <generator>
  <i name="program" type="string">vasp </i>
  <i name="version" type="string">5.3.3  </i>
  <i name="subversion" type="string">18Dez12 (build Jan 30 2013 10:57:47) complex                          parallel </i>
  <i name="platform" type="string">LinuxIFC </i>
  <i name="date" type="string">2016 06 21 </i>
  <i name="time" type="string">13:11:33 </i>
 </generator>
 <incar>
  <i type="string" name="PREC">accurate</i>
  <i type="int" name="NELM">   400</i>
  <i type="int" name="IBRION">     2</i>
  <i name="EDIFF">      0.00000010</i>
  <i type="int" name="NSW">     1</i>
  <i name="ENCUT">    550.00000000</i>
  <i type="int" name="ISMEAR">     0</i>
  <i type="logical" name="LWAVE"> F  </i>
  <i type="logical" name="LCHARG"> F  </i>
  <i type="int" name="NELM">   400</i>
  <i type="string" name="GGA"> BO</i>
  <i name="PARAM1">      0.18333333</i>
  <i name="PARAM2">      0.22000000</i>
  <i type="logical" name="LUSE_VDW"> T  </i>
  <i name="AGGAC">      0.00000000</i>
 </incar>
 <kpoints>
  <generation param="Gamma">
   <v type="int" name="divisions">      13       13       13 </v>
   <v name="usershift">      0.00000000       0.00000000       0.00000000 </v>
   <v name="genvec1">      0.07692308       0.00000000       0.00000000 </v>
   <v name="genvec2">      0.00000000       0.07692308       0.00000000 </v>
   <v name="genvec3">      0.00000000       0.00000000       0.07692308 </v>
   <v name="shift">      0.00000000       0.00000000       0.00000000 </v>
  </generation>
  <varray name="kpointlist" >
   <v>       0.00000000       0.00000000       0.00000000 </v>
   <v>       0.07692308       0.00000000       0.00000000 </v>
   <v>       0.15384615       0.00000000       0.00000000 </v>
   <v>       0.23076923       0.00000000       0.00000000 </v>
   <v>       0.30769231       0.00000000       0.00000000 </v>
   <v>       0.38461538       0.00000000       0.00000000 </v>
   <v>       0.46153846       0.00000000       0.00000000 </v>
   <v>       0.07692308       0.07692308       0.00000000 </v>
   <v>       0.15384615       0.07692308       0.00000000 </v>
   <v>       0.23076923       0.07692308       0.00000000 </v>
   <v>       0.30769231       0.07692308       0.00000000 </v>
   <v>       0.38461538       0.07692308       0.00000000 </v>
   <v>       0.46153846       0.07692308       0.00000000 </v>
   <v>      -0.46153846       0.07692308       0.00000000 </v>
   <v>      -0.38461538       0.07692308       0.00000000 </v>
   <v>      -0.30769231       0.07692308       0.00000000 </v>
   <v>      -0.23076923       0.07692308       0.00000000 </v>
   <v>      -0.15384615       0.07692308       0.00000000 </v>
   <v>      -0.07692308       0.07692308       0.00000000 </v>
   <v>       0.15384615       0.15384615       0.00000000 </v>
   <v>       0.23076923       0.15384615       0.00000000 </v>
   <v>       0.30769231       0.15384615       0.00000000 </v>
   <v>       0.38461538       0.15384615       0.00000000 </v>
   <v>       0.46153846       0.15384615       0.00000000 </v>
   <v>      -0.46153846       0.15384615       0.00000000 </v>
   <v>      -0.38461538       0.15384615       0.00000000 </v>
   <v>      -0.30769231       0.15384615       0.00000000 </v>
   <v>      -0.23076923       0.15384615       0.00000000 </v>
   <v>      -0.15384615       0.15384615       0.00000000 </v>
   <v>       0.23076923       0.23076923       0.00000000 </v>
   <v>       0.30769231       0.23076923       0.00000000 </v>
   <v>       0.38461538       0.23076923       0.00000000 </v>
   <v>       0.46153846       0.23076923       0.00000000 </v>
   <v>      -0.46153846       0.23076923       0.00000000 </v>
   <v>      -0.38461538       0.23076923       0.00000000 </v>
   <v>      -0.30769231       0.23076923       0.00000000 </v>
   <v>      -0.23076923       0.23076923       0.00000000 </v>
   <v>       0.30769231       0.30769231       0.00000000 </v>
   <v>       0.38461538       0.30769231       0.00000000 </v>
   <v>       0.46153846       0.30769231       0.00000000 </v>
   <v>      -0.46153846       0.30769231       0.00000000 </v>
   <v>      -0.38461538       0.30769231       0.00000000 </v>
   <v>      -0.30769231       0.30769231       0.00000000 </v>
   <v>       0.38461538       0.38461538       0.00000000 </v>
   <v>       0.46153846       0.38461538       0.00000000 </v>
   <v>      -0.46153846       0.38461538       0.00000000 </v>
   <v>      -0.38461538       0.38461538       0.00000000 </v>
   <v>       0.46153846       0.46153846       0.00000000 </v>
   <v>      -0.46153846       0.46153846       0.00000000 </v>
   <v>       0.23076923       0.15384615       0.07692308 </v>
   <v>       0.30769231       0.15384615       0.07692308 </v>
   <v>       0.38461538       0.15384615       0.07692308 </v>
   <v>       0.46153846       0.15384615       0.07692308 </v>
   <v>      -0.46153846       0.15384615       0.07692308 </v>
   <v>       0.30769231       0.23076923       0.07692308 </v>
   <v>       0.38461538       0.23076923       0.07692308 </v>
   <v>       0.46153846       0.23076923       0.07692308 </v>
   <v>      -0.46153846       0.23076923       0.07692308 </v>
   <v>      -0.38461538       0.23076923       0.07692308 </v>
   <v>      -0.30769231       0.23076923       0.07692308 </v>
   <v>      -0.23076923       0.23076923       0.07692308 </v>
   <v>      -0.15384615       0.23076923       0.07692308 </v>
   <v>       0.38461538       0.30769231       0.07692308 </v>
   <v>       0.46153846       0.30769231       0.07692308 </v>
   <v>      -0.46153846       0.30769231       0.07692308 </v>
   <v>      -0.38461538       0.30769231       0.07692308 </v>
   <v>      -0.30769231       0.30769231       0.07692308 </v>
   <v>      -0.23076923       0.30769231       0.07692308 </v>
   <v>       0.46153846       0.38461538       0.07692308 </v>
   <v>      -0.46153846       0.38461538       0.07692308 </v>
   <v>      -0.38461538       0.38461538       0.07692308 </v>
   <v>      -0.30769231       0.38461538       0.07692308 </v>
   <v>      -0.46153846       0.46153846       0.07692308 </v>
   <v>      -0.38461538       0.46153846       0.07692308 </v>
   <v>       0.46153846       0.30769231       0.15384615 </v>
   <v>      -0.46153846       0.30769231       0.15384615 </v>
   <v>      -0.38461538       0.30769231       0.15384615 </v>
   <v>      -0.46153846       0.38461538       0.15384615 </v>
   <v>      -0.38461538       0.38461538       0.15384615 </v>
   <v>      -0.30769231       0.38461538       0.15384615 </v>
   <v>      -0.23076923       0.38461538       0.15384615 </v>
   <v>      -0.38461538       0.46153846       0.15384615 </v>
   <v>      -0.30769231       0.46153846       0.15384615 </v>
   <v>      -0.30769231       0.46153846       0.23076923 </v>
  </varray>
  <varray name="weights" >
   <v>       0.00045517 </v>
   <v>       0.00364133 </v>
   <v>       0.00364133 </v>
   <v>       0.00364133 </v>
   <v>       0.00364133 </v>
   <v>       0.00364133 </v>
   <v>       0.00364133 </v>
   <v>       0.00273100 </v>
   <v>       0.01092399 </v>
   <v>       0.01092399 </v>
   <v>       0.01092399 </v>
   <v>       0.01092399 </v>
   <v>       0.01092399 </v>
   <v>       0.01092399 </v>
   <v>       0.01092399 </v>
   <v>       0.01092399 </v>
   <v>       0.01092399 </v>
   <v>       0.01092399 </v>
   <v>       0.00546199 </v>
   <v>       0.00273100 </v>
   <v>       0.01092399 </v>
   <v>       0.01092399 </v>
   <v>       0.01092399 </v>
   <v>       0.01092399 </v>
   <v>       0.01092399 </v>
   <v>       0.01092399 </v>
   <v>       0.01092399 </v>
   <v>       0.01092399 </v>
   <v>       0.00546199 </v>
   <v>       0.00273100 </v>
   <v>       0.01092399 </v>
   <v>       0.01092399 </v>
   <v>       0.01092399 </v>
   <v>       0.01092399 </v>
   <v>       0.01092399 </v>
   <v>       0.01092399 </v>
   <v>       0.00546199 </v>
   <v>       0.00273100 </v>
   <v>       0.01092399 </v>
   <v>       0.01092399 </v>
   <v>       0.01092399 </v>
   <v>       0.01092399 </v>
   <v>       0.00546199 </v>
   <v>       0.00273100 </v>
   <v>       0.01092399 </v>
   <v>       0.01092399 </v>
   <v>       0.00546199 </v>
   <v>       0.00273100 </v>
   <v>       0.00546199 </v>
   <v>       0.01092399 </v>
   <v>       0.02184797 </v>
   <v>       0.02184797 </v>
   <v>       0.02184797 </v>
   <v>       0.02184797 </v>
   <v>       0.01092399 </v>
   <v>       0.02184797 </v>
   <v>       0.02184797 </v>
   <v>       0.02184797 </v>
   <v>       0.02184797 </v>
   <v>       0.02184797 </v>
   <v>       0.02184797 </v>
   <v>       0.01092399 </v>
   <v>       0.01092399 </v>
   <v>       0.02184797 </v>
   <v>       0.02184797 </v>
   <v>       0.02184797 </v>
   <v>       0.02184797 </v>
   <v>       0.01092399 </v>
   <v>       0.01092399 </v>
   <v>       0.02184797 </v>
   <v>       0.02184797 </v>
   <v>       0.01092399 </v>
   <v>       0.01092399 </v>
   <v>       0.01092399 </v>
   <v>       0.01092399 </v>
   <v>       0.02184797 </v>
   <v>       0.02184797 </v>
   <v>       0.01092399 </v>
   <v>       0.02184797 </v>
   <v>       0.02184797 </v>
   <v>       0.01092399 </v>
   <v>       0.01092399 </v>
   <v>       0.01092399 </v>
   <v>       0.01092399 </v>
  </varray>
 </kpoints>
 <parameters>
  <separator name="general" >
   <i type="string" name="SYSTEM">unknown system</i>
   <i type="logical" name="LCOMPAT"> F  </i>
  </separator>
  <separator name="electronic" >
   <i type="string" name="PREC">accura</i>
   <i name="ENMAX">    550.00000000</i>
   <i name="ENAUG">    322.06900000</i>
   <i name="EDIFF">      0.00000010</i>
   <i type="int" name="IALGO">    38</i>
   <i type="int" name="IWAVPR">    11</i>
   <i type="int" name="NBANDS">     8</i>
   <i name="NELECT">      8.00000000</i>
   <i type="int" name="TURBO">     0</i>
   <i type="int" name="IRESTART">     0</i>
   <i type="int" name="NREBOOT">     0</i>
   <i type="int" name="NMIN">     0</i>
   <i name="EREF">      0.00000000</i>
   <separator name="electronic smearing" >
    <i type="int" name="ISMEAR">     0</i>
    <i name="SIGMA">      0.20000000</i>
    <i name="KSPACING">      0.50000000</i>
    <i type="logical" name="KGAMMA"> T  </i>
   </separator>
   <separator name="electronic projectors" >
    <i type="logical" name="LREAL"> F  </i>
    <v name="ROPT">      0.00000000</v>
    <i type="int" name="LMAXPAW">  -100</i>
    <i type="int" name="LMAXMIX">     2</i>
    <i type="logical" name="NLSPLINE"> F  </i>
   </separator>
   <separator name="electronic startup" >
    <i type="int" name="ISTART">     0</i>
    <i type="int" name="ICHARG">     2</i>
    <i type="int" name="INIWAV">     1</i>
   </separator>
   <separator name="electronic spin" >
    <i type="int" name="ISPIN">     1</i>
    <i type="logical" name="LNONCOLLINEAR"> F  </i>
    <v name="MAGMOM">      1.00000000      1.00000000</v>
    <i name="NUPDOWN">     -1.00000000</i>
    <i type="logical" name="LSORBIT"> F  </i>
    <v name="SAXIS">      0.00000000      0.00000000      1.00000000</v>
    <i type="logical" name="LSPIRAL"> F  </i>
    <v name="QSPIRAL">      0.00000000      0.00000000      0.00000000</v>
    <i type="logical" name="LZEROZ"> F  </i>
   </separator>
   <separator name="electronic exchange-correlation" >
    <i type="logical" name="LASPH"> F  </i>
    <i type="logical" name="LMETAGGA"> F  </i>
   </separator>
   <separator name="electronic convergence" >
    <i type="int" name="NELM">   400</i>
    <i type="int" name="NELMDL">    -5</i>
    <i type="int" name="NELMIN">     2</i>
    <i name="ENINI">    550.00000000</i>
    <separator name="electronic convergence detail" >
     <i type="logical" name="LDIAG"> T  </i>
     <i type="logical" name="LSUBROT"> T  </i>
     <i name="WEIMIN">      0.00100000</i>
     <i name="EBREAK">      0.00000000</i>
     <i name="DEPER">      0.30000000</i>
     <i type="int" name="NRMM">     4</i>
     <i name="TIME">      0.40000000</i>
    </separator>
   </separator>
   <separator name="electronic mixer" >
    <i name="AMIX">      0.40000000</i>
    <i name="BMIX">      1.00000000</i>
    <i name="AMIN">      0.10000000</i>
    <i name="AMIX_MAG">      1.60000000</i>
    <i name="BMIX_MAG">      1.00000000</i>
    <separator name="electronic mixer details" >
     <i type="int" name="IMIX">     4</i>
     <i type="int" name="MAXMIX">   -45</i>
     <i name="WC">    100.00000000</i>
     <i type="int" name="INIMIX">     1</i>
     <i type="int" name="MIXPRE">     1</i>
     <i type="int" name="MREMOVE">     5</i>
    </separator>
   </separator>
   <separator name="electronic dipolcorrection" >
    <i type="logical" name="LDIPOL"> F  </i>
    <i type="logical" name="LMONO"> F  </i>
    <i type="int" name="IDIPOL">     0</i>
    <i name="EPSILON">      1.00000000</i>
    <v name="DIPOL">   -100.00000000   -100.00000000   -100.00000000</v>
    <i name="EFIELD">      0.00000000</i>
   </separator>
  </separator>
  <separator name="grids" >
   <i type="int" name="NGX">    30</i>
   <i type="int" name="NGY">    30</i>
   <i type="int" name="NGZ">    30</i>
   <i type="int" name="NGXF">    60</i>
   <i type="int" name="NGYF">    60</i>
   <i type="int" name="NGZF">    60</i>
   <i type="logical" name="ADDGRID"> F  </i>
  </separator>
  <separator name="ionic" >
   <i type="int" name="NSW">     1</i>
   <i type="int" name="IBRION">     2</i>
   <i type="int" name="ISIF">     2</i>
   <i name="PSTRESS">      0.00000000</i>
   <i name="EDIFFG">      0.00000100</i>
   <i type="int" name="NFREE">     1</i>
   <i name="POTIM">      0.50000000</i>
   <i name="SMASS">     -3.00000000</i>
   <i name="SCALEE">      1.00000000</i>
  </separator>
  <separator name="ionic md" >
   <i name="TEBEG">      0.00010000</i>
   <i name="TEEND">      0.00010000</i>
   <i type="int" name="NBLOCK">     1</i>
   <i type="int" name="KBLOCK">     1</i>
   <i type="int" name="NPACO">   256</i>
   <i name="APACO">     16.00000000</i>
  </separator>
  <separator name="symmetry" >
   <i type="int" name="ISYM">     2</i>
   <i name="SYMPREC">      0.00001000</i>
  </separator>
  <separator name="dos" >
   <i type="logical" name="LORBIT"> F  </i>
   <v name="RWIGS">     -1.00000000</v>
   <i type="int" name="NEDOS">   301</i>
   <i name="EMIN">     10.00000000</i>
   <i name="EMAX">    -10.00000000</i>
   <i name="EFERMI">      0.00000000</i>
  </separator>
  <separator name="writing" >
   <i type="int" name="NWRITE">     2</i>
   <i type="logical" name="LWAVE"> F  </i>
   <i type="logical" name="LCHARG"> F  </i>
   <i type="logical" name="LPARD"> F  </i>
   <i type="logical" name="LVTOT"> F  </i>
   <i type="logical" name="LVHAR"> F  </i>
   <i type="logical" name="LELF"> F  </i>
   <i type="logical" name="LOPTICS"> F  </i>
   <v name="STM">      0.00000000      0.00000000      0.00000000      0.00000000      0.00000000      0.00000000      0.00000000</v>
  </separator>
  <separator name="performance" >
   <i type="int" name="NPAR">     4</i>
   <i type="int" name="NSIM">     4</i>
   <i type="int" name="NBLK">    -1</i>
   <i type="logical" name="LPLANE"> T  </i>
   <i type="logical" name="LSCALAPACK"> F  </i>
   <i type="logical" name="LSCAAWARE"> F  </i>
   <i type="logical" name="LSCALU"> F  </i>
   <i type="logical" name="LASYNC"> F  </i>
   <i type="logical" name="LORBITALREAL"> F  </i>
  </separator>
  <separator name="miscellaneous" >
   <i type="int" name="IDIOT">     3</i>
   <i type="logical" name="LMUSIC"> F  </i>
   <v name="POMASS">     28.08500000</v>
   <v name="DARWINR">      0.00000000</v>
   <v name="DARWINV">      1.00000000</v>
   <i type="logical" name="LCORR"> T  </i>
  </separator>
  <i type="logical" name="GGA_COMPAT"> T  </i>
  <i type="logical" name="LBERRY"> F  </i>
  <i type="int" name="ICORELEVEL">     0</i>
  <i type="logical" name="LDAU"> F  </i>
  <i type="int" name="I_CONSTRAINED_M">     0</i>
  <separator name="electronic exchange-correlation" >
   <i type="string" name="GGA">BO</i>
   <i type="int" name="VOSKOWN">     0</i>
   <i type="logical" name="LHFCALC"> F  </i>
   <i type="string" name="PRECFOCK"></i>
   <i type="logical" name="LSYMGRAD"> F  </i>
   <i type="logical" name="LHFONE"> F  </i>
   <i type="logical" name="LRHFCALC"> F  </i>
   <i type="logical" name="LTHOMAS"> F  </i>
   <i type="logical" name="LMODELHF"> F  </i>
   <i name="ENCUT4O">     -1.00000000</i>
   <i type="int" name="EXXOEP">     0</i>
   <i type="int" name="FOURORBIT">     0</i>
   <i name="AEXX">      0.00000000</i>
   <i name="HFALPHA">      0.00000000</i>
   <i name="MCALPHA">      0.00000000</i>
   <i name="ALDAX">      1.00000000</i>
   <i name="AGGAX">      1.00000000</i>
   <i name="ALDAC">      1.00000000</i>
   <i name="AGGAC">      0.00000000</i>
   <i type="int" name="NKREDX">     1</i>
   <i type="int" name="NKREDY">     1</i>
   <i type="int" name="NKREDZ">     1</i>
   <i type="logical" name="SHIFTRED"> F  </i>
   <i type="logical" name="ODDONLY"> F  </i>
   <i type="logical" name="EVENONLY"> F  </i>
   <i type="int" name="LMAXFOCK">     0</i>
   <i type="int" name="NMAXFOCKAE">     0</i>
   <i type="logical" name="LFOCKAEDFT"> F  </i>
   <i name="HFSCREEN">      0.00000000</i>
   <i name="HFSCREENC">      0.00000000</i>
   <i type="int" name="NBANDSGWLOW">     0</i>
  </separator>
  <separator name="vdW DFT" >
   <i type="logical" name="LUSE_VDW"> T  </i>
   <i name="Zab_VDW">     -0.84910000</i>
   <i name="PARAM1">      0.18333333</i>
   <i name="PARAM2">      0.22000000</i>
   <i name="PARAM3">      0.00000000</i>
  </separator>
  <separator name="model GW" >
   <i type="int" name="MODEL_GW">     0</i>
   <i name="MODEL_EPS0">     12.26648953</i>
   <i name="MODEL_ALPHA">      1.00000000</i>
  </separator>
  <separator name="linear response parameters" >
   <i type="logical" name="LEPSILON"> F  </i>
   <i type="logical" name="LRPA"> F  </i>
   <i type="logical" name="LNABLA"> F  </i>
   <i type="logical" name="LVEL"> F  </i>
   <i type="int" name="KINTER">     0</i>
   <i name="CSHIFT">      0.10000000</i>
   <i name="OMEGAMAX">     -1.00000000</i>
   <i name="DEG_THRESHOLD">      0.00200000</i>
  </separator>
  <separator name="orbital magnetization" >
   <i type="logical" name="NUCIND"> F  </i>
   <v name="MAGPOS">      0.00000000      0.00000000      0.00000000</v>
   <i type="logical" name="LNICSALL"> T  </i>
   <i type="logical" name="ORBITALMAG"> F  </i>
   <i type="logical" name="LMAGBLOCH"> F  </i>
   <i type="logical" name="LCHIMAG"> F  </i>
   <i type="logical" name="LGAUGE"> T  </i>
   <i type="int" name="MAGATOM">     0</i>
   <v name="MAGDIPOL">      0.00000000      0.00000000      0.00000000</v>
   <v name="AVECCONST">      0.00000000      0.00000000      0.00000000</v>
  </separator>
  <separator name="response functions" >
   <i type="logical" name="LADDER"> F  </i>
   <i type="logical" name="LFXC"> F  </i>
   <i type="logical" name="LHARTREE"> T  </i>
   <i type="int" name="IBSE">     0</i>
   <i type="logical" name="LTCTE"> F  </i>
   <i type="logical" name="LTETE"> F  </i>
   <i type="logical" name="LTRIPLET"> F  </i>
   <i type="logical" name="LFXCEPS"> F  </i>
   <i type="logical" name="L2ORDER"> F  </i>
   <i type="logical" name="LUSEW"> F  </i>
   <i name="ENCUTGW">     -2.00000000</i>
   <i name="ENCUTGWSOFT">     -2.00000000</i>
   <i name="ENCUTLF">     -1.00000000</i>
   <i type="int" name="LMAXMP2">    -1</i>
   <i name="SCISSOR">      0.00000000</i>
   <i type="int" name="NOMEGA">     0</i>
   <i type="int" name="NOMEGAR">     0</i>
   <i type="int" name="NBANDSGW">    -1</i>
   <i type="int" name="NBANDSO">    -1</i>
   <i type="int" name="NBANDSV">    -1</i>
   <i type="int" name="NELM">   400</i>
   <i type="int" name="DIM">     3</i>
   <i type="int" name="ANTIRES">     0</i>
   <i name="OMEGAMAX">    -30.00000000</i>
   <i name="OMEGATL">   -200.00000000</i>
   <i type="int" name="OMEGAGRID">     0</i>
   <i name="CSHIFT">     -0.10000000</i>
   <i type="logical" name="SELFENERGY"> F  </i>
   <i type="logical" name="LSPECTRAL"> F  </i>
   <i type="logical" name="ODDONLYGW"> F  </i>
   <i type="logical" name="EVENONLYGW"> F  </i>
   <i type="int" name="NKREDLFX">     1</i>
   <i type="int" name="NKREDLFY">     1</i>
   <i type="int" name="NKREDLFZ">     1</i>
   <i type="int" name="MAXMEM">  1800</i>
   <i type="int" name="TELESCOPE">     0</i>
  </separator>
 </parameters>
 <atominfo>
  <atoms>       2 </atoms>
  <types>       1 </types>
  <array name="atoms" >
   <dimension dim="1">ion</dimension>
   <field type="string">element</field>
   <field type="int">atomtype</field>
   <set>
    <rc><c>Si</c><c>   1</c></rc>
    <rc><c>Si</c><c>   1</c></rc>
   </set>
  </array>
  <array name="atomtypes" >
   <dimension dim="1">type</dimension>
   <field type="int">atomspertype</field>
   <field type="string">element</field>
   <field>mass</field>
   <field>valence</field>
   <field type="string">pseudopotential</field>
   <set>
    <rc><c>   2</c><c>Si</c><c>     28.08500000</c><c>      4.00000000</c><c>  PAW_PBE Si 05Jan2001                  </c></rc>
   </set>
  </array>
 </atominfo>
 <structure name="initialpos" >
  <crystal>
   <varray name="basis" >
    <v>       3.34889800       0.00000000       1.93348700 </v>
    <v>       1.11629900       3.15737200       1.93348700 </v>
    <v>       0.00000000       0.00000000       3.86697500 </v>
   </varray>
   <i name="volume">     40.88829843 </i>
   <varray name="rec_basis" >
    <v>       0.29860569      -0.10557300       0.00000000 </v>
    <v>       0.00000000       0.31671909       0.00000000 </v>
    <v>      -0.14930281      -0.10557302       0.25860007 </v>
   </varray>
  </crystal>
  <varray name="positions" >
   <v>       0.87500000       0.87500000       0.87500000 </v>
   <v>       0.12500000       0.12500000       0.12500000 </v>
  </varray>
 </structure>
 <calculation>
  <scstep>
   <time name="dav">    0.90    0.90</time>
   <time name="total">    4.16    4.37</time>
   <energy>
    <i name="alphaZ">      3.29317992 </i>
    <i name="ewald">   -226.94489173 </i>
    <i name="hartreedc">    -11.32339116 </i>
    <i name="XCdc">    -20.24410379 </i>
    <i name="pawpsdc">    189.40224250 </i>
    <i name="pawaedc">   -152.61488262 </i>
    <i name="eentropy">     -0.01271249 </i>
    <i name="bandstr">     18.30235488 </i>
    <i name="atom">    208.59416316 </i>
    <i name="e_fr_energy">      8.45195866 </i>
    <i name="e_wo_entrp">      8.46467115 </i>
    <i name="e_0_energy">      8.45831490 </i>
   </energy>
  </scstep>
  <scstep>
   <time name="dav">    1.22    1.23</time>
   <time name="total">    1.22    2.81</time>
   <energy>
    <i name="e_fr_energy">     -8.19910402 </i>
    <i name="e_wo_entrp">     -8.19910201 </i>
    <i name="e_0_energy">     -8.19910302 </i>
   </energy>
  </scstep>
  <scstep>
   <time name="dav">    1.03    1.04</time>
   <time name="total">    1.04    4.06</time>
   <energy>
    <i name="e_fr_energy">     -8.41381092 </i>
    <i name="e_wo_entrp">     -8.41380934 </i>
    <i name="e_0_energy">     -8.41381013 </i>
   </energy>
  </scstep>
  <scstep>
   <time name="dav">    1.44    1.46</time>
   <time name="total">    1.44    2.58</time>
   <energy>
    <i name="e_fr_energy">     -8.41473625 </i>
    <i name="e_wo_entrp">     -8.41473466 </i>
    <i name="e_0_energy">     -8.41473545 </i>
   </energy>
  </scstep>
  <scstep>
   <time name="dav">    0.78    0.78</time>
   <time name="total">    0.85    4.97</time>
   <energy>
    <i name="e_fr_energy">     -8.41473713 </i>
    <i name="e_wo_entrp">     -8.41473554 </i>
    <i name="e_0_energy">     -8.41473634 </i>
   </energy>
  </scstep>
  <scstep>
   <time name="dav">    1.00    1.01</time>
   <time name="total">    2.57    7.18</time>
   <energy>
    <i name="e_fr_energy">     -8.36144888 </i>
    <i name="e_wo_entrp">     -8.36144187 </i>
    <i name="e_0_energy">     -8.36144537 </i>
   </energy>
  </scstep>
  <scstep>
   <time name="dav">    1.20    1.20</time>
   <time name="total">    2.97    3.71</time>
   <energy>
    <i name="e_fr_energy">     -8.35613180 </i>
    <i name="e_wo_entrp">     -8.35608051 </i>
    <i name="e_0_energy">     -8.35610616 </i>
   </energy>
  </scstep>
  <scstep>
   <time name="dav">    0.96    0.97</time>
   <time name="total">    2.66    3.29</time>
   <energy>
    <i name="e_fr_energy">     -8.33939233 </i>
    <i name="e_wo_entrp">     -8.33935662 </i>
    <i name="e_0_energy">     -8.33937448 </i>
   </energy>
  </scstep>
  <scstep>
   <time name="dav">    1.60    1.60</time>
   <time name="total">    3.31    6.72</time>
   <energy>
    <i name="e_fr_energy">     -8.34103890 </i>
    <i name="e_wo_entrp">     -8.34099978 </i>
    <i name="e_0_energy">     -8.34101934 </i>
   </energy>
  </scstep>
  <scstep>
   <time name="dav">    1.27    1.28</time>
   <time name="total">    3.10    3.45</time>
   <energy>
    <i name="e_fr_energy">     -8.34034170 </i>
    <i name="e_wo_entrp">     -8.34030356 </i>
    <i name="e_0_energy">     -8.34032263 </i>
   </energy>
  </scstep>
  <scstep>
   <time name="dav">    1.50    1.50</time>
   <time name="total">    3.29    6.11</time>
   <energy>
    <i name="e_fr_energy">     -8.34030817 </i>
    <i name="e_wo_entrp">     -8.34026995 </i>
    <i name="e_0_energy">     -8.34028906 </i>
   </energy>
  </scstep>
  <scstep>
   <time name="dav">    1.16    1.16</time>
   <time name="total">    2.93    3.17</time>
   <energy>
    <i name="e_fr_energy">     -8.34030730 </i>
    <i name="e_wo_entrp">     -8.34026910 </i>
    <i name="e_0_energy">     -8.34028820 </i>
   </energy>
  </scstep>
  <scstep>
   <time name="dav">    0.87    0.87</time>
   <time name="total">    2.64    3.15</time>
   <energy>
    <i name="e_fr_energy">     -8.34030363 </i>
    <i name="e_wo_entrp">     -8.34026543 </i>
    <i name="e_0_energy">     -8.34028453 </i>
   </energy>
  </scstep>
  <scstep>
   <time name="dav">    0.68    0.68</time>
   <time name="total">    2.32    5.87</time>
   <energy>
    <i name="e_fr_energy">     -8.34030340 </i>
    <i name="e_wo_entrp">     -8.34026521 </i>
    <i name="e_0_energy">     -8.34028430 </i>
   </energy>
  </scstep>
  <scstep>
   <time name="dav">    0.44    0.44</time>
   <time name="total">    2.03   13.64</time>
   <energy>
    <i name="e_fr_energy">     -8.34030316 </i>
    <i name="e_wo_entrp">     -8.34026497 </i>
    <i name="e_0_energy">     -8.34028407 </i>
   </energy>
  </scstep>
  <scstep>
   <time name="dav">    0.45    0.45</time>
   <time name="total">    1.94    4.53</time>
   <energy>
    <i name="alphaZ">      3.29317992 </i>
    <i name="ewald">   -226.94489173 </i>
    <i name="hartreedc">    -15.37272412 </i>
    <i name="XCdc">    -19.57620489 </i>
    <i name="pawpsdc">    538.68827376 </i>
    <i name="pawaedc">   -502.15165236 </i>
    <i name="eentropy">     -0.00003819 </i>
    <i name="bandstr">      5.12959124 </i>
    <i name="atom">    208.59416316 </i>
    <i name="e_fr_energy">     -8.34030321 </i>
    <i name="e_wo_entrp">     -8.34026502 </i>
    <i name="e_0_energy">     -8.34028412 </i>
   </energy>
  </scstep>
  <structure>
   <crystal>
    <varray name="basis" >
     <v>       3.34889800       0.00000000       1.93348700 </v>
     <v>       1.11629900       3.15737200       1.93348700 </v>
     <v>       0.00000000       0.00000000       3.86697500 </v>
    </varray>
    <i name="volume">     40.88829843 </i>
    <varray name="rec_basis" >
     <v>       0.29860569      -0.10557300       0.00000000 </v>
     <v>       0.00000000       0.31671909       0.00000000 </v>
     <v>      -0.14930281      -0.10557302       0.25860007 </v>
    </varray>
   </crystal>
   <varray name="positions" >
    <v>       0.87500000       0.87500000       0.87500000 </v>
    <v>       0.12500000       0.12500000       0.12500000 </v>
   </varray>
  </structure>
  <varray name="forces" >
   <v>       0.00000000       0.00000000       0.00000000 </v>
   <v>       0.00000000       0.00000000       0.00000000 </v>
  </varray>
  <varray name="stress" >
   <v>      12.27397400      -0.00000130      -0.00000183 </v>
   <v>      -0.00000130      12.27397934      -0.00000130 </v>
   <v>      -0.00000183      -0.00000130      12.27397830 </v>
  </varray>
  <energy>
   <i name="e_fr_energy">     -8.34030321 </i>
   <i name="e_wo_entrp">     -8.34028412 </i>
   <i name="e_0_energy">     -0.00003819 </i>
  </energy>
  <time name="totalsc">   42.50   97.91</time>
  <eigenvalues>
   <array>
    <dimension dim="1">band</dimension>
    <dimension dim="2">kpoint</dimension>
    <dimension dim="3">spin</dimension>
    <field>eigene</field>
    <field>occ</field>
    <set>
     <set comment="spin 1">
      <set comment="kpoint 1">
       <r>   -6.1471    1.0000 </r>
       <r>    5.5936    0.9915 </r>
       <r>    5.5936    0.9915 </r>
       <r>    5.5936    0.9915 </r>
       <r>    8.2163    0.0000 </r>
       <r>    8.2163    0.0000 </r>
       <r>    8.2163    0.0000 </r>
       <r>    8.8215    0.0000 </r>
      </set>
      <set comment="kpoint 2">
       <r>   -6.0711    1.0000 </r>
       <r>    4.8595    1.0000 </r>
       <r>    5.4760    0.9994 </r>
       <r>    5.4760    0.9994 </r>
       <r>    8.2385    0.0000 </r>
       <r>    8.3915    0.0000 </r>
       <r>    8.3915    0.0000 </r>
       <r>    9.4068    0.0000 </r>
      </set>
      <set comment="kpoint 3">
       <r>   -5.8451    1.0000 </r>
       <r>    3.5053    1.0000 </r>
       <r>    5.2118    1.0000 </r>
       <r>    5.2118    1.0000 </r>
       <r>    8.0019    0.0000 </r>
       <r>    8.7777    0.0000 </r>
       <r>    8.7777    0.0000 </r>
       <r>   10.6939    0.0000 </r>
      </set>
      <set comment="kpoint 4">
       <r>   -5.4766    1.0000 </r>
       <r>    2.0966    1.0000 </r>
       <r>    4.9285    1.0000 </r>
       <r>    4.9285    1.0000 </r>
       <r>    7.6990    0.0000 </r>
       <r>    9.0984    0.0000 </r>
       <r>    9.0984    0.0000 </r>
       <r>   12.0590    0.0000 </r>
      </set>
      <set comment="kpoint 5">
       <r>   -4.9846    1.0000 </r>
       <r>    0.7814    1.0000 </r>
       <r>    4.6919    1.0000 </r>
       <r>    4.6920    1.0000 </r>
       <r>    7.4334    0.0000 </r>
       <r>    9.1757    0.0000 </r>
       <r>    9.1757    0.0000 </r>
       <r>   13.2274    0.0000 </r>
      </set>
      <set comment="kpoint 6">
       <r>   -4.4211    1.0000 </r>
       <r>   -0.3456    1.0000 </r>
       <r>    4.5278    1.0000 </r>
       <r>    4.5278    1.0000 </r>
       <r>    7.2445    0.0000 </r>
       <r>    9.0961    0.0000 </r>
       <r>    9.0961    0.0000 </r>
       <r>   13.4918    0.0000 </r>
      </set>
      <set comment="kpoint 7">
       <r>   -3.9529    1.0000 </r>
       <r>   -1.0991    1.0000 </r>
       <r>    4.4446    1.0000 </r>
       <r>    4.4446    1.0000 </r>
       <r>    7.1476    0.0000 </r>
       <r>    9.0179    0.0000 </r>
       <r>    9.0179    0.0000 </r>
       <r>   13.3898    0.0000 </r>
      </set>
      <set comment="kpoint 8">
       <r>   -6.0457    1.0000 </r>
       <r>    4.9899    1.0000 </r>
       <r>    5.2381    1.0000 </r>
       <r>    5.2381    1.0000 </r>
       <r>    7.9847    0.0000 </r>
       <r>    8.6964    0.0000 </r>
       <r>    8.6964    0.0000 </r>
       <r>    9.3889    0.0000 </r>
      </set>
      <set comment="kpoint 9">
       <r>   -5.8693    1.0000 </r>
       <r>    3.9015    1.0000 </r>
       <r>    4.9186    1.0000 </r>
       <r>    5.0931    1.0000 </r>
       <r>    7.9887    0.0000 </r>
       <r>    8.7550    0.0000 </r>
       <r>    9.1690    0.0000 </r>
       <r>   10.2911    0.0000 </r>
      </set>
      <set comment="kpoint 10">
       <r>   -5.5473    1.0000 </r>
       <r>    2.5429    1.0000 </r>
       <r>    4.6253    1.0000 </r>
       <r>    4.8203    1.0000 </r>
       <r>    8.0744    0.0000 </r>
       <r>    8.7630    0.0000 </r>
       <r>    9.5638    0.0000 </r>
       <r>   11.0135    0.0000 </r>
      </set>
      <set comment="kpoint 11">
       <r>   -5.0935    1.0000 </r>
       <r>    1.2142    1.0000 </r>
       <r>    4.4080    1.0000 </r>
       <r>    4.5048    1.0000 </r>
       <r>    7.9191    0.0000 </r>
       <r>    8.9129    0.0000 </r>
       <r>    9.6791    0.0000 </r>
       <r>   11.4864    0.0000 </r>
      </set>
      <set comment="kpoint 12">
       <r>   -4.5440    1.0000 </r>
       <r>    0.0262    1.0000 </r>
       <r>    4.2249    1.0000 </r>
       <r>    4.2859    1.0000 </r>
       <r>    7.7363    0.0000 </r>
       <r>    8.9279    0.0000 </r>
       <r>    9.5575    0.0000 </r>
       <r>   12.3277    0.0000 </r>
      </set>
      <set comment="kpoint 13">
       <r>   -4.0107    1.0000 </r>
       <r>   -0.8793    1.0000 </r>
       <r>    4.0135    1.0000 </r>
       <r>    4.2633    1.0000 </r>
       <r>    7.6193    0.0000 </r>
       <r>    8.9095    0.0000 </r>
       <r>    9.3759    0.0000 </r>
       <r>   13.2872    0.0000 </r>
      </set>
      <set comment="kpoint 14">
       <r>   -3.8158    1.0000 </r>
       <r>   -1.1676    1.0000 </r>
       <r>    3.8871    1.0000 </r>
       <r>    4.3366    1.0000 </r>
       <r>    7.5909    0.0000 </r>
       <r>    8.9638    0.0000 </r>
       <r>    9.2439    0.0000 </r>
       <r>   13.6248    0.0000 </r>
      </set>
      <set comment="kpoint 15">
       <r>   -4.1736    1.0000 </r>
       <r>   -0.6218    1.0000 </r>
       <r>    3.8566    1.0000 </r>
       <r>    4.4970    1.0000 </r>
       <r>    7.6554    0.0000 </r>
       <r>    9.1103    0.0000 </r>
       <r>    9.1903    0.0000 </r>
       <r>   13.5021    0.0000 </r>
      </set>
      <set comment="kpoint 16">
       <r>   -4.7346    1.0000 </r>
       <r>    0.4026    1.0000 </r>
       <r>    3.9299    1.0000 </r>
       <r>    4.7307    1.0000 </r>
       <r>    7.8088    0.0000 </r>
       <r>    9.1693    0.0000 </r>
       <r>    9.2943    0.0000 </r>
       <r>   12.7759    0.0000 </r>
      </set>
      <set comment="kpoint 17">
       <r>   -5.2587    1.0000 </r>
       <r>    1.6462    1.0000 </r>
       <r>    4.1123    1.0000 </r>
       <r>    5.0142    1.0000 </r>
       <r>    8.0379    0.0000 </r>
       <r>    9.0485    0.0000 </r>
       <r>    9.3501    0.0000 </r>
       <r>   11.9012    0.0000 </r>
      </set>
      <set comment="kpoint 18">
       <r>   -5.6707    1.0000 </r>
       <r>    2.9826    1.0000 </r>
       <r>    4.4106    1.0000 </r>
       <r>    5.3012    1.0000 </r>
       <r>    8.3078    0.0000 </r>
       <r>    8.7380    0.0000 </r>
       <r>    9.0587    0.0000 </r>
       <r>   11.1148    0.0000 </r>
      </set>
      <set comment="kpoint 19">
       <r>   -5.9449    1.0000 </r>
       <r>    4.2003    1.0000 </r>
       <r>    4.8782    1.0000 </r>
       <r>    5.4969    0.9989 </r>
       <r>    8.4254    0.0000 </r>
       <r>    8.5114    0.0000 </r>
       <r>    8.5393    0.0000 </r>
       <r>   10.1476    0.0000 </r>
      </set>
      <set comment="kpoint 20">
       <r>   -5.7426    1.0000 </r>
       <r>    3.7914    1.0000 </r>
       <r>    4.5660    1.0000 </r>
       <r>    4.5660    1.0000 </r>
       <r>    7.4704    0.0000 </r>
       <r>    9.7374    0.0000 </r>
       <r>    9.7374    0.0000 </r>
       <r>    9.9414    0.0000 </r>
      </set>
      <set comment="kpoint 21">
       <r>   -5.4685    1.0000 </r>
       <r>    2.8039    1.0000 </r>
       <r>    4.2537    1.0000 </r>
       <r>    4.2768    1.0000 </r>
       <r>    7.4616    0.0000 </r>
       <r>    9.5751    0.0000 </r>
       <r>   10.2066    0.0000 </r>
       <r>   10.2620    0.0000 </r>
      </set>
      <set comment="kpoint 22">
       <r>   -5.0570    1.0000 </r>
       <r>    1.5946    1.0000 </r>
       <r>    3.8992    1.0000 </r>
       <r>    4.0288    1.0000 </r>
       <r>    7.6844    0.0000 </r>
       <r>    9.5944    0.0000 </r>
       <r>   10.1329    0.0000 </r>
       <r>   10.5046    0.0000 </r>
      </set>
      <set comment="kpoint 23">
       <r>   -4.5333    1.0000 </r>
       <r>    0.4231    1.0000 </r>
       <r>    3.5083    1.0000 </r>
       <r>    3.9110    1.0000 </r>
       <r>    7.7487    0.0000 </r>
       <r>    9.6680    0.0000 </r>
       <r>   10.4233    0.0000 </r>
       <r>   10.5508    0.0000 </r>
      </set>
      <set comment="kpoint 24">
       <r>   -3.9713    1.0000 </r>
       <r>   -0.5631    1.0000 </r>
       <r>    3.1789    1.0000 </r>
       <r>    3.9060    1.0000 </r>
       <r>    7.7420    0.0000 </r>
       <r>    9.5471    0.0000 </r>
       <r>   10.2000    0.0000 </r>
       <r>   11.6500    0.0000 </r>
      </set>
      <set comment="kpoint 25">
       <r>   -3.6135    1.0000 </r>
       <r>   -1.0915    1.0000 </r>
       <r>    2.9446    1.0000 </r>
       <r>    4.0111    1.0000 </r>
       <r>    7.8006    0.0000 </r>
       <r>    9.4810    0.0000 </r>
       <r>    9.9816    0.0000 </r>
       <r>   12.9895    0.0000 </r>
      </set>
      <set comment="kpoint 26">
       <r>   -3.8166    1.0000 </r>
       <r>   -0.7965    1.0000 </r>
       <r>    2.8256    1.0000 </r>
       <r>    4.2161    1.0000 </r>
       <r>    7.9580    0.0000 </r>
       <r>    9.5081    0.0000 </r>
       <r>    9.8206    0.0000 </r>
       <r>   13.6184    0.0000 </r>
      </set>
      <set comment="kpoint 27">
       <r>   -4.3531    1.0000 </r>
       <r>    0.0848    1.0000 </r>
       <r>    2.8416    1.0000 </r>
       <r>    4.5016    1.0000 </r>
       <r>    8.1974    0.0000 </r>
       <r>    9.6086    0.0000 </r>
       <r>    9.6868    0.0000 </r>
       <r>   12.4824    0.0000 </r>
      </set>
      <set comment="kpoint 28">
       <r>   -4.9007    1.0000 </r>
       <r>    1.1861    1.0000 </r>
       <r>    3.0297    1.0000 </r>
       <r>    4.8317    1.0000 </r>
       <r>    8.4714    0.0000 </r>
       <r>    9.4516    0.0000 </r>
       <r>    9.6323    0.0000 </r>
       <r>   11.5505    0.0000 </r>
      </set>
      <set comment="kpoint 29">
       <r>   -5.3515    1.0000 </r>
       <r>    2.2460    1.0000 </r>
       <r>    3.5080    1.0000 </r>
       <r>    5.1379    1.0000 </r>
       <r>    8.6580    0.0000 </r>
       <r>    9.0508    0.0000 </r>
       <r>    9.2778    0.0000 </r>
       <r>   11.2204    0.0000 </r>
      </set>
      <set comment="kpoint 30">
       <r>   -5.2422    1.0000 </r>
       <r>    2.4586    1.0000 </r>
       <r>    3.9189    1.0000 </r>
       <r>    3.9189    1.0000 </r>
       <r>    6.9345    0.0000 </r>
       <r>    9.0827    0.0000 </r>
       <r>   10.9860    0.0000 </r>
       <r>   10.9860    0.0000 </r>
      </set>
      <set comment="kpoint 31">
       <r>   -4.8751    1.0000 </r>
       <r>    1.6147    1.0000 </r>
       <r>    3.5267    1.0000 </r>
       <r>    3.6724    1.0000 </r>
       <r>    6.9755    0.0000 </r>
       <r>    8.7142    0.0000 </r>
       <r>   11.2569    0.0000 </r>
       <r>   11.4685    0.0000 </r>
      </set>
      <set comment="kpoint 32">
       <r>   -4.3850    1.0000 </r>
       <r>    0.6320    1.0000 </r>
       <r>    2.9966    1.0000 </r>
       <r>    3.5369    1.0000 </r>
       <r>    7.2027    0.0000 </r>
       <r>    8.9625    0.0000 </r>
       <r>   11.1382    0.0000 </r>
       <r>   11.5320    0.0000 </r>
      </set>
      <set comment="kpoint 33">
       <r>   -3.8203    1.0000 </r>
       <r>   -0.3062    1.0000 </r>
       <r>    2.5045    1.0000 </r>
       <r>    3.5205    1.0000 </r>
       <r>    7.2844    0.0000 </r>
       <r>    9.8879    0.0000 </r>
       <r>   10.9692    0.0000 </r>
       <r>   11.3318    0.0000 </r>
      </set>
      <set comment="kpoint 34">
       <r>   -3.3484    1.0000 </r>
       <r>   -0.9692    1.0000 </r>
       <r>    2.1339    1.0000 </r>
       <r>    3.6228    1.0000 </r>
       <r>    7.3858    0.0000 </r>
       <r>   10.7373    0.0000 </r>
       <r>   11.0712    0.0000 </r>
       <r>   11.2924    0.0000 </r>
      </set>
      <set comment="kpoint 35">
       <r>   -3.3725    1.0000 </r>
       <r>   -0.9305    1.0000 </r>
       <r>    1.9215    1.0000 </r>
       <r>    3.8355    1.0000 </r>
       <r>    7.5976    0.0000 </r>
       <r>   10.6982    0.0000 </r>
       <r>   10.8307    0.0000 </r>
       <r>   12.7494    0.0000 </r>
      </set>
      <set comment="kpoint 36">
       <r>   -3.8603    1.0000 </r>
       <r>   -0.2468    1.0000 </r>
       <r>    1.9146    1.0000 </r>
       <r>    4.1395    1.0000 </r>
       <r>    7.9180    0.0000 </r>
       <r>   10.5649    0.0000 </r>
       <r>   10.6602    0.0000 </r>
       <r>   12.3387    0.0000 </r>
      </set>
      <set comment="kpoint 37">
       <r>   -4.4196    1.0000 </r>
       <r>    0.5693    1.0000 </r>
       <r>    2.2331    1.0000 </r>
       <r>    4.4967    1.0000 </r>
       <r>    8.2839    0.0000 </r>
       <r>   10.0845    0.0000 </r>
       <r>   10.3667    0.0000 </r>
       <r>   11.5120    0.0000 </r>
      </set>
      <set comment="kpoint 38">
       <r>   -4.5520    1.0000 </r>
       <r>    1.1038    1.0000 </r>
       <r>    3.3989    1.0000 </r>
       <r>    3.3989    1.0000 </r>
       <r>    6.5214    0.0000 </r>
       <r>    8.0023    0.0000 </r>
       <r>   12.3312    0.0000 </r>
       <r>   12.3312    0.0000 </r>
      </set>
      <set comment="kpoint 39">
       <r>   -4.0996    1.0000 </r>
       <r>    0.3660    1.0000 </r>
       <r>    2.9780    1.0000 </r>
       <r>    3.2357    1.0000 </r>
       <r>    6.6347    0.0000 </r>
       <r>    7.7808    0.0000 </r>
       <r>   12.6315    0.0000 </r>
       <r>   12.7350    0.0000 </r>
      </set>
      <set comment="kpoint 40">
       <r>   -3.5495    1.0000 </r>
       <r>   -0.3994    1.0000 </r>
       <r>    2.3433    1.0000 </r>
       <r>    3.1938    1.0000 </r>
       <r>    6.8305    0.0000 </r>
       <r>    8.3340    0.0000 </r>
       <r>   12.5392    0.0000 </r>
       <r>   12.6577    0.0000 </r>
      </set>
      <set comment="kpoint 41">
       <r>   -3.0112    1.0000 </r>
       <r>   -1.0440    1.0000 </r>
       <r>    1.7801    1.0000 </r>
       <r>    3.2751    1.0000 </r>
       <r>    6.9490    0.0000 </r>
       <r>    9.5038    0.0000 </r>
       <r>   12.3837    0.0000 </r>
       <r>   12.3944    0.0000 </r>
      </set>
      <set comment="kpoint 42">
       <r>   -2.8749    1.0000 </r>
       <r>   -1.1836    1.0000 </r>
       <r>    1.4351    1.0000 </r>
       <r>    3.4736    1.0000 </r>
       <r>    7.1652    0.0000 </r>
       <r>   10.9279    0.0000 </r>
       <r>   12.0691    0.0000 </r>
       <r>   12.2811    0.0000 </r>
      </set>
      <set comment="kpoint 43">
       <r>   -3.3071    1.0000 </r>
       <r>   -0.7220    1.0000 </r>
       <r>    1.4297    1.0000 </r>
       <r>    3.7732    1.0000 </r>
       <r>    7.5045    0.0000 </r>
       <r>   11.5075    0.0000 </r>
       <r>   11.7168    0.0000 </r>
       <r>   12.5101    0.0000 </r>
      </set>
      <set comment="kpoint 44">
       <r>   -3.6842    1.0000 </r>
       <r>   -0.2268    1.0000 </r>
       <r>    3.0409    1.0000 </r>
       <r>    3.0409    1.0000 </r>
       <r>    6.3013    0.0044 </r>
       <r>    7.1519    0.0000 </r>
       <r>   13.7353    0.0000 </r>
       <r>   13.7353    0.0000 </r>
      </set>
      <set comment="kpoint 45">
       <r>   -3.1583    1.0000 </r>
       <r>   -0.8831    1.0000 </r>
       <r>    2.6500    1.0000 </r>
       <r>    2.9671    1.0000 </r>
       <r>    6.4790    0.0001 </r>
       <r>    7.1398    0.0000 </r>
       <r>   14.0534    0.0000 </r>
       <r>   14.0635    0.0000 </r>
      </set>
      <set comment="kpoint 46">
       <r>   -2.5906    1.0000 </r>
       <r>   -1.4711    1.0000 </r>
       <r>    2.0166    1.0000 </r>
       <r>    3.0185    1.0000 </r>
       <r>    6.6299    0.0000 </r>
       <r>    8.0218    0.0000 </r>
       <r>   13.8526    0.0000 </r>
       <r>   13.9934    0.0000 </r>
      </set>
      <set comment="kpoint 47">
       <r>   -2.4243    1.0000 </r>
       <r>   -1.5949    1.0000 </r>
       <r>    1.5201    1.0000 </r>
       <r>    3.1916    1.0000 </r>
       <r>    6.8308    0.0000 </r>
       <r>    9.3784    0.0000 </r>
       <r>   13.2674    0.0000 </r>
       <r>   13.7684    0.0000 </r>
      </set>
      <set comment="kpoint 48">
       <r>   -2.6562    1.0000 </r>
       <r>   -1.4929    1.0000 </r>
       <r>    2.8591    1.0000 </r>
       <r>    2.8591    1.0000 </r>
       <r>    6.3148    0.0033 </r>
       <r>    6.5910    0.0000 </r>
       <r>   15.1439    0.0000 </r>
       <r>   15.1439    0.0000 </r>
      </set>
      <set comment="kpoint 49">
       <r>   -2.1137    1.0000 </r>
       <r>   -2.0345    1.0000 </r>
       <r>    2.5411    1.0000 </r>
       <r>    2.8766    1.0000 </r>
       <r>    6.4653    0.0001 </r>
       <r>    6.8850    0.0000 </r>
       <r>   15.1204    0.0000 </r>
       <r>   15.3013    0.0000 </r>
      </set>
      <set comment="kpoint 50">
       <r>   -5.6443    1.0000 </r>
       <r>    3.1632    1.0000 </r>
       <r>    4.1982    1.0000 </r>
       <r>    5.0023    1.0000 </r>
       <r>    7.9956    0.0000 </r>
       <r>    9.0478    0.0000 </r>
       <r>    9.5709    0.0000 </r>
       <r>   10.5753    0.0000 </r>
      </set>
      <set comment="kpoint 51">
       <r>   -5.2774    1.0000 </r>
       <r>    2.0268    1.0000 </r>
       <r>    3.7077    1.0000 </r>
       <r>    4.7732    1.0000 </r>
       <r>    8.2287    0.0000 </r>
       <r>    9.0393    0.0000 </r>
       <r>    9.9827    0.0000 </r>
       <r>   10.6122    0.0000 </r>
      </set>
      <set comment="kpoint 52">
       <r>   -4.7869    1.0000 </r>
       <r>    0.8125    1.0000 </r>
       <r>    3.4338    1.0000 </r>
       <r>    4.4795    1.0000 </r>
       <r>    8.2558    0.0000 </r>
       <r>    9.0253    0.0000 </r>
       <r>   10.0911    0.0000 </r>
       <r>   11.0504    0.0000 </r>
      </set>
      <set comment="kpoint 53">
       <r>   -4.2235    1.0000 </r>
       <r>   -0.2714    1.0000 </r>
       <r>    3.2847    1.0000 </r>
       <r>    4.2298    1.0000 </r>
       <r>    8.1667    0.0000 </r>
       <r>    8.9126    0.0000 </r>
       <r>   10.0229    0.0000 </r>
       <r>   12.0154    0.0000 </r>
      </set>
      <set comment="kpoint 54">
       <r>   -3.7519    1.0000 </r>
       <r>   -1.0112    1.0000 </r>
       <r>    3.2223    1.0000 </r>
       <r>    4.0870    1.0000 </r>
       <r>    8.1071    0.0000 </r>
       <r>    8.8135    0.0000 </r>
       <r>    9.9490    0.0000 </r>
       <r>   13.2293    0.0000 </r>
      </set>
      <set comment="kpoint 55">
       <r>   -5.1485    1.0000 </r>
       <r>    2.0660    1.0000 </r>
       <r>    3.5494    1.0000 </r>
       <r>    4.1939    1.0000 </r>
       <r>    7.4841    0.0000 </r>
       <r>    9.3596    0.0000 </r>
       <r>   10.2702    0.0000 </r>
       <r>   10.8727    0.0000 </r>
      </set>
      <set comment="kpoint 56">
       <r>   -4.6973    1.0000 </r>
       <r>    1.0801    1.0000 </r>
       <r>    3.0577    1.0000 </r>
       <r>    3.9449    1.0000 </r>
       <r>    7.7786    0.0000 </r>
       <r>    9.4574    0.0000 </r>
       <r>   10.0605    0.0000 </r>
       <r>   11.2546    0.0000 </r>
      </set>
      <set comment="kpoint 57">
       <r>   -4.1491    1.0000 </r>
       <r>    0.0566    1.0000 </r>
       <r>    2.7291    1.0000 </r>
       <r>    3.7183    1.0000 </r>
       <r>    7.9093    0.0000 </r>
       <r>    9.7694    0.0000 </r>
       <r>   10.2363    0.0000 </r>
       <r>   11.2793    0.0000 </r>
      </set>
      <set comment="kpoint 58">
       <r>   -3.6118    1.0000 </r>
       <r>   -0.7777    1.0000 </r>
       <r>    2.4922    1.0000 </r>
       <r>    3.6286    1.0000 </r>
       <r>    7.9823    0.0000 </r>
       <r>    9.5053    0.0000 </r>
       <r>   11.1763    0.0000 </r>
       <r>   11.4635    0.0000 </r>
      </set>
      <set comment="kpoint 59">
       <r>   -3.4176    1.0000 </r>
       <r>   -1.0443    1.0000 </r>
       <r>    2.3402    1.0000 </r>
       <r>    3.6996    1.0000 </r>
       <r>    8.1344    0.0000 </r>
       <r>    9.3131    0.0000 </r>
       <r>   11.0914    0.0000 </r>
       <r>   12.8776    0.0000 </r>
      </set>
      <set comment="kpoint 60">
       <r>   -3.7888    1.0000 </r>
       <r>   -0.5148    1.0000 </r>
       <r>    2.3033    1.0000 </r>
       <r>    3.9091    1.0000 </r>
       <r>    8.3848    0.0000 </r>
       <r>    9.2015    0.0000 </r>
       <r>   11.0321    0.0000 </r>
       <r>   11.8717    0.0000 </r>
      </set>
      <set comment="kpoint 61">
       <r>   -4.3514    1.0000 </r>
       <r>    0.3992    1.0000 </r>
       <r>    2.4368    1.0000 </r>
       <r>    4.2146    1.0000 </r>
       <r>    8.6929    0.0000 </r>
       <r>    9.0950    0.0000 </r>
       <r>   10.7223    0.0000 </r>
       <r>   11.0247    0.0000 </r>
      </set>
      <set comment="kpoint 62">
       <r>   -4.8708    1.0000 </r>
       <r>    1.3321    1.0000 </r>
       <r>    2.8616    1.0000 </r>
       <r>    4.5457    1.0000 </r>
       <r>    8.7055    0.0000 </r>
       <r>    8.9919    0.0000 </r>
       <r>   10.3724    0.0000 </r>
       <r>   10.5873    0.0000 </r>
      </set>
      <set comment="kpoint 63">
       <r>   -4.4664    1.0000 </r>
       <r>    0.9077    1.0000 </r>
       <r>    3.0394    1.0000 </r>
       <r>    3.4667    1.0000 </r>
       <r>    7.0796    0.0000 </r>
       <r>    8.3864    0.0000 </r>
       <r>   11.3523    0.0000 </r>
       <r>   12.2724    0.0000 </r>
      </set>
      <set comment="kpoint 64">
       <r>   -3.9451    1.0000 </r>
       <r>    0.0968    1.0000 </r>
       <r>    2.5191    1.0000 </r>
       <r>    3.2479    1.0000 </r>
       <r>    7.3946    0.0000 </r>
       <r>    8.6844    0.0000 </r>
       <r>   11.1161    0.0000 </r>
       <r>   12.6349    0.0000 </r>
      </set>
      <set comment="kpoint 65">
       <r>   -3.3802    1.0000 </r>
       <r>   -0.6762    1.0000 </r>
       <r>    2.0488    1.0000 </r>
       <r>    3.1816    1.0000 </r>
       <r>    7.5275    0.0000 </r>
       <r>    9.6980    0.0000 </r>
       <r>   10.8463    0.0000 </r>
       <r>   12.6112    0.0000 </r>
      </set>
      <set comment="kpoint 66">
       <r>   -3.0251    1.0000 </r>
       <r>   -1.1089    1.0000 </r>
       <r>    1.7176    1.0000 </r>
       <r>    3.2789    1.0000 </r>
       <r>    7.6945    0.0000 </r>
       <r>   10.4793    0.0000 </r>
       <r>   11.1953    0.0000 </r>
       <r>   12.4819    0.0000 </r>
      </set>
      <set comment="kpoint 67">
       <r>   -3.2701    1.0000 </r>
       <r>   -0.8077    1.0000 </r>
       <r>    1.5953    1.0000 </r>
       <r>    3.5134    1.0000 </r>
       <r>    7.9738    0.0000 </r>
       <r>   10.3118    0.0000 </r>
       <r>   11.8108    0.0000 </r>
       <r>   12.2917    0.0000 </r>
      </set>
      <set comment="kpoint 68">
       <r>   -3.8162    1.0000 </r>
       <r>   -0.1543    1.0000 </r>
       <r>    1.7905    1.0000 </r>
       <r>    3.8476    1.0000 </r>
       <r>    8.3474    0.0000 </r>
       <r>    9.9044    0.0000 </r>
       <r>   10.8949    0.0000 </r>
       <r>   11.8869    0.0000 </r>
      </set>
      <set comment="kpoint 69">
       <r>   -3.6121    1.0000 </r>
       <r>   -0.2942    1.0000 </r>
       <r>    2.7070    1.0000 </r>
       <r>    2.9431    1.0000 </r>
       <r>    6.8525    0.0000 </r>
       <r>    7.5944    0.0000 </r>
       <r>   12.5890    0.0000 </r>
       <r>   13.7218    0.0000 </r>
      </set>
      <set comment="kpoint 70">
       <r>   -3.0459    1.0000 </r>
       <r>   -0.9475    1.0000 </r>
       <r>    2.1497    1.0000 </r>
       <r>    2.8354    1.0000 </r>
       <r>    7.1501    0.0000 </r>
       <r>    8.1918    0.0000 </r>
       <r>   12.3223    0.0000 </r>
       <r>   14.0585    0.0000 </r>
      </set>
      <set comment="kpoint 71">
       <r>   -2.5828    1.0000 </r>
       <r>   -1.4157    1.0000 </r>
       <r>    1.6201    1.0000 </r>
       <r>    2.9322    1.0000 </r>
       <r>    7.3162    0.0000 </r>
       <r>    9.4484    0.0000 </r>
       <r>   12.0405    0.0000 </r>
       <r>   13.4155    0.0000 </r>
      </set>
      <set comment="kpoint 72">
       <r>   -2.7479    1.0000 </r>
       <r>   -1.2372    1.0000 </r>
       <r>    1.3766    1.0000 </r>
       <r>    3.1686    1.0000 </r>
       <r>    7.5888    0.0000 </r>
       <r>   10.8742    0.0000 </r>
       <r>   11.6970    0.0000 </r>
       <r>   12.1319    0.0000 </r>
      </set>
      <set comment="kpoint 73">
       <r>   -2.6075    1.0000 </r>
       <r>   -1.4858    1.0000 </r>
       <r>    2.5717    1.0000 </r>
       <r>    2.6466    1.0000 </r>
       <r>    6.8438    0.0000 </r>
       <r>    7.0831    0.0000 </r>
       <r>   13.9115    0.0000 </r>
       <r>   15.0042    0.0000 </r>
      </set>
      <set comment="kpoint 74">
       <r>   -2.1527    1.0000 </r>
       <r>   -1.8938    1.0000 </r>
       <r>    2.0182    1.0000 </r>
       <r>    2.7039    1.0000 </r>
       <r>    7.0669    0.0000 </r>
       <r>    8.0270    0.0000 </r>
       <r>   13.5462    0.0000 </r>
       <r>   13.7491    0.0000 </r>
      </set>
      <set comment="kpoint 75">
       <r>   -4.2149    1.0000 </r>
       <r>    0.4272    1.0000 </r>
       <r>    2.3748    1.0000 </r>
       <r>    3.6501    1.0000 </r>
       <r>    8.3381    0.0000 </r>
       <r>    9.4183    0.0000 </r>
       <r>    9.7763    0.0000 </r>
       <r>   12.1100    0.0000 </r>
      </set>
      <set comment="kpoint 76">
       <r>   -3.6541    1.0000 </r>
       <r>   -0.3443    1.0000 </r>
       <r>    2.0024    1.0000 </r>
       <r>    3.3347    1.0000 </r>
       <r>    8.7001    0.0000 </r>
       <r>    9.3973    0.0000 </r>
       <r>   10.1397    0.0000 </r>
       <r>   12.5107    0.0000 </r>
      </set>
      <set comment="kpoint 77">
       <r>   -3.1679    1.0000 </r>
       <r>   -0.9750    1.0000 </r>
       <r>    1.8576    1.0000 </r>
       <r>    3.1447    1.0000 </r>
       <r>    8.8585    0.0000 </r>
       <r>    9.0996    0.0000 </r>
       <r>   11.4062    0.0000 </r>
       <r>   12.5819    0.0000 </r>
      </set>
      <set comment="kpoint 78">
       <r>   -3.4057    1.0000 </r>
       <r>   -0.5082    1.0000 </r>
       <r>    2.0958    1.0000 </r>
       <r>    2.8426    1.0000 </r>
       <r>    8.1184    0.0000 </r>
       <r>    8.7195    0.0000 </r>
       <r>   10.7939    0.0000 </r>
       <r>   13.6799    0.0000 </r>
      </set>
      <set comment="kpoint 79">
       <r>   -2.8572    1.0000 </r>
       <r>   -1.0959    1.0000 </r>
       <r>    1.7573    1.0000 </r>
       <r>    2.6223    1.0000 </r>
       <r>    8.4547    0.0000 </r>
       <r>    9.6388    0.0000 </r>
       <r>   10.5100    0.0000 </r>
       <r>   13.1122    0.0000 </r>
      </set>
      <set comment="kpoint 80">
       <r>   -2.6715    1.0000 </r>
       <r>   -1.2839    1.0000 </r>
       <r>    1.5507    1.0000 </r>
       <r>    2.6757    1.0000 </r>
       <r>    8.6767    0.0000 </r>
       <r>   10.0898    0.0000 </r>
       <r>   11.1546    0.0000 </r>
       <r>   11.6239    0.0000 </r>
      </set>
      <set comment="kpoint 81">
       <r>   -3.0979    1.0000 </r>
       <r>   -0.8496    1.0000 </r>
       <r>    1.5970    1.0000 </r>
       <r>    2.9407    1.0000 </r>
       <r>    8.9953    0.0000 </r>
       <r>    9.7119    0.0000 </r>
       <r>   10.3381    0.0000 </r>
       <r>   12.8783    0.0000 </r>
      </set>
      <set comment="kpoint 82">
       <r>   -2.4793    1.0000 </r>
       <r>   -1.4909    1.0000 </r>
       <r>    2.0590    1.0000 </r>
       <r>    2.2997    1.0000 </r>
       <r>    8.0900    0.0000 </r>
       <r>    8.2824    0.0000 </r>
       <r>   11.9932    0.0000 </r>
       <r>   13.3458    0.0000 </r>
      </set>
      <set comment="kpoint 83">
       <r>   -2.2078    1.0000 </r>
       <r>   -1.7158    1.0000 </r>
       <r>    1.6887    1.0000 </r>
       <r>    2.3446    1.0000 </r>
       <r>    8.3687    0.0000 </r>
       <r>    9.5288    0.0000 </r>
       <r>   11.6387    0.0000 </r>
       <r>   11.7931    0.0000 </r>
      </set>
      <set comment="kpoint 84">
       <r>   -2.3239    1.0000 </r>
       <r>   -1.5632    1.0000 </r>
       <r>    1.7083    1.0000 </r>
       <r>    2.1666    1.0000 </r>
       <r>    9.6629    0.0000 </r>
       <r>    9.6679    0.0000 </r>
       <r>   10.3299    0.0000 </r>
       <r>   11.4516    0.0000 </r>
      </set>
     </set>
    </set>
   </array>
  </eigenvalues>
  <separator name="orbital magnetization" >
   <v name="MAGDIPOLOUT">      0.00000000      0.00000000      0.00000000</v>
  </separator>
  <dos>
   <i name="efermi">      5.93103552 </i>
   <total>
    <array>
     <dimension dim="1">gridpoints</dimension>
     <dimension dim="2">spin</dimension>
     <field>energy</field>
     <field>total</field>
     <field>integrated</field>
     <set>
      <set comment="spin 1">
       <r>    -8.1471     0.0000     0.0000 </r>
       <r>    -8.0623     0.0000     0.0000 </r>
       <r>    -7.9775     0.0000     0.0000 </r>
       <r>    -7.8926     0.0000     0.0000 </r>
       <r>    -7.8078     0.0000     0.0000 </r>
       <r>    -7.7230     0.0000     0.0000 </r>
       <r>    -7.6382     0.0000     0.0000 </r>
       <r>    -7.5533     0.0000     0.0000 </r>
       <r>    -7.4685     0.0000     0.0000 </r>
       <r>    -7.3837     0.0000     0.0000 </r>
       <r>    -7.2989     0.0000     0.0000 </r>
       <r>    -7.2140     0.0000     0.0000 </r>
       <r>    -7.1292     0.0000     0.0000 </r>
       <r>    -7.0444     0.0000     0.0000 </r>
       <r>    -6.9595     0.0000     0.0000 </r>
       <r>    -6.8747     0.0000     0.0000 </r>
       <r>    -6.7899     0.0000     0.0000 </r>
       <r>    -6.7051     0.0000     0.0000 </r>
       <r>    -6.6202     0.0000     0.0000 </r>
       <r>    -6.5354     0.0001     0.0000 </r>
       <r>    -6.4506     0.0006     0.0001 </r>
       <r>    -6.3657     0.0026     0.0003 </r>
       <r>    -6.2809     0.0093     0.0011 </r>
       <r>    -6.1961     0.0250     0.0032 </r>
       <r>    -6.1113     0.0528     0.0077 </r>
       <r>    -6.0264     0.0907     0.0154 </r>
       <r>    -5.9416     0.1318     0.0265 </r>
       <r>    -5.8568     0.1686     0.0408 </r>
       <r>    -5.7719     0.2007     0.0579 </r>
       <r>    -5.6871     0.2319     0.0775 </r>
       <r>    -5.6023     0.2595     0.0995 </r>
       <r>    -5.5175     0.2773     0.1231 </r>
       <r>    -5.4326     0.2925     0.1479 </r>
       <r>    -5.3478     0.3194     0.1750 </r>
       <r>    -5.2630     0.3539     0.2050 </r>
       <r>    -5.1781     0.3742     0.2367 </r>
       <r>    -5.0933     0.3744     0.2685 </r>
       <r>    -5.0085     0.3777     0.3005 </r>
       <r>    -4.9237     0.4087     0.3352 </r>
       <r>    -4.8388     0.4593     0.3742 </r>
       <r>    -4.7540     0.4919     0.4159 </r>
       <r>    -4.6692     0.4864     0.4572 </r>
       <r>    -4.5844     0.4707     0.4971 </r>
       <r>    -4.4995     0.4866     0.5384 </r>
       <r>    -4.4147     0.5396     0.5841 </r>
       <r>    -4.3299     0.6003     0.6351 </r>
       <r>    -4.2450     0.6411     0.6894 </r>
       <r>    -4.1602     0.6531     0.7448 </r>
       <r>    -4.0754     0.6510     0.8001 </r>
       <r>    -3.9906     0.6737     0.8572 </r>
       <r>    -3.9057     0.7482     0.9207 </r>
       <r>    -3.8209     0.8453     0.9924 </r>
       <r>    -3.7361     0.9002     1.0688 </r>
       <r>    -3.6512     0.8801     1.1434 </r>
       <r>    -3.5664     0.8137     1.2124 </r>
       <r>    -3.4816     0.7599     1.2769 </r>
       <r>    -3.3968     0.7460     1.3402 </r>
       <r>    -3.3119     0.7444     1.4033 </r>
       <r>    -3.2271     0.7270     1.4650 </r>
       <r>    -3.1423     0.7030     1.5246 </r>
       <r>    -3.0574     0.6765     1.5820 </r>
       <r>    -2.9726     0.6277     1.6353 </r>
       <r>    -2.8878     0.5592     1.6827 </r>
       <r>    -2.8030     0.5097     1.7259 </r>
       <r>    -2.7181     0.5057     1.7688 </r>
       <r>    -2.6333     0.5212     1.8130 </r>
       <r>    -2.5485     0.5000     1.8555 </r>
       <r>    -2.4637     0.4218     1.8912 </r>
       <r>    -2.3788     0.3268     1.9190 </r>
       <r>    -2.2940     0.2642     1.9414 </r>
       <r>    -2.2092     0.2401     1.9617 </r>
       <r>    -2.1243     0.2259     1.9809 </r>
       <r>    -2.0395     0.2000     1.9979 </r>
       <r>    -1.9547     0.1681     2.0121 </r>
       <r>    -1.8699     0.1482     2.0247 </r>
       <r>    -1.7850     0.1536     2.0377 </r>
       <r>    -1.7002     0.1953     2.0543 </r>
       <r>    -1.6154     0.2788     2.0780 </r>
       <r>    -1.5305     0.3861     2.1107 </r>
       <r>    -1.4457     0.4778     2.1512 </r>
       <r>    -1.3609     0.5414     2.1972 </r>
       <r>    -1.2761     0.6240     2.2501 </r>
       <r>    -1.1912     0.7823     2.3165 </r>
       <r>    -1.1064     0.9996     2.4012 </r>
       <r>    -1.0216     1.1804     2.5014 </r>
       <r>    -0.9367     1.2341     2.6061 </r>
       <r>    -0.8519     1.1507     2.7037 </r>
       <r>    -0.7671     0.9887     2.7875 </r>
       <r>    -0.6823     0.8178     2.8569 </r>
       <r>    -0.5974     0.6889     2.9153 </r>
       <r>    -0.5126     0.6255     2.9684 </r>
       <r>    -0.4278     0.6226     3.0212 </r>
       <r>    -0.3429     0.6433     3.0758 </r>
       <r>    -0.2581     0.6267     3.1289 </r>
       <r>    -0.1733     0.5457     3.1752 </r>
       <r>    -0.0885     0.4550     3.2138 </r>
       <r>    -0.0036     0.4211     3.2496 </r>
       <r>     0.0812     0.4257     3.2857 </r>
       <r>     0.1660     0.4091     3.3204 </r>
       <r>     0.2508     0.3808     3.3527 </r>
       <r>     0.3357     0.3911     3.3859 </r>
       <r>     0.4205     0.4208     3.4215 </r>
       <r>     0.5053     0.4026     3.4557 </r>
       <r>     0.5902     0.3322     3.4839 </r>
       <r>     0.6750     0.2692     3.5067 </r>
       <r>     0.7598     0.2498     3.5279 </r>
       <r>     0.8446     0.2569     3.5497 </r>
       <r>     0.9295     0.2644     3.5721 </r>
       <r>     1.0143     0.2736     3.5953 </r>
       <r>     1.0991     0.2944     3.6203 </r>
       <r>     1.1840     0.3209     3.6475 </r>
       <r>     1.2688     0.3510     3.6773 </r>
       <r>     1.3536     0.4125     3.7123 </r>
       <r>     1.4384     0.5460     3.7586 </r>
       <r>     1.5233     0.7567     3.8228 </r>
       <r>     1.6081     0.9770     3.9057 </r>
       <r>     1.6929     1.1028     3.9992 </r>
       <r>     1.7778     1.1017     4.0927 </r>
       <r>     1.8626     1.0565     4.1823 </r>
       <r>     1.9474     1.0677     4.2729 </r>
       <r>     2.0322     1.1297     4.3687 </r>
       <r>     2.1171     1.1530     4.4665 </r>
       <r>     2.2019     1.1071     4.5604 </r>
       <r>     2.2867     1.0598     4.6503 </r>
       <r>     2.3715     1.0670     4.7408 </r>
       <r>     2.4564     1.1142     4.8354 </r>
       <r>     2.5412     1.1668     4.9343 </r>
       <r>     2.6260     1.2112     5.0371 </r>
       <r>     2.7109     1.2555     5.1436 </r>
       <r>     2.7957     1.3197     5.2555 </r>
       <r>     2.8805     1.4081     5.3750 </r>
       <r>     2.9653     1.4920     5.5015 </r>
       <r>     3.0502     1.5478     5.6328 </r>
       <r>     3.1350     1.5834     5.7671 </r>
       <r>     3.2198     1.5879     5.9018 </r>
       <r>     3.3047     1.5216     6.0309 </r>
       <r>     3.3895     1.4074     6.1503 </r>
       <r>     3.4743     1.3300     6.2631 </r>
       <r>     3.5591     1.3162     6.3748 </r>
       <r>     3.6440     1.3183     6.4866 </r>
       <r>     3.7288     1.3115     6.5979 </r>
       <r>     3.8136     1.3174     6.7096 </r>
       <r>     3.8985     1.3346     6.8228 </r>
       <r>     3.9833     1.3224     6.9350 </r>
       <r>     4.0681     1.2816     7.0437 </r>
       <r>     4.1529     1.2595     7.1506 </r>
       <r>     4.2378     1.2464     7.2563 </r>
       <r>     4.3226     1.1836     7.3567 </r>
       <r>     4.4074     1.0714     7.4476 </r>
       <r>     4.4923     0.9514     7.5283 </r>
       <r>     4.5771     0.8298     7.5987 </r>
       <r>     4.6619     0.7123     7.6591 </r>
       <r>     4.7467     0.6334     7.7128 </r>
       <r>     4.8316     0.5972     7.7635 </r>
       <r>     4.9164     0.5635     7.8113 </r>
       <r>     5.0012     0.5032     7.8540 </r>
       <r>     5.0860     0.4225     7.8898 </r>
       <r>     5.1709     0.3410     7.9187 </r>
       <r>     5.2557     0.2710     7.9417 </r>
       <r>     5.3405     0.2138     7.9599 </r>
       <r>     5.4254     0.1675     7.9741 </r>
       <r>     5.5102     0.1280     7.9849 </r>
       <r>     5.5950     0.0897     7.9925 </r>
       <r>     5.6798     0.0527     7.9970 </r>
       <r>     5.7647     0.0242     7.9991 </r>
       <r>     5.8495     0.0085     7.9998 </r>
       <r>     5.9343     0.0027     8.0000 </r>
       <r>     6.0192     0.0028     8.0002 </r>
       <r>     6.1040     0.0086     8.0010 </r>
       <r>     6.1888     0.0239     8.0030 </r>
       <r>     6.2736     0.0531     8.0075 </r>
       <r>     6.3585     0.0988     8.0159 </r>
       <r>     6.4433     0.1567     8.0292 </r>
       <r>     6.5281     0.2146     8.0474 </r>
       <r>     6.6130     0.2617     8.0696 </r>
       <r>     6.6978     0.3053     8.0955 </r>
       <r>     6.7826     0.3663     8.1266 </r>
       <r>     6.8674     0.4501     8.1647 </r>
       <r>     6.9523     0.5431     8.2108 </r>
       <r>     7.0371     0.6365     8.2648 </r>
       <r>     7.1219     0.7187     8.3258 </r>
       <r>     7.2067     0.7665     8.3908 </r>
       <r>     7.2916     0.7827     8.4572 </r>
       <r>     7.3764     0.8092     8.5258 </r>
       <r>     7.4612     0.8803     8.6005 </r>
       <r>     7.5461     0.9919     8.6846 </r>
       <r>     7.6309     1.1120     8.7790 </r>
       <r>     7.7157     1.2064     8.8813 </r>
       <r>     7.8005     1.2736     8.9893 </r>
       <r>     7.8854     1.3552     9.1043 </r>
       <r>     7.9702     1.4766     9.2295 </r>
       <r>     8.0550     1.5949     9.3648 </r>
       <r>     8.1399     1.6474     9.5046 </r>
       <r>     8.2247     1.6148     9.6416 </r>
       <r>     8.3095     1.5048     9.7692 </r>
       <r>     8.3943     1.3301     9.8820 </r>
       <r>     8.4792     1.1459     9.9792 </r>
       <r>     8.5640     1.0685    10.0699 </r>
       <r>     8.6488     1.1685    10.1690 </r>
       <r>     8.7337     1.3608    10.2844 </r>
       <r>     8.8185     1.5111    10.4126 </r>
       <r>     8.9033     1.6082    10.5490 </r>
       <r>     8.9881     1.7024    10.6934 </r>
       <r>     9.0730     1.7556    10.8424 </r>
       <r>     9.1578     1.6987    10.9865 </r>
       <r>     9.2426     1.5825    11.1207 </r>
       <r>     9.3275     1.5458    11.2518 </r>
       <r>     9.4123     1.6459    11.3914 </r>
       <r>     9.4971     1.7946    11.5437 </r>
       <r>     9.5819     1.8562    11.7011 </r>
       <r>     9.6668     1.7574    11.8502 </r>
       <r>     9.7516     1.5273    11.9798 </r>
       <r>     9.8364     1.2897    12.0892 </r>
       <r>     9.9212     1.1805    12.1893 </r>
       <r>    10.0061     1.2233    12.2931 </r>
       <r>    10.0909     1.3150    12.4046 </r>
       <r>    10.1757     1.3470    12.5189 </r>
       <r>    10.2606     1.2964    12.6289 </r>
       <r>    10.3454     1.2049    12.7311 </r>
       <r>    10.4302     1.1261    12.8266 </r>
       <r>    10.5150     1.0872    12.9188 </r>
       <r>    10.5999     1.0696    13.0096 </r>
       <r>    10.6847     1.0465    13.0983 </r>
       <r>    10.7695     1.0341    13.1861 </r>
       <r>    10.8544     1.0785    13.2775 </r>
       <r>    10.9392     1.2074    13.3800 </r>
       <r>    11.0240     1.3940    13.4982 </r>
       <r>    11.1088     1.5472    13.6295 </r>
       <r>    11.1937     1.5701    13.7627 </r>
       <r>    11.2785     1.4534    13.8860 </r>
       <r>    11.3633     1.2798    13.9945 </r>
       <r>    11.4482     1.1295    14.0903 </r>
       <r>    11.5330     1.0127    14.1762 </r>
       <r>    11.6178     0.9061    14.2531 </r>
       <r>    11.7026     0.8145    14.3222 </r>
       <r>    11.7875     0.7655    14.3871 </r>
       <r>    11.8723     0.7639    14.4519 </r>
       <r>    11.9571     0.7807    14.5181 </r>
       <r>    12.0419     0.7826    14.5845 </r>
       <r>    12.1268     0.7712    14.6500 </r>
       <r>    12.2116     0.7921    14.7171 </r>
       <r>    12.2964     0.8766    14.7915 </r>
       <r>    12.3813     0.9932    14.8758 </r>
       <r>    12.4661     1.0920    14.9684 </r>
       <r>    12.5509     1.1394    15.0650 </r>
       <r>    12.6357     1.0960    15.1580 </r>
       <r>    12.7206     0.9464    15.2383 </r>
       <r>    12.8054     0.7437    15.3014 </r>
       <r>    12.8902     0.5635    15.3492 </r>
       <r>    12.9751     0.4431    15.3868 </r>
       <r>    13.0599     0.3905    15.4199 </r>
       <r>    13.1447     0.4003    15.4538 </r>
       <r>    13.2295     0.4455    15.4916 </r>
       <r>    13.3144     0.4873    15.5330 </r>
       <r>    13.3992     0.5050    15.5758 </r>
       <r>    13.4840     0.5065    15.6188 </r>
       <r>    13.5689     0.5084    15.6619 </r>
       <r>    13.6537     0.5120    15.7053 </r>
       <r>    13.7385     0.5015    15.7479 </r>
       <r>    13.8233     0.4726    15.7880 </r>
       <r>    13.9082     0.4465    15.8258 </r>
       <r>    13.9930     0.4318    15.8625 </r>
       <r>    14.0778     0.3944    15.8959 </r>
       <r>    14.1627     0.3009    15.9214 </r>
       <r>    14.2475     0.1763    15.9364 </r>
       <r>    14.3323     0.0761    15.9428 </r>
       <r>    14.4171     0.0237    15.9449 </r>
       <r>    14.5020     0.0053    15.9453 </r>
       <r>    14.5868     0.0012    15.9454 </r>
       <r>    14.6716     0.0022    15.9456 </r>
       <r>    14.7564     0.0088    15.9463 </r>
       <r>    14.8413     0.0260    15.9486 </r>
       <r>    14.9261     0.0568    15.9534 </r>
       <r>    15.0109     0.0927    15.9612 </r>
       <r>    15.0958     0.1162    15.9711 </r>
       <r>    15.1806     0.1157    15.9809 </r>
       <r>    15.2654     0.0948    15.9889 </r>
       <r>    15.3502     0.0656    15.9945 </r>
       <r>    15.4351     0.0381    15.9977 </r>
       <r>    15.5199     0.0180    15.9993 </r>
       <r>    15.6047     0.0065    15.9998 </r>
       <r>    15.6896     0.0018    16.0000 </r>
       <r>    15.7744     0.0003    16.0000 </r>
       <r>    15.8592     0.0000    16.0000 </r>
       <r>    15.9440     0.0000    16.0000 </r>
       <r>    16.0289     0.0000    16.0000 </r>
       <r>    16.1137     0.0000    16.0000 </r>
       <r>    16.1985     0.0000    16.0000 </r>
       <r>    16.2834     0.0000    16.0000 </r>
       <r>    16.3682     0.0000    16.0000 </r>
       <r>    16.4530     0.0000    16.0000 </r>
       <r>    16.5378     0.0000    16.0000 </r>
       <r>    16.6227     0.0000    16.0000 </r>
       <r>    16.7075     0.0000    16.0000 </r>
       <r>    16.7923     0.0000    16.0000 </r>
       <r>    16.8772     0.0000    16.0000 </r>
       <r>    16.9620     0.0000    16.0000 </r>
       <r>    17.0468     0.0000    16.0000 </r>
       <r>    17.1316     0.0000    16.0000 </r>
       <r>    17.2165     0.0000    16.0000 </r>
       <r>    17.3013     0.0000    16.0000 </r>
      </set>
     </set>
    </array>
   </total>
  </dos>
 </calculation>
 <structure name="finalpos" >
  <crystal>
   <varray name="basis" >
    <v>       3.34889800       0.00000000       1.93348700 </v>
    <v>       1.11629900       3.15737200       1.93348700 </v>
    <v>       0.00000000       0.00000000       3.86697500 </v>
   </varray>
   <i name="volume">     40.88829843 </i>
   <varray name="rec_basis" >
    <v>       0.29860569      -0.10557300       0.00000000 </v>
    <v>       0.00000000       0.31671909       0.00000000 </v>
    <v>      -0.14930281      -0.10557302       0.25860007 </v>
   </varray>
  </crystal>
  <varray name="positions" >
   <v>       0.87500000       0.87500000       0.87500000 </v>
   <v>       0.12500000       0.12500000       0.12500000 </v>
  </varray>
 </structure>
</modeling>
