 running on   16 total cores
 distrk:  each k-point on   16 cores,    1 groups
 distr:  one band on    4 cores,    4 groups
 using from now: INCAR     
 vasp.5.3.3 18Dez12 (build Jan 30 2013 10:57:47) complex                        
  
 POSCAR found type information on POSCAR  Si
 POSCAR found :  1 types and       2 ions

 ----------------------------------------------------------------------------- 
|                                                                             |
|  ADVICE TO THIS USER RUNNING 'VASP/VAMP'   (HEAR YOUR MASTER'S VOICE ...):  |
|                                                                             |
|      You have switched on vdW-DFT.                                          |
|      This routine was written and supplied by Jiri Klimes.                  |
|      We recommed that you carefully read and cite the following             |
|      publication                                                            |
|      J. Klimes, D.R. Bowler, A. Michelides                                  |
|        J. Phys.: Cond Matt. 22 022201 (2010)                                |
|      J. Klimes, D.R. Bowler, A. Michelides                                  |
|        Phys. Rev. B. 83, 195131 (2011)                                      |
|      and references therein.                                                |
|                                                                             |
 ----------------------------------------------------------------------------- 


 ----------------------------------------------------------------------------- 
|                                                                             |
|  ADVICE TO THIS USER RUNNING 'VASP/VAMP'   (HEAR YOUR MASTER'S VOICE ...):  |
|                                                                             |
|      You enforced a specific xc-type in the INCAR file,                     |
|      a different type was found on the POTCAR file                          |
|          I HOPE YOU KNOW, WHAT YOU ARE  DOING                               |
|                                                                             |
 ----------------------------------------------------------------------------- 

 LDA part: xc-table for Pade appr. of Perdew
 POSCAR, INCAR and KPOINTS ok, starting setup
 FFT: planning ...
 WAVECAR not read
 entering main loop
       N       E                     dE             d eps       ncg     rms          rms(c)
Total vdW correction in eV:      1.0792472
DAV:   1     0.845195865841E+01    0.84520E+01   -0.32907E+03  1344   0.833E+02
DAV:   2    -0.819910402196E+01   -0.16651E+02   -0.15988E+02  2088   0.787E+01
DAV:   3    -0.841381091758E+01   -0.21471E+00   -0.21471E+00  1728   0.116E+01
DAV:   4    -0.841473624850E+01   -0.92533E-03   -0.92533E-03  2152   0.842E-01
DAV:   5    -0.841473713311E+01   -0.88461E-06   -0.88420E-06  1832   0.234E-02    0.374E+00
Total vdW correction in eV:      1.1274161
DAV:   6    -0.836144887867E+01    0.53288E-01   -0.88842E-02  1632   0.176E+00    0.229E+00
Total vdW correction in eV:      1.2190015
DAV:   7    -0.835613179738E+01    0.53171E-02   -0.20252E-01  1752   0.263E+00    0.186E-01
Total vdW correction in eV:      1.2141553
DAV:   8    -0.833939233137E+01    0.16739E-01   -0.61748E-03  1664   0.546E-01    0.982E-02
Total vdW correction in eV:      1.2196424
DAV:   9    -0.834103889568E+01   -0.16466E-02   -0.58659E-04  1896   0.162E-01    0.728E-02
Total vdW correction in eV:      1.2197297
DAV:  10    -0.834034170454E+01    0.69719E-03   -0.38862E-05  1768   0.535E-02    0.288E-02
Total vdW correction in eV:      1.2197302
DAV:  11    -0.834030817277E+01    0.33532E-04   -0.76982E-07  1920   0.802E-03    0.294E-03
Total vdW correction in eV:      1.2197606
DAV:  12    -0.834030730067E+01    0.87209E-06   -0.72563E-08  1688   0.268E-03    0.886E-04
Total vdW correction in eV:      1.2197613
DAV:  13    -0.834030362620E+01    0.36745E-05   -0.22153E-09  1072   0.422E-04    0.567E-05
Total vdW correction in eV:      1.2197624
DAV:  14    -0.834030339888E+01    0.22731E-06   -0.24171E-10   896   0.166E-04    0.173E-05
Total vdW correction in eV:      1.2197621
DAV:  15    -0.834030316446E+01    0.23443E-06   -0.22962E-11   856   0.422E-05    0.105E-05
Total vdW correction in eV:      1.2197622
DAV:  16    -0.834030321264E+01   -0.48179E-07   -0.50545E-12   768   0.196E-05
Total vdW correction in eV:      1.2197621
Total vdW correction in eV:      1.2197621
   1 F= -.83403032E+01 E0= -.83402841E+01  d E =-.834030E+01
 curvature:   0.00 expect dE= 0.000E+00 dE for cont linesearch  0.000E+00
 trial: gam= 0.00000 g(F)=  0.431E-43 g(S)=  0.000E+00 ort = 0.000E+00 (trialstep = 0.100E+01)
 search vector abs. value=  0.100E-09
 reached required accuracy - stopping structural energy minimisation
