   2   2   1   0
  0.2072484E+02  0.3884592E-09  0.3884592E-09  0.3884592E-09  0.5000000E-15
   1.0000000000000000E-004
  CAR 
 unknown system                          
    100.41583871    -11.62605185 5000      5.38530942      1.00000000
    -11.626  0.0000E+00  0.0000E+00  0.0000E+00  0.0000E+00
    -11.604  0.0000E+00  0.0000E+00  0.0000E+00  0.0000E+00
    -11.581  0.0000E+00  0.0000E+00  0.0000E+00  0.0000E+00
    -11.559  0.0000E+00  0.0000E+00  0.0000E+00  0.0000E+00
    -11.536  0.0000E+00  0.0000E+00  0.0000E+00  0.0000E+00
    -11.514  0.0000E+00  0.0000E+00  0.0000E+00  0.0000E+00
    -11.492  0.0000E+00  0.0000E+00  0.0000E+00  0.0000E+00
    -11.469  0.0000E+00  0.0000E+00  0.0000E+00  0.0000E+00
    -11.447  0.0000E+00  0.0000E+00  0.0000E+00  0.0000E+00
    -11.424  0.0000E+00  0.0000E+00  0.0000E+00  0.0000E+00
    -11.402  0.0000E+00  0.0000E+00  0.0000E+00  0.0000E+00
    -11.380  0.0000E+00  0.0000E+00  0.0000E+00  0.0000E+00
    -11.357  0.0000E+00  0.0000E+00  0.0000E+00  0.0000E+00
    -11.335  0.0000E+00  0.0000E+00  0.0000E+00  0.0000E+00
    -11.312  0.0000E+00  0.0000E+00  0.0000E+00  0.0000E+00
    -11.290  0.0000E+00  0.0000E+00  0.0000E+00  0.0000E+00
    -11.267  0.0000E+00  0.0000E+00  0.0000E+00  0.0000E+00
    -11.245  0.0000E+00  0.0000E+00  0.0000E+00  0.0000E+00
    -11.223  0.0000E+00  0.0000E+00  0.0000E+00  0.0000E+00
    -11.200  0.0000E+00  0.0000E+00  0.0000E+00  0.0000E+00
    -11.178  0.0000E+00  0.0000E+00  0.0000E+00  0.0000E+00
    -11.155  0.0000E+00  0.0000E+00  0.0000E+00  0.0000E+00
    -11.133  0.0000E+00  0.0000E+00  0.0000E+00  0.0000E+00
    -11.111  0.0000E+00  0.0000E+00  0.0000E+00  0.0000E+00
    -11.088  0.0000E+00  0.0000E+00  0.0000E+00  0.0000E+00
    -11.066  0.0000E+00  0.0000E+00  0.0000E+00  0.0000E+00
    -11.043  0.0000E+00  0.0000E+00  0.0000E+00  0.0000E+00
    -11.021  0.0000E+00  0.0000E+00  0.0000E+00  0.0000E+00
    -10.998  0.0000E+00  0.0000E+00  0.0000E+00  0.0000E+00
    -10.976  0.0000E+00  0.0000E+00  0.0000E+00  0.0000E+00
    -10.954  0.0000E+00  0.0000E+00  0.0000E+00  0.0000E+00
    -10.931  0.0000E+00  0.0000E+00  0.0000E+00  0.0000E+00
    -10.909  0.0000E+00  0.0000E+00  0.0000E+00  0.0000E+00
    -10.886  0.0000E+00  0.0000E+00  0.0000E+00  0.0000E+00
    -10.864  0.0000E+00  0.0000E+00  0.0000E+00  0.0000E+00
    -10.842  0.0000E+00  0.0000E+00  0.0000E+00  0.0000E+00
    -10.819  0.0000E+00  0.0000E+00  0.0000E+00  0.0000E+00
    -10.797  0.0000E+00  0.0000E+00  0.0000E+00  0.0000E+00
    -10.774  0.0000E+00  0.0000E+00  0.0000E+00  0.0000E+00
    -10.752  0.0000E+00  0.0000E+00  0.0000E+00  0.0000E+00
    -10.730  0.0000E+00  0.0000E+00  0.0000E+00  0.0000E+00
    -10.707  0.0000E+00  0.0000E+00  0.0000E+00  0.0000E+00
    -10.685  0.0000E+00  0.0000E+00  0.0000E+00  0.0000E+00
    -10.662  0.0000E+00  0.0000E+00  0.0000E+00  0.0000E+00
    -10.640  0.0000E+00  0.0000E+00  0.0000E+00  0.0000E+00
    -10.617  0.0000E+00  0.0000E+00  0.0000E+00  0.0000E+00
    -10.595  0.0000E+00  0.0000E+00  0.0000E+00  0.0000E+00
    -10.573  0.0000E+00  0.0000E+00  0.0000E+00  0.0000E+00
    -10.550  0.0000E+00  0.0000E+00  0.0000E+00  0.0000E+00
    -10.528  0.0000E+00  0.0000E+00  0.0000E+00  0.0000E+00
    -10.505  0.0000E+00  0.0000E+00  0.0000E+00  0.0000E+00
    -10.483  0.0000E+00  0.0000E+00  0.0000E+00  0.0000E+00
    -10.461  0.0000E+00  0.0000E+00  0.0000E+00  0.0000E+00
    -10.438  0.0000E+00  0.0000E+00  0.0000E+00  0.0000E+00
    -10.416  0.0000E+00  0.0000E+00  0.0000E+00  0.0000E+00
    -10.393  0.0000E+00  0.0000E+00  0.0000E+00  0.0000E+00
    -10.371  0.0000E+00  0.0000E+00  0.0000E+00  0.0000E+00
    -10.349  0.0000E+00  0.0000E+00  0.0000E+00  0.0000E+00
    -10.326  0.0000E+00  0.0000E+00  0.0000E+00  0.0000E+00
    -10.304  0.0000E+00  0.0000E+00  0.0000E+00  0.0000E+00
    -10.281  0.0000E+00  0.0000E+00  0.0000E+00  0.0000E+00
    -10.259  0.0000E+00  0.0000E+00  0.0000E+00  0.0000E+00
    -10.236  0.0000E+00  0.0000E+00  0.0000E+00  0.0000E+00
    -10.214  0.0000E+00  0.0000E+00  0.0000E+00  0.0000E+00
    -10.192  0.0000E+00  0.0000E+00  0.0000E+00  0.0000E+00
    -10.169  0.0000E+00  0.0000E+00  0.0000E+00  0.0000E+00
    -10.147  0.0000E+00  0.0000E+00  0.0000E+00  0.0000E+00
    -10.124  0.0000E+00  0.0000E+00  0.0000E+00  0.0000E+00
    -10.102  0.0000E+00  0.0000E+00  0.0000E+00  0.0000E+00
    -10.080  0.0000E+00  0.0000E+00  0.0000E+00  0.0000E+00
    -10.057  0.0000E+00  0.0000E+00  0.0000E+00  0.0000E+00
    -10.035  0.0000E+00  0.0000E+00  0.0000E+00  0.0000E+00
    -10.012  0.0000E+00  0.0000E+00  0.0000E+00  0.0000E+00
     -9.990  0.0000E+00  0.0000E+00  0.0000E+00  0.0000E+00
     -9.968  0.0000E+00  0.0000E+00  0.0000E+00  0.0000E+00
     -9.945  0.0000E+00  0.0000E+00  0.0000E+00  0.0000E+00
     -9.923  0.0000E+00  0.0000E+00  0.0000E+00  0.0000E+00
     -9.900  0.0000E+00  0.0000E+00  0.0000E+00  0.0000E+00
     -9.878  0.0000E+00  0.0000E+00  0.0000E+00  0.0000E+00
     -9.855  0.0000E+00  0.0000E+00  0.0000E+00  0.0000E+00
     -9.833  0.0000E+00  0.0000E+00  0.0000E+00  0.0000E+00
     -9.811  0.0000E+00  0.0000E+00  0.0000E+00  0.0000E+00
     -9.788  0.0000E+00  0.0000E+00  0.0000E+00  0.0000E+00
     -9.766  0.0000E+00  0.0000E+00  0.0000E+00  0.0000E+00
     -9.743  0.0000E+00  0.0000E+00  0.0000E+00  0.0000E+00
     -9.721  0.0000E+00  0.0000E+00  0.0000E+00  0.0000E+00
     -9.699  0.0000E+00  0.0000E+00  0.0000E+00  0.0000E+00
     -9.676  0.0000E+00  0.0000E+00  0.0000E+00  0.0000E+00
     -9.654  0.0000E+00  0.0000E+00  0.0000E+00  0.0000E+00
     -9.631  0.0000E+00  0.0000E+00  0.0000E+00  0.0000E+00
     -9.609  0.0000E+00  0.0000E+00  0.0000E+00  0.0000E+00
     -9.586  0.0000E+00  0.0000E+00  0.0000E+00  0.0000E+00
     -9.564  0.0000E+00  0.0000E+00  0.0000E+00  0.0000E+00
     -9.542  0.0000E+00  0.0000E+00  0.0000E+00  0.0000E+00
     -9.519  0.0000E+00  0.0000E+00  0.0000E+00  0.0000E+00
     -9.497  0.0000E+00  0.0000E+00  0.0000E+00  0.0000E+00
     -9.474  0.0000E+00  0.0000E+00  0.0000E+00  0.0000E+00
     -9.452  0.0000E+00  0.0000E+00  0.0000E+00  0.0000E+00
     -9.430  0.0000E+00  0.0000E+00  0.0000E+00  0.0000E+00
     -9.407  0.0000E+00  0.0000E+00  0.0000E+00  0.0000E+00
     -9.385  0.0000E+00  0.0000E+00  0.0000E+00  0.0000E+00
     -9.362  0.0000E+00  0.0000E+00  0.0000E+00  0.0000E+00
     -9.340  0.0000E+00  0.0000E+00  0.0000E+00  0.0000E+00
     -9.318  0.0000E+00  0.0000E+00  0.0000E+00  0.0000E+00
     -9.295  0.0000E+00  0.0000E+00  0.0000E+00  0.0000E+00
     -9.273  0.0000E+00  0.0000E+00  0.0000E+00  0.0000E+00
     -9.250  0.0000E+00  0.0000E+00  0.0000E+00  0.0000E+00
     -9.228  0.0000E+00  0.0000E+00  0.0000E+00  0.0000E+00
     -9.205  0.0000E+00  0.0000E+00  0.0000E+00  0.0000E+00
     -9.183  0.0000E+00  0.0000E+00  0.0000E+00  0.0000E+00
     -9.161  0.0000E+00  0.0000E+00  0.0000E+00  0.0000E+00
     -9.138  0.0000E+00  0.0000E+00  0.0000E+00  0.0000E+00
     -9.116  0.0000E+00  0.0000E+00  0.0000E+00  0.0000E+00
     -9.093  0.0000E+00  0.0000E+00  0.0000E+00  0.0000E+00
     -9.071  0.0000E+00  0.0000E+00  0.0000E+00  0.0000E+00
     -9.049  0.0000E+00  0.0000E+00  0.0000E+00  0.0000E+00
     -9.026  0.0000E+00  0.0000E+00  0.0000E+00  0.0000E+00
     -9.004  0.0000E+00  0.0000E+00  0.0000E+00  0.0000E+00
     -8.981  0.0000E+00  0.0000E+00  0.0000E+00  0.0000E+00
     -8.959  0.0000E+00  0.0000E+00  0.0000E+00  0.0000E+00
     -8.937  0.0000E+00  0.0000E+00  0.0000E+00  0.0000E+00
     -8.914  0.0000E+00  0.0000E+00  0.0000E+00  0.0000E+00
     -8.892  0.0000E+00  0.0000E+00  0.0000E+00  0.0000E+00
     -8.869  0.0000E+00  0.0000E+00  0.0000E+00  0.0000E+00
     -8.847  0.0000E+00  0.0000E+00  0.0000E+00  0.0000E+00
     -8.824  0.0000E+00  0.0000E+00  0.0000E+00  0.0000E+00
     -8.802  0.0000E+00  0.0000E+00  0.0000E+00  0.0000E+00
     -8.780  0.0000E+00  0.0000E+00  0.0000E+00  0.0000E+00
     -8.757  0.0000E+00  0.0000E+00  0.0000E+00  0.0000E+00
     -8.735  0.0000E+00  0.0000E+00  0.0000E+00  0.0000E+00
     -8.712  0.0000E+00  0.0000E+00  0.0000E+00  0.0000E+00
     -8.690  0.0000E+00  0.0000E+00  0.0000E+00  0.0000E+00
     -8.668  0.0000E+00  0.0000E+00  0.0000E+00  0.0000E+00
     -8.645  0.0000E+00  0.0000E+00  0.0000E+00  0.0000E+00
     -8.623  0.0000E+00  0.0000E+00  0.0000E+00  0.0000E+00
     -8.600  0.0000E+00  0.0000E+00  0.0000E+00  0.0000E+00
     -8.578  0.0000E+00  0.0000E+00  0.0000E+00  0.0000E+00
     -8.555  0.0000E+00  0.0000E+00  0.0000E+00  0.0000E+00
     -8.533  0.0000E+00  0.0000E+00  0.0000E+00  0.0000E+00
     -8.511  0.0000E+00  0.0000E+00  0.0000E+00  0.0000E+00
     -8.488  0.0000E+00  0.0000E+00  0.0000E+00  0.0000E+00
     -8.466  0.0000E+00  0.0000E+00  0.0000E+00  0.0000E+00
     -8.443  0.0000E+00  0.0000E+00  0.0000E+00  0.0000E+00
     -8.421  0.0000E+00  0.0000E+00  0.0000E+00  0.0000E+00
     -8.399  0.0000E+00  0.0000E+00  0.0000E+00  0.0000E+00
     -8.376  0.0000E+00  0.0000E+00  0.0000E+00  0.0000E+00
     -8.354  0.0000E+00  0.0000E+00  0.0000E+00  0.0000E+00
     -8.331  0.0000E+00  0.0000E+00  0.0000E+00  0.0000E+00
     -8.309  0.0000E+00  0.0000E+00  0.0000E+00  0.0000E+00
     -8.287  0.0000E+00  0.0000E+00  0.0000E+00  0.0000E+00
     -8.264  0.0000E+00  0.0000E+00  0.0000E+00  0.0000E+00
     -8.242  0.0000E+00  0.0000E+00  0.0000E+00  0.0000E+00
     -8.219  0.0000E+00  0.0000E+00  0.0000E+00  0.0000E+00
     -8.197  0.0000E+00  0.0000E+00  0.0000E+00  0.0000E+00
     -8.174  0.0000E+00  0.0000E+00  0.0000E+00  0.0000E+00
     -8.152  0.0000E+00  0.0000E+00  0.0000E+00  0.0000E+00
     -8.130  0.0000E+00  0.0000E+00  0.0000E+00  0.0000E+00
     -8.107  0.0000E+00  0.0000E+00  0.0000E+00  0.0000E+00
     -8.085  0.0000E+00  0.0000E+00  0.0000E+00  0.0000E+00
     -8.062  0.0000E+00  0.0000E+00  0.0000E+00  0.0000E+00
     -8.040  0.0000E+00  0.0000E+00  0.0000E+00  0.0000E+00
     -8.018  0.0000E+00  0.0000E+00  0.0000E+00  0.0000E+00
     -7.995  0.0000E+00  0.0000E+00  0.0000E+00  0.0000E+00
     -7.973  0.0000E+00  0.0000E+00  0.0000E+00  0.0000E+00
     -7.950  0.0000E+00  0.0000E+00  0.0000E+00  0.0000E+00
     -7.928  0.0000E+00  0.0000E+00  0.0000E+00  0.0000E+00
     -7.906  0.0000E+00  0.0000E+00  0.0000E+00  0.0000E+00
     -7.883  0.0000E+00  0.0000E+00  0.0000E+00  0.0000E+00
     -7.861  0.0000E+00  0.0000E+00  0.0000E+00  0.0000E+00
     -7.838  0.0000E+00  0.0000E+00  0.0000E+00  0.0000E+00
     -7.816  0.0000E+00  0.0000E+00  0.0000E+00  0.0000E+00
     -7.793  0.0000E+00  0.0000E+00  0.0000E+00  0.0000E+00
     -7.771  0.0000E+00  0.0000E+00  0.0000E+00  0.0000E+00
     -7.749  0.0000E+00  0.0000E+00  0.0000E+00  0.0000E+00
     -7.726  0.0000E+00  0.0000E+00  0.0000E+00  0.0000E+00
     -7.704  0.0000E+00  0.0000E+00  0.0000E+00  0.0000E+00
     -7.681  0.0000E+00  0.0000E+00  0.0000E+00  0.0000E+00
     -7.659  0.0000E+00  0.0000E+00  0.0000E+00  0.0000E+00
     -7.637  0.0000E+00  0.0000E+00  0.0000E+00  0.0000E+00
     -7.614  0.0000E+00  0.0000E+00  0.0000E+00  0.0000E+00
     -7.592  0.0000E+00  0.0000E+00  0.0000E+00  0.0000E+00
     -7.569  0.0000E+00  0.0000E+00  0.0000E+00  0.0000E+00
     -7.547  0.0000E+00  0.0000E+00  0.0000E+00  0.0000E+00
     -7.524  0.0000E+00  0.0000E+00  0.0000E+00  0.0000E+00
     -7.502  0.0000E+00  0.0000E+00  0.0000E+00  0.0000E+00
     -7.480  0.0000E+00  0.0000E+00  0.0000E+00  0.0000E+00
     -7.457  0.0000E+00  0.0000E+00  0.0000E+00  0.0000E+00
     -7.435  0.0000E+00  0.0000E+00  0.0000E+00  0.0000E+00
     -7.412  0.0000E+00  0.0000E+00  0.0000E+00  0.0000E+00
     -7.390  0.0000E+00  0.0000E+00  0.0000E+00  0.0000E+00
     -7.368  0.0000E+00  0.0000E+00  0.0000E+00  0.0000E+00
     -7.345  0.0000E+00  0.0000E+00  0.0000E+00  0.0000E+00
     -7.323  0.0000E+00  0.0000E+00  0.0000E+00  0.0000E+00
     -7.300  0.0000E+00  0.0000E+00  0.0000E+00  0.0000E+00
     -7.278  0.0000E+00  0.0000E+00  0.0000E+00  0.0000E+00
     -7.256  0.0000E+00  0.0000E+00  0.0000E+00  0.0000E+00
     -7.233  0.0000E+00  0.0000E+00  0.0000E+00  0.0000E+00
     -7.211  0.0000E+00  0.0000E+00  0.0000E+00  0.0000E+00
     -7.188  0.0000E+00  0.0000E+00  0.0000E+00  0.0000E+00
     -7.166  0.0000E+00  0.0000E+00  0.0000E+00  0.0000E+00
     -7.143  0.0000E+00  0.0000E+00  0.0000E+00  0.0000E+00
     -7.121  0.1127E-17  0.1127E-17  0.2527E-19  0.2527E-19
     -7.099  0.1240E-16  0.1240E-16  0.3032E-18  0.3032E-18
     -7.076  0.1488E-15  0.1488E-15  0.3638E-17  0.3638E-17
     -7.054  0.1674E-14  0.1674E-14  0.4116E-16  0.4116E-16
     -7.031  0.1700E-13  0.1700E-13  0.4222E-15  0.4222E-15
     -7.009  0.1560E-12  0.1560E-12  0.3919E-14  0.3919E-14
     -6.987  0.1297E-11  0.1297E-11  0.3298E-13  0.3298E-13
     -6.964  0.9756E-11  0.9756E-11  0.2516E-12  0.2516E-12
     -6.942  0.6650E-10  0.6650E-10  0.1742E-11  0.1742E-11
     -6.919  0.4106E-09  0.4106E-09  0.1095E-10  0.1095E-10
     -6.897  0.2299E-08  0.2299E-08  0.6246E-10  0.6246E-10
     -6.875  0.1167E-07  0.1167E-07  0.3240E-09  0.3240E-09
     -6.852  0.5379E-07  0.5379E-07  0.1530E-08  0.1530E-08
     -6.830  0.2253E-06  0.2253E-06  0.6580E-08  0.6580E-08
     -6.807  0.8592E-06  0.8592E-06  0.2584E-07  0.2584E-07
     -6.785  0.2988E-05  0.2988E-05  0.9281E-07  0.9281E-07
     -6.762  0.9507E-05  0.9507E-05  0.3059E-06  0.3059E-06
     -6.740  0.2775E-04  0.2775E-04  0.9279E-06  0.9279E-06
     -6.718  0.7465E-04  0.7465E-04  0.2601E-05  0.2601E-05
     -6.695  0.1858E-03  0.1858E-03  0.6766E-05  0.6766E-05
     -6.673  0.4298E-03  0.4298E-03  0.1640E-04  0.1640E-04
     -6.650  0.9276E-03  0.9276E-03  0.3719E-04  0.3719E-04
     -6.628  0.1872E-02  0.1872E-02  0.7914E-04  0.7914E-04
     -6.606  0.3535E-02  0.3535E-02  0.1584E-03  0.1584E-03
     -6.583  0.6244E-02  0.6244E-02  0.2983E-03  0.2983E-03
     -6.561  0.1029E-01  0.1029E-01  0.5290E-03  0.5290E-03
     -6.538  0.1581E-01  0.1581E-01  0.8833E-03  0.8833E-03
     -6.516  0.2258E-01  0.2258E-01  0.1389E-02  0.1389E-02
     -6.494  0.3004E-01  0.3004E-01  0.2063E-02  0.2063E-02
     -6.471  0.3738E-01  0.3738E-01  0.2900E-02  0.2900E-02
     -6.449  0.4395E-01  0.4395E-01  0.3885E-02  0.3885E-02
     -6.426  0.4962E-01  0.4962E-01  0.4998E-02  0.4998E-02
     -6.404  0.5496E-01  0.5496E-01  0.6229E-02  0.6229E-02
     -6.381  0.6101E-01  0.6101E-01  0.7597E-02  0.7597E-02
     -6.359  0.6871E-01  0.6871E-01  0.9137E-02  0.9137E-02
     -6.337  0.7823E-01  0.7823E-01  0.1089E-01  0.1089E-01
     -6.314  0.8860E-01  0.8860E-01  0.1288E-01  0.1288E-01
     -6.292  0.9784E-01  0.9784E-01  0.1507E-01  0.1507E-01
     -6.269  0.1037E+00  0.1037E+00  0.1739E-01  0.1739E-01
     -6.247  0.1047E+00  0.1047E+00  0.1974E-01  0.1974E-01
     -6.225  0.1009E+00  0.1009E+00  0.2200E-01  0.2200E-01
     -6.202  0.9456E-01  0.9456E-01  0.2412E-01  0.2412E-01
     -6.180  0.8922E-01  0.8922E-01  0.2612E-01  0.2612E-01
     -6.157  0.8846E-01  0.8846E-01  0.2810E-01  0.2810E-01
     -6.135  0.9442E-01  0.9442E-01  0.3022E-01  0.3022E-01
     -6.112  0.1068E+00  0.1068E+00  0.3261E-01  0.3261E-01
     -6.090  0.1228E+00  0.1228E+00  0.3536E-01  0.3536E-01
     -6.068  0.1385E+00  0.1385E+00  0.3847E-01  0.3847E-01
     -6.045  0.1501E+00  0.1501E+00  0.4183E-01  0.4183E-01
     -6.023  0.1558E+00  0.1558E+00  0.4532E-01  0.4532E-01
     -6.000  0.1564E+00  0.1564E+00  0.4883E-01  0.4883E-01
     -5.978  0.1539E+00  0.1539E+00  0.5228E-01  0.5228E-01
     -5.956  0.1509E+00  0.1509E+00  0.5566E-01  0.5566E-01
     -5.933  0.1484E+00  0.1484E+00  0.5899E-01  0.5899E-01
     -5.911  0.1461E+00  0.1461E+00  0.6226E-01  0.6226E-01
     -5.888  0.1425E+00  0.1425E+00  0.6545E-01  0.6545E-01
     -5.866  0.1367E+00  0.1367E+00  0.6852E-01  0.6852E-01
     -5.844  0.1293E+00  0.1293E+00  0.7142E-01  0.7142E-01
     -5.821  0.1227E+00  0.1227E+00  0.7417E-01  0.7417E-01
     -5.799  0.1209E+00  0.1209E+00  0.7688E-01  0.7688E-01
     -5.776  0.1274E+00  0.1274E+00  0.7973E-01  0.7973E-01
     -5.754  0.1438E+00  0.1438E+00  0.8296E-01  0.8296E-01
     -5.731  0.1683E+00  0.1683E+00  0.8673E-01  0.8673E-01
     -5.709  0.1957E+00  0.1957E+00  0.9111E-01  0.9111E-01
     -5.687  0.2190E+00  0.2190E+00  0.9602E-01  0.9602E-01
     -5.664  0.2324E+00  0.2324E+00  0.1012E+00  0.1012E+00
     -5.642  0.2335E+00  0.2335E+00  0.1065E+00  0.1065E+00
     -5.619  0.2245E+00  0.2245E+00  0.1115E+00  0.1115E+00
     -5.597  0.2108E+00  0.2108E+00  0.1162E+00  0.1162E+00
     -5.575  0.1984E+00  0.1984E+00  0.1207E+00  0.1207E+00
     -5.552  0.1906E+00  0.1906E+00  0.1249E+00  0.1249E+00
     -5.530  0.1874E+00  0.1874E+00  0.1291E+00  0.1291E+00
     -5.507  0.1858E+00  0.1858E+00  0.1333E+00  0.1333E+00
     -5.485  0.1824E+00  0.1824E+00  0.1374E+00  0.1374E+00
     -5.463  0.1751E+00  0.1751E+00  0.1413E+00  0.1413E+00
     -5.440  0.1649E+00  0.1649E+00  0.1450E+00  0.1450E+00
     -5.418  0.1552E+00  0.1552E+00  0.1485E+00  0.1485E+00
     -5.395  0.1510E+00  0.1510E+00  0.1519E+00  0.1519E+00
     -5.373  0.1560E+00  0.1560E+00  0.1554E+00  0.1554E+00
     -5.350  0.1718E+00  0.1718E+00  0.1592E+00  0.1592E+00
     -5.328  0.1962E+00  0.1962E+00  0.1636E+00  0.1636E+00
     -5.306  0.2247E+00  0.2247E+00  0.1687E+00  0.1687E+00
     -5.283  0.2521E+00  0.2521E+00  0.1743E+00  0.1743E+00
     -5.261  0.2746E+00  0.2746E+00  0.1805E+00  0.1805E+00
     -5.238  0.2908E+00  0.2908E+00  0.1870E+00  0.1870E+00
     -5.216  0.3013E+00  0.3013E+00  0.1937E+00  0.1937E+00
     -5.194  0.3067E+00  0.3067E+00  0.2006E+00  0.2006E+00
     -5.171  0.3067E+00  0.3067E+00  0.2075E+00  0.2075E+00
     -5.149  0.2999E+00  0.2999E+00  0.2142E+00  0.2142E+00
     -5.126  0.2850E+00  0.2850E+00  0.2206E+00  0.2206E+00
     -5.104  0.2622E+00  0.2622E+00  0.2265E+00  0.2265E+00
     -5.081  0.2347E+00  0.2347E+00  0.2317E+00  0.2317E+00
     -5.059  0.2079E+00  0.2079E+00  0.2364E+00  0.2364E+00
     -5.037  0.1879E+00  0.1879E+00  0.2406E+00  0.2406E+00
     -5.014  0.1789E+00  0.1789E+00  0.2446E+00  0.2446E+00
     -4.992  0.1816E+00  0.1816E+00  0.2487E+00  0.2487E+00
     -4.969  0.1932E+00  0.1932E+00  0.2530E+00  0.2530E+00
     -4.947  0.2095E+00  0.2095E+00  0.2577E+00  0.2577E+00
     -4.925  0.2270E+00  0.2270E+00  0.2628E+00  0.2628E+00
     -4.902  0.2449E+00  0.2449E+00  0.2683E+00  0.2683E+00
     -4.880  0.2639E+00  0.2639E+00  0.2742E+00  0.2742E+00
     -4.857  0.2849E+00  0.2849E+00  0.2806E+00  0.2806E+00
     -4.835  0.3068E+00  0.3068E+00  0.2875E+00  0.2875E+00
     -4.813  0.3261E+00  0.3261E+00  0.2948E+00  0.2948E+00
     -4.790  0.3384E+00  0.3384E+00  0.3023E+00  0.3023E+00
     -4.768  0.3412E+00  0.3412E+00  0.3100E+00  0.3100E+00
     -4.745  0.3361E+00  0.3361E+00  0.3175E+00  0.3175E+00
     -4.723  0.3289E+00  0.3289E+00  0.3249E+00  0.3249E+00
     -4.700  0.3264E+00  0.3264E+00  0.3322E+00  0.3322E+00
     -4.678  0.3333E+00  0.3333E+00  0.3397E+00  0.3397E+00
     -4.656  0.3484E+00  0.3484E+00  0.3475E+00  0.3475E+00
     -4.633  0.3659E+00  0.3659E+00  0.3557E+00  0.3557E+00
     -4.611  0.3778E+00  0.3778E+00  0.3642E+00  0.3642E+00
     -4.588  0.3776E+00  0.3776E+00  0.3726E+00  0.3726E+00
     -4.566  0.3636E+00  0.3636E+00  0.3808E+00  0.3808E+00
     -4.544  0.3392E+00  0.3392E+00  0.3884E+00  0.3884E+00
     -4.521  0.3111E+00  0.3111E+00  0.3953E+00  0.3953E+00
     -4.499  0.2871E+00  0.2871E+00  0.4018E+00  0.4018E+00
     -4.476  0.2732E+00  0.2732E+00  0.4079E+00  0.4079E+00
     -4.454  0.2719E+00  0.2719E+00  0.4140E+00  0.4140E+00
     -4.432  0.2821E+00  0.2821E+00  0.4203E+00  0.4203E+00
     -4.409  0.3004E+00  0.3004E+00  0.4271E+00  0.4271E+00
     -4.387  0.3235E+00  0.3235E+00  0.4343E+00  0.4343E+00
     -4.364  0.3505E+00  0.3505E+00  0.4422E+00  0.4422E+00
     -4.342  0.3828E+00  0.3828E+00  0.4507E+00  0.4507E+00
     -4.319  0.4221E+00  0.4221E+00  0.4602E+00  0.4602E+00
     -4.297  0.4672E+00  0.4672E+00  0.4707E+00  0.4707E+00
     -4.275  0.5119E+00  0.5119E+00  0.4821E+00  0.4821E+00
     -4.252  0.5463E+00  0.5463E+00  0.4944E+00  0.4944E+00
     -4.230  0.5609E+00  0.5609E+00  0.5070E+00  0.5070E+00
     -4.207  0.5520E+00  0.5520E+00  0.5193E+00  0.5193E+00
     -4.185  0.5244E+00  0.5244E+00  0.5311E+00  0.5311E+00
     -4.163  0.4901E+00  0.4901E+00  0.5421E+00  0.5421E+00
     -4.140  0.4621E+00  0.4621E+00  0.5524E+00  0.5524E+00
     -4.118  0.4480E+00  0.4480E+00  0.5625E+00  0.5625E+00
     -4.095  0.4464E+00  0.4464E+00  0.5725E+00  0.5725E+00
     -4.073  0.4480E+00  0.4480E+00  0.5825E+00  0.5825E+00
     -4.051  0.4414E+00  0.4414E+00  0.5924E+00  0.5924E+00
     -4.028  0.4193E+00  0.4193E+00  0.6018E+00  0.6018E+00
     -4.006  0.3824E+00  0.3824E+00  0.6104E+00  0.6104E+00
     -3.983  0.3397E+00  0.3397E+00  0.6180E+00  0.6180E+00
     -3.961  0.3043E+00  0.3043E+00  0.6248E+00  0.6248E+00
     -3.938  0.2881E+00  0.2881E+00  0.6313E+00  0.6313E+00
     -3.916  0.2975E+00  0.2975E+00  0.6379E+00  0.6379E+00
     -3.894  0.3306E+00  0.3306E+00  0.6453E+00  0.6453E+00
     -3.871  0.3778E+00  0.3778E+00  0.6538E+00  0.6538E+00
     -3.849  0.4250E+00  0.4250E+00  0.6633E+00  0.6633E+00
     -3.826  0.4585E+00  0.4585E+00  0.6736E+00  0.6736E+00
     -3.804  0.4698E+00  0.4698E+00  0.6841E+00  0.6841E+00
     -3.782  0.4576E+00  0.4576E+00  0.6944E+00  0.6944E+00
     -3.759  0.4275E+00  0.4275E+00  0.7040E+00  0.7040E+00
     -3.737  0.3890E+00  0.3890E+00  0.7127E+00  0.7127E+00
     -3.714  0.3516E+00  0.3516E+00  0.7206E+00  0.7206E+00
     -3.692  0.3225E+00  0.3225E+00  0.7278E+00  0.7278E+00
     -3.669  0.3055E+00  0.3055E+00  0.7347E+00  0.7347E+00
     -3.647  0.3010E+00  0.3010E+00  0.7414E+00  0.7414E+00
     -3.625  0.3073E+00  0.3073E+00  0.7483E+00  0.7483E+00
     -3.602  0.3215E+00  0.3215E+00  0.7555E+00  0.7555E+00
     -3.580  0.3409E+00  0.3409E+00  0.7631E+00  0.7631E+00
     -3.557  0.3630E+00  0.3630E+00  0.7713E+00  0.7713E+00
     -3.535  0.3845E+00  0.3845E+00  0.7799E+00  0.7799E+00
     -3.513  0.4007E+00  0.4007E+00  0.7889E+00  0.7889E+00
     -3.490  0.4056E+00  0.4056E+00  0.7980E+00  0.7980E+00
     -3.468  0.3945E+00  0.3945E+00  0.8068E+00  0.8068E+00
     -3.445  0.3673E+00  0.3673E+00  0.8150E+00  0.8150E+00
     -3.423  0.3296E+00  0.3296E+00  0.8224E+00  0.8224E+00
     -3.401  0.2910E+00  0.2910E+00  0.8289E+00  0.8289E+00
     -3.378  0.2603E+00  0.2603E+00  0.8348E+00  0.8348E+00
     -3.356  0.2418E+00  0.2418E+00  0.8402E+00  0.8402E+00
     -3.333  0.2335E+00  0.2335E+00  0.8454E+00  0.8454E+00
     -3.311  0.2299E+00  0.2299E+00  0.8506E+00  0.8506E+00
     -3.288  0.2253E+00  0.2253E+00  0.8556E+00  0.8556E+00
     -3.266  0.2177E+00  0.2177E+00  0.8605E+00  0.8605E+00
     -3.244  0.2092E+00  0.2092E+00  0.8652E+00  0.8652E+00
     -3.221  0.2044E+00  0.2044E+00  0.8698E+00  0.8698E+00
     -3.199  0.2075E+00  0.2075E+00  0.8744E+00  0.8744E+00
     -3.176  0.2209E+00  0.2209E+00  0.8794E+00  0.8794E+00
     -3.154  0.2437E+00  0.2437E+00  0.8848E+00  0.8848E+00
     -3.132  0.2728E+00  0.2728E+00  0.8910E+00  0.8910E+00
     -3.109  0.3034E+00  0.3034E+00  0.8978E+00  0.8978E+00
     -3.087  0.3295E+00  0.3295E+00  0.9051E+00  0.9051E+00
     -3.064  0.3451E+00  0.3451E+00  0.9129E+00  0.9129E+00
     -3.042  0.3456E+00  0.3456E+00  0.9206E+00  0.9206E+00
     -3.020  0.3296E+00  0.3296E+00  0.9280E+00  0.9280E+00
     -2.997  0.2996E+00  0.2996E+00  0.9347E+00  0.9347E+00
     -2.975  0.2614E+00  0.2614E+00  0.9406E+00  0.9406E+00
     -2.952  0.2218E+00  0.2218E+00  0.9456E+00  0.9456E+00
     -2.930  0.1862E+00  0.1862E+00  0.9497E+00  0.9497E+00
     -2.907  0.1574E+00  0.1574E+00  0.9533E+00  0.9533E+00
     -2.885  0.1355E+00  0.1355E+00  0.9563E+00  0.9563E+00
     -2.863  0.1199E+00  0.1199E+00  0.9590E+00  0.9590E+00
     -2.840  0.1095E+00  0.1095E+00  0.9614E+00  0.9614E+00
     -2.818  0.1033E+00  0.1033E+00  0.9638E+00  0.9638E+00
     -2.795  0.1006E+00  0.1006E+00  0.9660E+00  0.9660E+00
     -2.773  0.1004E+00  0.1004E+00  0.9683E+00  0.9683E+00
     -2.751  0.1026E+00  0.1026E+00  0.9706E+00  0.9706E+00
     -2.728  0.1072E+00  0.1072E+00  0.9730E+00  0.9730E+00
     -2.706  0.1142E+00  0.1142E+00  0.9755E+00  0.9755E+00
     -2.683  0.1230E+00  0.1230E+00  0.9783E+00  0.9783E+00
     -2.661  0.1319E+00  0.1319E+00  0.9812E+00  0.9812E+00
     -2.638  0.1385E+00  0.1385E+00  0.9843E+00  0.9843E+00
     -2.616  0.1407E+00  0.1407E+00  0.9875E+00  0.9875E+00
     -2.594  0.1372E+00  0.1372E+00  0.9906E+00  0.9906E+00
     -2.571  0.1283E+00  0.1283E+00  0.9934E+00  0.9934E+00
     -2.549  0.1153E+00  0.1153E+00  0.9960E+00  0.9960E+00
     -2.526  0.1007E+00  0.1007E+00  0.9983E+00  0.9983E+00
     -2.504  0.8655E-01  0.8655E-01  0.1000E+01  0.1000E+01
     -2.482  0.7468E-01  0.7468E-01  0.1002E+01  0.1002E+01
     -2.459  0.6626E-01  0.6626E-01  0.1003E+01  0.1003E+01
     -2.437  0.6189E-01  0.6189E-01  0.1005E+01  0.1005E+01
     -2.414  0.6143E-01  0.6143E-01  0.1006E+01  0.1006E+01
     -2.392  0.6386E-01  0.6386E-01  0.1008E+01  0.1008E+01
     -2.370  0.6733E-01  0.6733E-01  0.1009E+01  0.1009E+01
     -2.347  0.6970E-01  0.6970E-01  0.1011E+01  0.1011E+01
     -2.325  0.6951E-01  0.6951E-01  0.1012E+01  0.1012E+01
     -2.302  0.6682E-01  0.6682E-01  0.1014E+01  0.1014E+01
     -2.280  0.6319E-01  0.6319E-01  0.1015E+01  0.1015E+01
     -2.257  0.6087E-01  0.6087E-01  0.1016E+01  0.1016E+01
     -2.235  0.6150E-01  0.6150E-01  0.1018E+01  0.1018E+01
     -2.213  0.6527E-01  0.6527E-01  0.1019E+01  0.1019E+01
     -2.190  0.7104E-01  0.7104E-01  0.1021E+01  0.1021E+01
     -2.168  0.7746E-01  0.7746E-01  0.1023E+01  0.1023E+01
     -2.145  0.8414E-01  0.8414E-01  0.1025E+01  0.1025E+01
     -2.123  0.9232E-01  0.9232E-01  0.1027E+01  0.1027E+01
     -2.101  0.1043E+00  0.1043E+00  0.1029E+01  0.1029E+01
     -2.078  0.1225E+00  0.1225E+00  0.1032E+01  0.1032E+01
     -2.056  0.1478E+00  0.1478E+00  0.1035E+01  0.1035E+01
     -2.033  0.1797E+00  0.1797E+00  0.1039E+01  0.1039E+01
     -2.011  0.2158E+00  0.2158E+00  0.1044E+01  0.1044E+01
     -1.989  0.2521E+00  0.2521E+00  0.1050E+01  0.1050E+01
     -1.966  0.2841E+00  0.2841E+00  0.1056E+01  0.1056E+01
     -1.944  0.3068E+00  0.3068E+00  0.1063E+01  0.1063E+01
     -1.921  0.3164E+00  0.3164E+00  0.1070E+01  0.1070E+01
     -1.899  0.3112E+00  0.3112E+00  0.1077E+01  0.1077E+01
     -1.876  0.2931E+00  0.2931E+00  0.1083E+01  0.1083E+01
     -1.854  0.2672E+00  0.2672E+00  0.1089E+01  0.1089E+01
     -1.832  0.2406E+00  0.2406E+00  0.1095E+01  0.1095E+01
     -1.809  0.2200E+00  0.2200E+00  0.1100E+01  0.1100E+01
     -1.787  0.2096E+00  0.2096E+00  0.1104E+01  0.1104E+01
     -1.764  0.2095E+00  0.2095E+00  0.1109E+01  0.1109E+01
     -1.742  0.2167E+00  0.2167E+00  0.1114E+01  0.1114E+01
     -1.720  0.2270E+00  0.2270E+00  0.1119E+01  0.1119E+01
     -1.697  0.2383E+00  0.2383E+00  0.1124E+01  0.1124E+01
     -1.675  0.2516E+00  0.2516E+00  0.1130E+01  0.1130E+01
     -1.652  0.2712E+00  0.2712E+00  0.1136E+01  0.1136E+01
     -1.630  0.3017E+00  0.3017E+00  0.1143E+01  0.1143E+01
     -1.608  0.3457E+00  0.3457E+00  0.1151E+01  0.1151E+01
     -1.585  0.4018E+00  0.4018E+00  0.1160E+01  0.1160E+01
     -1.563  0.4653E+00  0.4653E+00  0.1170E+01  0.1170E+01
     -1.540  0.5305E+00  0.5305E+00  0.1182E+01  0.1182E+01
     -1.518  0.5935E+00  0.5935E+00  0.1195E+01  0.1195E+01
     -1.495  0.6525E+00  0.6525E+00  0.1210E+01  0.1210E+01
     -1.473  0.7064E+00  0.7064E+00  0.1226E+01  0.1226E+01
     -1.451  0.7521E+00  0.7521E+00  0.1243E+01  0.1243E+01
     -1.428  0.7835E+00  0.7835E+00  0.1260E+01  0.1260E+01
     -1.406  0.7928E+00  0.7928E+00  0.1278E+01  0.1278E+01
     -1.383  0.7754E+00  0.7754E+00  0.1295E+01  0.1295E+01
     -1.361  0.7332E+00  0.7332E+00  0.1312E+01  0.1312E+01
     -1.339  0.6749E+00  0.6749E+00  0.1327E+01  0.1327E+01
     -1.316  0.6137E+00  0.6137E+00  0.1341E+01  0.1341E+01
     -1.294  0.5614E+00  0.5614E+00  0.1353E+01  0.1353E+01
     -1.271  0.5245E+00  0.5245E+00  0.1365E+01  0.1365E+01
     -1.249  0.5027E+00  0.5027E+00  0.1376E+01  0.1376E+01
     -1.226  0.4898E+00  0.4898E+00  0.1387E+01  0.1387E+01
     -1.204  0.4774E+00  0.4774E+00  0.1398E+01  0.1398E+01
     -1.182  0.4579E+00  0.4579E+00  0.1408E+01  0.1408E+01
     -1.159  0.4271E+00  0.4271E+00  0.1418E+01  0.1418E+01
     -1.137  0.3860E+00  0.3860E+00  0.1426E+01  0.1426E+01
     -1.114  0.3402E+00  0.3402E+00  0.1434E+01  0.1434E+01
     -1.092  0.2982E+00  0.2982E+00  0.1441E+01  0.1441E+01
     -1.070  0.2687E+00  0.2687E+00  0.1447E+01  0.1447E+01
     -1.047  0.2574E+00  0.2574E+00  0.1452E+01  0.1452E+01
     -1.025  0.2645E+00  0.2645E+00  0.1458E+01  0.1458E+01
     -1.002  0.2847E+00  0.2847E+00  0.1465E+01  0.1465E+01
     -0.980  0.3086E+00  0.3086E+00  0.1472E+01  0.1472E+01
     -0.958  0.3271E+00  0.3271E+00  0.1479E+01  0.1479E+01
     -0.935  0.3345E+00  0.3345E+00  0.1487E+01  0.1487E+01
     -0.913  0.3311E+00  0.3311E+00  0.1494E+01  0.1494E+01
     -0.890  0.3220E+00  0.3220E+00  0.1501E+01  0.1501E+01
     -0.868  0.3146E+00  0.3146E+00  0.1508E+01  0.1508E+01
     -0.845  0.3150E+00  0.3150E+00  0.1515E+01  0.1515E+01
     -0.823  0.3254E+00  0.3254E+00  0.1523E+01  0.1523E+01
     -0.801  0.3438E+00  0.3438E+00  0.1530E+01  0.1530E+01
     -0.778  0.3652E+00  0.3652E+00  0.1538E+01  0.1538E+01
     -0.756  0.3838E+00  0.3838E+00  0.1547E+01  0.1547E+01
     -0.733  0.3945E+00  0.3945E+00  0.1556E+01  0.1556E+01
     -0.711  0.3936E+00  0.3936E+00  0.1565E+01  0.1565E+01
     -0.689  0.3792E+00  0.3792E+00  0.1573E+01  0.1573E+01
     -0.666  0.3508E+00  0.3508E+00  0.1581E+01  0.1581E+01
     -0.644  0.3101E+00  0.3101E+00  0.1588E+01  0.1588E+01
     -0.621  0.2608E+00  0.2608E+00  0.1594E+01  0.1594E+01
     -0.599  0.2082E+00  0.2082E+00  0.1599E+01  0.1599E+01
     -0.577  0.1586E+00  0.1586E+00  0.1602E+01  0.1602E+01
     -0.554  0.1180E+00  0.1180E+00  0.1605E+01  0.1605E+01
     -0.532  0.9186E-01  0.9186E-01  0.1607E+01  0.1607E+01