 running on   16 total cores
 distrk:  each k-point on   16 cores,    1 groups
 distr:  one band on    1 cores,   16 groups
 using from now: INCAR     
 vasp.5.4.1 24Jun15 (build Feb  9 2019 14:16:27) complex                         
 POSCAR found type information on POSCAR  Si
 POSCAR found :  1 types and       2 ions
 scaLAPACK will be used

 ----------------------------------------------------------------------------- 
|                                                                             |
|           W    W    AA    RRRRR   N    N  II  N    N   GGGG   !!!           |
|           W    W   A  A   R    R  NN   N  II  NN   N  G    G  !!!           |
|           W    W  A    A  R    R  N N  N  II  N N  N  G       !!!           |
|           W WW W  AAAAAA  RRRRR   N  N N  II  N  N N  G  GGG   !            |
|           WW  WW  A    A  R   R   N   NN  II  N   NN  G    G                |
|           W    W  A    A  R    R  N    N  II  N    N   GGGG   !!!           |
|                                                                             |
|      For optimal performance we recommend to set                            |
|        NCORE= 4 - approx SQRT( number of cores)                             |
|      NCORE specifies how many cores store one orbital (NPAR=cpu/NCORE).     |
|      This setting can  greatly improve the performance of VASP for DFT.     |
|      The default, NPAR=number of cores might be grossly inefficient         |
|      on modern multi-core architectures or massively parallel machines.     |
|      Do your own testing !!!!                                               |
|      Unfortunately you need to use the default for GW and RPA calculations. |
|      (for HF NCORE is supported but not extensively tested yet)             |
|                                                                             |
 ----------------------------------------------------------------------------- 


 ----------------------------------------------------------------------------- 
|                                                                             |
|  ADVICE TO THIS USER RUNNING 'VASP/VAMP'   (HEAR YOUR MASTER'S VOICE ...):  |
|                                                                             |
|      You have switched on vdW-DFT.                                          |
|      This routine was written and supplied by Jiri Klimes.                  |
|      We recommed that you carefully read and cite the following             |
|      publication                                                            |
|      J. Klimes, D.R. Bowler, A. Michelides                                  |
|        J. Phys.: Cond Matt. 22 022201 (2010)                                |
|      J. Klimes, D.R. Bowler, A. Michelides                                  |
|        Phys. Rev. B. 83, 195131 (2011)                                      |
|      and references therein.                                                |
|                                                                             |
 ----------------------------------------------------------------------------- 


 ----------------------------------------------------------------------------- 
|                                                                             |
|  ADVICE TO THIS USER RUNNING 'VASP/VAMP'   (HEAR YOUR MASTER'S VOICE ...):  |
|                                                                             |
|      You enforced a specific xc-type in the INCAR file,                     |
|      a different type was found on the POTCAR file                          |
|          I HOPE YOU KNOW, WHAT YOU ARE  DOING                               |
|                                                                             |
 ----------------------------------------------------------------------------- 

 LDA part: xc-table for Pade appr. of Perdew
 POSCAR, INCAR and KPOINTS ok, starting setup
 WARNING: small aliasing (wrap around) errors must be expected
 FFT: planning ...
 WAVECAR not read
 entering main loop
       N       E                     dE             d eps       ncg     rms          rms(c)
DAV:   1     0.117825796424E+04    0.11783E+04   -0.25659E+03422032   0.654E+01
DAV:   2     0.115014085203E+04   -0.28117E+02   -0.26678E+02525248   0.222E+01
DAV:   3     0.114963371948E+04   -0.50713E+00   -0.50451E+00514992   0.279E+00
DAV:   4     0.114963345580E+04   -0.26368E-03   -0.26367E-03486768   0.602E-02
DAV:   5     0.114963345566E+04   -0.13704E-06   -0.13832E-06519744   0.142E-03    0.529E+00
DAV:   6     0.113457425192E+04   -0.15059E+02   -0.29789E+01463920   0.643E+00    0.904E+00
DAV:   7     0.114848872264E+04    0.13914E+02   -0.41682E+00454080   0.278E+00    0.723E+00
DAV:   8     0.114785261052E+04   -0.63611E+00   -0.47259E-01491280   0.746E-01    0.761E+00
DAV:   9     0.114908324034E+04    0.12306E+01   -0.34581E-02481056   0.167E-01    0.798E+00
DAV:  10     0.115050874969E+04    0.14255E+01   -0.13037E+00490304   0.103E+00    0.134E+01
DAV:  11     0.115055715961E+04    0.48410E-01   -0.45650E-01523808   0.534E-01    0.158E+01
DAV:  12     0.115044667660E+04   -0.11048E+00   -0.22170E-01496448   0.257E-01    0.171E+01
DAV:  13     0.114837128911E+04   -0.20754E+01   -0.27594E-01498656   0.548E-01    0.196E+01
DAV:  14     0.114589008968E+04   -0.24812E+01   -0.47207E-01512688   0.690E-01    0.252E+01
DAV:  15     0.114434752906E+04   -0.15426E+01   -0.26638E-01508224   0.514E-01    0.296E+01
DAV:  16     0.115034186380E+04    0.59943E+01   -0.46448E-01468432   0.677E-01    0.242E+01
DAV:  17     0.115006971313E+04   -0.27215E+00   -0.13915E-01527168   0.334E-01    0.219E+01
DAV:  18     0.115004168641E+04   -0.28027E-01   -0.29968E-01484512   0.517E-01    0.172E+01
DAV:  19     0.114990304378E+04   -0.13864E+00   -0.34741E-01520480   0.492E-01    0.141E+01
DAV:  20     0.114978272940E+04   -0.12031E+00   -0.14064E+00503376   0.121E+00    0.643E+00
DAV:  21     0.114706653413E+04   -0.27162E+01   -0.69251E-01531616   0.785E-01    0.491E+00
DAV:  22     0.114629892450E+04   -0.76761E+00   -0.99781E-02513984   0.296E-01    0.480E+00
DAV:  23     0.114597612258E+04   -0.32280E+00   -0.32134E-02529584   0.160E-01    0.480E+00
DAV:  24     0.114597824868E+04    0.21261E-02   -0.31899E-03506336   0.413E-02    0.488E+00
DAV:  25     0.114594054198E+04   -0.37707E-01   -0.14264E-03525872   0.307E-02    0.480E+00
DAV:  26     0.114590980250E+04   -0.30739E-01   -0.75333E-03492880   0.557E-02    0.326E+00
DAV:  27     0.114618708447E+04    0.27728E+00   -0.15158E-02490144   0.105E-01    0.264E+00
DAV:  28     0.114674862368E+04    0.56154E+00   -0.62608E-02518384   0.216E-01    0.279E+00
DAV:  29     0.114654392129E+04   -0.20470E+00   -0.36672E-02486672   0.127E-01    0.173E+00
DAV:  30     0.114568242075E+04   -0.86150E+00   -0.91918E-02513600   0.247E-01    0.177E+00
DAV:  31     0.114510750186E+04   -0.57492E+00   -0.35509E-02523312   0.158E-01    0.186E+00
DAV:  32     0.114492118986E+04   -0.18631E+00   -0.76833E-03502336   0.748E-02    0.165E+00
DAV:  33     0.114482544838E+04   -0.95741E-01   -0.21083E-03521856   0.386E-02    0.171E+00
DAV:  34     0.114470053264E+04   -0.12492E+00   -0.44276E-03506112   0.490E-02    0.179E+00
DAV:  35     0.114449378207E+04   -0.20675E+00   -0.99209E-03511936   0.679E-02    0.231E+00
DAV:  36     0.114430398101E+04   -0.18980E+00   -0.67159E-03513888   0.562E-02    0.258E+00
DAV:  37     0.114431346655E+04    0.94855E-02   -0.19746E-04477056   0.118E-02    0.214E+00
DAV:  38     0.114453394613E+04    0.22048E+00   -0.90423E-03498064   0.660E-02    0.138E+00
DAV:  39     0.114482298359E+04    0.28904E+00   -0.13397E-02526000   0.864E-02    0.493E-01
DAV:  40     0.114503310105E+04    0.21012E+00   -0.53274E-03521120   0.632E-02    0.197E-01
DAV:  41     0.114511386764E+04    0.80767E-01   -0.12125E-03521024   0.332E-02    0.231E-01
DAV:  42     0.114514880995E+04    0.34942E-01   -0.23479E-04514464   0.162E-02    0.184E-01
DAV:  43     0.114514697658E+04   -0.18334E-02   -0.32563E-05506144   0.506E-03    0.124E-01
DAV:  44     0.114514789838E+04    0.92181E-03   -0.99579E-06520400   0.279E-03    0.801E-02
DAV:  45     0.114515428679E+04    0.63884E-02   -0.14620E-05518880   0.273E-03    0.516E-02
DAV:  46     0.114515945767E+04    0.51709E-02   -0.86611E-06511328   0.192E-03    0.320E-02
DAV:  47     0.114516340180E+04    0.39441E-02   -0.46911E-06508560   0.142E-03    0.241E-02
DAV:  48     0.114516524003E+04    0.18382E-02   -0.18238E-06507840   0.820E-04    0.177E-02
DAV:  49     0.114516584713E+04    0.60710E-03   -0.11253E-06507472   0.562E-04    0.137E-02
DAV:  50     0.114516610041E+04    0.25328E-03   -0.52448E-07520560   0.377E-04    0.104E-02
DAV:  51     0.114516557449E+04   -0.52592E-03   -0.24905E-07517728   0.339E-04    0.658E-03
DAV:  52     0.114516480390E+04   -0.77058E-03   -0.21112E-07522944   0.348E-04    0.273E-03
DAV:  53     0.114516413415E+04   -0.66975E-03   -0.11750E-07500592   0.241E-04    0.889E-04
DAV:  54     0.114516372482E+04   -0.40934E-03   -0.39719E-08286720   0.140E-04    0.458E-04
DAV:  55     0.114516358069E+04   -0.14412E-03   -0.76181E-10254768   0.359E-05    0.252E-04
DAV:  56     0.114516357950E+04   -0.11959E-05   -0.36719E-10248576   0.263E-05    0.313E-04
DAV:  57     0.114516348694E+04   -0.92552E-04   -0.15341E-09245616   0.327E-05    0.417E-05
DAV:  58     0.114516342586E+04   -0.61088E-04   -0.50695E-10242832   0.191E-05    0.111E-04
DAV:  59     0.114516341998E+04   -0.58804E-05   -0.36332E-11240240   0.635E-06    0.103E-04
DAV:  60     0.114516343308E+04    0.13106E-04   -0.26168E-11236160   0.325E-06    0.645E-05
DAV:  61     0.114516344593E+04    0.12846E-04   -0.17461E-11233376   0.317E-06    0.331E-05
DAV:  62     0.114516345501E+04    0.90868E-05   -0.10166E-11231632   0.285E-06    0.995E-06
DAV:  63     0.114516345827E+04    0.32560E-05   -0.24591E-12230016   0.139E-06    0.163E-06
DAV:  64     0.114516345969E+04    0.14192E-05   -0.91958E-13228896   0.734E-07    0.345E-06
DAV:  65     0.114516346079E+04    0.10978E-05   -0.34550E-13228112   0.374E-07    0.425E-06
DAV:  66     0.114516346174E+04    0.94869E-06   -0.17854E-13227872   0.323E-07    0.600E-06
DAV:  67     0.114516346171E+04   -0.31126E-07   -0.14752E-13227744   0.675E-08
 Total vdW correction in eV:    1.2639824888813402     
   1 F= 0.11451635E+04 E0= 0.11451635E+04  d E =0.114516E+04  mag=    -0.0000
 BRION: g(F)=  0.348E-10 g(S)=  0.000E+00
 reached required accuracy - stopping structural energy minimisation
 optical routines
 imaginary and real dielectric function

 ----------------------------------------------------------------------------- 
|                                                                             |
|           W    W    AA    RRRRR   N    N  II  N    N   GGGG   !!!           |
|           W    W   A  A   R    R  NN   N  II  NN   N  G    G  !!!           |
|           W    W  A    A  R    R  N N  N  II  N N  N  G       !!!           |
|           W WW W  AAAAAA  RRRRR   N  N N  II  N  N N  G  GGG   !            |
|           WW  WW  A    A  R   R   N   NN  II  N   NN  G    G                |
|           W    W  A    A  R    R  N    N  II  N    N   GGGG   !!!           |
|                                                                             |
|      You have switched on METAGGA and linear response routines.             |
|      This combination is currently not supported.                           |
|      If you have selected LOPTICS=.TRUE., VASP will continue but some       |
|      matrix elements [H,r] are neglected   (you might try to use            |
|      LPEAD=.TRUE. which works irrespective of H).                           |
|      In all other cases VASP will stop now. SOOO sorry...                   |
|                                                                             |
 ----------------------------------------------------------------------------- 

 direction            1
 direction            2
 direction            3
