unknown system                          
           1
     3.348898    0.000000    1.933487
     1.116299    3.157372    1.933487
     0.000000    0.000000    3.866975
   Si
   2
unknown system                          
           1
     3.374168    0.000000    1.948077
     1.124722    3.181197    1.948077
     0.000000    0.000000    3.896154
   Si
   2
Direct configuration=     1
   0.87500000  0.87500000  0.87500000
   0.12500000  0.12500000  0.12500000
unknown system                          
           1
     3.364291    0.000000    1.942374
     1.121430    3.171885    1.942374
     0.000000    0.000000    3.884750
   Si
   2
Direct configuration=     2
   0.87500000  0.87500000  0.87500000
   0.12500000  0.12500000  0.12500000
unknown system                          
           1
     3.364150    0.000000    1.942293
     1.121383    3.171752    1.942293
     0.000000    0.000000    3.884586
   Si
   2
Direct configuration=     3
   0.87500000  0.87500000  0.87500000
   0.12500000  0.12500000  0.12500000
unknown system                          
           1
     3.364150    0.000000    1.942293
     1.121383    3.171752    1.942293
     0.000000    0.000000    3.884586
   Si
   2
Direct configuration=     4
   0.87500000  0.87500000  0.87500000
   0.12500000  0.12500000  0.12500000
