    2    2    1    1
  0.2044415E+02  0.3866974E-09  0.3866975E-09  0.3866975E-09  0.5000000E-15
  1.000000000000000E-004
  CAR 
 unknown system                          
    8   16    8
 
  0.0000000E+00  0.0000000E+00  0.0000000E+00  0.4629630E-02
   1       -6.141213
   2        5.601042
   3        5.601043
   4        5.601044
   5        8.221067
   6        8.221070
   7        8.221072
   8        8.830252
 
  0.1666667E+00  0.0000000E+00  0.0000000E+00  0.3703704E-01
   1       -5.787269
   2        3.275155
   3        5.170468
   4        5.170470
   5        7.957755
   6        8.848329
   7        8.848332
   8       10.930849
 
  0.3333333E+00  0.4163336E-16  0.0000000E+00  0.3703704E-01
   1       -4.793999
   2        0.385148
   3        4.635422
   4        4.635424
   5        7.366811
   6        9.161958
   7        9.161961
   8       13.438027
 
  0.5000000E+00  0.5551115E-16  0.0000000E+00  0.1851852E-01
   1       -3.867508
   2       -1.208114
   3        4.441039
   4        4.441041
   5        7.141382
   6        9.010359
   7        9.010362
   8       13.374850
 
  0.1666667E+00  0.1666667E+00  0.0000000E+00  0.2777778E-01
   1       -5.666706
   2        3.581346
   3        4.458533
   4        4.458533
   5        7.381629
   6        9.880696
   7        9.941582
   8        9.941582
 
  0.3333333E+00  0.1666667E+00  0.0000000E+00  0.1111111E+00
   1       -4.868505
   2        1.247449
   3        3.674852
   4        3.919430
   5        7.629790
   6        9.677012
   7       10.138645
   8       10.675082
 
  0.5000000E+00  0.1666667E+00  0.0000000E+00  0.1111111E+00
   1       -3.708335
   2       -0.864592
   3        2.910290
   4        3.886626
   5        7.705887
   6        9.708374
   7       10.256215
   8       12.012150
 
 -0.3333333E+00  0.1666667E+00  0.0000000E+00  0.1111111E+00
   1       -4.082069
   2       -0.282144
   3        2.651960
   4        4.348727
   5        8.093649
   6        9.723590
   7        9.873128
   8       12.840799
 
 -0.1666667E+00  0.1666667E+00  0.0000000E+00  0.5555556E-01
   1       -5.211193
   2        1.949338
   3        3.282544
   4        5.054722
   5        8.649455
   6        9.199937
   7        9.440065
   8       11.243155
 
  0.3333333E+00  0.3333333E+00  0.0000000E+00  0.2777778E-01
   1       -4.275472
   2        0.662898
   3        3.266585
   4        3.266585
   5        6.427963
   6        7.691087
   7       12.800165
   8       12.800165
 
  0.5000000E+00  0.3333333E+00  0.0000000E+00  0.1111111E+00
   1       -3.138325
   2       -0.858270
   3        2.097041
   4        3.132411
   5        6.765126
   6        8.378558
   7       13.001442
   8       13.019354
 
 -0.3333333E+00  0.3333333E+00  0.0000000E+00  0.5555556E-01
   1       -2.952087
   2       -1.053645
   3        1.341120
   4        3.561502
   5        7.256902
   6       11.402523
   7       12.066676
   8       12.604967
 
  0.5000000E+00  0.5000000E+00  0.0000000E+00  0.1388889E-01
   1       -2.082893
   2       -2.082892
   3        2.842046
   4        2.842046
   5        6.421825
   6        6.421825
   7       15.590203
   8       15.590204
 
  0.5000000E+00  0.3333333E+00  0.1666667E+00  0.1111111E+00
   1       -3.900516
   2        0.047689
   3        2.156657
   4        3.392190
   5        8.497767
   6        9.373650
   7        9.834718
   8       12.610801
 
 -0.3333333E+00  0.3333333E+00  0.1666667E+00  0.1111111E+00
   1       -2.942890
   2       -1.119681
   3        1.724842
   4        2.942554
   5        9.011861
   6        9.176643
   7       11.694585
   8       12.097600
 
 -0.3333333E+00  0.5000000E+00  0.1666667E+00  0.5555556E-01
   1       -1.970094
   2       -1.970092
   3        2.086243
   4        2.086244
   5        8.406124
   6        8.406125
   7       12.333964
   8       12.333968
