       N       E                     dE             d eps       ncg     rms          rms(c)
DAV:   1     0.707240311218E+01    0.70724E+01   -0.33470E+03   256   0.845E+02
DAV:   2    -0.816837930134E+01   -0.15241E+02   -0.14406E+02   392   0.753E+01
DAV:   3    -0.839537622146E+01   -0.22700E+00   -0.22700E+00   384   0.120E+01
DAV:   4    -0.839587517306E+01   -0.49895E-03   -0.49895E-03   384   0.541E-01
DAV:   5    -0.839587623191E+01   -0.10588E-05   -0.10591E-05   360   0.230E-02    0.376E+00
DAV:   6    -0.834055838091E+01    0.55318E-01   -0.90108E-02   312   0.177E+00    0.231E+00
DAV:   7    -0.833414688986E+01    0.64115E-02   -0.20688E-01   328   0.266E+00    0.187E-01
DAV:   8    -0.831715690061E+01    0.16990E-01   -0.63966E-03   280   0.559E-01    0.992E-02
DAV:   9    -0.831886731507E+01   -0.17104E-02   -0.61963E-04   360   0.167E-01    0.752E-02
DAV:  10    -0.831817077431E+01    0.69654E-03   -0.42833E-05   304   0.566E-02    0.373E-02
DAV:  11    -0.831815269364E+01    0.18081E-04   -0.14016E-06   376   0.110E-02    0.306E-03
DAV:  12    -0.831815113300E+01    0.15606E-05   -0.61323E-08   320   0.238E-03    0.134E-03
DAV:  13    -0.831814875408E+01    0.23789E-05   -0.28515E-09   208   0.508E-04    0.545E-05
DAV:  14    -0.831814867766E+01    0.76417E-07   -0.21251E-10   168   0.154E-04
   1 F= -.83181487E+01 E0= -.83181045E+01  d E =-.831815E+01
