 vasp.5.3.3 18Dez12 (build Jan 30 2013 10:57:47) complex                        
  
 executed on             LinuxIFC date 2016.06.21  12:15:35
 running on   16 total cores
 distrk:  each k-point on   16 cores,    1 groups
 distr:  one band on NCORES_PER_BAND=   4 cores,    4 groups


--------------------------------------------------------------------------------------------------------


 INCAR:
 POTCAR:    PAW_PBE Si 05Jan2001                  

 ----------------------------------------------------------------------------- 
|                                                                             |
|  ADVICE TO THIS USER RUNNING 'VASP/VAMP'   (HEAR YOUR MASTER'S VOICE ...):  |
|                                                                             |
|      You have switched on vdW-DFT.                                          |
|      This routine was written and supplied by Jiri Klimes.                  |
|      We recommed that you carefully read and cite the following             |
|      publication                                                            |
|      J. Klimes, D.R. Bowler, A. Michelides                                  |
|        J. Phys.: Cond Matt. 22 022201 (2010)                                |
|      J. Klimes, D.R. Bowler, A. Michelides                                  |
|        Phys. Rev. B. 83, 195131 (2011)                                      |
|      and references therein.                                                |
|                                                                             |
 ----------------------------------------------------------------------------- 

 POTCAR:    PAW_PBE Si 05Jan2001                  
   VRHFIN =Si: s2p2                                                             
   LEXCH  = PE                                                                  
   EATOM  =   103.0669 eV,    7.5752 Ry                                         
                                                                                
   TITEL  = PAW_PBE Si 05Jan2001                                                
   LULTRA =        F    use ultrasoft PP ?                                      
   IUNSCR =        1    unscreen: 0-lin 1-nonlin 2-no                           
   RPACOR =    1.500    partial core radius                                     
   POMASS =   28.085; ZVAL   =    4.000    mass and valenz                      
   RCORE  =    1.900    outmost cutoff radius                                   
   RWIGS  =    2.480; RWIGS  =    1.312    wigner-seitz radius (au A)           
   ENMAX  =  245.345; ENMIN  =  184.009 eV                                      
   ICORE  =        2    local potential                                         
   LCOR   =        T    correct aug charges                                     
   LPAW   =        T    paw PP                                                  
   EAUG   =  322.069                                                            
   DEXC   =    0.000                                                            
   RMAX   =    1.950    core radius for proj-oper                               
   RAUG   =    1.300    factor for augmentation sphere                          
   RDEP   =    1.993    radius for radial grids                                 
   RDEPT  =    1.837    core radius for aug-charge                              
                                                                                
   Atomic configuration                                                         
    6 entries                                                                   
     n  l   j            E        occ.                                          
     1  0  0.50     -1785.8828   2.0000                                         
     2  0  0.50      -139.4969   2.0000                                         
     2  1  1.50       -95.5546   6.0000                                         
     3  0  0.50       -10.8127   2.0000                                         
     3  1  0.50        -4.0811   2.0000                                         
     3  2  1.50        -4.0817   0.0000                                         
   Description                                                                  
     l       E           TYP  RCUT    TYP  RCUT                                 
     0    -10.8127223     23  1.900                                             
     0     -7.6451159     23  1.900                                             
     1     -4.0811372     23  1.900                                             
     1      2.4879257     23  1.900                                             
     2     -4.0817478      7  1.900                                             
  local pseudopotential read in
  partial core-charges read in
  partial kinetic energy density read in
  atomic valenz-charges read in
  non local Contribution for L=           0  read in
    real space projection operators read in
  non local Contribution for L=           0  read in
    real space projection operators read in
  non local Contribution for L=           1  read in
    real space projection operators read in
  non local Contribution for L=           1  read in
    real space projection operators read in
    PAW grid and wavefunctions read in
 
   number of l-projection  operators is LMAX  =           4
   number of lm-projection operators is LMMAX =           8
 

 ----------------------------------------------------------------------------- 
|                                                                             |
|  ADVICE TO THIS USER RUNNING 'VASP/VAMP'   (HEAR YOUR MASTER'S VOICE ...):  |
|                                                                             |
|      You enforced a specific xc-type in the INCAR file,                     |
|      a different type was found on the POTCAR file                          |
|          I HOPE YOU KNOW, WHAT YOU ARE  DOING                               |
|                                                                             |
 ----------------------------------------------------------------------------- 

  PAW_PBE Si 05Jan2001                  :
 energy of atom  1       EATOM= -103.0669
 kinetic energy error for atom=    0.0004 (will be added to EATOM!!)
 
 
 POSCAR: bulk@mp_149                             
  positions in direct lattice
  No initial velocities read in
 exchange correlation table for  LEXCH =       42
   RHO(1)=    0.500       N(1)  =     2000
   RHO(2)=  100.500       N(2)  =     4000
 


--------------------------------------------------------------------------------------------------------


 ion  position               nearest neighbor table
   1  0.875  0.875  0.875-   2 2.37   2 2.37   2 2.37   2 2.37
   2  0.125  0.125  0.125-   1 2.37   1 2.37   1 2.37   1 2.37
 
  LATTYP: Found a face centered cubic cell.
 ALAT       =     5.4687284904
  
  Lattice vectors:
  
 A1 = (   3.3488980000,   0.0000000000,   1.9334870000)
 A2 = (   1.1162990000,   3.1573720000,   1.9334870000)
 A3 = (   0.0000000000,   0.0000000000,   3.8669750000)


Analysis of symmetry for initial positions (statically):
=====================================================================
 Subroutine PRICEL returns:
 Original cell was already a primitive cell.
 

 Routine SETGRP: Setting up the symmetry group for a 
 face centered cubic supercell.


 Subroutine GETGRP returns: Found 48 space group operations
 (whereof 12 operations were pure point group operations)
 out of a pool of 48 trial point group operations.


The static configuration has the point symmetry D_3d.
 The point group associated with its full space group is O_h .


Analysis of symmetry for dynamics (positions and initial velocities):
=====================================================================
 Subroutine PRICEL returns:
 Original cell was already a primitive cell.
 

 Routine SETGRP: Setting up the symmetry group for a 
 face centered cubic supercell.


 Subroutine GETGRP returns: Found 48 space group operations
 (whereof 12 operations were pure point group operations)
 out of a pool of 48 trial point group operations.


The dynamic configuration has the point symmetry D_3d.
 The point group associated with its full space group is O_h .


 irot  :   1
 --------------------------------------------------------------------
 isymop:   1   0   0
           0   1   0
           0   0   1

 gtrans:     0.0000000     0.0000000     0.0000000

 ptrans:     0.0000000     0.0000000     0.0000000
 rotmap:
 (   1->   1)  (   2->   2) 


 irot  :   2
 --------------------------------------------------------------------
 isymop:  -1   0   0
           0  -1   0
           0   0  -1

 gtrans:     0.0000000     0.0000000     0.0000000

 ptrans:     0.0000000     0.0000000     0.0000000
 rotmap:
 (   1->   2)  (   2->   1) 


 irot  :   3
 --------------------------------------------------------------------
 isymop:   0   0   1
           1   0   0
           0   1   0

 gtrans:     0.0000000     0.0000000     0.0000000

 ptrans:     0.0000000     0.0000000     0.0000000
 rotmap:
 (   1->   1)  (   2->   2) 


 irot  :   4
 --------------------------------------------------------------------
 isymop:   0   0  -1
          -1   0   0
           0  -1   0

 gtrans:     0.0000000     0.0000000     0.0000000

 ptrans:     0.0000000     0.0000000     0.0000000
 rotmap:
 (   1->   2)  (   2->   1) 


 irot  :   5
 --------------------------------------------------------------------
 isymop:   0   1   0
           0   0   1
           1   0   0

 gtrans:     0.0000000     0.0000000     0.0000000

 ptrans:     0.0000000     0.0000000     0.0000000
 rotmap:
 (   1->   1)  (   2->   2) 


 irot  :   6
 --------------------------------------------------------------------
 isymop:   0  -1   0
           0   0  -1
          -1   0   0

 gtrans:     0.0000000     0.0000000     0.0000000

 ptrans:     0.0000000     0.0000000     0.0000000
 rotmap:
 (   1->   2)  (   2->   1) 


 irot  :   7
 --------------------------------------------------------------------
 isymop:  -1   0   0
           0   0  -1
           0  -1   0

 gtrans:     0.0000000     0.0000000     0.0000000

 ptrans:     0.0000000     0.0000000     0.0000000
 rotmap:
 (   1->   2)  (   2->   1) 


 irot  :   8
 --------------------------------------------------------------------
 isymop:   1   0   0
           0   0   1
           0   1   0

 gtrans:     0.0000000     0.0000000     0.0000000

 ptrans:     0.0000000     0.0000000     0.0000000
 rotmap:
 (   1->   1)  (   2->   2) 


 irot  :   9
 --------------------------------------------------------------------
 isymop:   0  -1   0
          -1   0   0
           0   0  -1

 gtrans:     0.0000000     0.0000000     0.0000000

 ptrans:     0.0000000     0.0000000     0.0000000
 rotmap:
 (   1->   2)  (   2->   1) 


 irot  :  10
 --------------------------------------------------------------------
 isymop:   0   1   0
           1   0   0
           0   0   1

 gtrans:     0.0000000     0.0000000     0.0000000

 ptrans:     0.0000000     0.0000000     0.0000000
 rotmap:
 (   1->   1)  (   2->   2) 


 irot  :  11
 --------------------------------------------------------------------
 isymop:   0   0  -1
           0  -1   0
          -1   0   0

 gtrans:     0.0000000     0.0000000     0.0000000

 ptrans:     0.0000000     0.0000000     0.0000000
 rotmap:
 (   1->   2)  (   2->   1) 


 irot  :  12
 --------------------------------------------------------------------
 isymop:   0   0   1
           0   1   0
           1   0   0

 gtrans:     0.0000000     0.0000000     0.0000000

 ptrans:     0.0000000     0.0000000     0.0000000
 rotmap:
 (   1->   1)  (   2->   2) 


 irot  :  13
 --------------------------------------------------------------------
 isymop:   1   1   1
           0   0  -1
          -1   0   0

 gtrans:     0.5000000     0.0000000     0.0000000

 ptrans:     0.0000000     0.0000000     0.0000000
 rotmap:
 (   1->   2)  (   2->   1) 


 irot  :  14
 --------------------------------------------------------------------
 isymop:  -1  -1  -1
           0   0   1
           1   0   0

 gtrans:     0.5000000     0.0000000     0.0000000

 ptrans:     0.0000000     0.0000000     0.0000000
 rotmap:
 (   1->   1)  (   2->   2) 


 irot  :  15
 --------------------------------------------------------------------
 isymop:   1   1   1
           0  -1   0
           0   0  -1

 gtrans:     0.5000000     0.0000000     0.0000000

 ptrans:     0.0000000     0.0000000     0.0000000
 rotmap:
 (   1->   2)  (   2->   1) 


 irot  :  16
 --------------------------------------------------------------------
 isymop:  -1  -1  -1
           0   1   0
           0   0   1

 gtrans:     0.5000000     0.0000000     0.0000000

 ptrans:     0.0000000     0.0000000     0.0000000
 rotmap:
 (   1->   1)  (   2->   2) 


 irot  :  17
 --------------------------------------------------------------------
 isymop:   1   1   1
          -1   0   0
           0  -1   0

 gtrans:     0.5000000     0.0000000     0.0000000

 ptrans:     0.0000000     0.0000000     0.0000000
 rotmap:
 (   1->   2)  (   2->   1) 


 irot  :  18
 --------------------------------------------------------------------
 isymop:  -1  -1  -1
           1   0   0
           0   1   0

 gtrans:     0.5000000     0.0000000     0.0000000

 ptrans:     0.0000000     0.0000000     0.0000000
 rotmap:
 (   1->   1)  (   2->   2) 


 irot  :  19
 --------------------------------------------------------------------
 isymop:   0   1   0
           1   0   0
          -1  -1  -1

 gtrans:     0.0000000     0.0000000     0.5000000

 ptrans:     0.0000000     0.0000000     0.0000000
 rotmap:
 (   1->   1)  (   2->   2) 


 irot  :  20
 --------------------------------------------------------------------
 isymop:   0  -1   0
          -1   0   0
           1   1   1

 gtrans:     0.0000000     0.0000000     0.5000000

 ptrans:     0.0000000     0.0000000     0.0000000
 rotmap:
 (   1->   2)  (   2->   1) 


 irot  :  21
 --------------------------------------------------------------------
 isymop:   1   0   0
           0   0   1
          -1  -1  -1

 gtrans:     0.0000000     0.0000000     0.5000000

 ptrans:     0.0000000     0.0000000     0.0000000
 rotmap:
 (   1->   1)  (   2->   2) 


 irot  :  22
 --------------------------------------------------------------------
 isymop:  -1   0   0
           0   0  -1
           1   1   1

 gtrans:     0.0000000     0.0000000     0.5000000

 ptrans:     0.0000000     0.0000000     0.0000000
 rotmap:
 (   1->   2)  (   2->   1) 


 irot  :  23
 --------------------------------------------------------------------
 isymop:   0   0   1
           0   1   0
          -1  -1  -1

 gtrans:     0.0000000     0.0000000     0.5000000

 ptrans:     0.0000000     0.0000000     0.0000000
 rotmap:
 (   1->   1)  (   2->   2) 


 irot  :  24
 --------------------------------------------------------------------
 isymop:   0   0  -1
           0  -1   0
           1   1   1

 gtrans:     0.0000000     0.0000000     0.5000000

 ptrans:     0.0000000     0.0000000     0.0000000
 rotmap:
 (   1->   2)  (   2->   1) 


 irot  :  25
 --------------------------------------------------------------------
 isymop:   0   0  -1
           1   1   1
           0  -1   0

 gtrans:     0.0000000     0.5000000     0.0000000

 ptrans:     0.0000000     0.0000000     0.0000000
 rotmap:
 (   1->   2)  (   2->   1) 


 irot  :  26
 --------------------------------------------------------------------
 isymop:   0   0   1
          -1  -1  -1
           0   1   0

 gtrans:     0.0000000     0.5000000     0.0000000

 ptrans:     0.0000000     0.0000000     0.0000000
 rotmap:
 (   1->   1)  (   2->   2) 


 irot  :  27
 --------------------------------------------------------------------
 isymop:   0  -1   0
           1   1   1
          -1   0   0

 gtrans:     0.0000000     0.5000000     0.0000000

 ptrans:     0.0000000     0.0000000     0.0000000
 rotmap:
 (   1->   2)  (   2->   1) 


 irot  :  28
 --------------------------------------------------------------------
 isymop:   0   1   0
          -1  -1  -1
           1   0   0

 gtrans:     0.0000000     0.5000000     0.0000000

 ptrans:     0.0000000     0.0000000     0.0000000
 rotmap:
 (   1->   1)  (   2->   2) 


 irot  :  29
 --------------------------------------------------------------------
 isymop:  -1   0   0
           1   1   1
           0   0  -1

 gtrans:     0.0000000     0.5000000     0.0000000

 ptrans:     0.0000000     0.0000000     0.0000000
 rotmap:
 (   1->   2)  (   2->   1) 


 irot  :  30
 --------------------------------------------------------------------
 isymop:   1   0   0
          -1  -1  -1
           0   0   1

 gtrans:     0.0000000     0.5000000     0.0000000

 ptrans:     0.0000000     0.0000000     0.0000000
 rotmap:
 (   1->   1)  (   2->   2) 


 irot  :  31
 --------------------------------------------------------------------
 isymop:  -1  -1  -1
           0   1   0
           1   0   0

 gtrans:     0.5000000     0.0000000     0.0000000

 ptrans:     0.0000000     0.0000000     0.0000000
 rotmap:
 (   1->   1)  (   2->   2) 


 irot  :  32
 --------------------------------------------------------------------
 isymop:   1   1   1
           0  -1   0
          -1   0   0

 gtrans:     0.5000000     0.0000000     0.0000000

 ptrans:     0.0000000     0.0000000     0.0000000
 rotmap:
 (   1->   2)  (   2->   1) 


 irot  :  33
 --------------------------------------------------------------------
 isymop:  -1  -1  -1
           1   0   0
           0   0   1

 gtrans:     0.5000000     0.0000000     0.0000000

 ptrans:     0.0000000     0.0000000     0.0000000
 rotmap:
 (   1->   1)  (   2->   2) 


 irot  :  34
 --------------------------------------------------------------------
 isymop:   1   1   1
          -1   0   0
           0   0  -1

 gtrans:     0.5000000     0.0000000     0.0000000

 ptrans:     0.0000000     0.0000000     0.0000000
 rotmap:
 (   1->   2)  (   2->   1) 


 irot  :  35
 --------------------------------------------------------------------
 isymop:  -1  -1  -1
           0   0   1
           0   1   0

 gtrans:     0.5000000     0.0000000     0.0000000

 ptrans:     0.0000000     0.0000000     0.0000000
 rotmap:
 (   1->   1)  (   2->   2) 


 irot  :  36
 --------------------------------------------------------------------
 isymop:   1   1   1
           0   0  -1
           0  -1   0

 gtrans:     0.5000000     0.0000000     0.0000000

 ptrans:     0.0000000     0.0000000     0.0000000
 rotmap:
 (   1->   2)  (   2->   1) 


 irot  :  37
 --------------------------------------------------------------------
 isymop:   0  -1   0
           0   0  -1
           1   1   1

 gtrans:     0.0000000     0.0000000     0.5000000

 ptrans:     0.0000000     0.0000000     0.0000000
 rotmap:
 (   1->   2)  (   2->   1) 


 irot  :  38
 --------------------------------------------------------------------
 isymop:   0   1   0
           0   0   1
          -1  -1  -1

 gtrans:     0.0000000     0.0000000     0.5000000

 ptrans:     0.0000000     0.0000000     0.0000000
 rotmap:
 (   1->   1)  (   2->   2) 


 irot  :  39
 --------------------------------------------------------------------
 isymop:  -1   0   0
           0  -1   0
           1   1   1

 gtrans:     0.0000000     0.0000000     0.5000000

 ptrans:     0.0000000     0.0000000     0.0000000
 rotmap:
 (   1->   2)  (   2->   1) 


 irot  :  40
 --------------------------------------------------------------------
 isymop:   1   0   0
           0   1   0
          -1  -1  -1

 gtrans:     0.0000000     0.0000000     0.5000000

 ptrans:     0.0000000     0.0000000     0.0000000
 rotmap:
 (   1->   1)  (   2->   2) 


 irot  :  41
 --------------------------------------------------------------------
 isymop:   0   0  -1
          -1   0   0
           1   1   1

 gtrans:     0.0000000     0.0000000     0.5000000

 ptrans:     0.0000000     0.0000000     0.0000000
 rotmap:
 (   1->   2)  (   2->   1) 


 irot  :  42
 --------------------------------------------------------------------
 isymop:   0   0   1
           1   0   0
          -1  -1  -1

 gtrans:     0.0000000     0.0000000     0.5000000

 ptrans:     0.0000000     0.0000000     0.0000000
 rotmap:
 (   1->   1)  (   2->   2) 


 irot  :  43
 --------------------------------------------------------------------
 isymop:   1   0   0
          -1  -1  -1
           0   1   0

 gtrans:     0.0000000     0.5000000     0.0000000

 ptrans:     0.0000000     0.0000000     0.0000000
 rotmap:
 (   1->   1)  (   2->   2) 


 irot  :  44
 --------------------------------------------------------------------
 isymop:  -1   0   0
           1   1   1
           0  -1   0

 gtrans:     0.0000000     0.5000000     0.0000000

 ptrans:     0.0000000     0.0000000     0.0000000
 rotmap:
 (   1->   2)  (   2->   1) 


 irot  :  45
 --------------------------------------------------------------------
 isymop:   0   0   1
          -1  -1  -1
           1   0   0

 gtrans:     0.0000000     0.5000000     0.0000000

 ptrans:     0.0000000     0.0000000     0.0000000
 rotmap:
 (   1->   1)  (   2->   2) 


 irot  :  46
 --------------------------------------------------------------------
 isymop:   0   0  -1
           1   1   1
          -1   0   0

 gtrans:     0.0000000     0.5000000     0.0000000

 ptrans:     0.0000000     0.0000000     0.0000000
 rotmap:
 (   1->   2)  (   2->   1) 


 irot  :  47
 --------------------------------------------------------------------
 isymop:   0   1   0
          -1  -1  -1
           0   0   1

 gtrans:     0.0000000     0.5000000     0.0000000

 ptrans:     0.0000000     0.0000000     0.0000000
 rotmap:
 (   1->   1)  (   2->   2) 


 irot  :  48
 --------------------------------------------------------------------
 isymop:   0  -1   0
           1   1   1
           0   0  -1

 gtrans:     0.0000000     0.5000000     0.0000000

 ptrans:     0.0000000     0.0000000     0.0000000
 rotmap:
 (   1->   2)  (   2->   1) 
 
 
 KPOINTS: Automatic kpoint scheme                 

Automatic generation of k-mesh.
Space group operators:
 irot       det(A)        alpha          n_x          n_y          n_z        tau_x        tau_y        tau_z
    1     1.000000     0.000000     1.000000     0.000000     0.000000     0.000000     0.000000     0.000000
    2    -1.000000     0.000000     1.000000     0.000000     0.000000     0.000000     0.000000     0.000000
    3     1.000000   120.000000    -0.471405    -0.333333    -0.816497     0.000000     0.000000     0.000000
    4    -1.000000   120.000000    -0.471405    -0.333333    -0.816497     0.000000     0.000000     0.000000
    5     1.000000   120.000000     0.471405     0.333334     0.816496     0.000000     0.000000     0.000000
    6    -1.000000   120.000000     0.471405     0.333334     0.816496     0.000000     0.000000     0.000000
    7     1.000000   180.000000     0.288675     0.816497    -0.500000     0.000000     0.000000     0.000000
    8    -1.000000   180.000000     0.288675     0.816497    -0.500000     0.000000     0.000000     0.000000
    9     1.000000   180.000000     0.577350    -0.816497     0.000000     0.000000     0.000000     0.000000
   10    -1.000000   180.000000     0.577350    -0.816497     0.000000     0.000000     0.000000     0.000000
   11     1.000000   180.000000     0.866025     0.000000    -0.500000     0.000000     0.000000     0.000000
   12    -1.000000   180.000000     0.866025     0.000000    -0.500000     0.000000     0.000000     0.000000
   13     1.000000    90.000000    -0.816496    -0.577350     0.000000     0.500000     0.000000     0.000000
   14    -1.000000    90.000000    -0.816496    -0.577350     0.000000     0.500000     0.000000     0.000000
   15     1.000000   180.000000     0.866025     0.000000     0.500000     0.500000     0.000000     0.000000
   16    -1.000000   180.000000     0.866025     0.000000     0.500000     0.500000     0.000000     0.000000
   17     1.000000    90.000000     0.408248    -0.577350     0.707107     0.500000     0.000000     0.000000
   18    -1.000000    90.000000     0.408248    -0.577350     0.707107     0.500000     0.000000     0.000000
   19     1.000000   180.000000     0.816497     0.577350     0.000000     0.000000     0.000000     0.500000
   20    -1.000000   180.000000     0.816497     0.577350     0.000000     0.000000     0.000000     0.500000
   21     1.000000   120.000000     0.942809    -0.333333     0.000000     0.000000     0.000000     0.500000
   22    -1.000000   120.000000     0.942809    -0.333333     0.000000     0.000000     0.000000     0.500000
   23     1.000000   120.000000     0.000000    -1.000000     0.000000     0.000000     0.000000     0.500000
   24    -1.000000   120.000000     0.000000    -1.000000     0.000000     0.000000     0.000000     0.500000
   25     1.000000    90.000000     0.816497     0.577350     0.000000     0.000000     0.500000     0.000000
   26    -1.000000    90.000000     0.816497     0.577350     0.000000     0.000000     0.500000     0.000000
   27     1.000000    90.000000     0.408248    -0.577350    -0.707107     0.000000     0.500000     0.000000
   28    -1.000000    90.000000     0.408248    -0.577350    -0.707107     0.000000     0.500000     0.000000
   29     1.000000   180.000000     0.288675     0.816497     0.500000     0.000000     0.500000     0.000000
   30    -1.000000   180.000000     0.288675     0.816497     0.500000     0.000000     0.500000     0.000000
   31     1.000000   120.000000     0.000000     1.000000     0.000000     0.500000     0.000000     0.000000
   32    -1.000000   120.000000     0.000000     1.000000     0.000000     0.500000     0.000000     0.000000
   33     1.000000   120.000000     0.471404     0.333333    -0.816497     0.500000     0.000000     0.000000
   34    -1.000000   120.000000     0.471404     0.333333    -0.816497     0.500000     0.000000     0.000000
   35     1.000000   180.000000    -0.408248     0.577350     0.707107     0.500000     0.000000     0.000000
   36    -1.000000   180.000000    -0.408248     0.577350     0.707107     0.500000     0.000000     0.000000
   37     1.000000    90.000000    -0.408248     0.577350    -0.707107     0.000000     0.000000     0.500000
   38    -1.000000    90.000000    -0.408248     0.577350    -0.707107     0.000000     0.000000     0.500000
   39     1.000000   180.000000     0.000000     0.000000     1.000000     0.000000     0.000000     0.500000
   40    -1.000000   180.000000     0.000000     0.000000     1.000000     0.000000     0.000000     0.500000
   41     1.000000    90.000000    -0.408248     0.577350     0.707107     0.000000     0.000000     0.500000
   42    -1.000000    90.000000    -0.408248     0.577350     0.707107     0.000000     0.000000     0.500000
   43     1.000000   120.000000    -0.942809     0.333333     0.000000     0.000000     0.500000     0.000000
   44    -1.000000   120.000000    -0.942809     0.333333     0.000000     0.000000     0.500000     0.000000
   45     1.000000   179.999999    -0.408248     0.577350    -0.707107     0.000000     0.500000     0.000000
   46    -1.000000   179.999999    -0.408248     0.577350    -0.707107     0.000000     0.500000     0.000000
   47     1.000000   120.000000    -0.471404    -0.333333     0.816497     0.000000     0.500000     0.000000
   48    -1.000000   120.000000    -0.471404    -0.333333     0.816497     0.000000     0.500000     0.000000
 
 Subroutine IBZKPT returns following result:
 ===========================================
 
 Found     16 irreducible k-points:
 
 Following reciprocal coordinates:
            Coordinates               Weight
  0.000000  0.000000  0.000000      1.000000
  0.166667  0.000000  0.000000      8.000000
  0.333333  0.000000  0.000000      8.000000
  0.500000  0.000000  0.000000      4.000000
  0.166667  0.166667  0.000000      6.000000
  0.333333  0.166667  0.000000     24.000000
  0.500000  0.166667  0.000000     24.000000
 -0.333333  0.166667  0.000000     24.000000
 -0.166667  0.166667  0.000000     12.000000
  0.333333  0.333333  0.000000      6.000000
  0.500000  0.333333  0.000000     24.000000
 -0.333333  0.333333  0.000000     12.000000
  0.500000  0.500000  0.000000      3.000000
  0.500000  0.333333  0.166667     24.000000
 -0.333333  0.333333  0.166667     24.000000
 -0.333333  0.500000  0.166667     12.000000
 
 Following cartesian coordinates:
            Coordinates               Weight
  0.000000  0.000000  0.000000      1.000000
  0.049768 -0.017595  0.000000      8.000000
  0.099535 -0.035191  0.000000      8.000000
  0.149303 -0.052786  0.000000      4.000000
  0.049768  0.035191  0.000000      6.000000
  0.099535  0.017596  0.000000     24.000000
  0.149303  0.000000  0.000000     24.000000
 -0.099535  0.087978  0.000000     24.000000
 -0.049768  0.070382  0.000000     12.000000
  0.099535  0.070382  0.000000      6.000000
  0.149303  0.052787  0.000000     24.000000
 -0.099535  0.140764  0.000000     12.000000
  0.149303  0.105573  0.000000      3.000000
  0.124419  0.035191  0.043100     24.000000
 -0.124419  0.123169  0.043100     24.000000
 -0.124419  0.175955  0.043100     12.000000
 


--------------------------------------------------------------------------------------------------------




 Dimension of arrays:
   k-points           NKPTS =     16   k-points in BZ     NKDIM =     16   number of bands    NBANDS=      8
   number of dos      NEDOS =    301   number of ions     NIONS =      2
   non local maximal  LDIM  =      4   non local SUM 2l+1 LMDIM =      8
   total plane-waves  NPLWV =  27000
   max r-space proj   IRMAX =      1   max aug-charges    IRDMAX=  22275
   dimension x,y,z NGX =    30 NGY =   30 NGZ =   30
   dimension x,y,z NGXF=    60 NGYF=   60 NGZF=   60
   support grid    NGXF=    60 NGYF=   60 NGZF=   60
   ions per type =               2
 NGX,Y,Z   is equivalent  to a cutoff of  12.90, 12.90, 12.90 a.u.
 NGXF,Y,Z  is equivalent  to a cutoff of  25.79, 25.79, 25.79 a.u.


 I would recommend the setting:
   dimension x,y,z NGX =    30 NGY =   30 NGZ =   30
 SYSTEM =  unknown system                          
 POSCAR =  bulk@mp_149                             

 Startparameter for this run:
   NWRITE =      2    write-flag & timer
   PREC   = accura    normal or accurate (medium, high low for compatibility)
   ISTART =      0    job   : 0-new  1-cont  2-samecut
   ICHARG =      2    charge: 1-file 2-atom 10-const
   ISPIN  =      1    spin polarized calculation?
   LNONCOLLINEAR =      F non collinear calculations
   LSORBIT =      F    spin-orbit coupling
   INIWAV =      1    electr: 0-lowe 1-rand  2-diag
   LASPH  =      F    aspherical Exc in radial PAW
   METAGGA=      F    non-selfconsistent MetaGGA calc.

 Electronic Relaxation 1
   ENCUT  =  550.0 eV  40.42 Ry    6.36 a.u.   7.39  7.39  7.39*2*pi/ulx,y,z
   ENINI  =  550.0     initial cutoff
   ENAUG  =  322.1 eV  augmentation charge cutoff
   NELM   =    400;   NELMIN=  2; NELMDL= -5     # of ELM steps 
   EDIFF  = 0.1E-06   stopping-criterion for ELM
   LREAL  =      F    real-space projection
   NLSPLINE    = F    spline interpolate recip. space projectors
   LCOMPAT=      F    compatible to vasp.4.4
   GGA_COMPAT  = T    GGA compatible to vasp.4.4-vasp.4.6
   LMAXPAW     = -100 max onsite density
   LMAXMIX     =    2 max onsite mixed and CHGCAR
   VOSKOWN=      0    Vosko Wilk Nusair interpolation
   ROPT   =    0.00000
 Ionic relaxation
   EDIFFG = 0.1E-05   stopping-criterion for IOM
   NSW    =      1    number of steps for IOM
   NBLOCK =      1;   KBLOCK =      1    inner block; outer block 
   IBRION =      2    ionic relax: 0-MD 1-quasi-New 2-CG
   NFREE  =      1    steps in history (QN), initial steepest desc. (CG)
   ISIF   =      2    stress and relaxation
   IWAVPR =     11    prediction:  0-non 1-charg 2-wave 3-comb
   ISYM   =      2    0-nonsym 1-usesym 2-fastsym
   LCORR  =      T    Harris-Foulkes like correction to forces

   POTIM  = 0.5000    time-step for ionic-motion
   TEIN   =    0.0    initial temperature
   TEBEG  =    0.0;   TEEND  =   0.0 temperature during run
   SMASS  =  -3.00    Nose mass-parameter (am)
   estimated Nose-frequenzy (Omega)   =  0.10E-29 period in steps =****** mass=  -0.342E-27a.u.
   SCALEE = 1.0000    scale energy and forces
   NPACO  =    256;   APACO  = 16.0  distance and # of slots for P.C.
   PSTRESS=    0.0 pullay stress

  Mass of Ions in am
   POMASS =  28.09
  Ionic Valenz
   ZVAL   =   4.00
  Atomic Wigner-Seitz radii
   RWIGS  =  -1.00
  virtual crystal weights 
   VCA    =   1.00
   NELECT =       8.0000    total number of electrons
   NUPDOWN=      -1.0000    fix difference up-down

 DOS related values:
   EMIN   =  10.00;   EMAX   =-10.00  energy-range for DOS
   EFERMI =   0.00
   ISMEAR =     0;   SIGMA  =   0.20  broadening in eV -4-tet -1-fermi 0-gaus

 Electronic relaxation 2 (details)
   IALGO  =     38    algorithm
   LDIAG  =      T    sub-space diagonalisation (order eigenvalues)
   LSUBROT=      T    optimize rotation matrix (better conditioning)
   TURBO    =      0    0=normal 1=particle mesh
   IRESTART =      0    0=no restart 2=restart with 2 vectors
   NREBOOT  =      0    no. of reboots
   NMIN     =      0    reboot dimension
   EREF     =   0.00    reference energy to select bands
   IMIX   =      4    mixing-type and parameters
     AMIX     =   0.40;   BMIX     =  1.00
     AMIX_MAG =   1.60;   BMIX_MAG =  1.00
     AMIN     =   0.10
     WC   =   100.;   INIMIX=   1;  MIXPRE=   1;  MAXMIX= -45

 Intra band minimization:
   WEIMIN = 0.0010     energy-eigenvalue tresh-hold
   EBREAK =  0.31E-08  absolut break condition
   DEPER  =   0.30     relativ break condition  

   TIME   =   0.40     timestep for ELM

  volume/ion in A,a.u.               =      20.44       137.96
  Fermi-wavevector in a.u.,A,eV,Ry     =   0.950397  1.795990 12.289528  0.903255
  Thomas-Fermi vector in A             =   2.078770
 
 Write flags
   LWAVE  =      F    write WAVECAR
   LCHARG =      F    write CHGCAR
   LVTOT  =      F    write LOCPOT, total local potential
   LVHAR  =      F    write LOCPOT, Hartree potential only
   LELF   =      F    write electronic localiz. function (ELF)
   LORBIT =      0    0 simple, 1 ext, 2 COOP (PROOUT)


 Dipole corrections
   LMONO  =      F    monopole corrections only (constant potential shift)
   LDIPOL =      F    correct potential (dipole corrections)
   IDIPOL =      0    1-x, 2-y, 3-z, 4-all directions 
   EPSILON=  1.0000000 bulk dielectric constant

 Exchange correlation treatment:
   GGA     =    BO    GGA type
   LEXCH   =    42    internal setting for exchange type
   VOSKOWN=      0    Vosko Wilk Nusair interpolation
   LHFCALC =     F    Hartree Fock is set to
   LHFONE  =     F    Hartree Fock one center treatment
   AEXX    =    0.0000 exact exchange contribution

 vdW DFT:
   LUSE_VDW   =     T    switch on vdW DFT
   Zab_VDW    =-.8491    correlation parameter
   PARAM1     =0.1833
   PARAM2     =0.2200
   PARAM3     =0.0000

 Linear response parameters
   LEPSILON=     F    determine dielectric tensor
   LRPA    =     F    only Hartree local field effects (RPA)
   LNABLA  =     F    use nabla operator in PAW spheres
   LVEL    =     F    velocity operator in full k-point grid
   LINTERFAST=   F  fast interpolation
   KINTER  =     0    interpolate to denser k-point grid
   CSHIFT  =0.1000    complex shift for real part using Kramers Kronig
   OMEGAMAX=  -1.0    maximum frequency
   DEG_THRESHOLD= 0.2000000E-02 threshold for treating states as degnerate
   RTIME   =    0.100 relaxation time in fs

 Orbital magnetization related:
   ORBITALMAG=     F  switch on orbital magnetization
   LCHIMAG   =     F  perturbation theory with respect to B field
   DQ        =  0.001000  dq finite difference perturbation B field



--------------------------------------------------------------------------------------------------------


 conjugate gradient relaxation of ions
 charge density and potential will be updated during run
 non-spin polarized calculation
 Variant of blocked Davidson
 Davidson routine will perform the subspace rotation
 perform sub-space diagonalisation
    after iterative eigenvector-optimisation
 modified Broyden-mixing scheme, WC =      100.0
 initial mixing is a Kerker type mixing with AMIX =  0.4000 and BMIX =      1.0000
 Hartree-type preconditioning will be used
 using additional bands            4
 reciprocal scheme for non local part
 use partial core corrections
 calculate Harris-corrections to forces 
   (improved forces if not selfconsistent)
 use gradient corrections 
 use of overlap-Matrix (Vanderbilt PP)
 Gauss-broadening in eV      SIGMA  =   0.20


--------------------------------------------------------------------------------------------------------


  energy-cutoff  :      550.00
  volume of cell :       40.89
      direct lattice vectors                 reciprocal lattice vectors
     3.348898000  0.000000000  1.933487000     0.298605691 -0.105573000  0.000000000
     1.116299000  3.157372000  1.933487000     0.000000000  0.316719094  0.000000000
     0.000000000  0.000000000  3.866975000    -0.149302807 -0.105573020  0.258600069

  length of vectors
     3.866974243  3.866974707  3.866975000     0.316719145  0.316719094  0.316719096


 
 k-points in units of 2pi/SCALE and weight: Automatic kpoint scheme                 
   0.00000000  0.00000000  0.00000000       0.005
   0.04976762 -0.01759550  0.00000000       0.037
   0.09953523 -0.03519100  0.00000000       0.037
   0.14930285 -0.05278650  0.00000000       0.019
   0.04976762  0.03519102  0.00000000       0.028
   0.09953523  0.01759552  0.00000000       0.111
   0.14930285  0.00000002  0.00000000       0.111
  -0.09953523  0.08797752  0.00000000       0.111
  -0.04976762  0.07038202  0.00000000       0.056
   0.09953523  0.07038203  0.00000000       0.028
   0.14930285  0.05278653  0.00000000       0.111
  -0.09953523  0.14076403  0.00000000       0.056
   0.14930285  0.10557305  0.00000000       0.014
   0.12441904  0.03519103  0.04310001       0.111
  -0.12441903  0.12316853  0.04310001       0.111
  -0.12441903  0.17595504  0.04310001       0.056
 
 k-points in reciprocal lattice and weights: Automatic kpoint scheme                 
   0.00000000  0.00000000  0.00000000       0.005
   0.16666667  0.00000000  0.00000000       0.037
   0.33333333  0.00000000  0.00000000       0.037
   0.50000000  0.00000000  0.00000000       0.019
   0.16666667  0.16666667  0.00000000       0.028
   0.33333333  0.16666667  0.00000000       0.111
   0.50000000  0.16666667  0.00000000       0.111
  -0.33333333  0.16666667  0.00000000       0.111
  -0.16666667  0.16666667  0.00000000       0.056
   0.33333333  0.33333333  0.00000000       0.028
   0.50000000  0.33333333  0.00000000       0.111
  -0.33333333  0.33333333  0.00000000       0.056
   0.50000000  0.50000000  0.00000000       0.014
   0.50000000  0.33333333  0.16666667       0.111
  -0.33333333  0.33333333  0.16666667       0.111
  -0.33333333  0.50000000  0.16666667       0.056
 
 position of ions in fractional coordinates (direct lattice) 
   0.87500000  0.87500000  0.87500000
   0.12500000  0.12500000  0.12500000
 
 position of ions in cartesian coordinates  (Angst):
   3.90704738  2.76270050  6.76720537
   0.55814962  0.39467150  0.96674362
 


--------------------------------------------------------------------------------------------------------


 k-point  1 :   0.0000 0.0000 0.0000  plane waves:    1243
 k-point  2 :   0.1667 0.0000 0.0000  plane waves:    1203
 k-point  3 :   0.3333 0.0000 0.0000  plane waves:    1194
 k-point  4 :   0.5000 0.0000 0.0000  plane waves:    1194
 k-point  5 :   0.1667 0.1667 0.0000  plane waves:    1199
 k-point  6 :   0.3333 0.1667 0.0000  plane waves:    1207
 k-point  7 :   0.5000 0.1667 0.0000  plane waves:    1201
 k-point  8 :  -0.3333 0.1667 0.0000  plane waves:    1192
 k-point  9 :  -0.1667 0.1667 0.0000  plane waves:    1193
 k-point 10 :   0.3333 0.3333 0.0000  plane waves:    1218
 k-point 11 :   0.5000 0.3333 0.0000  plane waves:    1195
 k-point 12 :  -0.3333 0.3333 0.0000  plane waves:    1196
 k-point 13 :   0.5000 0.5000 0.0000  plane waves:    1186
 k-point 14 :   0.5000 0.3333 0.1667  plane waves:    1192
 k-point 15 :  -0.3333 0.3333 0.1667  plane waves:    1192
 k-point 16 :  -0.3333 0.5000 0.1667  plane waves:    1186

 maximum and minimum number of plane-waves per node :       314      289

 maximum number of plane-waves:      1243
 maximum index in each direction: 
   IXMAX=    7   IYMAX=    7   IZMAX=    7
   IXMIN=   -7   IYMIN=   -7   IZMIN=   -7

 NGX is ok and might be reduce to  30
 NGY is ok and might be reduce to  30
 NGZ is ok and might be reduce to  30

 parallel 3D FFT for wavefunctions:
    minimum data exchange during FFTs selected (reduces bandwidth)
 parallel 3D FFT for charge:
    minimum data exchange during FFTs selected (reduces bandwidth)


 total amount of memory used by VASP on root node    32199. kBytes
========================================================================

   base      :      30000. kBytes
   nonl-proj :        333. kBytes
   fftplans  :        700. kBytes
   grid      :        998. kBytes
   one-center:          3. kBytes
   wavefun   :        165. kBytes
 
 Broyden mixing: mesh for mixing (old mesh)
   NGX = 15   NGY = 15   NGZ = 15
  (NGX  = 60   NGY  = 60   NGZ  = 60)
  gives a total of   3375 points

 initial charge density was supplied:
 charge density of overlapping atoms calculated
 number of electron       8.0000000 magnetization 
 keeping initial charge density in first step


--------------------------------------------------------------------------------------------------------


 Maximum index for augmentation-charges         1526 (set IRDMAX)


--------------------------------------------------------------------------------------------------------


 First call to EWALD:  gamma=   0.514
 Maximum number of real-space cells 3x 3x 3
 Maximum number of reciprocal cells 3x 3x 3

 FEWALD executed in parallel
    FEWALD:  cpu time    0.00: real time    0.00


----------------------------------------- Iteration    1(   1)  ---------------------------------------


vdW kernel read from vdw_kernel.bindat
  0.0000  0.2424  0.5071  0.7962  1.1119  1.4567  1.8333  2.2446  2.6937  3.1842
  3.7199  4.3049  4.9438  5.6415  6.4036  7.2358  8.1446  9.1372 10.2212 11.4050
 12.6979 14.1099 15.6519 17.3360 19.1751 21.1837 23.3773 25.7729 28.3892 31.2465
 34.3669 37.7748 41.4965 45.5611 50.0000
 
    POTLOK:  cpu time    2.59: real time    3.39
    SETDIJ:  cpu time    0.00: real time    0.00
     EDDAV:  cpu time    0.09: real time    0.09
       DOS:  cpu time    0.00: real time    0.00
    --------------------------------------------
      LOOP:  cpu time    2.68: real time    3.97

 eigenvalue-minimisations  :   256
 total energy-change (2. order) : 0.7072403E+01  (-0.3347000E+03)
 number of electron       8.0000000 magnetization 
 augmentation part        8.0000000 magnetization 

 Free energy of the ion-electron system (eV)
  ---------------------------------------------------
  alpha Z        PSCENC =         3.29317992
  Ewald energy   TEWEN  =      -226.94489173
  -1/2 Hartree   DENC   =       -11.32339116
  -exchange  EXHF       =         0.00000000
  -V(xc)+E(xc)   XCENC  =       -20.24410379
  PAW double counting   =       189.40224250     -152.61488262
  entropy T*S    EENTRO =        -0.02889240
  eigenvalues    EBANDS =        16.93897924
  atomic energy  EATOM  =       208.59416316
  ---------------------------------------------------
  free energy    TOTEN  =         7.07240311 eV

  energy without entropy =        7.10129551  energy(sigma->0) =        7.08684931


--------------------------------------------------------------------------------------------------------




----------------------------------------- Iteration    1(   2)  ---------------------------------------


     EDDAV:  cpu time    0.17: real time    0.17
       DOS:  cpu time    0.00: real time    0.00
    --------------------------------------------
      LOOP:  cpu time    0.18: real time    5.83

 eigenvalue-minimisations  :   392
 total energy-change (2. order) :-0.1524078E+02  (-0.1440649E+02)
 number of electron       8.0000000 magnetization 
 augmentation part        8.0000000 magnetization 

 Free energy of the ion-electron system (eV)
  ---------------------------------------------------
  alpha Z        PSCENC =         3.29317992
  Ewald energy   TEWEN  =      -226.94489173
  -1/2 Hartree   DENC   =       -11.32339116
  -exchange  EXHF       =         0.00000000
  -V(xc)+E(xc)   XCENC  =       -20.24410379
  PAW double counting   =       189.40224250     -152.61488262
  entropy T*S    EENTRO =        -0.00000474
  eigenvalues    EBANDS =         1.66930918
  atomic energy  EATOM  =       208.59416316
  ---------------------------------------------------
  free energy    TOTEN  =        -8.16837930 eV

  energy without entropy =       -8.16837456  energy(sigma->0) =       -8.16837693


--------------------------------------------------------------------------------------------------------




----------------------------------------- Iteration    1(   3)  ---------------------------------------


     EDDAV:  cpu time    0.13: real time    0.13
       DOS:  cpu time    0.00: real time    0.00
    --------------------------------------------
      LOOP:  cpu time    0.13: real time    1.16

 eigenvalue-minimisations  :   384
 total energy-change (2. order) :-0.2269969E+00  (-0.2269968E+00)
 number of electron       8.0000000 magnetization 
 augmentation part        8.0000000 magnetization 

 Free energy of the ion-electron system (eV)
  ---------------------------------------------------
  alpha Z        PSCENC =         3.29317992
  Ewald energy   TEWEN  =      -226.94489173
  -1/2 Hartree   DENC   =       -11.32339116
  -exchange  EXHF       =         0.00000000
  -V(xc)+E(xc)   XCENC  =       -20.24410379
  PAW double counting   =       189.40224250     -152.61488262
  entropy T*S    EENTRO =        -0.00000302
  eigenvalues    EBANDS =         1.44231053
  atomic energy  EATOM  =       208.59416316
  ---------------------------------------------------
  free energy    TOTEN  =        -8.39537622 eV

  energy without entropy =       -8.39537321  energy(sigma->0) =       -8.39537471


--------------------------------------------------------------------------------------------------------




----------------------------------------- Iteration    1(   4)  ---------------------------------------


     EDDAV:  cpu time    0.15: real time    0.15
       DOS:  cpu time    0.00: real time    0.00
    --------------------------------------------
      LOOP:  cpu time    0.15: real time    2.11

 eigenvalue-minimisations  :   384
 total energy-change (2. order) :-0.4989516E-03  (-0.4989508E-03)
 number of electron       8.0000000 magnetization 
 augmentation part        8.0000000 magnetization 

 Free energy of the ion-electron system (eV)
  ---------------------------------------------------
  alpha Z        PSCENC =         3.29317992
  Ewald energy   TEWEN  =      -226.94489173
  -1/2 Hartree   DENC   =       -11.32339116
  -exchange  EXHF       =         0.00000000
  -V(xc)+E(xc)   XCENC  =       -20.24410379
  PAW double counting   =       189.40224250     -152.61488262
  entropy T*S    EENTRO =        -0.00000302
  eigenvalues    EBANDS =         1.44181158
  atomic energy  EATOM  =       208.59416316
  ---------------------------------------------------
  free energy    TOTEN  =        -8.39587517 eV

  energy without entropy =       -8.39587216  energy(sigma->0) =       -8.39587366


--------------------------------------------------------------------------------------------------------




----------------------------------------- Iteration    1(   5)  ---------------------------------------


     EDDAV:  cpu time    0.13: real time    0.13
       DOS:  cpu time    0.00: real time    0.00
    CHARGE:  cpu time    0.04: real time    0.06
    MIXING:  cpu time    0.00: real time    0.00
    --------------------------------------------
      LOOP:  cpu time    0.17: real time    0.97

 eigenvalue-minimisations  :   360
 total energy-change (2. order) :-0.1058847E-05  (-0.1059090E-05)
 number of electron       8.0000000 magnetization 
 augmentation part       -0.4822842 magnetization 

 Broyden mixing:
  rms(total) = 0.37551E+00    rms(broyden)= 0.37551E+00
  rms(prec ) = 0.90581E+00
  weight for this iteration     100.00

 Free energy of the ion-electron system (eV)
  ---------------------------------------------------
  alpha Z        PSCENC =         3.29317992
  Ewald energy   TEWEN  =      -226.94489173
  -1/2 Hartree   DENC   =       -11.32339116
  -exchange  EXHF       =         0.00000000
  -V(xc)+E(xc)   XCENC  =       -20.24410379
  PAW double counting   =       189.40224250     -152.61488262
  entropy T*S    EENTRO =        -0.00000302
  eigenvalues    EBANDS =         1.44181052
  atomic energy  EATOM  =       208.59416316
  ---------------------------------------------------
  free energy    TOTEN  =        -8.39587623 eV

  energy without entropy =       -8.39587321  energy(sigma->0) =       -8.39587472


--------------------------------------------------------------------------------------------------------




----------------------------------------- Iteration    1(   6)  ---------------------------------------


    POTLOK:  cpu time    1.21: real time    1.21
    SETDIJ:  cpu time    0.00: real time    0.00
     EDDAV:  cpu time    0.11: real time    0.11
       DOS:  cpu time    0.00: real time    0.00
    CHARGE:  cpu time    0.01: real time    0.01
    MIXING:  cpu time    0.00: real time    0.00
    --------------------------------------------
      LOOP:  cpu time    1.34: real time    2.36

 eigenvalue-minimisations  :   312
 total energy-change (2. order) : 0.5531785E-01  (-0.9010792E-02)
 number of electron       8.0000000 magnetization 
 augmentation part       -0.4752500 magnetization 

 Broyden mixing:
  rms(total) = 0.23060E+00    rms(broyden)= 0.23060E+00
  rms(prec ) = 0.54682E+00
  weight for this iteration     100.00

 eigenvalues of (default mixing * dielectric matrix)
  average eigenvalue GAMMA=   2.5752
  2.5752

 Free energy of the ion-electron system (eV)
  ---------------------------------------------------
  alpha Z        PSCENC =         3.29317992
  Ewald energy   TEWEN  =      -226.94489173
  -1/2 Hartree   DENC   =       -12.88767026
  -exchange  EXHF       =         0.00000000
  -V(xc)+E(xc)   XCENC  =       -20.00362308
  PAW double counting   =       308.94661875     -272.29470259
  entropy T*S    EENTRO =        -0.00001438
  eigenvalues    EBANDS =         2.95638184
  atomic energy  EATOM  =       208.59416316
  ---------------------------------------------------
  free energy    TOTEN  =        -8.34055838 eV

  energy without entropy =       -8.34054400  energy(sigma->0) =       -8.34055119


--------------------------------------------------------------------------------------------------------




----------------------------------------- Iteration    1(   7)  ---------------------------------------


    POTLOK:  cpu time    1.78: real time    2.12
    SETDIJ:  cpu time    0.01: real time    0.01
     EDDAV:  cpu time    0.20: real time    0.21
       DOS:  cpu time    0.00: real time    0.00
    CHARGE:  cpu time    0.03: real time    0.03
    MIXING:  cpu time    0.00: real time    0.00
    --------------------------------------------
      LOOP:  cpu time    2.02: real time    5.33

 eigenvalue-minimisations  :   328
 total energy-change (2. order) : 0.6411491E-02  (-0.2068796E-01)
 number of electron       8.0000000 magnetization 
 augmentation part       -0.4656716 magnetization 

 Broyden mixing:
  rms(total) = 0.18735E-01    rms(broyden)= 0.18735E-01
  rms(prec ) = 0.49022E-01
  weight for this iteration     100.00

 eigenvalues of (default mixing * dielectric matrix)
  average eigenvalue GAMMA=   2.3177
  2.3177  2.3177

 Free energy of the ion-electron system (eV)
  ---------------------------------------------------
  alpha Z        PSCENC =         3.29317992
  Ewald energy   TEWEN  =      -226.94489173
  -1/2 Hartree   DENC   =       -15.53552321
  -exchange  EXHF       =         0.00000000
  -V(xc)+E(xc)   XCENC  =       -19.57329049
  PAW double counting   =       560.39905086     -523.92360670
  entropy T*S    EENTRO =        -0.00012060
  eigenvalues    EBANDS =         5.35689191
  atomic energy  EATOM  =       208.59416316
  ---------------------------------------------------
  free energy    TOTEN  =        -8.33414689 eV

  energy without entropy =       -8.33402629  energy(sigma->0) =       -8.33408659


--------------------------------------------------------------------------------------------------------




----------------------------------------- Iteration    1(   8)  ---------------------------------------


    POTLOK:  cpu time    1.61: real time    1.62
    SETDIJ:  cpu time    0.00: real time    0.01
     EDDAV:  cpu time    0.18: real time    0.18
       DOS:  cpu time    0.00: real time    0.00
    CHARGE:  cpu time    0.02: real time    0.02
    MIXING:  cpu time    0.00: real time    0.00
    --------------------------------------------
      LOOP:  cpu time    1.82: real time    3.01

 eigenvalue-minimisations  :   280
 total energy-change (2. order) : 0.1698999E-01  (-0.6396607E-03)
 number of electron       8.0000000 magnetization 
 augmentation part       -0.4673293 magnetization 

 Broyden mixing:
  rms(total) = 0.99154E-02    rms(broyden)= 0.99154E-02
  rms(prec ) = 0.24033E-01
  weight for this iteration     100.00

 eigenvalues of (default mixing * dielectric matrix)
  average eigenvalue GAMMA=   2.0750
  2.7385  1.7432  1.7432

 Free energy of the ion-electron system (eV)
  ---------------------------------------------------
  alpha Z        PSCENC =         3.29317992
  Ewald energy   TEWEN  =      -226.94489173
  -1/2 Hartree   DENC   =       -15.30109447
  -exchange  EXHF       =         0.00000000
  -V(xc)+E(xc)   XCENC  =       -19.58845803
  PAW double counting   =       544.17434059     -507.63223770
  entropy T*S    EENTRO =        -0.00008205
  eigenvalues    EBANDS =         5.08792341
  atomic energy  EATOM  =       208.59416316
  ---------------------------------------------------
  free energy    TOTEN  =        -8.31715690 eV

  energy without entropy =       -8.31707485  energy(sigma->0) =       -8.31711588


--------------------------------------------------------------------------------------------------------




----------------------------------------- Iteration    1(   9)  ---------------------------------------


    POTLOK:  cpu time    1.62: real time    1.65
    SETDIJ:  cpu time    0.00: real time    0.01
     EDDAV:  cpu time    0.25: real time    0.25
       DOS:  cpu time    0.00: real time    0.00
    CHARGE:  cpu time    0.02: real time    0.02
    MIXING:  cpu time    0.00: real time    0.00
    --------------------------------------------
      LOOP:  cpu time    1.90: real time    2.72

 eigenvalue-minimisations  :   360
 total energy-change (2. order) :-0.1710414E-02  (-0.6196341E-04)
 number of electron       8.0000000 magnetization 
 augmentation part       -0.4669850 magnetization 

 Broyden mixing:
  rms(total) = 0.75201E-02    rms(broyden)= 0.75201E-02
  rms(prec ) = 0.84259E-02
  weight for this iteration     100.00

 eigenvalues of (default mixing * dielectric matrix)
  average eigenvalue GAMMA=   2.4725
  3.9379  0.9759  2.6547  2.3215

 Free energy of the ion-electron system (eV)
  ---------------------------------------------------
  alpha Z        PSCENC =         3.29317992
  Ewald energy   TEWEN  =      -226.94489173
  -1/2 Hartree   DENC   =       -15.44164988
  -exchange  EXHF       =         0.00000000
  -V(xc)+E(xc)   XCENC  =       -19.56601958
  PAW double counting   =       551.29867751     -514.76587434
  entropy T*S    EENTRO =        -0.00009049
  eigenvalues    EBANDS =         5.21363813
  atomic energy  EATOM  =       208.59416316
  ---------------------------------------------------
  free energy    TOTEN  =        -8.31886732 eV

  energy without entropy =       -8.31877682  energy(sigma->0) =       -8.31882207


--------------------------------------------------------------------------------------------------------




----------------------------------------- Iteration    1(  10)  ---------------------------------------


    POTLOK:  cpu time    1.62: real time    1.64
    SETDIJ:  cpu time    0.01: real time    0.01
     EDDAV:  cpu time    0.22: real time    0.22
       DOS:  cpu time    0.00: real time    0.00
    CHARGE:  cpu time    0.03: real time    0.03
    MIXING:  cpu time    0.00: real time    0.00
    --------------------------------------------
      LOOP:  cpu time    1.87: real time    3.09

 eigenvalue-minimisations  :   304
 total energy-change (2. order) : 0.6965408E-03  (-0.4283323E-05)
 number of electron       8.0000000 magnetization 
 augmentation part       -0.4670157 magnetization 

 Broyden mixing:
  rms(total) = 0.37335E-02    rms(broyden)= 0.37335E-02
  rms(prec ) = 0.38809E-02
  weight for this iteration     100.00

 eigenvalues of (default mixing * dielectric matrix)
  average eigenvalue GAMMA=   1.9061
  2.9468  2.4225  2.2575  0.9518  0.9518

 Free energy of the ion-electron system (eV)
  ---------------------------------------------------
  alpha Z        PSCENC =         3.29317992
  Ewald energy   TEWEN  =      -226.94489173
  -1/2 Hartree   DENC   =       -15.42548546
  -exchange  EXHF       =         0.00000000
  -V(xc)+E(xc)   XCENC  =       -19.56955195
  PAW double counting   =       534.03997376     -497.50478722
  entropy T*S    EENTRO =        -0.00008805
  eigenvalues    EBANDS =         5.19931681
  atomic energy  EATOM  =       208.59416316
  ---------------------------------------------------
  free energy    TOTEN  =        -8.31817077 eV

  energy without entropy =       -8.31808272  energy(sigma->0) =       -8.31812675


--------------------------------------------------------------------------------------------------------




----------------------------------------- Iteration    1(  11)  ---------------------------------------


    POTLOK:  cpu time    1.60: real time    1.63
    SETDIJ:  cpu time    0.00: real time    0.00
     EDDAV:  cpu time    0.23: real time    0.24
       DOS:  cpu time    0.00: real time    0.00
    CHARGE:  cpu time    0.02: real time    0.02
    MIXING:  cpu time    0.00: real time    0.00
    --------------------------------------------
      LOOP:  cpu time    1.86: real time    2.59

 eigenvalue-minimisations  :   376
 total energy-change (2. order) : 0.1808067E-04  (-0.1401635E-06)
 number of electron       8.0000000 magnetization 
 augmentation part       -0.4670294 magnetization 

 Broyden mixing:
  rms(total) = 0.30650E-03    rms(broyden)= 0.30650E-03
  rms(prec ) = 0.33827E-03
  weight for this iteration     100.00

 eigenvalues of (default mixing * dielectric matrix)
  average eigenvalue GAMMA=   1.9988
  2.9535  2.7520  2.1465  2.1465  0.9972  0.9972

 Free energy of the ion-electron system (eV)
  ---------------------------------------------------
  alpha Z        PSCENC =         3.29317992
  Ewald energy   TEWEN  =      -226.94489173
  -1/2 Hartree   DENC   =       -15.42898224
  -exchange  EXHF       =         0.00000000
  -V(xc)+E(xc)   XCENC  =       -19.56841466
  PAW double counting   =       539.04192462     -502.50662378
  entropy T*S    EENTRO =        -0.00008837
  eigenvalues    EBANDS =         5.20158039
  atomic energy  EATOM  =       208.59416316
  ---------------------------------------------------
  free energy    TOTEN  =        -8.31815269 eV

  energy without entropy =       -8.31806433  energy(sigma->0) =       -8.31810851


--------------------------------------------------------------------------------------------------------




----------------------------------------- Iteration    1(  12)  ---------------------------------------


    POTLOK:  cpu time    1.64: real time    1.66
    SETDIJ:  cpu time    0.01: real time    0.01
     EDDAV:  cpu time    0.22: real time    0.22
       DOS:  cpu time    0.00: real time    0.00
    CHARGE:  cpu time    0.03: real time    0.03
    MIXING:  cpu time    0.00: real time    0.00
    --------------------------------------------
      LOOP:  cpu time    1.90: real time    3.72

 eigenvalue-minimisations  :   320
 total energy-change (2. order) : 0.1560644E-05  (-0.6132279E-08)
 number of electron       8.0000000 magnetization 
 augmentation part       -0.4670301 magnetization 

 Broyden mixing:
  rms(total) = 0.13353E-03    rms(broyden)= 0.13353E-03
  rms(prec ) = 0.13532E-03
  weight for this iteration     100.00

 eigenvalues of (default mixing * dielectric matrix)
  average eigenvalue GAMMA=   1.9337
  3.0115  2.7230  2.5314  2.1883  0.9852  0.9852  1.1113

 Free energy of the ion-electron system (eV)
  ---------------------------------------------------
  alpha Z        PSCENC =         3.29317992
  Ewald energy   TEWEN  =      -226.94489173
  -1/2 Hartree   DENC   =       -15.42890530
  -exchange  EXHF       =         0.00000000
  -V(xc)+E(xc)   XCENC  =       -19.56845283
  PAW double counting   =       539.29559405     -502.76027056
  entropy T*S    EENTRO =        -0.00008831
  eigenvalues    EBANDS =         5.20152048
  atomic energy  EATOM  =       208.59416316
  ---------------------------------------------------
  free energy    TOTEN  =        -8.31815113 eV

  energy without entropy =       -8.31806282  energy(sigma->0) =       -8.31810698


--------------------------------------------------------------------------------------------------------




----------------------------------------- Iteration    1(  13)  ---------------------------------------


    POTLOK:  cpu time    1.52: real time    1.54
    SETDIJ:  cpu time    0.00: real time    0.00
     EDDAV:  cpu time    0.12: real time    0.12
       DOS:  cpu time    0.00: real time    0.00
    CHARGE:  cpu time    0.02: real time    0.02
    MIXING:  cpu time    0.00: real time    0.00
    --------------------------------------------
      LOOP:  cpu time    1.67: real time    5.12

 eigenvalue-minimisations  :   208
 total energy-change (2. order) : 0.2378919E-05  (-0.2851528E-09)
 number of electron       8.0000000 magnetization 
 augmentation part       -0.4670307 magnetization 

 Broyden mixing:
  rms(total) = 0.54486E-05    rms(broyden)= 0.54486E-05
  rms(prec ) = 0.66433E-05
  weight for this iteration     100.00

 eigenvalues of (default mixing * dielectric matrix)
  average eigenvalue GAMMA=   2.0316
  3.0813  2.8231  2.8231  2.3479  2.2138  0.9972  0.9972  0.9693

 Free energy of the ion-electron system (eV)
  ---------------------------------------------------
  alpha Z        PSCENC =         3.29317992
  Ewald energy   TEWEN  =      -226.94489173
  -1/2 Hartree   DENC   =       -15.42891363
  -exchange  EXHF       =         0.00000000
  -V(xc)+E(xc)   XCENC  =       -19.56844352
  PAW double counting   =       539.48776525     -502.95242630
  entropy T*S    EENTRO =        -0.00008830
  eigenvalues    EBANDS =         5.20150642
  atomic energy  EATOM  =       208.59416316
  ---------------------------------------------------
  free energy    TOTEN  =        -8.31814875 eV

  energy without entropy =       -8.31806045  energy(sigma->0) =       -8.31810460


--------------------------------------------------------------------------------------------------------




----------------------------------------- Iteration    1(  14)  ---------------------------------------


    POTLOK:  cpu time    1.52: real time    1.52
    SETDIJ:  cpu time    0.00: real time    0.01
     EDDAV:  cpu time    0.11: real time    0.11
       DOS:  cpu time    0.00: real time    0.00
    --------------------------------------------
      LOOP:  cpu time    1.64: real time    2.53

 eigenvalue-minimisations  :   168
 total energy-change (2. order) : 0.7641705E-07  (-0.2125116E-10)
 number of electron       8.0000000 magnetization 
 augmentation part       -0.4670307 magnetization 

 Free energy of the ion-electron system (eV)
  ---------------------------------------------------
  alpha Z        PSCENC =         3.29317992
  Ewald energy   TEWEN  =      -226.94489173
  -1/2 Hartree   DENC   =       -15.42893277
  -exchange  EXHF       =         0.00000000
  -V(xc)+E(xc)   XCENC  =       -19.56843940
  PAW double counting   =       539.49530012     -502.95996116
  entropy T*S    EENTRO =        -0.00008830
  eigenvalues    EBANDS =         5.20152148
  atomic energy  EATOM  =       208.59416316
  ---------------------------------------------------
  free energy    TOTEN  =        -8.31814868 eV

  energy without entropy =       -8.31806037  energy(sigma->0) =       -8.31810453


--------------------------------------------------------------------------------------------------------




 average (electrostatic) potential at core
  the test charge radii are     0.9892
  (the norm of the test charge is              1.0000)
       1 -83.7567       2 -83.7567
 
 
 
 E-fermi :   5.9823     XC(G=0):  -9.3047     alpha+bet :-11.7317


 k-point   1 :       0.0000    0.0000    0.0000
  band No.  band energies     occupation 
      1      -6.1412      2.00000
      2       5.6010      1.99298
      3       5.6010      1.99298
      4       5.6010      1.99298
      5       8.2211      0.00000
      6       8.2211      0.00000
      7       8.2211      0.00000
      8       8.8303      0.00000

 k-point   2 :       0.1667    0.0000    0.0000
  band No.  band energies     occupation 
      1      -5.7873      2.00000
      2       3.2752      2.00000
      3       5.1705      2.00000
      4       5.1705      2.00000
      5       7.9578      0.00000
      6       8.8483      0.00000
      7       8.8483      0.00000
      8      10.9308      0.00000

 k-point   3 :       0.3333    0.0000    0.0000
  band No.  band energies     occupation 
      1      -4.7940      2.00000
      2       0.3851      2.00000
      3       4.6354      2.00000
      4       4.6354      2.00000
      5       7.3668      0.00000
      6       9.1620      0.00000
      7       9.1620      0.00000
      8      13.4380      0.00000

 k-point   4 :       0.5000    0.0000    0.0000
  band No.  band energies     occupation 
      1      -3.8675      2.00000
      2      -1.2081      2.00000
      3       4.4410      2.00000
      4       4.4410      2.00000
      5       7.1414      0.00000
      6       9.0104      0.00000
      7       9.0104      0.00000
      8      13.3749      0.00000

 k-point   5 :       0.1667    0.1667    0.0000
  band No.  band energies     occupation 
      1      -5.6667      2.00000
      2       3.5813      2.00000
      3       4.4585      2.00000
      4       4.4585      2.00000
      5       7.3816      0.00000
      6       9.8807      0.00000
      7       9.9416      0.00000
      8       9.9416      0.00000

 k-point   6 :       0.3333    0.1667    0.0000
  band No.  band energies     occupation 
      1      -4.8685      2.00000
      2       1.2474      2.00000
      3       3.6749      2.00000
      4       3.9194      2.00000
      5       7.6298      0.00000
      6       9.6770      0.00000
      7      10.1386      0.00000
      8      10.6751      0.00000

 k-point   7 :       0.5000    0.1667    0.0000
  band No.  band energies     occupation 
      1      -3.7083      2.00000
      2      -0.8646      2.00000
      3       2.9103      2.00000
      4       3.8866      2.00000
      5       7.7059      0.00000
      6       9.7084      0.00000
      7      10.2562      0.00000
      8      12.0122      0.00000

 k-point   8 :      -0.3333    0.1667    0.0000
  band No.  band energies     occupation 
      1      -4.0821      2.00000
      2      -0.2821      2.00000
      3       2.6520      2.00000
      4       4.3487      2.00000
      5       8.0936      0.00000
      6       9.7236      0.00000
      7       9.8731      0.00000
      8      12.8408      0.00000

 k-point   9 :      -0.1667    0.1667    0.0000
  band No.  band energies     occupation 
      1      -5.2112      2.00000
      2       1.9493      2.00000
      3       3.2825      2.00000
      4       5.0547      2.00000
      5       8.6495      0.00000
      6       9.1999      0.00000
      7       9.4401      0.00000
      8      11.2432      0.00000

 k-point  10 :       0.3333    0.3333    0.0000
  band No.  band energies     occupation 
      1      -4.2755      2.00000
      2       0.6629      2.00000
      3       3.2666      2.00000
      4       3.2666      2.00000
      5       6.4280      0.00163
      6       7.6911      0.00000
      7      12.8002      0.00000
      8      12.8002      0.00000

 k-point  11 :       0.5000    0.3333    0.0000
  band No.  band energies     occupation 
      1      -3.1383      2.00000
      2      -0.8583      2.00000
      3       2.0970      2.00000
      4       3.1324      2.00000
      5       6.7651      0.00000
      6       8.3786      0.00000
      7      13.0014      0.00000
      8      13.0194      0.00000

 k-point  12 :      -0.3333    0.3333    0.0000
  band No.  band energies     occupation 
      1      -2.9521      2.00000
      2      -1.0536      2.00000
      3       1.3411      2.00000
      4       3.5615      2.00000
      5       7.2569      0.00000
      6      11.4025      0.00000
      7      12.0667      0.00000
      8      12.6050      0.00000

 k-point  13 :       0.5000    0.5000    0.0000
  band No.  band energies     occupation 
      1      -2.0829      2.00000
      2      -2.0829      2.00000
      3       2.8420      2.00000
      4       2.8420      2.00000
      5       6.4218      0.00188
      6       6.4218      0.00188
      7      15.5902      0.00000
      8      15.5902      0.00000

 k-point  14 :       0.5000    0.3333    0.1667
  band No.  band energies     occupation 
      1      -3.9005      2.00000
      2       0.0477      2.00000
      3       2.1567      2.00000
      4       3.3922      2.00000
      5       8.4978      0.00000
      6       9.3737      0.00000
      7       9.8347      0.00000
      8      12.6108      0.00000

 k-point  15 :      -0.3333    0.3333    0.1667
  band No.  band energies     occupation 
      1      -2.9429      2.00000
      2      -1.1197      2.00000
      3       1.7248      2.00000
      4       2.9426      2.00000
      5       9.0119      0.00000
      6       9.1766      0.00000
      7      11.6946      0.00000
      8      12.0976      0.00000

 k-point  16 :      -0.3333    0.5000    0.1667
  band No.  band energies     occupation 
      1      -1.9701      2.00000
      2      -1.9701      2.00000
      3       2.0862      2.00000
      4       2.0862      2.00000
      5       8.4061      0.00000
      6       8.4061      0.00000
      7      12.3340      0.00000
      8      12.3340      0.00000


--------------------------------------------------------------------------------------------------------


 soft charge-density along one line, spin component           1
         0         1         2         3         4         5         6         7         8         9
 total charge-density along one line
 
 pseudopotential strength for first ion, spin component:           1
 18.529  25.847   0.000   0.000   0.000   0.000   0.000   0.000
 25.847  36.059   0.000   0.000   0.000   0.000   0.000   0.000
  0.000   0.000   4.199   0.000   0.000   7.816   0.000   0.000
  0.000   0.000   0.000   4.199   0.000   0.000   7.816   0.000
  0.000   0.000   0.000   0.000   4.199   0.000   0.000   7.816
  0.000   0.000   7.816   0.000   0.000  14.561   0.000   0.000
  0.000   0.000   0.000   7.816   0.000   0.000  14.561   0.000
  0.000   0.000   0.000   0.000   7.816   0.000   0.000  14.561
 total augmentation occupancy for first ion, spin component:           1
  3.248  -0.956   0.000   0.000   0.000   0.000   0.000   0.000
 -0.956   0.477   0.000   0.000   0.000   0.000   0.000   0.000
  0.000   0.000   2.266   0.000   0.000  -0.407   0.000   0.000
  0.000   0.000   0.000   2.266   0.000   0.000  -0.407   0.000
  0.000   0.000   0.000   0.000   2.266   0.000   0.000  -0.407
  0.000   0.000  -0.407   0.000   0.000   0.084   0.000   0.000
  0.000   0.000   0.000  -0.407   0.000   0.000   0.084   0.000
  0.000   0.000   0.000   0.000  -0.407   0.000   0.000   0.084


------------------------ aborting loop because EDIFF is reached ----------------------------------------


    CHARGE:  cpu time    0.02: real time    0.02
    FORLOC:  cpu time    0.00: real time    0.00
    FORNL :  cpu time    0.01: real time    0.01
    STRESS:  cpu time    0.06: real time    0.06
    FORCOR:  cpu time    1.53: real time    1.53
    FORHAR:  cpu time    0.01: real time    0.01
    MIXING:  cpu time    0.00: real time    0.00

  FORCE on cell =-STRESS in cart. coord.  units (eV):
  Direction    XX          YY          ZZ          XY          YZ          ZX
  --------------------------------------------------------------------------------------
  Alpha Z     3.29318     3.29318     3.29318
  Ewald     -75.64832   -75.64835   -75.64832    -0.00001     0.00001     0.00001
  Hartree     5.14297     5.14297     5.14298     0.00000     0.00000     0.00000
  E(xc)     -25.38849   -25.38849   -25.38849     0.00000     0.00000     0.00000
  Local     -29.58082   -29.58082   -29.58083     0.00001     0.00000     0.00000
  n-local    74.05248    77.40950    81.91166    -0.96301    -0.49561     0.02407
  augment   -11.95225   -11.95225   -11.95226     0.00000     0.00000     0.00000
  Kinetic    53.23344    55.61144    61.16042     0.72873     0.74233    -0.55173
  Fock        0.00000     0.00000     0.00000     0.00000     0.00000     0.00000
  -------------------------------------------------------------------------------------
  Total       0.32590     0.32590     0.32590     0.00000     0.00000     0.00000
  in kB      12.77020    12.77020    12.77020     0.00000     0.00000     0.00000
  external pressure =       12.77 kB  Pullay stress =        0.00 kB


 VOLUME and BASIS-vectors are now :
 -----------------------------------------------------------------------------
  energy-cutoff  :      550.00
  volume of cell :       40.89
      direct lattice vectors                 reciprocal lattice vectors
     3.348898000  0.000000000  1.933487000     0.298605691 -0.105573000  0.000000000
     1.116299000  3.157372000  1.933487000     0.000000000  0.316719094  0.000000000
     0.000000000  0.000000000  3.866975000    -0.149302807 -0.105573020  0.258600069

  length of vectors
     3.866974243  3.866974707  3.866975000     0.316719145  0.316719094  0.316719096


 FORCES acting on ions
    electron-ion (+dipol)            ewald-force                    non-local-force                 convergence-correction
 -----------------------------------------------------------------------------------------------
   -.379E-05 0.694E-05 0.847E-05   0.634E-05 -.116E-04 -.142E-04   0.312E-16 0.000E+00 -.208E-15   -.276E-10 -.518E-11 -.254E-10
   0.379E-05 -.694E-05 -.847E-05   -.634E-05 0.116E-04 0.142E-04   -.347E-17 0.000E+00 0.208E-15   0.276E-10 0.518E-11 0.254E-10
 -----------------------------------------------------------------------------------------------
   0.191E-12 -.631E-13 -.136E-13   -.469E-16 0.276E-16 -.294E-16   0.278E-16 0.000E+00 0.000E+00   0.360E-15 0.453E-16 -.210E-14
 
 
 POSITION                                       TOTAL-FORCE (eV/Angst)
 -----------------------------------------------------------------------------------
      3.90705      2.76270      6.76721         0.000000      0.000000      0.000000
      0.55815      0.39467      0.96674         0.000000      0.000000      0.000000
 -----------------------------------------------------------------------------------
    total drift:                                0.000000      0.000000      0.000000


--------------------------------------------------------------------------------------------------------



  FREE ENERGIE OF THE ION-ELECTRON SYSTEM (eV)
  ---------------------------------------------------
  free  energy   TOTEN  =        -8.31814868 eV

  energy  without entropy=       -8.31806037  energy(sigma->0) =       -8.31810453
 


--------------------------------------------------------------------------------------------------------


    POTLOK:  cpu time    1.81: real time    1.89


--------------------------------------------------------------------------------------------------------




--------------------------------------------------------------------------------------------------------


  
 reached required accuracy - stopping structural energy minimisation
     LOOP+:  cpu time   22.79: real time   52.00
    4ORBIT:  cpu time    0.00: real time    0.00

 total amount of memory used by VASP on root node    32199. kBytes
========================================================================

   base      :      30000. kBytes
   nonl-proj :        333. kBytes
   fftplans  :        700. kBytes
   grid      :        998. kBytes
   one-center:          3. kBytes
   wavefun   :        165. kBytes
 
  
  
 General timing and accounting informations for this job:
 ========================================================
  
                  Total CPU time used (sec):       23.101
                            User time (sec):       22.849
                          System time (sec):        0.252
                         Elapsed time (sec):       63.773
  
                   Maximum memory used (kb):      102096.
                   Average memory used (kb):           0.
  
                          Minor page faults:        48960
                          Major page faults:            6
                 Voluntary context switches:          912
