<?xml version="1.0" encoding="ISO-8859-1"?>
<modeling>
 <generator>
  <i name="program" type="string">vasp </i>
  <i name="version" type="string">5.3.3  </i>
  <i name="subversion" type="string">18Dez12 (build Jan 30 2013 10:57:47) complex                          parallel </i>
  <i name="platform" type="string">LinuxIFC </i>
  <i name="date" type="string">2016 06 21 </i>
  <i name="time" type="string">12:15:35 </i>
 </generator>
 <incar>
  <i type="string" name="PREC">accurate</i>
  <i type="int" name="NELM">   400</i>
  <i type="int" name="IBRION">     2</i>
  <i name="EDIFF">      0.00000010</i>
  <i type="int" name="NSW">     1</i>
  <i name="ENCUT">    550.00000000</i>
  <i type="int" name="ISMEAR">     0</i>
  <i type="logical" name="LWAVE"> F  </i>
  <i type="logical" name="LCHARG"> F  </i>
  <i type="int" name="NELM">   400</i>
  <i type="string" name="GGA"> BO</i>
  <i name="PARAM1">      0.18333333</i>
  <i name="PARAM2">      0.22000000</i>
  <i type="logical" name="LUSE_VDW"> T  </i>
  <i name="AGGAC">      0.00000000</i>
 </incar>
 <kpoints>
  <generation param="Gamma">
   <v type="int" name="divisions">       6        6        6 </v>
   <v name="usershift">      0.00000000       0.00000000       0.00000000 </v>
   <v name="genvec1">      0.16666667       0.00000000       0.00000000 </v>
   <v name="genvec2">      0.00000000       0.16666667       0.00000000 </v>
   <v name="genvec3">      0.00000000       0.00000000       0.16666667 </v>
   <v name="shift">      0.00000000       0.00000000       0.00000000 </v>
  </generation>
  <varray name="kpointlist" >
   <v>       0.00000000       0.00000000       0.00000000 </v>
   <v>       0.16666667       0.00000000       0.00000000 </v>
   <v>       0.33333333       0.00000000       0.00000000 </v>
   <v>       0.50000000       0.00000000       0.00000000 </v>
   <v>       0.16666667       0.16666667       0.00000000 </v>
   <v>       0.33333333       0.16666667       0.00000000 </v>
   <v>       0.50000000       0.16666667       0.00000000 </v>
   <v>      -0.33333333       0.16666667       0.00000000 </v>
   <v>      -0.16666667       0.16666667       0.00000000 </v>
   <v>       0.33333333       0.33333333       0.00000000 </v>
   <v>       0.50000000       0.33333333       0.00000000 </v>
   <v>      -0.33333333       0.33333333       0.00000000 </v>
   <v>       0.50000000       0.50000000       0.00000000 </v>
   <v>       0.50000000       0.33333333       0.16666667 </v>
   <v>      -0.33333333       0.33333333       0.16666667 </v>
   <v>      -0.33333333       0.50000000       0.16666667 </v>
  </varray>
  <varray name="weights" >
   <v>       0.00462963 </v>
   <v>       0.03703704 </v>
   <v>       0.03703704 </v>
   <v>       0.01851852 </v>
   <v>       0.02777778 </v>
   <v>       0.11111111 </v>
   <v>       0.11111111 </v>
   <v>       0.11111111 </v>
   <v>       0.05555556 </v>
   <v>       0.02777778 </v>
   <v>       0.11111111 </v>
   <v>       0.05555556 </v>
   <v>       0.01388889 </v>
   <v>       0.11111111 </v>
   <v>       0.11111111 </v>
   <v>       0.05555556 </v>
  </varray>
 </kpoints>
 <parameters>
  <separator name="general" >
   <i type="string" name="SYSTEM">unknown system</i>
   <i type="logical" name="LCOMPAT"> F  </i>
  </separator>
  <separator name="electronic" >
   <i type="string" name="PREC">accura</i>
   <i name="ENMAX">    550.00000000</i>
   <i name="ENAUG">    322.06900000</i>
   <i name="EDIFF">      0.00000010</i>
   <i type="int" name="IALGO">    38</i>
   <i type="int" name="IWAVPR">    11</i>
   <i type="int" name="NBANDS">     8</i>
   <i name="NELECT">      8.00000000</i>
   <i type="int" name="TURBO">     0</i>
   <i type="int" name="IRESTART">     0</i>
   <i type="int" name="NREBOOT">     0</i>
   <i type="int" name="NMIN">     0</i>
   <i name="EREF">      0.00000000</i>
   <separator name="electronic smearing" >
    <i type="int" name="ISMEAR">     0</i>
    <i name="SIGMA">      0.20000000</i>
    <i name="KSPACING">      0.50000000</i>
    <i type="logical" name="KGAMMA"> T  </i>
   </separator>
   <separator name="electronic projectors" >
    <i type="logical" name="LREAL"> F  </i>
    <v name="ROPT">      0.00000000</v>
    <i type="int" name="LMAXPAW">  -100</i>
    <i type="int" name="LMAXMIX">     2</i>
    <i type="logical" name="NLSPLINE"> F  </i>
   </separator>
   <separator name="electronic startup" >
    <i type="int" name="ISTART">     0</i>
    <i type="int" name="ICHARG">     2</i>
    <i type="int" name="INIWAV">     1</i>
   </separator>
   <separator name="electronic spin" >
    <i type="int" name="ISPIN">     1</i>
    <i type="logical" name="LNONCOLLINEAR"> F  </i>
    <v name="MAGMOM">      1.00000000      1.00000000</v>
    <i name="NUPDOWN">     -1.00000000</i>
    <i type="logical" name="LSORBIT"> F  </i>
    <v name="SAXIS">      0.00000000      0.00000000      1.00000000</v>
    <i type="logical" name="LSPIRAL"> F  </i>
    <v name="QSPIRAL">      0.00000000      0.00000000      0.00000000</v>
    <i type="logical" name="LZEROZ"> F  </i>
   </separator>
   <separator name="electronic exchange-correlation" >
    <i type="logical" name="LASPH"> F  </i>
    <i type="logical" name="LMETAGGA"> F  </i>
   </separator>
   <separator name="electronic convergence" >
    <i type="int" name="NELM">   400</i>
    <i type="int" name="NELMDL">    -5</i>
    <i type="int" name="NELMIN">     2</i>
    <i name="ENINI">    550.00000000</i>
    <separator name="electronic convergence detail" >
     <i type="logical" name="LDIAG"> T  </i>
     <i type="logical" name="LSUBROT"> T  </i>
     <i name="WEIMIN">      0.00100000</i>
     <i name="EBREAK">      0.00000000</i>
     <i name="DEPER">      0.30000000</i>
     <i type="int" name="NRMM">     4</i>
     <i name="TIME">      0.40000000</i>
    </separator>
   </separator>
   <separator name="electronic mixer" >
    <i name="AMIX">      0.40000000</i>
    <i name="BMIX">      1.00000000</i>
    <i name="AMIN">      0.10000000</i>
    <i name="AMIX_MAG">      1.60000000</i>
    <i name="BMIX_MAG">      1.00000000</i>
    <separator name="electronic mixer details" >
     <i type="int" name="IMIX">     4</i>
     <i type="int" name="MAXMIX">   -45</i>
     <i name="WC">    100.00000000</i>
     <i type="int" name="INIMIX">     1</i>
     <i type="int" name="MIXPRE">     1</i>
     <i type="int" name="MREMOVE">     5</i>
    </separator>
   </separator>
   <separator name="electronic dipolcorrection" >
    <i type="logical" name="LDIPOL"> F  </i>
    <i type="logical" name="LMONO"> F  </i>
    <i type="int" name="IDIPOL">     0</i>
    <i name="EPSILON">      1.00000000</i>
    <v name="DIPOL">   -100.00000000   -100.00000000   -100.00000000</v>
    <i name="EFIELD">      0.00000000</i>
   </separator>
  </separator>
  <separator name="grids" >
   <i type="int" name="NGX">    30</i>
   <i type="int" name="NGY">    30</i>
   <i type="int" name="NGZ">    30</i>
   <i type="int" name="NGXF">    60</i>
   <i type="int" name="NGYF">    60</i>
   <i type="int" name="NGZF">    60</i>
   <i type="logical" name="ADDGRID"> F  </i>
  </separator>
  <separator name="ionic" >
   <i type="int" name="NSW">     1</i>
   <i type="int" name="IBRION">     2</i>
   <i type="int" name="ISIF">     2</i>
   <i name="PSTRESS">      0.00000000</i>
   <i name="EDIFFG">      0.00000100</i>
   <i type="int" name="NFREE">     1</i>
   <i name="POTIM">      0.50000000</i>
   <i name="SMASS">     -3.00000000</i>
   <i name="SCALEE">      1.00000000</i>
  </separator>
  <separator name="ionic md" >
   <i name="TEBEG">      0.00010000</i>
   <i name="TEEND">      0.00010000</i>
   <i type="int" name="NBLOCK">     1</i>
   <i type="int" name="KBLOCK">     1</i>
   <i type="int" name="NPACO">   256</i>
   <i name="APACO">     16.00000000</i>
  </separator>
  <separator name="symmetry" >
   <i type="int" name="ISYM">     2</i>
   <i name="SYMPREC">      0.00001000</i>
  </separator>
  <separator name="dos" >
   <i type="logical" name="LORBIT"> F  </i>
   <v name="RWIGS">     -1.00000000</v>
   <i type="int" name="NEDOS">   301</i>
   <i name="EMIN">     10.00000000</i>
   <i name="EMAX">    -10.00000000</i>
   <i name="EFERMI">      0.00000000</i>
  </separator>
  <separator name="writing" >
   <i type="int" name="NWRITE">     2</i>
   <i type="logical" name="LWAVE"> F  </i>
   <i type="logical" name="LCHARG"> F  </i>
   <i type="logical" name="LPARD"> F  </i>
   <i type="logical" name="LVTOT"> F  </i>
   <i type="logical" name="LVHAR"> F  </i>
   <i type="logical" name="LELF"> F  </i>
   <i type="logical" name="LOPTICS"> F  </i>
   <v name="STM">      0.00000000      0.00000000      0.00000000      0.00000000      0.00000000      0.00000000      0.00000000</v>
  </separator>
  <separator name="performance" >
   <i type="int" name="NPAR">     4</i>
   <i type="int" name="NSIM">     4</i>
   <i type="int" name="NBLK">    -1</i>
   <i type="logical" name="LPLANE"> T  </i>
   <i type="logical" name="LSCALAPACK"> F  </i>
   <i type="logical" name="LSCAAWARE"> F  </i>
   <i type="logical" name="LSCALU"> F  </i>
   <i type="logical" name="LASYNC"> F  </i>
   <i type="logical" name="LORBITALREAL"> F  </i>
  </separator>
  <separator name="miscellaneous" >
   <i type="int" name="IDIOT">     3</i>
   <i type="logical" name="LMUSIC"> F  </i>
   <v name="POMASS">     28.08500000</v>
   <v name="DARWINR">      0.00000000</v>
   <v name="DARWINV">      1.00000000</v>
   <i type="logical" name="LCORR"> T  </i>
  </separator>
  <i type="logical" name="GGA_COMPAT"> T  </i>
  <i type="logical" name="LBERRY"> F  </i>
  <i type="int" name="ICORELEVEL">     0</i>
  <i type="logical" name="LDAU"> F  </i>
  <i type="int" name="I_CONSTRAINED_M">     0</i>
  <separator name="electronic exchange-correlation" >
   <i type="string" name="GGA">BO</i>
   <i type="int" name="VOSKOWN">     0</i>
   <i type="logical" name="LHFCALC"> F  </i>
   <i type="string" name="PRECFOCK"></i>
   <i type="logical" name="LSYMGRAD"> F  </i>
   <i type="logical" name="LHFONE"> F  </i>
   <i type="logical" name="LRHFCALC"> F  </i>
   <i type="logical" name="LTHOMAS"> F  </i>
   <i type="logical" name="LMODELHF"> F  </i>
   <i name="ENCUT4O">     -1.00000000</i>
   <i type="int" name="EXXOEP">     0</i>
   <i type="int" name="FOURORBIT">     0</i>
   <i name="AEXX">      0.00000000</i>
   <i name="HFALPHA">      0.00000000</i>
   <i name="MCALPHA">      0.00000000</i>
   <i name="ALDAX">      1.00000000</i>
   <i name="AGGAX">      1.00000000</i>
   <i name="ALDAC">      1.00000000</i>
   <i name="AGGAC">      0.00000000</i>
   <i type="int" name="NKREDX">     1</i>
   <i type="int" name="NKREDY">     1</i>
   <i type="int" name="NKREDZ">     1</i>
   <i type="logical" name="SHIFTRED"> F  </i>
   <i type="logical" name="ODDONLY"> F  </i>
   <i type="logical" name="EVENONLY"> F  </i>
   <i type="int" name="LMAXFOCK">     0</i>
   <i type="int" name="NMAXFOCKAE">     0</i>
   <i type="logical" name="LFOCKAEDFT"> F  </i>
   <i name="HFSCREEN">      0.00000000</i>
   <i name="HFSCREENC">      0.00000000</i>
   <i type="int" name="NBANDSGWLOW">     0</i>
  </separator>
  <separator name="vdW DFT" >
   <i type="logical" name="LUSE_VDW"> T  </i>
   <i name="Zab_VDW">     -0.84910000</i>
   <i name="PARAM1">      0.18333333</i>
   <i name="PARAM2">      0.22000000</i>
   <i name="PARAM3">      0.00000000</i>
  </separator>
  <separator name="model GW" >
   <i type="int" name="MODEL_GW">     0</i>
   <i name="MODEL_EPS0">     12.26648953</i>
   <i name="MODEL_ALPHA">      1.00000000</i>
  </separator>
  <separator name="linear response parameters" >
   <i type="logical" name="LEPSILON"> F  </i>
   <i type="logical" name="LRPA"> F  </i>
   <i type="logical" name="LNABLA"> F  </i>
   <i type="logical" name="LVEL"> F  </i>
   <i type="int" name="KINTER">     0</i>
   <i name="CSHIFT">      0.10000000</i>
   <i name="OMEGAMAX">     -1.00000000</i>
   <i name="DEG_THRESHOLD">      0.00200000</i>
  </separator>
  <separator name="orbital magnetization" >
   <i type="logical" name="NUCIND"> F  </i>
   <v name="MAGPOS">      0.00000000      0.00000000      0.00000000</v>
   <i type="logical" name="LNICSALL"> T  </i>
   <i type="logical" name="ORBITALMAG"> F  </i>
   <i type="logical" name="LMAGBLOCH"> F  </i>
   <i type="logical" name="LCHIMAG"> F  </i>
   <i type="logical" name="LGAUGE"> T  </i>
   <i type="int" name="MAGATOM">     0</i>
   <v name="MAGDIPOL">      0.00000000      0.00000000      0.00000000</v>
   <v name="AVECCONST">      0.00000000      0.00000000      0.00000000</v>
  </separator>
  <separator name="response functions" >
   <i type="logical" name="LADDER"> F  </i>
   <i type="logical" name="LFXC"> F  </i>
   <i type="logical" name="LHARTREE"> T  </i>
   <i type="int" name="IBSE">     0</i>
   <i type="logical" name="LTCTE"> F  </i>
   <i type="logical" name="LTETE"> F  </i>
   <i type="logical" name="LTRIPLET"> F  </i>
   <i type="logical" name="LFXCEPS"> F  </i>
   <i type="logical" name="L2ORDER"> F  </i>
   <i type="logical" name="LUSEW"> F  </i>
   <i name="ENCUTGW">     -2.00000000</i>
   <i name="ENCUTGWSOFT">     -2.00000000</i>
   <i name="ENCUTLF">     -1.00000000</i>
   <i type="int" name="LMAXMP2">    -1</i>
   <i name="SCISSOR">      0.00000000</i>
   <i type="int" name="NOMEGA">     0</i>
   <i type="int" name="NOMEGAR">     0</i>
   <i type="int" name="NBANDSGW">    -1</i>
   <i type="int" name="NBANDSO">    -1</i>
   <i type="int" name="NBANDSV">    -1</i>
   <i type="int" name="NELM">   400</i>
   <i type="int" name="DIM">     3</i>
   <i type="int" name="ANTIRES">     0</i>
   <i name="OMEGAMAX">    -30.00000000</i>
   <i name="OMEGATL">   -200.00000000</i>
   <i type="int" name="OMEGAGRID">     0</i>
   <i name="CSHIFT">     -0.10000000</i>
   <i type="logical" name="SELFENERGY"> F  </i>
   <i type="logical" name="LSPECTRAL"> F  </i>
   <i type="logical" name="ODDONLYGW"> F  </i>
   <i type="logical" name="EVENONLYGW"> F  </i>
   <i type="int" name="NKREDLFX">     1</i>
   <i type="int" name="NKREDLFY">     1</i>
   <i type="int" name="NKREDLFZ">     1</i>
   <i type="int" name="MAXMEM">  1800</i>
   <i type="int" name="TELESCOPE">     0</i>
  </separator>
 </parameters>
 <atominfo>
  <atoms>       2 </atoms>
  <types>       1 </types>
  <array name="atoms" >
   <dimension dim="1">ion</dimension>
   <field type="string">element</field>
   <field type="int">atomtype</field>
   <set>
    <rc><c>Si</c><c>   1</c></rc>
    <rc><c>Si</c><c>   1</c></rc>
   </set>
  </array>
  <array name="atomtypes" >
   <dimension dim="1">type</dimension>
   <field type="int">atomspertype</field>
   <field type="string">element</field>
   <field>mass</field>
   <field>valence</field>
   <field type="string">pseudopotential</field>
   <set>
    <rc><c>   2</c><c>Si</c><c>     28.08500000</c><c>      4.00000000</c><c>  PAW_PBE Si 05Jan2001                  </c></rc>
   </set>
  </array>
 </atominfo>
 <structure name="initialpos" >
  <crystal>
   <varray name="basis" >
    <v>       3.34889800       0.00000000       1.93348700 </v>
    <v>       1.11629900       3.15737200       1.93348700 </v>
    <v>       0.00000000       0.00000000       3.86697500 </v>
   </varray>
   <i name="volume">     40.88829843 </i>
   <varray name="rec_basis" >
    <v>       0.29860569      -0.10557300       0.00000000 </v>
    <v>       0.00000000       0.31671909       0.00000000 </v>
    <v>      -0.14930281      -0.10557302       0.25860007 </v>
   </varray>
  </crystal>
  <varray name="positions" >
   <v>       0.87500000       0.87500000       0.87500000 </v>
   <v>       0.12500000       0.12500000       0.12500000 </v>
  </varray>
 </structure>
 <calculation>
  <scstep>
   <time name="dav">    0.09    0.09</time>
   <time name="total">    2.68    3.97</time>
   <energy>
    <i name="alphaZ">      3.29317992 </i>
    <i name="ewald">   -226.94489173 </i>
    <i name="hartreedc">    -11.32339116 </i>
    <i name="XCdc">    -20.24410379 </i>
    <i name="pawpsdc">    189.40224250 </i>
    <i name="pawaedc">   -152.61488262 </i>
    <i name="eentropy">     -0.02889240 </i>
    <i name="bandstr">     16.93897924 </i>
    <i name="atom">    208.59416316 </i>
    <i name="e_fr_energy">      7.07240311 </i>
    <i name="e_wo_entrp">      7.10129551 </i>
    <i name="e_0_energy">      7.08684931 </i>
   </energy>
  </scstep>
  <scstep>
   <time name="dav">    0.17    0.17</time>
   <time name="total">    0.18    5.83</time>
   <energy>
    <i name="e_fr_energy">     -8.16837930 </i>
    <i name="e_wo_entrp">     -8.16837456 </i>
    <i name="e_0_energy">     -8.16837693 </i>
   </energy>
  </scstep>
  <scstep>
   <time name="dav">    0.13    0.13</time>
   <time name="total">    0.13    1.16</time>
   <energy>
    <i name="e_fr_energy">     -8.39537622 </i>
    <i name="e_wo_entrp">     -8.39537321 </i>
    <i name="e_0_energy">     -8.39537471 </i>
   </energy>
  </scstep>
  <scstep>
   <time name="dav">    0.15    0.15</time>
   <time name="total">    0.15    2.11</time>
   <energy>
    <i name="e_fr_energy">     -8.39587517 </i>
    <i name="e_wo_entrp">     -8.39587216 </i>
    <i name="e_0_energy">     -8.39587366 </i>
   </energy>
  </scstep>
  <scstep>
   <time name="dav">    0.13    0.13</time>
   <time name="total">    0.17    0.97</time>
   <energy>
    <i name="e_fr_energy">     -8.39587623 </i>
    <i name="e_wo_entrp">     -8.39587321 </i>
    <i name="e_0_energy">     -8.39587472 </i>
   </energy>
  </scstep>
  <scstep>
   <time name="dav">    0.11    0.11</time>
   <time name="total">    1.34    2.36</time>
   <energy>
    <i name="e_fr_energy">     -8.34055838 </i>
    <i name="e_wo_entrp">     -8.34054400 </i>
    <i name="e_0_energy">     -8.34055119 </i>
   </energy>
  </scstep>
  <scstep>
   <time name="dav">    0.20    0.21</time>
   <time name="total">    2.02    5.33</time>
   <energy>
    <i name="e_fr_energy">     -8.33414689 </i>
    <i name="e_wo_entrp">     -8.33402629 </i>
    <i name="e_0_energy">     -8.33408659 </i>
   </energy>
  </scstep>
  <scstep>
   <time name="dav">    0.18    0.18</time>
   <time name="total">    1.82    3.01</time>
   <energy>
    <i name="e_fr_energy">     -8.31715690 </i>
    <i name="e_wo_entrp">     -8.31707485 </i>
    <i name="e_0_energy">     -8.31711588 </i>
   </energy>
  </scstep>
  <scstep>
   <time name="dav">    0.25    0.25</time>
   <time name="total">    1.90    2.72</time>
   <energy>
    <i name="e_fr_energy">     -8.31886732 </i>
    <i name="e_wo_entrp">     -8.31877682 </i>
    <i name="e_0_energy">     -8.31882207 </i>
   </energy>
  </scstep>
  <scstep>
   <time name="dav">    0.22    0.22</time>
   <time name="total">    1.87    3.09</time>
   <energy>
    <i name="e_fr_energy">     -8.31817077 </i>
    <i name="e_wo_entrp">     -8.31808272 </i>
    <i name="e_0_energy">     -8.31812675 </i>
   </energy>
  </scstep>
  <scstep>
   <time name="dav">    0.23    0.24</time>
   <time name="total">    1.86    2.59</time>
   <energy>
    <i name="e_fr_energy">     -8.31815269 </i>
    <i name="e_wo_entrp">     -8.31806433 </i>
    <i name="e_0_energy">     -8.31810851 </i>
   </energy>
  </scstep>
  <scstep>
   <time name="dav">    0.22    0.22</time>
   <time name="total">    1.90    3.72</time>
   <energy>
    <i name="e_fr_energy">     -8.31815113 </i>
    <i name="e_wo_entrp">     -8.31806282 </i>
    <i name="e_0_energy">     -8.31810698 </i>
   </energy>
  </scstep>
  <scstep>
   <time name="dav">    0.12    0.12</time>
   <time name="total">    1.67    5.12</time>
   <energy>
    <i name="e_fr_energy">     -8.31814875 </i>
    <i name="e_wo_entrp">     -8.31806045 </i>
    <i name="e_0_energy">     -8.31810460 </i>
   </energy>
  </scstep>
  <scstep>
   <time name="dav">    0.11    0.11</time>
   <time name="total">    1.64    2.53</time>
   <energy>
    <i name="alphaZ">      3.29317992 </i>
    <i name="ewald">   -226.94489173 </i>
    <i name="hartreedc">    -15.42893277 </i>
    <i name="XCdc">    -19.56843940 </i>
    <i name="pawpsdc">    539.49530012 </i>
    <i name="pawaedc">   -502.95996116 </i>
    <i name="eentropy">     -0.00008830 </i>
    <i name="bandstr">      5.20152148 </i>
    <i name="atom">    208.59416316 </i>
    <i name="e_fr_energy">     -8.31814868 </i>
    <i name="e_wo_entrp">     -8.31806037 </i>
    <i name="e_0_energy">     -8.31810453 </i>
   </energy>
  </scstep>
  <structure>
   <crystal>
    <varray name="basis" >
     <v>       3.34889800       0.00000000       1.93348700 </v>
     <v>       1.11629900       3.15737200       1.93348700 </v>
     <v>       0.00000000       0.00000000       3.86697500 </v>
    </varray>
    <i name="volume">     40.88829843 </i>
    <varray name="rec_basis" >
     <v>       0.29860569      -0.10557300       0.00000000 </v>
     <v>       0.00000000       0.31671909       0.00000000 </v>
     <v>      -0.14930281      -0.10557302       0.25860007 </v>
    </varray>
   </crystal>
   <varray name="positions" >
    <v>       0.87500000       0.87500000       0.87500000 </v>
    <v>       0.12500000       0.12500000       0.12500000 </v>
   </varray>
  </structure>
  <varray name="forces" >
   <v>       0.00000000       0.00000000       0.00000000 </v>
   <v>       0.00000000       0.00000000       0.00000000 </v>
  </varray>
  <varray name="stress" >
   <v>      12.77019766      -0.00000135      -0.00000191 </v>
   <v>      -0.00000135      12.77020322      -0.00000135 </v>
   <v>      -0.00000191      -0.00000135      12.77020213 </v>
  </varray>
  <energy>
   <i name="e_fr_energy">     -8.31814868 </i>
   <i name="e_wo_entrp">     -8.31810453 </i>
   <i name="e_0_energy">     -0.00008830 </i>
  </energy>
  <time name="totalsc">   22.79   52.00</time>
  <eigenvalues>
   <array>
    <dimension dim="1">band</dimension>
    <dimension dim="2">kpoint</dimension>
    <dimension dim="3">spin</dimension>
    <field>eigene</field>
    <field>occ</field>
    <set>
     <set comment="spin 1">
      <set comment="kpoint 1">
       <r>   -6.1412    1.0000 </r>
       <r>    5.6010    0.9965 </r>
       <r>    5.6010    0.9965 </r>
       <r>    5.6010    0.9965 </r>
       <r>    8.2211    0.0000 </r>
       <r>    8.2211    0.0000 </r>
       <r>    8.2211    0.0000 </r>
       <r>    8.8303    0.0000 </r>
      </set>
      <set comment="kpoint 2">
       <r>   -5.7873    1.0000 </r>
       <r>    3.2752    1.0000 </r>
       <r>    5.1705    1.0000 </r>
       <r>    5.1705    1.0000 </r>
       <r>    7.9578    0.0000 </r>
       <r>    8.8483    0.0000 </r>
       <r>    8.8483    0.0000 </r>
       <r>   10.9308    0.0000 </r>
      </set>
      <set comment="kpoint 3">
       <r>   -4.7940    1.0000 </r>
       <r>    0.3851    1.0000 </r>
       <r>    4.6354    1.0000 </r>
       <r>    4.6354    1.0000 </r>
       <r>    7.3668    0.0000 </r>
       <r>    9.1620    0.0000 </r>
       <r>    9.1620    0.0000 </r>
       <r>   13.4380    0.0000 </r>
      </set>
      <set comment="kpoint 4">
       <r>   -3.8675    1.0000 </r>
       <r>   -1.2081    1.0000 </r>
       <r>    4.4410    1.0000 </r>
       <r>    4.4410    1.0000 </r>
       <r>    7.1414    0.0000 </r>
       <r>    9.0104    0.0000 </r>
       <r>    9.0104    0.0000 </r>
       <r>   13.3749    0.0000 </r>
      </set>
      <set comment="kpoint 5">
       <r>   -5.6667    1.0000 </r>
       <r>    3.5813    1.0000 </r>
       <r>    4.4585    1.0000 </r>
       <r>    4.4585    1.0000 </r>
       <r>    7.3816    0.0000 </r>
       <r>    9.8807    0.0000 </r>
       <r>    9.9416    0.0000 </r>
       <r>    9.9416    0.0000 </r>
      </set>
      <set comment="kpoint 6">
       <r>   -4.8685    1.0000 </r>
       <r>    1.2474    1.0000 </r>
       <r>    3.6749    1.0000 </r>
       <r>    3.9194    1.0000 </r>
       <r>    7.6298    0.0000 </r>
       <r>    9.6770    0.0000 </r>
       <r>   10.1386    0.0000 </r>
       <r>   10.6751    0.0000 </r>
      </set>
      <set comment="kpoint 7">
       <r>   -3.7083    1.0000 </r>
       <r>   -0.8646    1.0000 </r>
       <r>    2.9103    1.0000 </r>
       <r>    3.8866    1.0000 </r>
       <r>    7.7059    0.0000 </r>
       <r>    9.7084    0.0000 </r>
       <r>   10.2562    0.0000 </r>
       <r>   12.0122    0.0000 </r>
      </set>
      <set comment="kpoint 8">
       <r>   -4.0821    1.0000 </r>
       <r>   -0.2821    1.0000 </r>
       <r>    2.6520    1.0000 </r>
       <r>    4.3487    1.0000 </r>
       <r>    8.0936    0.0000 </r>
       <r>    9.7236    0.0000 </r>
       <r>    9.8731    0.0000 </r>
       <r>   12.8408    0.0000 </r>
      </set>
      <set comment="kpoint 9">
       <r>   -5.2112    1.0000 </r>
       <r>    1.9493    1.0000 </r>
       <r>    3.2825    1.0000 </r>
       <r>    5.0547    1.0000 </r>
       <r>    8.6495    0.0000 </r>
       <r>    9.1999    0.0000 </r>
       <r>    9.4401    0.0000 </r>
       <r>   11.2432    0.0000 </r>
      </set>
      <set comment="kpoint 10">
       <r>   -4.2755    1.0000 </r>
       <r>    0.6629    1.0000 </r>
       <r>    3.2666    1.0000 </r>
       <r>    3.2666    1.0000 </r>
       <r>    6.4280    0.0008 </r>
       <r>    7.6911    0.0000 </r>
       <r>   12.8002    0.0000 </r>
       <r>   12.8002    0.0000 </r>
      </set>
      <set comment="kpoint 11">
       <r>   -3.1383    1.0000 </r>
       <r>   -0.8583    1.0000 </r>
       <r>    2.0970    1.0000 </r>
       <r>    3.1324    1.0000 </r>
       <r>    6.7651    0.0000 </r>
       <r>    8.3786    0.0000 </r>
       <r>   13.0014    0.0000 </r>
       <r>   13.0194    0.0000 </r>
      </set>
      <set comment="kpoint 12">
       <r>   -2.9521    1.0000 </r>
       <r>   -1.0536    1.0000 </r>
       <r>    1.3411    1.0000 </r>
       <r>    3.5615    1.0000 </r>
       <r>    7.2569    0.0000 </r>
       <r>   11.4025    0.0000 </r>
       <r>   12.0667    0.0000 </r>
       <r>   12.6050    0.0000 </r>
      </set>
      <set comment="kpoint 13">
       <r>   -2.0829    1.0000 </r>
       <r>   -2.0829    1.0000 </r>
       <r>    2.8420    1.0000 </r>
       <r>    2.8420    1.0000 </r>
       <r>    6.4218    0.0009 </r>
       <r>    6.4218    0.0009 </r>
       <r>   15.5902    0.0000 </r>
       <r>   15.5902    0.0000 </r>
      </set>
      <set comment="kpoint 14">
       <r>   -3.9005    1.0000 </r>
       <r>    0.0477    1.0000 </r>
       <r>    2.1567    1.0000 </r>
       <r>    3.3922    1.0000 </r>
       <r>    8.4978    0.0000 </r>
       <r>    9.3737    0.0000 </r>
       <r>    9.8347    0.0000 </r>
       <r>   12.6108    0.0000 </r>
      </set>
      <set comment="kpoint 15">
       <r>   -2.9429    1.0000 </r>
       <r>   -1.1197    1.0000 </r>
       <r>    1.7248    1.0000 </r>
       <r>    2.9426    1.0000 </r>
       <r>    9.0119    0.0000 </r>
       <r>    9.1766    0.0000 </r>
       <r>   11.6946    0.0000 </r>
       <r>   12.0976    0.0000 </r>
      </set>
      <set comment="kpoint 16">
       <r>   -1.9701    1.0000 </r>
       <r>   -1.9701    1.0000 </r>
       <r>    2.0862    1.0000 </r>
       <r>    2.0862    1.0000 </r>
       <r>    8.4061    0.0000 </r>
       <r>    8.4061    0.0000 </r>
       <r>   12.3340    0.0000 </r>
       <r>   12.3340    0.0000 </r>
      </set>
     </set>
    </set>
   </array>
  </eigenvalues>
  <separator name="orbital magnetization" >
   <v name="MAGDIPOLOUT">      0.00000000      0.00000000      0.00000000</v>
  </separator>
  <dos>
   <i name="efermi">      5.98230231 </i>
   <total>
    <array>
     <dimension dim="1">gridpoints</dimension>
     <dimension dim="2">spin</dimension>
     <field>energy</field>
     <field>total</field>
     <field>integrated</field>
     <set>
      <set comment="spin 1">
       <r>    -8.1412     0.0000     0.0000 </r>
       <r>    -8.0554     0.0000     0.0000 </r>
       <r>    -7.9697     0.0000     0.0000 </r>
       <r>    -7.8839     0.0000     0.0000 </r>
       <r>    -7.7981     0.0000     0.0000 </r>
       <r>    -7.7124     0.0000     0.0000 </r>
       <r>    -7.6266     0.0000     0.0000 </r>
       <r>    -7.5408     0.0000     0.0000 </r>
       <r>    -7.4550     0.0000     0.0000 </r>
       <r>    -7.3693     0.0000     0.0000 </r>
       <r>    -7.2835     0.0000     0.0000 </r>
       <r>    -7.1977     0.0000     0.0000 </r>
       <r>    -7.1120     0.0000     0.0000 </r>
       <r>    -7.0262     0.0000     0.0000 </r>
       <r>    -6.9404     0.0000     0.0000 </r>
       <r>    -6.8546     0.0000     0.0000 </r>
       <r>    -6.7689     0.0000     0.0000 </r>
       <r>    -6.6831     0.0000     0.0000 </r>
       <r>    -6.5973     0.0001     0.0000 </r>
       <r>    -6.5116     0.0004     0.0000 </r>
       <r>    -6.4258     0.0019     0.0002 </r>
       <r>    -6.3400     0.0063     0.0007 </r>
       <r>    -6.2542     0.0147     0.0020 </r>
       <r>    -6.1685     0.0256     0.0042 </r>
       <r>    -6.0827     0.0393     0.0076 </r>
       <r>    -5.9969     0.0691     0.0135 </r>
       <r>    -5.9112     0.1367     0.0252 </r>
       <r>    -5.8254     0.2374     0.0456 </r>
       <r>    -5.7396     0.3184     0.0729 </r>
       <r>    -5.6538     0.3209     0.1004 </r>
       <r>    -5.5681     0.2464     0.1216 </r>
       <r>    -5.4823     0.1622     0.1355 </r>
       <r>    -5.3965     0.1426     0.1477 </r>
       <r>    -5.3108     0.2074     0.1655 </r>
       <r>    -5.2250     0.3029     0.1915 </r>
       <r>    -5.1392     0.3651     0.2228 </r>
       <r>    -5.0534     0.4220     0.2590 </r>
       <r>    -4.9677     0.5608     0.3071 </r>
       <r>    -4.8819     0.7499     0.3714 </r>
       <r>    -4.7961     0.8112     0.4410 </r>
       <r>    -4.7104     0.6476     0.4965 </r>
       <r>    -4.6246     0.3754     0.5287 </r>
       <r>    -4.5388     0.1703     0.5433 </r>
       <r>    -4.4530     0.1024     0.5521 </r>
       <r>    -4.3673     0.1555     0.5655 </r>
       <r>    -4.2815     0.3044     0.5916 </r>
       <r>    -4.1957     0.5332     0.6373 </r>
       <r>    -4.1100     0.8052     0.7064 </r>
       <r>    -4.0242     1.0494     0.7964 </r>
       <r>    -3.9384     1.2052     0.8998 </r>
       <r>    -3.8526     1.2522     1.0072 </r>
       <r>    -3.7669     1.1847     1.1088 </r>
       <r>    -3.6811     0.9940     1.1940 </r>
       <r>    -3.5953     0.6998     1.2540 </r>
       <r>    -3.5096     0.3949     1.2879 </r>
       <r>    -3.4238     0.2048     1.3055 </r>
       <r>    -3.3380     0.2047     1.3230 </r>
       <r>    -3.2522     0.3983     1.3572 </r>
       <r>    -3.1665     0.7201     1.4190 </r>
       <r>    -3.0807     1.0453     1.5086 </r>
       <r>    -2.9949     1.2379     1.6148 </r>
       <r>    -2.9092     1.1910     1.7170 </r>
       <r>    -2.8234     0.8963     1.7938 </r>
       <r>    -2.7376     0.5046     1.8371 </r>
       <r>    -2.6518     0.2058     1.8548 </r>
       <r>    -2.5661     0.0600     1.8599 </r>
       <r>    -2.4803     0.0140     1.8611 </r>
       <r>    -2.3945     0.0122     1.8622 </r>
       <r>    -2.3088     0.0450     1.8660 </r>
       <r>    -2.2230     0.1425     1.8782 </r>
       <r>    -2.1372     0.3346     1.9069 </r>
       <r>    -2.0514     0.5785     1.9566 </r>
       <r>    -1.9657     0.7306     2.0192 </r>
       <r>    -1.8799     0.6677     2.0765 </r>
       <r>    -1.7941     0.4375     2.1140 </r>
       <r>    -1.7084     0.2041     2.1315 </r>
       <r>    -1.6226     0.0684     2.1374 </r>
       <r>    -1.5368     0.0233     2.1394 </r>
       <r>    -1.4510     0.0403     2.1429 </r>
       <r>    -1.3653     0.1368     2.1546 </r>
       <r>    -1.2795     0.3637     2.1858 </r>
       <r>    -1.1937     0.7218     2.2477 </r>
       <r>    -1.1080     1.1056     2.3425 </r>
       <r>    -1.0222     1.3966     2.4623 </r>
       <r>    -0.9364     1.5634     2.5964 </r>
       <r>    -0.8506     1.5579     2.7300 </r>
       <r>    -0.7649     1.2837     2.8401 </r>
       <r>    -0.6791     0.8114     2.9097 </r>
       <r>    -0.5933     0.3973     2.9438 </r>
       <r>    -0.5076     0.2271     2.9633 </r>
       <r>    -0.4218     0.3035     2.9893 </r>
       <r>    -0.3360     0.5039     3.0325 </r>
       <r>    -0.2502     0.6530     3.0885 </r>
       <r>    -0.1645     0.6667     3.1457 </r>
       <r>    -0.0787     0.6391     3.2005 </r>
       <r>     0.0071     0.6659     3.2577 </r>
       <r>     0.0928     0.6734     3.3154 </r>
       <r>     0.1786     0.5663     3.3640 </r>
       <r>     0.2644     0.4070     3.3989 </r>
       <r>     0.3502     0.3055     3.4251 </r>
       <r>     0.4359     0.2661     3.4479 </r>
       <r>     0.5217     0.2410     3.4686 </r>
       <r>     0.6075     0.2173     3.4872 </r>
       <r>     0.6932     0.1913     3.5036 </r>
       <r>     0.7790     0.1470     3.5163 </r>
       <r>     0.8648     0.0937     3.5243 </r>
       <r>     0.9506     0.0771     3.5309 </r>
       <r>     1.0363     0.1565     3.5443 </r>
       <r>     1.1221     0.3717     3.5762 </r>
       <r>     1.2079     0.6697     3.6336 </r>
       <r>     1.2936     0.8732     3.7085 </r>
       <r>     1.3794     0.8339     3.7801 </r>
       <r>     1.4652     0.6248     3.8336 </r>
       <r>     1.5510     0.4766     3.8745 </r>
       <r>     1.6367     0.5242     3.9195 </r>
       <r>     1.7225     0.6889     3.9786 </r>
       <r>     1.8083     0.8427     4.0509 </r>
       <r>     1.8940     1.0327     4.1394 </r>
       <r>     1.9798     1.3977     4.2593 </r>
       <r>     2.0656     1.8422     4.4173 </r>
       <r>     2.1514     1.9940     4.5884 </r>
       <r>     2.2371     1.6318     4.7283 </r>
       <r>     2.3229     0.9933     4.8135 </r>
       <r>     2.4087     0.5044     4.8568 </r>
       <r>     2.4944     0.3716     4.8886 </r>
       <r>     2.5802     0.5264     4.9338 </r>
       <r>     2.6660     0.7944     5.0019 </r>
       <r>     2.7518     1.0751     5.0941 </r>
       <r>     2.8375     1.3747     5.2121 </r>
       <r>     2.9233     1.6420     5.3529 </r>
       <r>     3.0091     1.7497     5.5030 </r>
       <r>     3.0948     1.7205     5.6505 </r>
       <r>     3.1806     1.7153     5.7977 </r>
       <r>     3.2664     1.7699     5.9495 </r>
       <r>     3.3522     1.7641     6.1008 </r>
       <r>     3.4379     1.6381     6.2413 </r>
       <r>     3.5237     1.4873     6.3689 </r>
       <r>     3.6095     1.4148     6.4902 </r>
       <r>     3.6952     1.4183     6.6119 </r>
       <r>     3.7810     1.4688     6.7378 </r>
       <r>     3.8668     1.5196     6.8682 </r>
       <r>     3.9526     1.4224     6.9902 </r>
       <r>     4.0383     1.0901     7.0837 </r>
       <r>     4.1241     0.7136     7.1449 </r>
       <r>     4.2099     0.5850     7.1951 </r>
       <r>     4.2956     0.7691     7.2610 </r>
       <r>     4.3814     1.0547     7.3515 </r>
       <r>     4.4672     1.1835     7.4530 </r>
       <r>     4.5530     1.0829     7.5459 </r>
       <r>     4.6387     0.8493     7.6187 </r>
       <r>     4.7245     0.5876     7.6691 </r>
       <r>     4.8103     0.3744     7.7012 </r>
       <r>     4.8960     0.2931     7.7264 </r>
       <r>     4.9818     0.3810     7.7591 </r>
       <r>     5.0676     0.5585     7.8070 </r>
       <r>     5.1534     0.6655     7.8640 </r>
       <r>     5.2391     0.5966     7.9152 </r>
       <r>     5.3249     0.3992     7.9495 </r>
       <r>     5.4107     0.2094     7.9674 </r>
       <r>     5.4964     0.1110     7.9769 </r>
       <r>     5.5822     0.0866     7.9844 </r>
       <r>     5.6680     0.0789     7.9911 </r>
       <r>     5.7538     0.0580     7.9961 </r>
       <r>     5.8395     0.0306     7.9987 </r>
       <r>     5.9253     0.0116     7.9997 </r>
       <r>     6.0111     0.0049     8.0001 </r>
       <r>     6.0968     0.0115     8.0011 </r>
       <r>     6.1826     0.0431     8.0048 </r>
       <r>     6.2684     0.1183     8.0150 </r>
       <r>     6.3542     0.2299     8.0347 </r>
       <r>     6.4399     0.3260     8.0626 </r>
       <r>     6.5257     0.3739     8.0947 </r>
       <r>     6.6115     0.4291     8.1315 </r>
       <r>     6.6972     0.5450     8.1783 </r>
       <r>     6.7830     0.6384     8.2330 </r>
       <r>     6.8688     0.5836     8.2831 </r>
       <r>     6.9546     0.4156     8.3187 </r>
       <r>     7.0403     0.3014     8.3446 </r>
       <r>     7.1261     0.3440     8.3741 </r>
       <r>     7.2119     0.5043     8.4173 </r>
       <r>     7.2976     0.6684     8.4747 </r>
       <r>     7.3834     0.7639     8.5402 </r>
       <r>     7.4692     0.8516     8.6132 </r>
       <r>     7.5550     1.0552     8.7037 </r>
       <r>     7.6407     1.3282     8.8177 </r>
       <r>     7.7265     1.4222     8.9397 </r>
       <r>     7.8123     1.2224     9.0445 </r>
       <r>     7.8980     0.9407     9.1252 </r>
       <r>     7.9838     0.8310     9.1965 </r>
       <r>     8.0696     0.8948     9.2732 </r>
       <r>     8.1554     1.0050     9.3594 </r>
       <r>     8.2411     1.1721     9.4599 </r>
       <r>     8.3269     1.4857     9.5874 </r>
       <r>     8.4127     1.8230     9.7437 </r>
       <r>     8.4984     1.8897     9.9058 </r>
       <r>     8.5842     1.6037    10.0434 </r>
       <r>     8.6700     1.2044    10.1467 </r>
       <r>     8.7558     0.9697    10.2298 </r>
       <r>     8.8415     1.0016    10.3158 </r>
       <r>     8.9273     1.2513    10.4231 </r>
       <r>     9.0131     1.6091    10.5611 </r>
       <r>     9.0988     1.9388    10.7274 </r>
       <r>     9.1846     2.0955    10.9071 </r>
       <r>     9.2704     2.0122    11.0797 </r>
       <r>     9.3562     1.7725    11.2317 </r>
       <r>     9.4419     1.5485    11.3646 </r>
       <r>     9.5277     1.5367    11.4964 </r>
       <r>     9.6135     1.8939    11.6588 </r>
       <r>     9.6992     2.5099    11.8741 </r>
       <r>     9.7850     2.9652    12.1284 </r>
       <r>     9.8708     2.9194    12.3788 </r>
       <r>     9.9565     2.4341    12.5876 </r>
       <r>    10.0423     1.8706    12.7480 </r>
       <r>    10.1281     1.5220    12.8786 </r>
       <r>    10.2139     1.3486    12.9942 </r>
       <r>    10.2996     1.1260    13.0908 </r>
       <r>    10.3854     0.7944    13.1590 </r>
       <r>    10.4712     0.5248    13.2040 </r>
       <r>    10.5569     0.4758    13.2448 </r>
       <r>    10.6427     0.5914    13.2955 </r>
       <r>    10.7285     0.6713    13.3531 </r>
       <r>    10.8143     0.6066    13.4051 </r>
       <r>    10.9000     0.4654    13.4450 </r>
       <r>    10.9858     0.3500    13.4751 </r>
       <r>    11.0716     0.3045    13.5012 </r>
       <r>    11.1573     0.3446    13.5307 </r>
       <r>    11.2431     0.4475    13.5691 </r>
       <r>    11.3289     0.5379    13.6152 </r>
       <r>    11.4147     0.5596    13.6632 </r>
       <r>    11.5004     0.5469    13.7101 </r>
       <r>    11.5862     0.5839    13.7602 </r>
       <r>    11.6720     0.6772    13.8183 </r>
       <r>    11.7577     0.7471    13.8824 </r>
       <r>    11.8435     0.8143    13.9522 </r>
       <r>    11.9293     1.0294    14.0405 </r>
       <r>    12.0151     1.3854    14.1594 </r>
       <r>    12.1008     1.6122    14.2976 </r>
       <r>    12.1866     1.5257    14.4285 </r>
       <r>    12.2724     1.2665    14.5371 </r>
       <r>    12.3581     1.0598    14.6280 </r>
       <r>    12.4439     0.9934    14.7132 </r>
       <r>    12.5297     1.0780    14.8057 </r>
       <r>    12.6155     1.2634    14.9141 </r>
       <r>    12.7012     1.4478    15.0382 </r>
       <r>    12.7870     1.6053    15.1759 </r>
       <r>    12.8728     1.7638    15.3272 </r>
       <r>    12.9585     1.8502    15.4859 </r>
       <r>    13.0443     1.7034    15.6320 </r>
       <r>    13.1301     1.2801    15.7418 </r>
       <r>    13.2159     0.7801    15.8087 </r>
       <r>    13.3016     0.4572    15.8479 </r>
       <r>    13.3874     0.3517    15.8781 </r>
       <r>    13.4732     0.3186    15.9054 </r>
       <r>    13.5589     0.2436    15.9263 </r>
       <r>    13.6447     0.1371    15.9381 </r>
       <r>    13.7305     0.0551    15.9428 </r>
       <r>    13.8163     0.0156    15.9441 </r>
       <r>    13.9020     0.0031    15.9444 </r>
       <r>    13.9878     0.0004    15.9444 </r>
       <r>    14.0736     0.0000    15.9444 </r>
       <r>    14.1593     0.0000    15.9444 </r>
       <r>    14.2451     0.0000    15.9444 </r>
       <r>    14.3309     0.0000    15.9444 </r>
       <r>    14.4167     0.0000    15.9444 </r>
       <r>    14.5024     0.0000    15.9444 </r>
       <r>    14.5882     0.0000    15.9444 </r>
       <r>    14.6740     0.0000    15.9444 </r>
       <r>    14.7597     0.0000    15.9444 </r>
       <r>    14.8455     0.0000    15.9444 </r>
       <r>    14.9313     0.0000    15.9444 </r>
       <r>    15.0171     0.0000    15.9444 </r>
       <r>    15.1028     0.0002    15.9445 </r>
       <r>    15.1886     0.0013    15.9446 </r>
       <r>    15.2744     0.0068    15.9452 </r>
       <r>    15.3601     0.0253    15.9473 </r>
       <r>    15.4459     0.0660    15.9530 </r>
       <r>    15.5317     0.1203    15.9633 </r>
       <r>    15.6175     0.1534    15.9765 </r>
       <r>    15.7032     0.1370    15.9882 </r>
       <r>    15.7890     0.0856    15.9956 </r>
       <r>    15.8748     0.0374    15.9988 </r>
       <r>    15.9605     0.0115    15.9998 </r>
       <r>    16.0463     0.0025    16.0000 </r>
       <r>    16.1321     0.0004    16.0000 </r>
       <r>    16.2179     0.0000    16.0000 </r>
       <r>    16.3036     0.0000    16.0000 </r>
       <r>    16.3894     0.0000    16.0000 </r>
       <r>    16.4752     0.0000    16.0000 </r>
       <r>    16.5609     0.0000    16.0000 </r>
       <r>    16.6467     0.0000    16.0000 </r>
       <r>    16.7325     0.0000    16.0000 </r>
       <r>    16.8183     0.0000    16.0000 </r>
       <r>    16.9040     0.0000    16.0000 </r>
       <r>    16.9898     0.0000    16.0000 </r>
       <r>    17.0756     0.0000    16.0000 </r>
       <r>    17.1613     0.0000    16.0000 </r>
       <r>    17.2471     0.0000    16.0000 </r>
       <r>    17.3329     0.0000    16.0000 </r>
       <r>    17.4187     0.0000    16.0000 </r>
       <r>    17.5044     0.0000    16.0000 </r>
       <r>    17.5902     0.0000    16.0000 </r>
      </set>
     </set>
    </array>
   </total>
  </dos>
 </calculation>
 <structure name="finalpos" >
  <crystal>
   <varray name="basis" >
    <v>       3.34889800       0.00000000       1.93348700 </v>
    <v>       1.11629900       3.15737200       1.93348700 </v>
    <v>       0.00000000       0.00000000       3.86697500 </v>
   </varray>
   <i name="volume">     40.88829843 </i>
   <varray name="rec_basis" >
    <v>       0.29860569      -0.10557300       0.00000000 </v>
    <v>       0.00000000       0.31671909       0.00000000 </v>
    <v>      -0.14930281      -0.10557302       0.25860007 </v>
   </varray>
  </crystal>
  <varray name="positions" >
   <v>       0.87500000       0.87500000       0.87500000 </v>
   <v>       0.12500000       0.12500000       0.12500000 </v>
  </varray>
 </structure>
</modeling>
