 running on   16 total cores
 distrk:  each k-point on   16 cores,    1 groups
 distr:  one band on    4 cores,    4 groups
 using from now: INCAR     
 vasp.5.3.3 18Dez12 (build Jan 30 2013 10:57:47) complex                        
  
 POSCAR found type information on POSCAR  Si
 POSCAR found :  1 types and       2 ions

 ----------------------------------------------------------------------------- 
|                                                                             |
|  ADVICE TO THIS USER RUNNING 'VASP/VAMP'   (HEAR YOUR MASTER'S VOICE ...):  |
|                                                                             |
|      You have switched on vdW-DFT.                                          |
|      This routine was written and supplied by Jiri Klimes.                  |
|      We recommed that you carefully read and cite the following             |
|      publication                                                            |
|      J. Klimes, D.R. Bowler, A. Michelides                                  |
|        J. Phys.: Cond Matt. 22 022201 (2010)                                |
|      J. Klimes, D.R. Bowler, A. Michelides                                  |
|        Phys. Rev. B. 83, 195131 (2011)                                      |
|      and references therein.                                                |
|                                                                             |
 ----------------------------------------------------------------------------- 


 ----------------------------------------------------------------------------- 
|                                                                             |
|  ADVICE TO THIS USER RUNNING 'VASP/VAMP'   (HEAR YOUR MASTER'S VOICE ...):  |
|                                                                             |
|      You enforced a specific xc-type in the INCAR file,                     |
|      a different type was found on the POTCAR file                          |
|          I HOPE YOU KNOW, WHAT YOU ARE  DOING                               |
|                                                                             |
 ----------------------------------------------------------------------------- 

 LDA part: xc-table for Pade appr. of Perdew
 POSCAR, INCAR and KPOINTS ok, starting setup
 FFT: planning ...
 WAVECAR not read
 entering main loop
       N       E                     dE             d eps       ncg     rms          rms(c)
Total vdW correction in eV:      1.0792472
DAV:   1     0.753930737793E+01    0.75393E+01   -0.33473E+03   160   0.841E+02
DAV:   2    -0.817144076105E+01   -0.15711E+02   -0.15486E+02   248   0.788E+01
DAV:   3    -0.836138055110E+01   -0.18994E+00   -0.18994E+00   216   0.112E+01
DAV:   4    -0.836226377456E+01   -0.88322E-03   -0.88322E-03   272   0.770E-01
DAV:   5    -0.836226415812E+01   -0.38356E-06   -0.38337E-06   208   0.155E-02    0.378E+00
Total vdW correction in eV:      1.1288725
DAV:   6    -0.830414399972E+01    0.58120E-01   -0.92172E-02   208   0.180E+00    0.232E+00
Total vdW correction in eV:      1.2241075
DAV:   7    -0.829626631267E+01    0.78777E-02   -0.21175E-01   184   0.269E+00    0.190E-01
Total vdW correction in eV:      1.2194244
DAV:   8    -0.827925634403E+01    0.17010E-01   -0.64122E-03   216   0.564E-01    0.101E-01
Total vdW correction in eV:      1.2249284
DAV:   9    -0.828081722842E+01   -0.15609E-02   -0.54317E-04   176   0.157E-01    0.742E-02
Total vdW correction in eV:      1.2251928
DAV:  10    -0.828017386383E+01    0.64336E-03   -0.35794E-05   240   0.524E-02    0.242E-02
Total vdW correction in eV:      1.2251658
DAV:  11    -0.828010143163E+01    0.72432E-04   -0.50623E-07   200   0.645E-03    0.233E-03
Total vdW correction in eV:      1.2251990
DAV:  12    -0.828010071213E+01    0.71950E-06   -0.89682E-08   224   0.298E-03    0.510E-04
Total vdW correction in eV:      1.2251942
DAV:  13    -0.828009800049E+01    0.27116E-05   -0.20001E-09   128   0.349E-04    0.992E-05
Total vdW correction in eV:      1.2251958
DAV:  14    -0.828009739722E+01    0.60327E-06   -0.26032E-10   136   0.163E-04    0.174E-05
Total vdW correction in eV:      1.2251953
DAV:  15    -0.828009699633E+01    0.40089E-06   -0.23388E-11    88   0.375E-05    0.760E-06
Total vdW correction in eV:      1.2251953
DAV:  16    -0.828009708170E+01   -0.85367E-07   -0.45844E-12   104   0.185E-05
Total vdW correction in eV:      1.2251952
Total vdW correction in eV:      1.2251952
   1 F= -.82800971E+01 E0= -.82798892E+01  d E =-.828010E+01
 curvature:   0.00 expect dE= 0.000E+00 dE for cont linesearch  0.000E+00
 trial: gam= 0.00000 g(F)=  0.766E-44 g(S)=  0.000E+00 ort = 0.000E+00 (trialstep = 0.100E+01)
 search vector abs. value=  0.100E-09
 reached required accuracy - stopping structural energy minimisation
