<?xml version="1.0" encoding="ISO-8859-1"?>
<modeling>
 <generator>
  <i name="program" type="string">vasp </i>
  <i name="version" type="string">5.3.3  </i>
  <i name="subversion" type="string">18Dez12 (build Jan 30 2013 10:57:47) complex                          parallel </i>
  <i name="platform" type="string">LinuxIFC </i>
  <i name="date" type="string">2016 06 21 </i>
  <i name="time" type="string">12:05:31 </i>
 </generator>
 <incar>
  <i type="string" name="PREC">accurate</i>
  <i type="int" name="NELM">   400</i>
  <i type="int" name="IBRION">     2</i>
  <i name="EDIFF">      0.00000010</i>
  <i type="int" name="NSW">     1</i>
  <i name="ENCUT">    550.00000000</i>
  <i type="int" name="ISMEAR">     0</i>
  <i type="logical" name="LWAVE"> F  </i>
  <i type="logical" name="LCHARG"> F  </i>
  <i type="int" name="NELM">   400</i>
  <i type="string" name="GGA"> BO</i>
  <i name="PARAM1">      0.18333333</i>
  <i name="PARAM2">      0.22000000</i>
  <i type="logical" name="LUSE_VDW"> T  </i>
  <i name="AGGAC">      0.00000000</i>
 </incar>
 <kpoints>
  <generation param="Gamma">
   <v type="int" name="divisions">       5        5        5 </v>
   <v name="usershift">      0.00000000       0.00000000       0.00000000 </v>
   <v name="genvec1">      0.20000000       0.00000000       0.00000000 </v>
   <v name="genvec2">      0.00000000       0.20000000       0.00000000 </v>
   <v name="genvec3">      0.00000000       0.00000000       0.20000000 </v>
   <v name="shift">      0.00000000       0.00000000       0.00000000 </v>
  </generation>
  <varray name="kpointlist" >
   <v>       0.00000000       0.00000000       0.00000000 </v>
   <v>       0.20000000       0.00000000       0.00000000 </v>
   <v>       0.40000000       0.00000000       0.00000000 </v>
   <v>       0.20000000       0.20000000       0.00000000 </v>
   <v>       0.40000000       0.20000000       0.00000000 </v>
   <v>      -0.40000000       0.20000000       0.00000000 </v>
   <v>      -0.20000000       0.20000000       0.00000000 </v>
   <v>       0.40000000       0.40000000       0.00000000 </v>
   <v>      -0.40000000       0.40000000       0.00000000 </v>
   <v>      -0.40000000       0.40000000       0.20000000 </v>
  </varray>
  <varray name="weights" >
   <v>       0.00800000 </v>
   <v>       0.06400000 </v>
   <v>       0.06400000 </v>
   <v>       0.04800000 </v>
   <v>       0.19200000 </v>
   <v>       0.19200000 </v>
   <v>       0.09600000 </v>
   <v>       0.04800000 </v>
   <v>       0.09600000 </v>
   <v>       0.19200000 </v>
  </varray>
 </kpoints>
 <parameters>
  <separator name="general" >
   <i type="string" name="SYSTEM">unknown system</i>
   <i type="logical" name="LCOMPAT"> F  </i>
  </separator>
  <separator name="electronic" >
   <i type="string" name="PREC">accura</i>
   <i name="ENMAX">    550.00000000</i>
   <i name="ENAUG">    322.06900000</i>
   <i name="EDIFF">      0.00000010</i>
   <i type="int" name="IALGO">    38</i>
   <i type="int" name="IWAVPR">    11</i>
   <i type="int" name="NBANDS">     8</i>
   <i name="NELECT">      8.00000000</i>
   <i type="int" name="TURBO">     0</i>
   <i type="int" name="IRESTART">     0</i>
   <i type="int" name="NREBOOT">     0</i>
   <i type="int" name="NMIN">     0</i>
   <i name="EREF">      0.00000000</i>
   <separator name="electronic smearing" >
    <i type="int" name="ISMEAR">     0</i>
    <i name="SIGMA">      0.20000000</i>
    <i name="KSPACING">      0.50000000</i>
    <i type="logical" name="KGAMMA"> T  </i>
   </separator>
   <separator name="electronic projectors" >
    <i type="logical" name="LREAL"> F  </i>
    <v name="ROPT">      0.00000000</v>
    <i type="int" name="LMAXPAW">  -100</i>
    <i type="int" name="LMAXMIX">     2</i>
    <i type="logical" name="NLSPLINE"> F  </i>
   </separator>
   <separator name="electronic startup" >
    <i type="int" name="ISTART">     0</i>
    <i type="int" name="ICHARG">     2</i>
    <i type="int" name="INIWAV">     1</i>
   </separator>
   <separator name="electronic spin" >
    <i type="int" name="ISPIN">     1</i>
    <i type="logical" name="LNONCOLLINEAR"> F  </i>
    <v name="MAGMOM">      1.00000000      1.00000000</v>
    <i name="NUPDOWN">     -1.00000000</i>
    <i type="logical" name="LSORBIT"> F  </i>
    <v name="SAXIS">      0.00000000      0.00000000      1.00000000</v>
    <i type="logical" name="LSPIRAL"> F  </i>
    <v name="QSPIRAL">      0.00000000      0.00000000      0.00000000</v>
    <i type="logical" name="LZEROZ"> F  </i>
   </separator>
   <separator name="electronic exchange-correlation" >
    <i type="logical" name="LASPH"> F  </i>
    <i type="logical" name="LMETAGGA"> F  </i>
   </separator>
   <separator name="electronic convergence" >
    <i type="int" name="NELM">   400</i>
    <i type="int" name="NELMDL">    -5</i>
    <i type="int" name="NELMIN">     2</i>
    <i name="ENINI">    550.00000000</i>
    <separator name="electronic convergence detail" >
     <i type="logical" name="LDIAG"> T  </i>
     <i type="logical" name="LSUBROT"> T  </i>
     <i name="WEIMIN">      0.00100000</i>
     <i name="EBREAK">      0.00000000</i>
     <i name="DEPER">      0.30000000</i>
     <i type="int" name="NRMM">     4</i>
     <i name="TIME">      0.40000000</i>
    </separator>
   </separator>
   <separator name="electronic mixer" >
    <i name="AMIX">      0.40000000</i>
    <i name="BMIX">      1.00000000</i>
    <i name="AMIN">      0.10000000</i>
    <i name="AMIX_MAG">      1.60000000</i>
    <i name="BMIX_MAG">      1.00000000</i>
    <separator name="electronic mixer details" >
     <i type="int" name="IMIX">     4</i>
     <i type="int" name="MAXMIX">   -45</i>
     <i name="WC">    100.00000000</i>
     <i type="int" name="INIMIX">     1</i>
     <i type="int" name="MIXPRE">     1</i>
     <i type="int" name="MREMOVE">     5</i>
    </separator>
   </separator>
   <separator name="electronic dipolcorrection" >
    <i type="logical" name="LDIPOL"> F  </i>
    <i type="logical" name="LMONO"> F  </i>
    <i type="int" name="IDIPOL">     0</i>
    <i name="EPSILON">      1.00000000</i>
    <v name="DIPOL">   -100.00000000   -100.00000000   -100.00000000</v>
    <i name="EFIELD">      0.00000000</i>
   </separator>
  </separator>
  <separator name="grids" >
   <i type="int" name="NGX">    30</i>
   <i type="int" name="NGY">    30</i>
   <i type="int" name="NGZ">    30</i>
   <i type="int" name="NGXF">    60</i>
   <i type="int" name="NGYF">    60</i>
   <i type="int" name="NGZF">    60</i>
   <i type="logical" name="ADDGRID"> F  </i>
  </separator>
  <separator name="ionic" >
   <i type="int" name="NSW">     1</i>
   <i type="int" name="IBRION">     2</i>
   <i type="int" name="ISIF">     2</i>
   <i name="PSTRESS">      0.00000000</i>
   <i name="EDIFFG">      0.00000100</i>
   <i type="int" name="NFREE">     1</i>
   <i name="POTIM">      0.50000000</i>
   <i name="SMASS">     -3.00000000</i>
   <i name="SCALEE">      1.00000000</i>
  </separator>
  <separator name="ionic md" >
   <i name="TEBEG">      0.00010000</i>
   <i name="TEEND">      0.00010000</i>
   <i type="int" name="NBLOCK">     1</i>
   <i type="int" name="KBLOCK">     1</i>
   <i type="int" name="NPACO">   256</i>
   <i name="APACO">     16.00000000</i>
  </separator>
  <separator name="symmetry" >
   <i type="int" name="ISYM">     2</i>
   <i name="SYMPREC">      0.00001000</i>
  </separator>
  <separator name="dos" >
   <i type="logical" name="LORBIT"> F  </i>
   <v name="RWIGS">     -1.00000000</v>
   <i type="int" name="NEDOS">   301</i>
   <i name="EMIN">     10.00000000</i>
   <i name="EMAX">    -10.00000000</i>
   <i name="EFERMI">      0.00000000</i>
  </separator>
  <separator name="writing" >
   <i type="int" name="NWRITE">     2</i>
   <i type="logical" name="LWAVE"> F  </i>
   <i type="logical" name="LCHARG"> F  </i>
   <i type="logical" name="LPARD"> F  </i>
   <i type="logical" name="LVTOT"> F  </i>
   <i type="logical" name="LVHAR"> F  </i>
   <i type="logical" name="LELF"> F  </i>
   <i type="logical" name="LOPTICS"> F  </i>
   <v name="STM">      0.00000000      0.00000000      0.00000000      0.00000000      0.00000000      0.00000000      0.00000000</v>
  </separator>
  <separator name="performance" >
   <i type="int" name="NPAR">     4</i>
   <i type="int" name="NSIM">     4</i>
   <i type="int" name="NBLK">    -1</i>
   <i type="logical" name="LPLANE"> T  </i>
   <i type="logical" name="LSCALAPACK"> F  </i>
   <i type="logical" name="LSCAAWARE"> F  </i>
   <i type="logical" name="LSCALU"> F  </i>
   <i type="logical" name="LASYNC"> F  </i>
   <i type="logical" name="LORBITALREAL"> F  </i>
  </separator>
  <separator name="miscellaneous" >
   <i type="int" name="IDIOT">     3</i>
   <i type="logical" name="LMUSIC"> F  </i>
   <v name="POMASS">     28.08500000</v>
   <v name="DARWINR">      0.00000000</v>
   <v name="DARWINV">      1.00000000</v>
   <i type="logical" name="LCORR"> T  </i>
  </separator>
  <i type="logical" name="GGA_COMPAT"> T  </i>
  <i type="logical" name="LBERRY"> F  </i>
  <i type="int" name="ICORELEVEL">     0</i>
  <i type="logical" name="LDAU"> F  </i>
  <i type="int" name="I_CONSTRAINED_M">     0</i>
  <separator name="electronic exchange-correlation" >
   <i type="string" name="GGA">BO</i>
   <i type="int" name="VOSKOWN">     0</i>
   <i type="logical" name="LHFCALC"> F  </i>
   <i type="string" name="PRECFOCK"></i>
   <i type="logical" name="LSYMGRAD"> F  </i>
   <i type="logical" name="LHFONE"> F  </i>
   <i type="logical" name="LRHFCALC"> F  </i>
   <i type="logical" name="LTHOMAS"> F  </i>
   <i type="logical" name="LMODELHF"> F  </i>
   <i name="ENCUT4O">     -1.00000000</i>
   <i type="int" name="EXXOEP">     0</i>
   <i type="int" name="FOURORBIT">     0</i>
   <i name="AEXX">      0.00000000</i>
   <i name="HFALPHA">      0.00000000</i>
   <i name="MCALPHA">      0.00000000</i>
   <i name="ALDAX">      1.00000000</i>
   <i name="AGGAX">      1.00000000</i>
   <i name="ALDAC">      1.00000000</i>
   <i name="AGGAC">      0.00000000</i>
   <i type="int" name="NKREDX">     1</i>
   <i type="int" name="NKREDY">     1</i>
   <i type="int" name="NKREDZ">     1</i>
   <i type="logical" name="SHIFTRED"> F  </i>
   <i type="logical" name="ODDONLY"> F  </i>
   <i type="logical" name="EVENONLY"> F  </i>
   <i type="int" name="LMAXFOCK">     0</i>
   <i type="int" name="NMAXFOCKAE">     0</i>
   <i type="logical" name="LFOCKAEDFT"> F  </i>
   <i name="HFSCREEN">      0.00000000</i>
   <i name="HFSCREENC">      0.00000000</i>
   <i type="int" name="NBANDSGWLOW">     0</i>
  </separator>
  <separator name="vdW DFT" >
   <i type="logical" name="LUSE_VDW"> T  </i>
   <i name="Zab_VDW">     -0.84910000</i>
   <i name="PARAM1">      0.18333333</i>
   <i name="PARAM2">      0.22000000</i>
   <i name="PARAM3">      0.00000000</i>
  </separator>
  <separator name="model GW" >
   <i type="int" name="MODEL_GW">     0</i>
   <i name="MODEL_EPS0">     12.26648953</i>
   <i name="MODEL_ALPHA">      1.00000000</i>
  </separator>
  <separator name="linear response parameters" >
   <i type="logical" name="LEPSILON"> F  </i>
   <i type="logical" name="LRPA"> F  </i>
   <i type="logical" name="LNABLA"> F  </i>
   <i type="logical" name="LVEL"> F  </i>
   <i type="int" name="KINTER">     0</i>
   <i name="CSHIFT">      0.10000000</i>
   <i name="OMEGAMAX">     -1.00000000</i>
   <i name="DEG_THRESHOLD">      0.00200000</i>
  </separator>
  <separator name="orbital magnetization" >
   <i type="logical" name="NUCIND"> F  </i>
   <v name="MAGPOS">      0.00000000      0.00000000      0.00000000</v>
   <i type="logical" name="LNICSALL"> T  </i>
   <i type="logical" name="ORBITALMAG"> F  </i>
   <i type="logical" name="LMAGBLOCH"> F  </i>
   <i type="logical" name="LCHIMAG"> F  </i>
   <i type="logical" name="LGAUGE"> T  </i>
   <i type="int" name="MAGATOM">     0</i>
   <v name="MAGDIPOL">      0.00000000      0.00000000      0.00000000</v>
   <v name="AVECCONST">      0.00000000      0.00000000      0.00000000</v>
  </separator>
  <separator name="response functions" >
   <i type="logical" name="LADDER"> F  </i>
   <i type="logical" name="LFXC"> F  </i>
   <i type="logical" name="LHARTREE"> T  </i>
   <i type="int" name="IBSE">     0</i>
   <i type="logical" name="LTCTE"> F  </i>
   <i type="logical" name="LTETE"> F  </i>
   <i type="logical" name="LTRIPLET"> F  </i>
   <i type="logical" name="LFXCEPS"> F  </i>
   <i type="logical" name="L2ORDER"> F  </i>
   <i type="logical" name="LUSEW"> F  </i>
   <i name="ENCUTGW">     -2.00000000</i>
   <i name="ENCUTGWSOFT">     -2.00000000</i>
   <i name="ENCUTLF">     -1.00000000</i>
   <i type="int" name="LMAXMP2">    -1</i>
   <i name="SCISSOR">      0.00000000</i>
   <i type="int" name="NOMEGA">     0</i>
   <i type="int" name="NOMEGAR">     0</i>
   <i type="int" name="NBANDSGW">    -1</i>
   <i type="int" name="NBANDSO">    -1</i>
   <i type="int" name="NBANDSV">    -1</i>
   <i type="int" name="NELM">   400</i>
   <i type="int" name="DIM">     3</i>
   <i type="int" name="ANTIRES">     0</i>
   <i name="OMEGAMAX">    -30.00000000</i>
   <i name="OMEGATL">   -200.00000000</i>
   <i type="int" name="OMEGAGRID">     0</i>
   <i name="CSHIFT">     -0.10000000</i>
   <i type="logical" name="SELFENERGY"> F  </i>
   <i type="logical" name="LSPECTRAL"> F  </i>
   <i type="logical" name="ODDONLYGW"> F  </i>
   <i type="logical" name="EVENONLYGW"> F  </i>
   <i type="int" name="NKREDLFX">     1</i>
   <i type="int" name="NKREDLFY">     1</i>
   <i type="int" name="NKREDLFZ">     1</i>
   <i type="int" name="MAXMEM">  1800</i>
   <i type="int" name="TELESCOPE">     0</i>
  </separator>
 </parameters>
 <atominfo>
  <atoms>       2 </atoms>
  <types>       1 </types>
  <array name="atoms" >
   <dimension dim="1">ion</dimension>
   <field type="string">element</field>
   <field type="int">atomtype</field>
   <set>
    <rc><c>Si</c><c>   1</c></rc>
    <rc><c>Si</c><c>   1</c></rc>
   </set>
  </array>
  <array name="atomtypes" >
   <dimension dim="1">type</dimension>
   <field type="int">atomspertype</field>
   <field type="string">element</field>
   <field>mass</field>
   <field>valence</field>
   <field type="string">pseudopotential</field>
   <set>
    <rc><c>   2</c><c>Si</c><c>     28.08500000</c><c>      4.00000000</c><c>  PAW_PBE Si 05Jan2001                  </c></rc>
   </set>
  </array>
 </atominfo>
 <structure name="initialpos" >
  <crystal>
   <varray name="basis" >
    <v>       3.34889800       0.00000000       1.93348700 </v>
    <v>       1.11629900       3.15737200       1.93348700 </v>
    <v>       0.00000000       0.00000000       3.86697500 </v>
   </varray>
   <i name="volume">     40.88829843 </i>
   <varray name="rec_basis" >
    <v>       0.29860569      -0.10557300       0.00000000 </v>
    <v>       0.00000000       0.31671909       0.00000000 </v>
    <v>      -0.14930281      -0.10557302       0.25860007 </v>
   </varray>
  </crystal>
  <varray name="positions" >
   <v>       0.87500000       0.87500000       0.87500000 </v>
   <v>       0.12500000       0.12500000       0.12500000 </v>
  </varray>
 </structure>
 <calculation>
  <scstep>
   <time name="dav">    0.26    0.26</time>
   <time name="total">    6.03    6.60</time>
   <energy>
    <i name="alphaZ">      3.29317992 </i>
    <i name="ewald">   -226.94489173 </i>
    <i name="hartreedc">    -11.32339116 </i>
    <i name="XCdc">    -20.24410379 </i>
    <i name="pawpsdc">    189.40224250 </i>
    <i name="pawaedc">   -152.61488262 </i>
    <i name="eentropy">     -0.01145398 </i>
    <i name="bandstr">     17.38844509 </i>
    <i name="atom">    208.59416316 </i>
    <i name="e_fr_energy">      7.53930738 </i>
    <i name="e_wo_entrp">      7.55076136 </i>
    <i name="e_0_energy">      7.54503437 </i>
   </energy>
  </scstep>
  <scstep>
   <time name="dav">    0.31    0.34</time>
   <time name="total">    0.32    2.86</time>
   <energy>
    <i name="e_fr_energy">     -8.17144076 </i>
    <i name="e_wo_entrp">     -8.17141103 </i>
    <i name="e_0_energy">     -8.17142589 </i>
   </energy>
  </scstep>
  <scstep>
   <time name="dav">    0.34    0.35</time>
   <time name="total">    0.34    1.14</time>
   <energy>
    <i name="e_fr_energy">     -8.36138055 </i>
    <i name="e_wo_entrp">     -8.36135902 </i>
    <i name="e_0_energy">     -8.36136979 </i>
   </energy>
  </scstep>
  <scstep>
   <time name="dav">    0.54    0.54</time>
   <time name="total">    0.54    4.36</time>
   <energy>
    <i name="e_fr_energy">     -8.36226377 </i>
    <i name="e_wo_entrp">     -8.36224228 </i>
    <i name="e_0_energy">     -8.36225303 </i>
   </energy>
  </scstep>
  <scstep>
   <time name="dav">    0.17    0.17</time>
   <time name="total">    0.22    1.32</time>
   <energy>
    <i name="e_fr_energy">     -8.36226416 </i>
    <i name="e_wo_entrp">     -8.36224266 </i>
    <i name="e_0_energy">     -8.36225341 </i>
   </energy>
  </scstep>
  <scstep>
   <time name="dav">    0.30    0.30</time>
   <time name="total">    2.89    3.87</time>
   <energy>
    <i name="e_fr_energy">     -8.30414400 </i>
    <i name="e_wo_entrp">     -8.30405630 </i>
    <i name="e_0_energy">     -8.30410015 </i>
   </energy>
  </scstep>
  <scstep>
   <time name="dav">    0.14    0.14</time>
   <time name="total">    2.53    4.03</time>
   <energy>
    <i name="e_fr_energy">     -8.29626631 </i>
    <i name="e_wo_entrp">     -8.29572649 </i>
    <i name="e_0_energy">     -8.29599640 </i>
   </energy>
  </scstep>
  <scstep>
   <time name="dav">    0.37    0.37</time>
   <time name="total">    2.96    3.71</time>
   <energy>
    <i name="e_fr_energy">     -8.27925634 </i>
    <i name="e_wo_entrp">     -8.27886360 </i>
    <i name="e_0_energy">     -8.27905997 </i>
   </energy>
  </scstep>
  <scstep>
   <time name="dav">    0.34    0.34</time>
   <time name="total">    2.85    3.72</time>
   <energy>
    <i name="e_fr_energy">     -8.28081723 </i>
    <i name="e_wo_entrp">     -8.28039305 </i>
    <i name="e_0_energy">     -8.28060514 </i>
   </energy>
  </scstep>
  <scstep>
   <time name="dav">    0.38    0.38</time>
   <time name="total">    2.83    3.51</time>
   <energy>
    <i name="e_fr_energy">     -8.28017386 </i>
    <i name="e_wo_entrp">     -8.27975786 </i>
    <i name="e_0_energy">     -8.27996586 </i>
   </energy>
  </scstep>
  <scstep>
   <time name="dav">    0.23    0.24</time>
   <time name="total">    2.59    3.44</time>
   <energy>
    <i name="e_fr_energy">     -8.28010143 </i>
    <i name="e_wo_entrp">     -8.27968523 </i>
    <i name="e_0_energy">     -8.27989333 </i>
   </energy>
  </scstep>
  <scstep>
   <time name="dav">    0.46    0.46</time>
   <time name="total">    3.01    3.52</time>
   <energy>
    <i name="e_fr_energy">     -8.28010071 </i>
    <i name="e_wo_entrp">     -8.27968479 </i>
    <i name="e_0_energy">     -8.27989275 </i>
   </energy>
  </scstep>
  <scstep>
   <time name="dav">    0.31    0.31</time>
   <time name="total">    2.81    8.69</time>
   <energy>
    <i name="e_fr_energy">     -8.28009800 </i>
    <i name="e_wo_entrp">     -8.27968214 </i>
    <i name="e_0_energy">     -8.27989007 </i>
   </energy>
  </scstep>
  <scstep>
   <time name="dav">    0.36    0.35</time>
   <time name="total">    2.76    3.87</time>
   <energy>
    <i name="e_fr_energy">     -8.28009740 </i>
    <i name="e_wo_entrp">     -8.27968153 </i>
    <i name="e_0_energy">     -8.27988947 </i>
   </energy>
  </scstep>
  <scstep>
   <time name="dav">    0.23    0.23</time>
   <time name="total">    2.73    3.84</time>
   <energy>
    <i name="e_fr_energy">     -8.28009700 </i>
    <i name="e_wo_entrp">     -8.27968114 </i>
    <i name="e_0_energy">     -8.27988907 </i>
   </energy>
  </scstep>
  <scstep>
   <time name="dav">    0.15    0.15</time>
   <time name="total">    2.67    3.83</time>
   <energy>
    <i name="alphaZ">      3.29317992 </i>
    <i name="ewald">   -226.94489173 </i>
    <i name="hartreedc">    -15.49975931 </i>
    <i name="XCdc">    -19.55883116 </i>
    <i name="pawpsdc">    540.61509068 </i>
    <i name="pawaedc">   -504.08148405 </i>
    <i name="eentropy">     -0.00041586 </i>
    <i name="bandstr">      5.30285129 </i>
    <i name="atom">    208.59416316 </i>
    <i name="e_fr_energy">     -8.28009708 </i>
    <i name="e_wo_entrp">     -8.27968122 </i>
    <i name="e_0_energy">     -8.27988915 </i>
   </energy>
  </scstep>
  <structure>
   <crystal>
    <varray name="basis" >
     <v>       3.34889800       0.00000000       1.93348700 </v>
     <v>       1.11629900       3.15737200       1.93348700 </v>
     <v>       0.00000000       0.00000000       3.86697500 </v>
    </varray>
    <i name="volume">     40.88829843 </i>
    <varray name="rec_basis" >
     <v>       0.29860569      -0.10557300       0.00000000 </v>
     <v>       0.00000000       0.31671909       0.00000000 </v>
     <v>      -0.14930281      -0.10557302       0.25860007 </v>
    </varray>
   </crystal>
   <varray name="positions" >
    <v>       0.87500000       0.87500000       0.87500000 </v>
    <v>       0.12500000       0.12500000       0.12500000 </v>
   </varray>
  </structure>
  <varray name="forces" >
   <v>       0.00000000       0.00000000       0.00000000 </v>
   <v>       0.00000000       0.00000000       0.00000000 </v>
  </varray>
  <varray name="stress" >
   <v>      13.85567361      -0.00000146      -0.00000207 </v>
   <v>      -0.00000146      13.85567964      -0.00000146 </v>
   <v>      -0.00000207      -0.00000146      13.85567846 </v>
  </varray>
  <energy>
   <i name="e_fr_energy">     -8.28009708 </i>
   <i name="e_wo_entrp">     -8.27988915 </i>
   <i name="e_0_energy">     -0.00041586 </i>
  </energy>
  <time name="totalsc">   43.57   69.59</time>
  <eigenvalues>
   <array>
    <dimension dim="1">band</dimension>
    <dimension dim="2">kpoint</dimension>
    <dimension dim="3">spin</dimension>
    <field>eigene</field>
    <field>occ</field>
    <set>
     <set comment="spin 1">
      <set comment="kpoint 1">
       <r>   -6.1337    1.0000 </r>
       <r>    5.6104    0.9888 </r>
       <r>    5.6104    0.9888 </r>
       <r>    5.6104    0.9888 </r>
       <r>    8.2271    0.0000 </r>
       <r>    8.2271    0.0000 </r>
       <r>    8.2271    0.0000 </r>
       <r>    8.8412    0.0000 </r>
      </set>
      <set comment="kpoint 2">
       <r>   -5.6266    1.0000 </r>
       <r>    2.6691    1.0000 </r>
       <r>    5.0545    1.0000 </r>
       <r>    5.0545    1.0000 </r>
       <r>    7.8326    0.0000 </r>
       <r>    9.0064    0.0000 </r>
       <r>    9.0064    0.0000 </r>
       <r>   11.5359    0.0000 </r>
      </set>
      <set comment="kpoint 3">
       <r>   -4.2960    1.0000 </r>
       <r>   -0.5228    1.0000 </r>
       <r>    4.5201    1.0000 </r>
       <r>    4.5201    1.0000 </r>
       <r>    7.2311    0.0000 </r>
       <r>    9.0857    0.0000 </r>
       <r>    9.0857    0.0000 </r>
       <r>   13.4779    0.0000 </r>
      </set>
      <set comment="kpoint 4">
       <r>   -5.4519    1.0000 </r>
       <r>    3.0150    1.0000 </r>
       <r>    4.1799    1.0000 </r>
       <r>    4.1799    1.0000 </r>
       <r>    7.1493    0.0000 </r>
       <r>    9.5273    0.0000 </r>
       <r>   10.4850    0.0000 </r>
       <r>   10.4850    0.0000 </r>
      </set>
      <set comment="kpoint 5">
       <r>   -4.3352    1.0000 </r>
       <r>    0.3992    1.0000 </r>
       <r>    3.0711    1.0000 </r>
       <r>    3.6832    1.0000 </r>
       <r>    7.4566    0.0000 </r>
       <r>    9.7326    0.0000 </r>
       <r>   10.5103    0.0000 </r>
       <r>   11.0456    0.0000 </r>
      </set>
      <set comment="kpoint 6">
       <r>   -3.4759    1.0000 </r>
       <r>   -0.9546    1.0000 </r>
       <r>    2.2836    1.0000 </r>
       <r>    3.9547    1.0000 </r>
       <r>    7.7315    0.0000 </r>
       <r>   10.1935    0.0000 </r>
       <r>   10.4404    0.0000 </r>
       <r>   13.1436    0.0000 </r>
      </set>
      <set comment="kpoint 7">
       <r>   -4.8126    1.0000 </r>
       <r>    1.2124    1.0000 </r>
       <r>    2.7173    1.0000 </r>
       <r>    4.7936    1.0000 </r>
       <r>    8.5266    0.0000 </r>
       <r>    9.6340    0.0000 </r>
       <r>    9.9012    0.0000 </r>
       <r>   11.3273    0.0000 </r>
      </set>
      <set comment="kpoint 8">
       <r>   -3.4761    1.0000 </r>
       <r>   -0.4704    1.0000 </r>
       <r>    3.0034    1.0000 </r>
       <r>    3.0034    1.0000 </r>
       <r>    6.2924    0.0056 </r>
       <r>    7.0234    0.0000 </r>
       <r>   14.0356    0.0000 </r>
       <r>   14.0356    0.0000 </r>
      </set>
      <set comment="kpoint 9">
       <r>   -2.3035    1.0000 </r>
       <r>   -1.7025    1.0000 </r>
       <r>    1.6858    1.0000 </r>
       <r>    3.1183    1.0000 </r>
       <r>    6.7379    0.0000 </r>
       <r>    8.8064    0.0000 </r>
       <r>   13.6608    0.0000 </r>
       <r>   14.2198    0.0000 </r>
      </set>
      <set comment="kpoint 10">
       <r>   -3.0505    1.0000 </r>
       <r>   -0.8465    1.0000 </r>
       <r>    1.7661    1.0000 </r>
       <r>    2.7264    1.0000 </r>
       <r>    9.0382    0.0000 </r>
       <r>    9.4284    0.0000 </r>
       <r>   10.0411    0.0000 </r>
       <r>   13.3543    0.0000 </r>
      </set>
     </set>
    </set>
   </array>
  </eigenvalues>
  <separator name="orbital magnetization" >
   <v name="MAGDIPOLOUT">      0.00000000      0.00000000      0.00000000</v>
  </separator>
  <dos>
   <i name="efermi">      5.93352521 </i>
   <total>
    <array>
     <dimension dim="1">gridpoints</dimension>
     <dimension dim="2">spin</dimension>
     <field>energy</field>
     <field>total</field>
     <field>integrated</field>
     <set>
      <set comment="spin 1">
       <r>    -8.1337     0.0000     0.0000 </r>
       <r>    -8.0526     0.0000     0.0000 </r>
       <r>    -7.9714     0.0000     0.0000 </r>
       <r>    -7.8902     0.0000     0.0000 </r>
       <r>    -7.8090     0.0000     0.0000 </r>
       <r>    -7.7278     0.0000     0.0000 </r>
       <r>    -7.6467     0.0000     0.0000 </r>
       <r>    -7.5655     0.0000     0.0000 </r>
       <r>    -7.4843     0.0000     0.0000 </r>
       <r>    -7.4031     0.0000     0.0000 </r>
       <r>    -7.3220     0.0000     0.0000 </r>
       <r>    -7.2408     0.0000     0.0000 </r>
       <r>    -7.1596     0.0000     0.0000 </r>
       <r>    -7.0784     0.0000     0.0000 </r>
       <r>    -6.9972     0.0000     0.0000 </r>
       <r>    -6.9161     0.0000     0.0000 </r>
       <r>    -6.8349     0.0000     0.0000 </r>
       <r>    -6.7537     0.0000     0.0000 </r>
       <r>    -6.6725     0.0000     0.0000 </r>
       <r>    -6.5913     0.0001     0.0000 </r>
       <r>    -6.5102     0.0006     0.0001 </r>
       <r>    -6.4290     0.0029     0.0003 </r>
       <r>    -6.3478     0.0092     0.0010 </r>
       <r>    -6.2666     0.0214     0.0028 </r>
       <r>    -6.1855     0.0362     0.0057 </r>
       <r>    -6.1043     0.0449     0.0094 </r>
       <r>    -6.0231     0.0430     0.0129 </r>
       <r>    -5.9419     0.0422     0.0163 </r>
       <r>    -5.8607     0.0707     0.0220 </r>
       <r>    -5.7796     0.1572     0.0348 </r>
       <r>    -5.6984     0.2991     0.0591 </r>
       <r>    -5.6172     0.4433     0.0950 </r>
       <r>    -5.5360     0.5182     0.1371 </r>
       <r>    -5.4548     0.4895     0.1768 </r>
       <r>    -5.3737     0.3770     0.2075 </r>
       <r>    -5.2925     0.2340     0.2264 </r>
       <r>    -5.2113     0.1175     0.2360 </r>
       <r>    -5.1301     0.0649     0.2412 </r>
       <r>    -5.0490     0.0940     0.2489 </r>
       <r>    -4.9678     0.2126     0.2661 </r>
       <r>    -4.8866     0.3888     0.2977 </r>
       <r>    -4.8054     0.5221     0.3401 </r>
       <r>    -4.7242     0.5191     0.3822 </r>
       <r>    -4.6431     0.4214     0.4164 </r>
       <r>    -4.5619     0.4066     0.4494 </r>
       <r>    -4.4807     0.6314     0.5007 </r>
       <r>    -4.3995     1.0506     0.5860 </r>
       <r>    -4.3183     1.3810     0.6981 </r>
       <r>    -4.2372     1.3401     0.8069 </r>
       <r>    -4.1560     0.9499     0.8840 </r>
       <r>    -4.0748     0.4913     0.9239 </r>
       <r>    -3.9936     0.1860     0.9390 </r>
       <r>    -3.9125     0.0562     0.9435 </r>
       <r>    -3.8313     0.0397     0.9467 </r>
       <r>    -3.7501     0.1215     0.9566 </r>
       <r>    -3.6689     0.3546     0.9854 </r>
       <r>    -3.5877     0.7598     1.0471 </r>
       <r>    -3.5066     1.1835     1.1431 </r>
       <r>    -3.4254     1.3485     1.2526 </r>
       <r>    -3.3442     1.1617     1.3469 </r>
       <r>    -3.2630     0.8735     1.4178 </r>
       <r>    -3.1818     0.8004     1.4828 </r>
       <r>    -3.1007     0.9622     1.5609 </r>
       <r>    -3.0195     1.0860     1.6491 </r>
       <r>    -2.9383     0.9464     1.7259 </r>
       <r>    -2.8571     0.6059     1.7751 </r>
       <r>    -2.7760     0.2829     1.7981 </r>
       <r>    -2.6948     0.1010     1.8063 </r>
       <r>    -2.6136     0.0502     1.8103 </r>
       <r>    -2.5324     0.0955     1.8181 </r>
       <r>    -2.4512     0.2261     1.8364 </r>
       <r>    -2.3701     0.4042     1.8692 </r>
       <r>    -2.2889     0.5256     1.9119 </r>
       <r>    -2.2077     0.4965     1.9522 </r>
       <r>    -2.1265     0.3426     1.9800 </r>
       <r>    -2.0453     0.1838     1.9950 </r>
       <r>    -1.9642     0.1188     2.0046 </r>
       <r>    -1.8830     0.1786     2.0191 </r>
       <r>    -1.8018     0.3349     2.0463 </r>
       <r>    -1.7206     0.4917     2.0862 </r>
       <r>    -1.6395     0.5278     2.1290 </r>
       <r>    -1.5583     0.4115     2.1625 </r>
       <r>    -1.4771     0.2333     2.1814 </r>
       <r>    -1.3959     0.0995     2.1895 </r>
       <r>    -1.3147     0.0519     2.1937 </r>
       <r>    -1.2336     0.1076     2.2024 </r>
       <r>    -1.1524     0.3266     2.2289 </r>
       <r>    -1.0712     0.7786     2.2921 </r>
       <r>    -0.9900     1.3975     2.4056 </r>
       <r>    -0.9088     1.8987     2.5597 </r>
       <r>    -0.8277     1.9729     2.7199 </r>
       <r>    -0.7465     1.6092     2.8505 </r>
       <r>    -0.6653     1.1251     2.9418 </r>
       <r>    -0.5841     0.8251     3.0088 </r>
       <r>    -0.5030     0.7191     3.0672 </r>
       <r>    -0.4218     0.6251     3.1180 </r>
       <r>    -0.3406     0.4448     3.1541 </r>
       <r>    -0.2594     0.2392     3.1735 </r>
       <r>    -0.1782     0.0951     3.1812 </r>
       <r>    -0.0971     0.0287     3.1835 </r>
       <r>    -0.0159     0.0127     3.1846 </r>
       <r>     0.0653     0.0361     3.1875 </r>
       <r>     0.1465     0.1319     3.1982 </r>
       <r>     0.2277     0.3576     3.2272 </r>
       <r>     0.3088     0.7041     3.2844 </r>
       <r>     0.3900     1.0061     3.3661 </r>
       <r>     0.4712     1.0432     3.4507 </r>
       <r>     0.5524     0.7851     3.5145 </r>
       <r>     0.6335     0.4288     3.5493 </r>
       <r>     0.7147     0.1703     3.5631 </r>
       <r>     0.7959     0.0521     3.5673 </r>
       <r>     0.8771     0.0273     3.5696 </r>
       <r>     0.9583     0.0661     3.5749 </r>
       <r>     1.0394     0.1764     3.5893 </r>
       <r>     1.1206     0.3490     3.6176 </r>
       <r>     1.2018     0.5021     3.6584 </r>
       <r>     1.2830     0.5285     3.7013 </r>
       <r>     1.3642     0.4265     3.7359 </r>
       <r>     1.4453     0.3399     3.7635 </r>
       <r>     1.5265     0.4470     3.7998 </r>
       <r>     1.6077     0.8122     3.8657 </r>
       <r>     1.6889     1.2841     3.9699 </r>
       <r>     1.7700     1.5458     4.0954 </r>
       <r>     1.8512     1.3886     4.2082 </r>
       <r>     1.9324     0.9432     4.2847 </r>
       <r>     2.0136     0.5511     4.3295 </r>
       <r>     2.0948     0.4584     4.3667 </r>
       <r>     2.1759     0.6693     4.4210 </r>
       <r>     2.2571     0.9715     4.4999 </r>
       <r>     2.3383     1.0966     4.5889 </r>
       <r>     2.4195     0.9925     4.6694 </r>
       <r>     2.5007     0.9220     4.7443 </r>
       <r>     2.5818     1.1729     4.8395 </r>
       <r>     2.6630     1.6852     4.9763 </r>
       <r>     2.7442     2.0809     5.1452 </r>
       <r>     2.8254     2.1431     5.3192 </r>
       <r>     2.9065     2.1069     5.4902 </r>
       <r>     2.9877     2.2595     5.6737 </r>
       <r>     3.0689     2.4355     5.8714 </r>
       <r>     3.1501     2.2317     6.0526 </r>
       <r>     3.2313     1.5902     6.1816 </r>
       <r>     3.3124     0.8668     6.2520 </r>
       <r>     3.3936     0.4138     6.2856 </r>
       <r>     3.4748     0.3377     6.3130 </r>
       <r>     3.5560     0.5700     6.3593 </r>
       <r>     3.6372     0.9409     6.4357 </r>
       <r>     3.7183     1.2347     6.5359 </r>
       <r>     3.7995     1.3574     6.6461 </r>
       <r>     3.8807     1.3958     6.7594 </r>
       <r>     3.9619     1.4142     6.8742 </r>
       <r>     4.0430     1.3498     6.9838 </r>
       <r>     4.1242     1.1681     7.0786 </r>
       <r>     4.2054     0.9333     7.1544 </r>
       <r>     4.2866     0.7315     7.2138 </r>
       <r>     4.3678     0.6428     7.2659 </r>
       <r>     4.4489     0.6976     7.3226 </r>
       <r>     4.5301     0.8060     7.3880 </r>
       <r>     4.6113     0.8445     7.4565 </r>
       <r>     4.6925     0.8110     7.5224 </r>
       <r>     4.7737     0.7831     7.5859 </r>
       <r>     4.8548     0.7906     7.6501 </r>
       <r>     4.9360     0.8232     7.7169 </r>
       <r>     5.0172     0.8557     7.7864 </r>
       <r>     5.0984     0.8106     7.8522 </r>
       <r>     5.1795     0.6288     7.9033 </r>
       <r>     5.2607     0.3751     7.9337 </r>
       <r>     5.3419     0.1758     7.9480 </r>
       <r>     5.4231     0.0898     7.9553 </r>
       <r>     5.5043     0.0912     7.9627 </r>
       <r>     5.5854     0.1223     7.9726 </r>
       <r>     5.6666     0.1330     7.9834 </r>
       <r>     5.7478     0.1065     7.9921 </r>
       <r>     5.8290     0.0624     7.9971 </r>
       <r>     5.9102     0.0295     7.9995 </r>
       <r>     5.9913     0.0236     8.0014 </r>
       <r>     6.0725     0.0531     8.0057 </r>
       <r>     6.1537     0.1226     8.0157 </r>
       <r>     6.2349     0.2118     8.0329 </r>
       <r>     6.3160     0.2682     8.0547 </r>
       <r>     6.3972     0.2572     8.0755 </r>
       <r>     6.4784     0.2195     8.0934 </r>
       <r>     6.5596     0.2437     8.1131 </r>
       <r>     6.6408     0.3671     8.1429 </r>
       <r>     6.7219     0.5181     8.1850 </r>
       <r>     6.8031     0.5874     8.2327 </r>
       <r>     6.8843     0.5657     8.2786 </r>
       <r>     6.9655     0.5551     8.3237 </r>
       <r>     7.0467     0.6318     8.3750 </r>
       <r>     7.1278     0.7666     8.4372 </r>
       <r>     7.2090     0.8968     8.5100 </r>
       <r>     7.2902     1.0211     8.5929 </r>
       <r>     7.3714     1.1761     8.6884 </r>
       <r>     7.4526     1.3294     8.7963 </r>
       <r>     7.5337     1.4075     8.9105 </r>
       <r>     7.6149     1.4425     9.0276 </r>
       <r>     7.6961     1.5076     9.1500 </r>
       <r>     7.7773     1.5121     9.2728 </r>
       <r>     7.8584     1.2926     9.3777 </r>
       <r>     7.9396     0.8788     9.4490 </r>
       <r>     8.0208     0.4791     9.4879 </r>
       <r>     8.1020     0.2468     9.5080 </r>
       <r>     8.1832     0.1790     9.5225 </r>
       <r>     8.2643     0.2026     9.5389 </r>
       <r>     8.3455     0.2800     9.5617 </r>
       <r>     8.4267     0.4106     9.5950 </r>
       <r>     8.5079     0.5584     9.6403 </r>
       <r>     8.5891     0.6585     9.6938 </r>
       <r>     8.6702     0.7257     9.7527 </r>
       <r>     8.7514     0.8790     9.8240 </r>
       <r>     8.8326     1.2350     9.9243 </r>
       <r>     8.9138     1.8034    10.0707 </r>
       <r>     8.9949     2.3931    10.2650 </r>
       <r>     9.0761     2.6297    10.4784 </r>
       <r>     9.1573     2.3095    10.6659 </r>
       <r>     9.2385     1.7243    10.8059 </r>
       <r>     9.3197     1.3796    10.9179 </r>
       <r>     9.4008     1.4468    11.0353 </r>
       <r>     9.4820     1.7037    11.1736 </r>
       <r>     9.5632     1.9183    11.3294 </r>
       <r>     9.6444     2.0481    11.4956 </r>
       <r>     9.7256     2.0967    11.6658 </r>
       <r>     9.8067     2.0477    11.8321 </r>
       <r>     9.8879     1.9739    11.9923 </r>
       <r>     9.9691     1.9979    12.1545 </r>
       <r>    10.0503     2.1137    12.3261 </r>
       <r>    10.1314     2.1878    12.5037 </r>
       <r>    10.2126     2.1614    12.6791 </r>
       <r>    10.2938     2.1795    12.8561 </r>
       <r>    10.3750     2.4209    13.0526 </r>
       <r>    10.4562     2.7450    13.2754 </r>
       <r>    10.5373     2.7072    13.4952 </r>
       <r>    10.6185     2.0994    13.6656 </r>
       <r>    10.6997     1.2470    13.7668 </r>
       <r>    10.7809     0.6361    13.8185 </r>
       <r>    10.8621     0.4826    13.8577 </r>
       <r>    10.9432     0.6956    13.9141 </r>
       <r>    11.0244     1.0110    13.9962 </r>
       <r>    11.1056     1.1614    14.0905 </r>
       <r>    11.1868     1.0848    14.1785 </r>
       <r>    11.2679     0.9325    14.2542 </r>
       <r>    11.3491     0.8297    14.3216 </r>
       <r>    11.4303     0.7576    14.3831 </r>
       <r>    11.5115     0.6580    14.4365 </r>
       <r>    11.5927     0.5124    14.4781 </r>
       <r>    11.6738     0.3380    14.5055 </r>
       <r>    11.7550     0.1781    14.5200 </r>
       <r>    11.8362     0.0716    14.5258 </r>
       <r>    11.9174     0.0214    14.5275 </r>
       <r>    11.9986     0.0047    14.5279 </r>
       <r>    12.0797     0.0008    14.5280 </r>
       <r>    12.1609     0.0001    14.5280 </r>
       <r>    12.2421     0.0000    14.5280 </r>
       <r>    12.3233     0.0000    14.5280 </r>
       <r>    12.4044     0.0000    14.5280 </r>
       <r>    12.4856     0.0000    14.5280 </r>
       <r>    12.5668     0.0001    14.5280 </r>
       <r>    12.6480     0.0010    14.5281 </r>
       <r>    12.7292     0.0069    14.5287 </r>
       <r>    12.8103     0.0359    14.5316 </r>
       <r>    12.8915     0.1352    14.5425 </r>
       <r>    12.9727     0.3741    14.5729 </r>
       <r>    13.0539     0.7718    14.6356 </r>
       <r>    13.1351     1.2244    14.7350 </r>
       <r>    13.2162     1.5741    14.8627 </r>
       <r>    13.2974     1.7489    15.0047 </r>
       <r>    13.3786     1.7515    15.1469 </r>
       <r>    13.4598     1.5898    15.2760 </r>
       <r>    13.5409     1.3224    15.3833 </r>
       <r>    13.6221     1.0508    15.4686 </r>
       <r>    13.7033     0.8150    15.5348 </r>
       <r>    13.7845     0.6118    15.5844 </r>
       <r>    13.8657     0.4949    15.6246 </r>
       <r>    13.9468     0.5327    15.6678 </r>
       <r>    14.0280     0.6891    15.7238 </r>
       <r>    14.1092     0.8360    15.7917 </r>
       <r>    14.1904     0.8648    15.8619 </r>
       <r>    14.2716     0.7440    15.9223 </r>
       <r>    14.3527     0.5174    15.9643 </r>
       <r>    14.4339     0.2807    15.9870 </r>
       <r>    14.5151     0.1152    15.9964 </r>
       <r>    14.5963     0.0351    15.9992 </r>
       <r>    14.6774     0.0078    15.9999 </r>
       <r>    14.7586     0.0013    16.0000 </r>
       <r>    14.8398     0.0002    16.0000 </r>
       <r>    14.9210     0.0000    16.0000 </r>
       <r>    15.0022     0.0000    16.0000 </r>
       <r>    15.0833     0.0000    16.0000 </r>
       <r>    15.1645     0.0000    16.0000 </r>
       <r>    15.2457     0.0000    16.0000 </r>
       <r>    15.3269     0.0000    16.0000 </r>
       <r>    15.4081     0.0000    16.0000 </r>
       <r>    15.4892     0.0000    16.0000 </r>
       <r>    15.5704     0.0000    16.0000 </r>
       <r>    15.6516     0.0000    16.0000 </r>
       <r>    15.7328     0.0000    16.0000 </r>
       <r>    15.8139     0.0000    16.0000 </r>
       <r>    15.8951     0.0000    16.0000 </r>
       <r>    15.9763     0.0000    16.0000 </r>
       <r>    16.0575     0.0000    16.0000 </r>
       <r>    16.1387     0.0000    16.0000 </r>
       <r>    16.2198     0.0000    16.0000 </r>
      </set>
     </set>
    </array>
   </total>
  </dos>
 </calculation>
 <structure name="finalpos" >
  <crystal>
   <varray name="basis" >
    <v>       3.34889800       0.00000000       1.93348700 </v>
    <v>       1.11629900       3.15737200       1.93348700 </v>
    <v>       0.00000000       0.00000000       3.86697500 </v>
   </varray>
   <i name="volume">     40.88829843 </i>
   <varray name="rec_basis" >
    <v>       0.29860569      -0.10557300       0.00000000 </v>
    <v>       0.00000000       0.31671909       0.00000000 </v>
    <v>      -0.14930281      -0.10557302       0.25860007 </v>
   </varray>
  </crystal>
  <varray name="positions" >
   <v>       0.87500000       0.87500000       0.87500000 </v>
   <v>       0.12500000       0.12500000       0.12500000 </v>
  </varray>
 </structure>
</modeling>
