    2    2    1    1
  0.2072484E+02  0.3884592E-09  0.3884592E-09  0.3884592E-09  0.5000000E-15
   1.0000000000000000E-004
  CAR 
 unknown system                          
      8      4     16

  0.3742002E-15  0.3742002E-15  0.3742002E-15  0.3703704E-01
    1       -6.112410   1.000000
    2        5.558294   0.996638
    3        5.558294   0.996638
    4        5.558294   0.996638
    5        8.138000   0.000000
    6        8.138000   0.000000
    7        8.138000   0.000000
    8        8.645986   0.000000
    9       13.263498   0.000000
   10       13.263498   0.000000
   11       13.391088   0.000000
   12       16.681386   0.000000
   13       16.681386   0.000000
   14       16.681386   0.000000
   15       20.780986   0.000000
   16       28.250057   0.000000

  0.3333333E+00  0.3608225E-15  0.3608225E-15  0.2962963E+00
    1       -4.778353   1.000000
    2        0.362701   1.000000
    3        4.595819   1.000000
    4        4.595819   1.000000
    5        7.256104   0.000000
    6        9.075940   0.000000
    7        9.075940   0.000000
    8       13.297812   0.000000
    9       13.487888   0.000000
   10       13.487888   0.000000
   11       14.467519   0.000000
   12       18.889537   0.000000
   13       19.933869   0.000000
   14       19.933869   0.000000
   15       21.966090   0.000000
   16       22.951140   0.000000

  0.3333333E+00  0.3333333E+00  0.3742002E-15  0.2222222E+00
    1       -4.264338   1.000000
    2        0.628984   1.000000
    3        3.235324   1.000000
    4        3.235324   1.000000
    5        6.356297   0.001681
    6        7.610803   0.000000
    7       12.684234   0.000000
    8       12.684234   0.000000
    9       15.053541   0.000000
   10       15.359831   0.000000
   11       18.388197   0.000000
   12       18.826318   0.000000
   13       18.826318   0.000000
   14       20.514984   0.000000
   15       21.526758   0.000000
   16       21.679307   0.000000

 -0.3333333E+00  0.3333333E+00  0.3885781E-15  0.4444444E+00
    1       -2.955076   1.000000
    2       -1.071198   1.000000
    3        1.324012   1.000000
    4        3.528272   1.000000
    5        7.177159   0.000000
    6       11.311002   0.000000
    7       11.949453   0.000000
    8       12.476748   0.000000
    9       12.806539   0.000000
   10       13.177639   0.000000
   11       19.732546   0.000000
   12       20.266893   0.000000
   13       20.857719   0.000000
   14       21.040079   0.000000
   15       21.864817   0.000000
   16       22.750990   0.000000
