       N       E                     dE             d eps       ncg     rms          rms(c)
DAV:   1     0.380878464175E+01    0.38088E+01   -0.36937E+03   128   0.447E+02
DAV:   2    -0.779425260243E+01   -0.11603E+02   -0.11464E+02   192   0.408E+01
DAV:   3    -0.787324350974E+01   -0.78991E-01   -0.78991E-01   144   0.422E+00
DAV:   4    -0.787343235398E+01   -0.18884E-03   -0.18884E-03   256   0.211E-01
DAV:   5    -0.787343235619E+01   -0.22095E-08   -0.26012E-08   144   0.905E-04    0.393E+00
DAV:   6    -0.779250668107E+01    0.80926E-01   -0.10801E-01   192   0.968E-01    0.242E+00
DAV:   7    -0.777052366166E+01    0.21983E-01   -0.25633E-01   176   0.147E+00    0.209E-01
DAV:   8    -0.775281353166E+01    0.17710E-01   -0.58948E-03   160   0.276E-01    0.112E-01
DAV:   9    -0.775313758780E+01   -0.32406E-03   -0.70723E-04   160   0.101E-01    0.557E-02
DAV:  10    -0.775344503279E+01   -0.30744E-03   -0.21360E-05   192   0.220E-02    0.404E-03
DAV:  11    -0.775318109096E+01    0.26394E-03   -0.13743E-06   192   0.381E-03    0.125E-03
DAV:  12    -0.775317522678E+01    0.58642E-05   -0.50714E-08   144   0.123E-03    0.314E-04
DAV:  13    -0.775316304218E+01    0.12185E-04   -0.68397E-09   128   0.327E-04    0.142E-04
DAV:  14    -0.775316563648E+01   -0.25943E-05   -0.31751E-10    80   0.930E-05    0.295E-05
DAV:  15    -0.775316585056E+01   -0.21409E-06   -0.13890E-11    80   0.174E-05    0.934E-06
DAV:  16    -0.775316584952E+01    0.10450E-08   -0.14431E-12    64   0.672E-06
   1 F= -.77531658E+01 E0= -.77528364E+01  d E =-.775317E+01
