 vasp.5.4.1 24Jun15 (build Feb  9 2019 14:16:27) complex                         
 executed on           IFC91_ompi date 2020.09.26  22:22:40
 running on   16 total cores
 distrk:  each k-point on   16 cores,    1 groups
 distr:  one band on NCORES_PER_BAND=   1 cores,   16 groups


--------------------------------------------------------------------------------------------------------


 INCAR:
 POTCAR:    PAW_PBE Si 05Jan2001                  

 ----------------------------------------------------------------------------- 
|                                                                             |
|           W    W    AA    RRRRR   N    N  II  N    N   GGGG   !!!           |
|           W    W   A  A   R    R  NN   N  II  NN   N  G    G  !!!           |
|           W    W  A    A  R    R  N N  N  II  N N  N  G       !!!           |
|           W WW W  AAAAAA  RRRRR   N  N N  II  N  N N  G  GGG   !            |
|           WW  WW  A    A  R   R   N   NN  II  N   NN  G    G                |
|           W    W  A    A  R    R  N    N  II  N    N   GGGG   !!!           |
|                                                                             |
|      For optimal performance we recommend to set                            |
|        NCORE= 4 - approx SQRT( number of cores)                             |
|      NCORE specifies how many cores store one orbital (NPAR=cpu/NCORE).     |
|      This setting can  greatly improve the performance of VASP for DFT.     |
|      The default, NPAR=number of cores might be grossly inefficient         |
|      on modern multi-core architectures or massively parallel machines.     |
|      Do your own testing !!!!                                               |
|      Unfortunately you need to use the default for GW and RPA calculations. |
|      (for HF NCORE is supported but not extensively tested yet)             |
|                                                                             |
 ----------------------------------------------------------------------------- 


 ----------------------------------------------------------------------------- 
|                                                                             |
|  ADVICE TO THIS USER RUNNING 'VASP/VAMP'   (HEAR YOUR MASTER'S VOICE ...):  |
|                                                                             |
|      You have switched on vdW-DFT.                                          |
|      This routine was written and supplied by Jiri Klimes.                  |
|      We recommed that you carefully read and cite the following             |
|      publication                                                            |
|      J. Klimes, D.R. Bowler, A. Michelides                                  |
|        J. Phys.: Cond Matt. 22 022201 (2010)                                |
|      J. Klimes, D.R. Bowler, A. Michelides                                  |
|        Phys. Rev. B. 83, 195131 (2011)                                      |
|      and references therein.                                                |
|                                                                             |
 ----------------------------------------------------------------------------- 

 POTCAR:    PAW_PBE Si 05Jan2001                  
   VRHFIN =Si: s2p2                                                             
   LEXCH  = PE                                                                  
   EATOM  =   103.0669 eV,    7.5752 Ry                                         
                                                                                
   TITEL  = PAW_PBE Si 05Jan2001                                                
   LULTRA =        F    use ultrasoft PP ?                                      
   IUNSCR =        1    unscreen: 0-lin 1-nonlin 2-no                           
   RPACOR =    1.500    partial core radius                                     
   POMASS =   28.085; ZVAL   =    4.000    mass and valenz                      
   RCORE  =    1.900    outmost cutoff radius                                   
   RWIGS  =    2.480; RWIGS  =    1.312    wigner-seitz radius (au A)           
   ENMAX  =  245.345; ENMIN  =  184.009 eV                                      
   ICORE  =        2    local potential                                         
   LCOR   =        T    correct aug charges                                     
   LPAW   =        T    paw PP                                                  
   EAUG   =  322.069                                                            
   DEXC   =    0.000                                                            
   RMAX   =    1.950    core radius for proj-oper                               
   RAUG   =    1.300    factor for augmentation sphere                          
   RDEP   =    1.993    radius for radial grids                                 
   RDEPT  =    1.837    core radius for aug-charge                              
                                                                                
   Atomic configuration                                                         
    6 entries                                                                   
     n  l   j            E        occ.                                          
     1  0  0.50     -1785.8828   2.0000                                         
     2  0  0.50      -139.4969   2.0000                                         
     2  1  1.50       -95.5546   6.0000                                         
     3  0  0.50       -10.8127   2.0000                                         
     3  1  0.50        -4.0811   2.0000                                         
     3  2  1.50        -4.0817   0.0000                                         
   Description                                                                  
     l       E           TYP  RCUT    TYP  RCUT                                 
     0    -10.8127223     23  1.900                                             
     0     -7.6451159     23  1.900                                             
     1     -4.0811372     23  1.900                                             
     1      2.4879257     23  1.900                                             
     2     -4.0817478      7  1.900                                             
  local pseudopotential read in
  partial core-charges read in
  partial kinetic energy density read in
  atomic valenz-charges read in
  non local Contribution for L=           0  read in
    real space projection operators read in
  non local Contribution for L=           0  read in
    real space projection operators read in
  non local Contribution for L=           1  read in
    real space projection operators read in
  non local Contribution for L=           1  read in
    real space projection operators read in
    PAW grid and wavefunctions read in

   number of l-projection  operators is LMAX  =           4
   number of lm-projection operators is LMMAX =           8


 ----------------------------------------------------------------------------- 
|                                                                             |
|  ADVICE TO THIS USER RUNNING 'VASP/VAMP'   (HEAR YOUR MASTER'S VOICE ...):  |
|                                                                             |
|      You enforced a specific xc-type in the INCAR file,                     |
|      a different type was found on the POTCAR file                          |
|          I HOPE YOU KNOW, WHAT YOU ARE  DOING                               |
|                                                                             |
 ----------------------------------------------------------------------------- 

  PAW_PBE Si 05Jan2001                  :
 energy of atom  1       EATOM= -103.0669
 kinetic energy error for atom=    0.0003 (will be added to EATOM!!)


 POSCAR: bulk@JVASP-1002                         
  positions in direct lattice
  No initial velocities read in
 exchange correlation table for  LEXCH =       42
   RHO(1)=    0.500       N(1)  =     2000
   RHO(2)=  100.500       N(2)  =     4000



--------------------------------------------------------------------------------------------------------


 ion  position               nearest neighbor table
   1  0.750  0.750  0.750-   2 2.38   2 2.38   2 2.38   2 2.38
   2  0.500  0.500  0.500-   1 2.38   1 2.38   1 2.38   1 2.38

  LATTYP: Found a face centered cubic cell.
 ALAT       =     5.4936422752
  
  Lattice vectors:
  
 A1 = (   0.0000000000,   2.7468211376,   2.7468211376)
 A2 = (   2.7468211376,   0.0000000000,   2.7468211376)
 A3 = (   2.7468211376,   2.7468211376,   0.0000000000)


Analysis of symmetry for initial positions (statically):
=====================================================================
 Subroutine PRICEL returns:
 Original cell was already a primitive cell.
 

 Routine SETGRP: Setting up the symmetry group for a 
 face centered cubic supercell.


 Subroutine GETGRP returns: Found 48 space group operations
 (whereof 24 operations were pure point group operations)
 out of a pool of 48 trial point group operations.


The static configuration has the point symmetry T_d .
 The point group associated with its full space group is O_h .


Analysis of symmetry for dynamics (positions and initial velocities):
=====================================================================
 Subroutine PRICEL returns:
 Original cell was already a primitive cell.
 

 Routine SETGRP: Setting up the symmetry group for a 
 face centered cubic supercell.


 Subroutine GETGRP returns: Found 48 space group operations
 (whereof 24 operations were pure point group operations)
 out of a pool of 48 trial point group operations.


The dynamic configuration has the point symmetry T_d .
 The point group associated with its full space group is O_h .


 KPOINTS: Automatic kpoint scheme                 

Automatic generation of k-mesh.
Space group operators:
 irot       det(A)        alpha          n_x          n_y          n_z        tau_x        tau_y        tau_z
    1     1.000000     0.000000     1.000000     0.000000     0.000000     0.000000     0.000000     0.000000
    2     1.000000   120.000000    -0.577350    -0.577350    -0.577350     0.000000     0.000000     0.000000
    3     1.000000   120.000000     0.577350     0.577350     0.577350     0.000000     0.000000     0.000000
    4    -1.000000    90.000000     0.000000     0.000000    -1.000000     0.000000     0.000000     0.000000
    5    -1.000000   180.000000     0.000000     0.707107     0.707107     0.000000     0.000000     0.000000
    6    -1.000000    90.000000     0.000000     1.000000     0.000000     0.000000     0.000000     0.000000
    7     1.000000   180.000000     0.000000     0.000000     1.000000     0.000000     0.000000     0.000000
    8     1.000000   120.000000    -0.577350     0.577350     0.577350     0.000000     0.000000     0.000000
    9     1.000000   120.000000    -0.577350     0.577350    -0.577350     0.000000     0.000000     0.000000
   10    -1.000000    90.000000     0.000000     0.000000     1.000000     0.000000     0.000000     0.000000
   11    -1.000000    90.000000    -1.000000     0.000000     0.000000     0.000000     0.000000     0.000000
   12    -1.000000   180.000000     0.707107     0.000000     0.707107     0.000000     0.000000     0.000000
   13     1.000000   120.000000     0.577350    -0.577350     0.577350     0.000000     0.000000     0.000000
   14     1.000000   120.000000    -0.577350    -0.577350     0.577350     0.000000     0.000000     0.000000
   15     1.000000   180.000000     1.000000     0.000000     0.000000     0.000000     0.000000     0.000000
   16    -1.000000    90.000000     0.000000    -1.000000     0.000000     0.000000     0.000000     0.000000
   17    -1.000000   180.000000     0.707107     0.707107     0.000000     0.000000     0.000000     0.000000
   18    -1.000000    90.000000     1.000000     0.000000     0.000000     0.000000     0.000000     0.000000
   19     1.000000   120.000000     0.577350    -0.577350    -0.577350     0.000000     0.000000     0.000000
   20     1.000000   180.000000     0.000000     1.000000     0.000000     0.000000     0.000000     0.000000
   21     1.000000   120.000000     0.577350     0.577350    -0.577350     0.000000     0.000000     0.000000
   22    -1.000000   180.000000     0.000000    -0.707107     0.707107     0.000000     0.000000     0.000000
   23    -1.000000   180.000000     0.707107    -0.707107     0.000000     0.000000     0.000000     0.000000
   24    -1.000000   180.000000     0.707107     0.000000    -0.707107     0.000000     0.000000     0.000000
   25    -1.000000     0.000000     1.000000     0.000000     0.000000     0.250000     0.250000     0.250000
   26    -1.000000   120.000000    -0.577350    -0.577350    -0.577350     0.250000     0.250000     0.250000
   27    -1.000000   120.000000     0.577350     0.577350     0.577350     0.250000     0.250000     0.250000
   28     1.000000    90.000000     0.000000     0.000000    -1.000000     0.250000     0.250000     0.250000
   29     1.000000   180.000000     0.000000     0.707107     0.707107     0.250000     0.250000     0.250000
   30     1.000000    90.000000     0.000000     1.000000     0.000000     0.250000     0.250000     0.250000
   31    -1.000000   180.000000     0.000000     0.000000     1.000000     0.250000     0.250000     0.250000
   32    -1.000000   120.000000    -0.577350     0.577350     0.577350     0.250000     0.250000     0.250000
   33    -1.000000   120.000000    -0.577350     0.577350    -0.577350     0.250000     0.250000     0.250000
   34     1.000000    90.000000     0.000000     0.000000     1.000000     0.250000     0.250000     0.250000
   35     1.000000    90.000000    -1.000000     0.000000     0.000000     0.250000     0.250000     0.250000
   36     1.000000   180.000000     0.707107     0.000000     0.707107     0.250000     0.250000     0.250000
   37    -1.000000   120.000000     0.577350    -0.577350     0.577350     0.250000     0.250000     0.250000
   38    -1.000000   120.000000    -0.577350    -0.577350     0.577350     0.250000     0.250000     0.250000
   39    -1.000000   180.000000     1.000000     0.000000     0.000000     0.250000     0.250000     0.250000
   40     1.000000    90.000000     0.000000    -1.000000     0.000000     0.250000     0.250000     0.250000
   41     1.000000   180.000000     0.707107     0.707107     0.000000     0.250000     0.250000     0.250000
   42     1.000000    90.000000     1.000000     0.000000     0.000000     0.250000     0.250000     0.250000
   43    -1.000000   120.000000     0.577350    -0.577350    -0.577350     0.250000     0.250000     0.250000
   44    -1.000000   180.000000     0.000000     1.000000     0.000000     0.250000     0.250000     0.250000
   45    -1.000000   120.000000     0.577350     0.577350    -0.577350     0.250000     0.250000     0.250000
   46     1.000000   180.000000     0.000000    -0.707107     0.707107     0.250000     0.250000     0.250000
   47     1.000000   180.000000     0.707107    -0.707107     0.000000     0.250000     0.250000     0.250000
   48     1.000000   180.000000     0.707107     0.000000    -0.707107     0.250000     0.250000     0.250000
 
 Subroutine IBZKPT returns following result:
 ===========================================
 
 Found      4 irreducible k-points:
 
 Following reciprocal coordinates:
            Coordinates               Weight
  0.000000  0.000000  0.000000      1.000000
  0.333333  0.000000  0.000000      8.000000
  0.333333  0.333333  0.000000      6.000000
 -0.333333  0.333333  0.000000     12.000000
 
 Following cartesian coordinates:
            Coordinates               Weight
  0.000000  0.000000  0.000000      1.000000
 -0.060676  0.060676  0.060676      8.000000
  0.000000  0.000000  0.121352      6.000000
  0.121352 -0.121352  0.000000     12.000000
 


--------------------------------------------------------------------------------------------------------




 Dimension of arrays:
   k-points           NKPTS =        4   k-points in BZ     NKDIM =        4   number of bands    NBANDS=     16
   number of dos      NEDOS =    301   number of ions     NIONS =      2
   non local maximal  LDIM  =      4   non local SUM 2l+1 LMDIM =      8
   total plane-waves  NPLWV =  32768
   max r-space proj   IRMAX =      1   max aug-charges    IRDMAX=  26628
   dimension x,y,z NGX =    32 NGY =   32 NGZ =   32
   dimension x,y,z NGXF=    64 NGYF=   64 NGZF=   64
   support grid    NGXF=    64 NGYF=   64 NGZF=   64
   ions per type =               2
 NGX,Y,Z   is equivalent  to a cutoff of  13.69, 13.69, 13.69 a.u.
 NGXF,Y,Z  is equivalent  to a cutoff of  27.39, 27.39, 27.39 a.u.


 I would recommend the setting:
   dimension x,y,z NGX =    31 NGY =   31 NGZ =   31
 SYSTEM =  unknown system                          
 POSCAR =  bulk@JVASP-1002                         

 Startparameter for this run:
   NWRITE =      2    write-flag & timer
   PREC   = accura    normal or accurate (medium, high low for compatibility)
   ISTART =      0    job   : 0-new  1-cont  2-samecut
   ICHARG =      2    charge: 1-file 2-atom 10-const
   ISPIN  =      1    spin polarized calculation?
   LNONCOLLINEAR =      F non collinear calculations
   LSORBIT =      F    spin-orbit coupling
   INIWAV =      1    electr: 0-lowe 1-rand  2-diag
   LASPH  =      F    aspherical Exc in radial PAW
   METAGGA=      F    non-selfconsistent MetaGGA calc.

 Electronic Relaxation 1
   ENCUT  =  600.0 eV  44.10 Ry    6.64 a.u.   7.76  7.76  7.76*2*pi/ulx,y,z
   ENINI  =  600.0     initial cutoff
   ENAUG  =  322.1 eV  augmentation charge cutoff
   NELM   =    400;   NELMIN=  2; NELMDL= -5     # of ELM steps 
   EDIFF  = 0.1E-06   stopping-criterion for ELM
   LREAL  =      F    real-space projection
   NLSPLINE    = F    spline interpolate recip. space projectors
   LCOMPAT=      F    compatible to vasp.4.4
   GGA_COMPAT  = T    GGA compatible to vasp.4.4-vasp.4.6
   LMAXPAW     = -100 max onsite density
   LMAXMIX     =    2 max onsite mixed and CHGCAR
   VOSKOWN=      0    Vosko Wilk Nusair interpolation
   ROPT   =    0.00000
 Ionic relaxation
   EDIFFG = 0.1E-05   stopping-criterion for IOM
   NSW    =      1    number of steps for IOM
   NBLOCK =      1;   KBLOCK =      1    inner block; outer block 
   IBRION =      2    ionic relax: 0-MD 1-quasi-New 2-CG
   NFREE  =      1    steps in history (QN), initial steepest desc. (CG)
   ISIF   =      2    stress and relaxation
   IWAVPR =     11    prediction:  0-non 1-charg 2-wave 3-comb
   ISYM   =      2    0-nonsym 1-usesym 2-fastsym
   LCORR  =      T    Harris-Foulkes like correction to forces

   POTIM  = 0.5000    time-step for ionic-motion
   TEIN   =    0.0    initial temperature
   TEBEG  =    0.0;   TEEND  =   0.0 temperature during run
   SMASS  =  -3.00    Nose mass-parameter (am)
   estimated Nose-frequenzy (Omega)   =  0.10E-29 period in steps =****** mass=  -0.345E-27a.u.
   SCALEE = 1.0000    scale energy and forces
   NPACO  =    256;   APACO  = 16.0  distance and # of slots for P.C.
   PSTRESS=    0.0 pullay stress

  Mass of Ions in am
   POMASS =  28.09
  Ionic Valenz
   ZVAL   =   4.00
  Atomic Wigner-Seitz radii
   RWIGS  =  -1.00
  virtual crystal weights 
   VCA    =   1.00
   NELECT =       8.0000    total number of electrons
   NUPDOWN=      -1.0000    fix difference up-down

 DOS related values:
   EMIN   =  10.00;   EMAX   =-10.00  energy-range for DOS
   EFERMI =   0.00
   ISMEAR =     0;   SIGMA  =   0.20  broadening in eV -4-tet -1-fermi 0-gaus

 Electronic relaxation 2 (details)
   IALGO  =     38    algorithm
   LDIAG  =      T    sub-space diagonalisation (order eigenvalues)
   LSUBROT=      F    optimize rotation matrix (better conditioning)
   TURBO    =      0    0=normal 1=particle mesh
   IRESTART =      0    0=no restart 2=restart with 2 vectors
   NREBOOT  =      0    no. of reboots
   NMIN     =      0    reboot dimension
   EREF     =   0.00    reference energy to select bands
   IMIX   =      4    mixing-type and parameters
     AMIX     =   0.40;   BMIX     =  1.00
     AMIX_MAG =   1.60;   BMIX_MAG =  1.00
     AMIN     =   0.10
     WC   =   100.;   INIMIX=   1;  MIXPRE=   1;  MAXMIX= -45

 Intra band minimization:
   WEIMIN = 0.0010     energy-eigenvalue tresh-hold
   EBREAK =  0.16E-08  absolut break condition
   DEPER  =   0.30     relativ break condition  

   TIME   =   0.40     timestep for ELM

  volume/ion in A,a.u.               =      20.72       139.86
  Fermi-wavevector in a.u.,A,eV,Ry     =   0.946087  1.787845 12.178313  0.895081
  Thomas-Fermi vector in A             =   2.074051

 Write flags
   LWAVE  =      F    write WAVECAR
   LCHARG =      F    write CHGCAR
   LVTOT  =      F    write LOCPOT, total local potential
   LVHAR  =      F    write LOCPOT, Hartree potential only
   LELF   =      F    write electronic localiz. function (ELF)
   LORBIT =      0    0 simple, 1 ext, 2 COOP (PROOUT)


 Dipole corrections
   LMONO  =      F    monopole corrections only (constant potential shift)
   LDIPOL =      F    correct potential (dipole corrections)
   IDIPOL =      0    1-x, 2-y, 3-z, 4-all directions 
   EPSILON=  1.0000000 bulk dielectric constant

 Exchange correlation treatment:
   GGA     =    BO    GGA type
   LEXCH   =    42    internal setting for exchange type
   VOSKOWN=      0    Vosko Wilk Nusair interpolation
   LHFCALC =     F    Hartree Fock is set to
   LHFONE  =     F    Hartree Fock one center treatment
   AEXX    =    0.0000 exact exchange contribution

 vdW DFT:
   LUSE_VDW   =     T    switch on vdW DFT
   Zab_VDW    =-.8491    correlation parameter
   PARAM1     =0.1833
   PARAM2     =0.2200
   PARAM3     =0.0000

 Linear response parameters
   LEPSILON=     F    determine dielectric tensor
   LRPA    =     F    only Hartree local field effects (RPA)
   LNABLA  =     F    use nabla operator in PAW spheres
   LVEL    =     F    velocity operator in full k-point grid
   LINTERFAST=   F  fast interpolation
   KINTER  =     0    interpolate to denser k-point grid
   CSHIFT  =0.1000    complex shift for real part using Kramers Kronig
   OMEGAMAX=  -1.0    maximum frequency
   DEG_THRESHOLD= 0.2000000E-02 threshold for treating states as degnerate
   RTIME   =    0.100 relaxation time in fs

 Orbital magnetization related:
   ORBITALMAG=     F  switch on orbital magnetization
   LCHIMAG   =     F  perturbation theory with respect to B field
   DQ        =  0.001000  dq finite difference perturbation B field



--------------------------------------------------------------------------------------------------------


 conjugate gradient relaxation of ions
 charge density and potential will be updated during run
 non-spin polarized calculation
 Variant of blocked Davidson
 Davidson routine will perform the subspace rotation
 perform sub-space diagonalisation
    after iterative eigenvector-optimisation
 modified Broyden-mixing scheme, WC =      100.0
 initial mixing is a Kerker type mixing with AMIX =  0.4000 and BMIX =      1.0000
 Hartree-type preconditioning will be used
 using additional bands           12
 reciprocal scheme for non local part
 use partial core corrections
 calculate Harris-corrections to forces   (improved forces if not selfconsistent)
 use gradient corrections 
 use of overlap-Matrix (Vanderbilt PP)
 Gauss-broadening in eV      SIGMA  =   0.20


--------------------------------------------------------------------------------------------------------


  energy-cutoff  :      600.00
  volume of cell :       41.45
      direct lattice vectors                 reciprocal lattice vectors
     0.000000000  2.746821138  2.746821138    -0.182028598  0.182028598  0.182028598
     2.746821138  0.000000000  2.746821138     0.182028598 -0.182028598  0.182028598
     2.746821138  2.746821138  0.000000000     0.182028598  0.182028598 -0.182028598

  length of vectors
     3.884591706  3.884591706  3.884591706     0.315282780  0.315282780  0.315282780



 k-points in units of 2pi/SCALE and weight: Automatic kpoint scheme                 
   0.00000000  0.00000000  0.00000000       0.037
  -0.06067620  0.06067620  0.06067620       0.296
   0.00000000  0.00000000  0.12135240       0.222
   0.12135240 -0.12135240  0.00000000       0.444

 k-points in reciprocal lattice and weights: Automatic kpoint scheme                 
   0.00000000  0.00000000  0.00000000       0.037
   0.33333333  0.00000000  0.00000000       0.296
   0.33333333  0.33333333  0.00000000       0.222
  -0.33333333  0.33333333  0.00000000       0.444

 position of ions in fractional coordinates (direct lattice) 
   0.75000000  0.75000000  0.75000000
   0.50000000  0.50000000  0.50000000

 position of ions in cartesian coordinates  (Angst):
   4.12023171  4.12023171  4.12023171
   2.74682114  2.74682114  2.74682114



--------------------------------------------------------------------------------------------------------


 k-point  1 :   0.0000 0.0000 0.0000  plane waves:    1411
 k-point  2 :   0.3333 0.0000 0.0000  plane waves:    1399
 k-point  3 :   0.3333 0.3333 0.0000  plane waves:    1379
 k-point  4 :  -0.3333 0.3333 0.0000  plane waves:    1382

 maximum and minimum number of plane-waves per node :      1411     1379

 maximum number of plane-waves:      1411
 maximum index in each direction: 
   IXMAX=    8   IYMAX=    7   IZMAX=    7
   IXMIN=   -8   IYMIN=   -8   IZMIN=   -7

 WARNING: aliasing errors must be expected set NGX to  34 to avoid them
 NGY is ok and might be reduce to  32
 NGZ is ok and might be reduce to  30
 aliasing errors are usually negligible using standard VASP settings
 and one can safely disregard these warnings

 serial   3D FFT for wavefunctions
 parallel 3D FFT for charge:
    minimum data exchange during FFTs selected (reduces bandwidth)


 total amount of memory used by VASP on root node    33339. kBytes
========================================================================

   base      :      30000. kBytes
   nonl-proj :        410. kBytes
   fftplans  :        702. kBytes
   grid      :       2129. kBytes
   one-center:          6. kBytes
   wavefun   :         92. kBytes

     INWAV:  cpu time    0.0000: real time    0.0000
 Broyden mixing: mesh for mixing (old mesh)
   NGX = 15   NGY = 15   NGZ = 15
  (NGX  = 64   NGY  = 64   NGZ  = 64)
  gives a total of   3375 points

 initial charge density was supplied:
 charge density of overlapping atoms calculated
 number of electron       8.0000000 magnetization 
 keeping initial charge density in first step


--------------------------------------------------------------------------------------------------------


 Maximum index for augmentation-charges         1645 (set IRDMAX)


--------------------------------------------------------------------------------------------------------


 First call to EWALD:  gamma=   0.512
 Maximum number of real-space cells 3x 3x 3
 Maximum number of reciprocal cells 3x 3x 3

 FEWALD executed in parallel
    FEWALD:  cpu time    0.0000: real time    0.0010


----------------------------------------- Iteration    1(   1)  ---------------------------------------


vdW kernel read from vdw_kernel.bindat
  0.0000  0.2424  0.5071  0.7962  1.1119  1.4567  1.8333  2.2446  2.6937  3.1842
  3.7199  4.3049  4.9438  5.6415  6.4036  7.2358  8.1446  9.1372 10.2212 11.4050
 12.6979 14.1099 15.6519 17.3360 19.1751 21.1837 23.3773 25.7729 28.3892 31.2465
 34.3669 37.7748 41.4965 45.5611 50.0000

    POTLOK:  cpu time    2.9120: real time    2.9102
    SETDIJ:  cpu time    0.0040: real time    0.0029
     EDDAV:  cpu time    0.0440: real time    0.0461
       DOS:  cpu time    0.0040: real time    0.0003
    --------------------------------------------
      LOOP:  cpu time    2.9640: real time    2.9614

 eigenvalue-minimisations  :   128
 total energy-change (2. order) : 0.3808785E+01  (-0.3693676E+03)
 number of electron       8.0000000 magnetization 
 augmentation part        8.0000000 magnetization 

 Free energy of the ion-electron system (eV)
  ---------------------------------------------------
  alpha Z        PSCENC =         3.24857844
  Ewald energy   TEWEN  =      -225.91568183
  -Hartree energ DENC   =       -11.53197166
  -exchange      EXHF   =         0.00000000
  -V(xc)+E(xc)   XCENC  =       -20.29573824
  PAW double counting   =       189.40224250     -152.61488262
  entropy T*S    EENTRO =        -0.02570073
  eigenvalues    EBANDS =        12.94759483
  atomic energy  EATOM  =       208.59434395
  Solvation  Ediel_sol  =         0.00000000
  ---------------------------------------------------
  free energy    TOTEN  =         3.80878464 eV

  energy without entropy =        3.83448537  energy(sigma->0) =        3.82163500


--------------------------------------------------------------------------------------------------------




----------------------------------------- Iteration    1(   2)  ---------------------------------------


     EDDAV:  cpu time    0.0880: real time    0.0907
       DOS:  cpu time    0.0000: real time    0.0003
    --------------------------------------------
      LOOP:  cpu time    0.0880: real time    0.3501

 eigenvalue-minimisations  :   192
 total energy-change (2. order) :-0.1160304E+02  (-0.1146375E+02)
 number of electron       8.0000000 magnetization 
 augmentation part        8.0000000 magnetization 

 Free energy of the ion-electron system (eV)
  ---------------------------------------------------
  alpha Z        PSCENC =         3.24857844
  Ewald energy   TEWEN  =      -225.91568183
  -Hartree energ DENC   =       -11.53197166
  -exchange      EXHF   =         0.00000000
  -V(xc)+E(xc)   XCENC  =       -20.29573824
  PAW double counting   =       189.40224250     -152.61488262
  entropy T*S    EENTRO =        -0.00002713
  eigenvalues    EBANDS =         1.31888399
  atomic energy  EATOM  =       208.59434395
  Solvation  Ediel_sol  =         0.00000000
  ---------------------------------------------------
  free energy    TOTEN  =        -7.79425260 eV

  energy without entropy =       -7.79422547  energy(sigma->0) =       -7.79423904


--------------------------------------------------------------------------------------------------------




----------------------------------------- Iteration    1(   3)  ---------------------------------------


     EDDAV:  cpu time    0.0640: real time    0.0624
       DOS:  cpu time    0.0000: real time    0.0003
    --------------------------------------------
      LOOP:  cpu time    0.0640: real time    0.1017

 eigenvalue-minimisations  :   144
 total energy-change (2. order) :-0.7899091E-01  (-0.7899072E-01)
 number of electron       8.0000000 magnetization 
 augmentation part        8.0000000 magnetization 

 Free energy of the ion-electron system (eV)
  ---------------------------------------------------
  alpha Z        PSCENC =         3.24857844
  Ewald energy   TEWEN  =      -225.91568183
  -Hartree energ DENC   =       -11.53197166
  -exchange      EXHF   =         0.00000000
  -V(xc)+E(xc)   XCENC  =       -20.29573824
  PAW double counting   =       189.40224250     -152.61488262
  entropy T*S    EENTRO =        -0.00001831
  eigenvalues    EBANDS =         1.23988426
  atomic energy  EATOM  =       208.59434395
  Solvation  Ediel_sol  =         0.00000000
  ---------------------------------------------------
  free energy    TOTEN  =        -7.87324351 eV

  energy without entropy =       -7.87322520  energy(sigma->0) =       -7.87323435


--------------------------------------------------------------------------------------------------------




----------------------------------------- Iteration    1(   4)  ---------------------------------------


     EDDAV:  cpu time    0.1480: real time    0.1466
       DOS:  cpu time    0.0000: real time    0.0003
    --------------------------------------------
      LOOP:  cpu time    0.1480: real time    0.1926

 eigenvalue-minimisations  :   256
 total energy-change (2. order) :-0.1888442E-03  (-0.1888438E-03)
 number of electron       8.0000000 magnetization 
 augmentation part        8.0000000 magnetization 

 Free energy of the ion-electron system (eV)
  ---------------------------------------------------
  alpha Z        PSCENC =         3.24857844
  Ewald energy   TEWEN  =      -225.91568183
  -Hartree energ DENC   =       -11.53197166
  -exchange      EXHF   =         0.00000000
  -V(xc)+E(xc)   XCENC  =       -20.29573824
  PAW double counting   =       189.40224250     -152.61488262
  entropy T*S    EENTRO =        -0.00001829
  eigenvalues    EBANDS =         1.23969540
  atomic energy  EATOM  =       208.59434395
  Solvation  Ediel_sol  =         0.00000000
  ---------------------------------------------------
  free energy    TOTEN  =        -7.87343235 eV

  energy without entropy =       -7.87341406  energy(sigma->0) =       -7.87342321


--------------------------------------------------------------------------------------------------------




----------------------------------------- Iteration    1(   5)  ---------------------------------------


     EDDAV:  cpu time    0.0600: real time    0.0611
       DOS:  cpu time    0.0000: real time    0.0003
    CHARGE:  cpu time    0.0240: real time    0.0213
    MIXING:  cpu time    0.0000: real time    0.0006
    --------------------------------------------
      LOOP:  cpu time    0.0840: real time    0.1365

 eigenvalue-minimisations  :   144
 total energy-change (2. order) :-0.2209532E-08  (-0.2601167E-08)
 number of electron       8.0000000 magnetization 
 augmentation part       -0.4719843 magnetization 

 Broyden mixing:
  rms(total) = 0.39333E+00    rms(broyden)= 0.39333E+00
  rms(prec ) = 0.99140E+00
  weight for this iteration     100.00

 Free energy of the ion-electron system (eV)
  ---------------------------------------------------
  alpha Z        PSCENC =         3.24857844
  Ewald energy   TEWEN  =      -225.91568183
  -Hartree energ DENC   =       -11.53197166
  -exchange      EXHF   =         0.00000000
  -V(xc)+E(xc)   XCENC  =       -20.29573824
  PAW double counting   =       189.40224250     -152.61488262
  entropy T*S    EENTRO =        -0.00001829
  eigenvalues    EBANDS =         1.23969540
  atomic energy  EATOM  =       208.59434395
  Solvation  Ediel_sol  =         0.00000000
  ---------------------------------------------------
  free energy    TOTEN  =        -7.87343236 eV

  energy without entropy =       -7.87341406  energy(sigma->0) =       -7.87342321


--------------------------------------------------------------------------------------------------------




----------------------------------------- Iteration    1(   6)  ---------------------------------------


    POTLOK:  cpu time    2.4080: real time    2.4061
    SETDIJ:  cpu time    0.0000: real time    0.0021
     EDDAV:  cpu time    0.0960: real time    0.0948
       DOS:  cpu time    0.0000: real time    0.0004
    CHARGE:  cpu time    0.0200: real time    0.0208
    MIXING:  cpu time    0.0000: real time    0.0006
    --------------------------------------------
      LOOP:  cpu time    2.5240: real time    2.5366

 eigenvalue-minimisations  :   192
 total energy-change (2. order) : 0.8092568E-01  (-0.1080075E-01)
 number of electron       8.0000000 magnetization 
 augmentation part       -0.4639072 magnetization 

 Broyden mixing:
  rms(total) = 0.24212E+00    rms(broyden)= 0.24212E+00
  rms(prec ) = 0.60102E+00
  weight for this iteration     100.00

 eigenvalues of (default mixing * dielectric matrix)
  average eigenvalue GAMMA=   2.5816
  2.5816

 Free energy of the ion-electron system (eV)
  ---------------------------------------------------
  alpha Z        PSCENC =         3.24857844
  Ewald energy   TEWEN  =      -225.91568183
  -Hartree energ DENC   =       -13.30852953
  -exchange      EXHF   =         0.00000000
  -V(xc)+E(xc)   XCENC  =       -20.03022317
  PAW double counting   =       306.53972076     -269.89122696
  entropy T*S    EENTRO =        -0.00009697
  eigenvalues    EBANDS =         2.97060864
  atomic energy  EATOM  =       208.59434395
  Solvation  Ediel_sol  =         0.00000000
  ---------------------------------------------------
  free energy    TOTEN  =        -7.79250668 eV

  energy without entropy =       -7.79240971  energy(sigma->0) =       -7.79245819


--------------------------------------------------------------------------------------------------------




----------------------------------------- Iteration    1(   7)  ---------------------------------------


    POTLOK:  cpu time    2.4000: real time    2.3992
    SETDIJ:  cpu time    0.0040: real time    0.0028
     EDDAV:  cpu time    0.0800: real time    0.0817
       DOS:  cpu time    0.0000: real time    0.0004
    CHARGE:  cpu time    0.0240: real time    0.0209
    MIXING:  cpu time    0.0000: real time    0.0006
    --------------------------------------------
      LOOP:  cpu time    2.5080: real time    2.5442

 eigenvalue-minimisations  :   176
 total energy-change (2. order) : 0.2198302E-01  (-0.2563330E-01)
 number of electron       8.0000000 magnetization 
 augmentation part       -0.4529754 magnetization 

 Broyden mixing:
  rms(total) = 0.20926E-01    rms(broyden)= 0.20926E-01
  rms(prec ) = 0.53896E-01
  weight for this iteration     100.00

 eigenvalues of (default mixing * dielectric matrix)
  average eigenvalue GAMMA=   2.2033
  2.2033  2.2033

 Free energy of the ion-electron system (eV)
  ---------------------------------------------------
  alpha Z        PSCENC =         3.24857844
  Ewald energy   TEWEN  =      -225.91568183
  -Hartree energ DENC   =       -16.39699844
  -exchange      EXHF   =         0.00000000
  -V(xc)+E(xc)   XCENC  =       -19.54075010
  PAW double counting   =       554.64279373     -518.17456994
  entropy T*S    EENTRO =        -0.00090777
  eigenvalues    EBANDS =         5.77266829
  atomic energy  EATOM  =       208.59434395
  Solvation  Ediel_sol  =         0.00000000
  ---------------------------------------------------
  free energy    TOTEN  =        -7.77052366 eV

  energy without entropy =       -7.76961589  energy(sigma->0) =       -7.77006978


--------------------------------------------------------------------------------------------------------




----------------------------------------- Iteration    1(   8)  ---------------------------------------


    POTLOK:  cpu time    2.4040: real time    2.4034
    SETDIJ:  cpu time    0.0000: real time    0.0021
     EDDAV:  cpu time    0.0760: real time    0.0759
       DOS:  cpu time    0.0000: real time    0.0003
    CHARGE:  cpu time    0.0240: real time    0.0207
    MIXING:  cpu time    0.0000: real time    0.0007
    --------------------------------------------
      LOOP:  cpu time    2.5040: real time    2.5837

 eigenvalue-minimisations  :   160
 total energy-change (2. order) : 0.1771013E-01  (-0.5894817E-03)
 number of electron       8.0000000 magnetization 
 augmentation part       -0.4544822 magnetization 

 Broyden mixing:
  rms(total) = 0.11232E-01    rms(broyden)= 0.11232E-01
  rms(prec ) = 0.27542E-01
  weight for this iteration     100.00

 eigenvalues of (default mixing * dielectric matrix)
  average eigenvalue GAMMA=   2.1423
  3.0762  1.5016  1.8492

 Free energy of the ion-electron system (eV)
  ---------------------------------------------------
  alpha Z        PSCENC =         3.24857844
  Ewald energy   TEWEN  =      -225.91568183
  -Hartree energ DENC   =       -16.13843556
  -exchange      EXHF   =         0.00000000
  -V(xc)+E(xc)   XCENC  =       -19.56012053
  PAW double counting   =       531.84474634     -495.30593259
  entropy T*S    EENTRO =        -0.00062070
  eigenvalues    EBANDS =         5.48030894
  atomic energy  EATOM  =       208.59434395
  Solvation  Ediel_sol  =         0.00000000
  ---------------------------------------------------
  free energy    TOTEN  =        -7.75281353 eV

  energy without entropy =       -7.75219283  energy(sigma->0) =       -7.75250318


--------------------------------------------------------------------------------------------------------




----------------------------------------- Iteration    1(   9)  ---------------------------------------


    POTLOK:  cpu time    2.3760: real time    2.3759
    SETDIJ:  cpu time    0.0040: real time    0.0028
     EDDAV:  cpu time    0.0760: real time    0.0780
       DOS:  cpu time    0.0000: real time    0.0003
    CHARGE:  cpu time    0.0240: real time    0.0211
    MIXING:  cpu time    0.0000: real time    0.0007
    --------------------------------------------
      LOOP:  cpu time    2.4800: real time    2.7362

 eigenvalue-minimisations  :   160
 total energy-change (2. order) :-0.3240561E-03  (-0.7072310E-04)
 number of electron       8.0000000 magnetization 
 augmentation part       -0.4541141 magnetization 

 Broyden mixing:
  rms(total) = 0.55733E-02    rms(broyden)= 0.55733E-02
  rms(prec ) = 0.74298E-02
  weight for this iteration     100.00

 eigenvalues of (default mixing * dielectric matrix)
  average eigenvalue GAMMA=   2.1811
  0.9388  3.0188  2.3834  2.3834

 Free energy of the ion-electron system (eV)
  ---------------------------------------------------
  alpha Z        PSCENC =         3.24857844
  Ewald energy   TEWEN  =      -225.91568183
  -Hartree energ DENC   =       -16.31085319
  -exchange      EXHF   =         0.00000000
  -V(xc)+E(xc)   XCENC  =       -19.53019962
  PAW double counting   =       542.52119120     -505.98687003
  entropy T*S    EENTRO =        -0.00067358
  eigenvalues    EBANDS =         5.62702707
  atomic energy  EATOM  =       208.59434395
  Solvation  Ediel_sol  =         0.00000000
  ---------------------------------------------------
  free energy    TOTEN  =        -7.75313759 eV

  energy without entropy =       -7.75246401  energy(sigma->0) =       -7.75280080


--------------------------------------------------------------------------------------------------------




----------------------------------------- Iteration    1(  10)  ---------------------------------------


    POTLOK:  cpu time    2.3720: real time    2.3730
    SETDIJ:  cpu time    0.0040: real time    0.0022
     EDDAV:  cpu time    0.1000: real time    0.0986
       DOS:  cpu time    0.0000: real time    0.0004
    CHARGE:  cpu time    0.0200: real time    0.0207
    MIXING:  cpu time    0.0000: real time    0.0007
    --------------------------------------------
      LOOP:  cpu time    2.4960: real time    2.5784

 eigenvalue-minimisations  :   192
 total energy-change (2. order) :-0.3074450E-03  (-0.2135980E-05)
 number of electron       8.0000000 magnetization 
 augmentation part       -0.4541405 magnetization 

 Broyden mixing:
  rms(total) = 0.40445E-03    rms(broyden)= 0.40444E-03
  rms(prec ) = 0.10368E-02
  weight for this iteration     100.00

 eigenvalues of (default mixing * dielectric matrix)
  average eigenvalue GAMMA=   1.9046
  2.9200  2.5366  2.2711  0.9741  0.8212

 Free energy of the ion-electron system (eV)
  ---------------------------------------------------
  alpha Z        PSCENC =         3.24857844
  Ewald energy   TEWEN  =      -225.91568183
  -Hartree energ DENC   =       -16.29183569
  -exchange      EXHF   =         0.00000000
  -V(xc)+E(xc)   XCENC  =       -19.53424747
  PAW double counting   =       534.82131756     -498.28741356
  entropy T*S    EENTRO =        -0.00066307
  eigenvalues    EBANDS =         5.61215665
  atomic energy  EATOM  =       208.59434395
  Solvation  Ediel_sol  =         0.00000000
  ---------------------------------------------------
  free energy    TOTEN  =        -7.75344503 eV

  energy without entropy =       -7.75278196  energy(sigma->0) =       -7.75311350


--------------------------------------------------------------------------------------------------------




----------------------------------------- Iteration    1(  11)  ---------------------------------------


    POTLOK:  cpu time    2.4440: real time    2.4443
    SETDIJ:  cpu time    0.0040: real time    0.0029
     EDDAV:  cpu time    0.0880: real time    0.0862
       DOS:  cpu time    0.0000: real time    0.0003
    CHARGE:  cpu time    0.0200: real time    0.0201
    MIXING:  cpu time    0.0000: real time    0.0007
    --------------------------------------------
      LOOP:  cpu time    2.5560: real time    2.6061

 eigenvalue-minimisations  :   192
 total energy-change (2. order) : 0.2639418E-03  (-0.1374328E-06)
 number of electron       8.0000000 magnetization 
 augmentation part       -0.4541700 magnetization 

 Broyden mixing:
  rms(total) = 0.12470E-03    rms(broyden)= 0.12470E-03
  rms(prec ) = 0.17091E-03
  weight for this iteration     100.00

 eigenvalues of (default mixing * dielectric matrix)
  average eigenvalue GAMMA=   1.9620
  2.9401  2.4940  2.2548  2.1343  0.9441  1.0044

 Free energy of the ion-electron system (eV)
  ---------------------------------------------------
  alpha Z        PSCENC =         3.24857844
  Ewald energy   TEWEN  =      -225.91568183
  -Hartree energ DENC   =       -16.28746713
  -exchange      EXHF   =         0.00000000
  -V(xc)+E(xc)   XCENC  =       -19.53465076
  PAW double counting   =       534.64957642     -498.11466354
  entropy T*S    EENTRO =        -0.00065918
  eigenvalues    EBANDS =         5.60744255
  atomic energy  EATOM  =       208.59434395
  Solvation  Ediel_sol  =         0.00000000
  ---------------------------------------------------
  free energy    TOTEN  =        -7.75318109 eV

  energy without entropy =       -7.75252191  energy(sigma->0) =       -7.75285150


--------------------------------------------------------------------------------------------------------




----------------------------------------- Iteration    1(  12)  ---------------------------------------


    POTLOK:  cpu time    2.4200: real time    2.4191
    SETDIJ:  cpu time    0.0040: real time    0.0022
     EDDAV:  cpu time    0.0480: real time    0.0515
       DOS:  cpu time    0.0000: real time    0.0003
    CHARGE:  cpu time    0.0200: real time    0.0208
    MIXING:  cpu time    0.0000: real time    0.0007
    --------------------------------------------
      LOOP:  cpu time    2.4960: real time    2.5797

 eigenvalue-minimisations  :   144
 total energy-change (2. order) : 0.5864180E-05  (-0.5071421E-08)
 number of electron       8.0000000 magnetization 
 augmentation part       -0.4541693 magnetization 

 Broyden mixing:
  rms(total) = 0.31406E-04    rms(broyden)= 0.31406E-04
  rms(prec ) = 0.77431E-04
  weight for this iteration     100.00

 eigenvalues of (default mixing * dielectric matrix)
  average eigenvalue GAMMA=   1.9511
  3.0061  2.6538  2.6538  2.2440  0.9828  0.9867  1.1307

 Free energy of the ion-electron system (eV)
  ---------------------------------------------------
  alpha Z        PSCENC =         3.24857844
  Ewald energy   TEWEN  =      -225.91568183
  -Hartree energ DENC   =       -16.28794715
  -exchange      EXHF   =         0.00000000
  -V(xc)+E(xc)   XCENC  =       -19.53460476
  PAW double counting   =       534.84806334     -498.31313911
  entropy T*S    EENTRO =        -0.00065911
  eigenvalues    EBANDS =         5.60787100
  atomic energy  EATOM  =       208.59434395
  Solvation  Ediel_sol  =         0.00000000
  ---------------------------------------------------
  free energy    TOTEN  =        -7.75317523 eV

  energy without entropy =       -7.75251612  energy(sigma->0) =       -7.75284567


--------------------------------------------------------------------------------------------------------




----------------------------------------- Iteration    1(  13)  ---------------------------------------


    POTLOK:  cpu time    2.3760: real time    2.3760
    SETDIJ:  cpu time    0.0040: real time    0.0029
     EDDAV:  cpu time    0.0520: real time    0.0540
       DOS:  cpu time    0.0040: real time    0.0003
    CHARGE:  cpu time    0.0200: real time    0.0201
    MIXING:  cpu time    0.0000: real time    0.0008
    --------------------------------------------
      LOOP:  cpu time    2.4560: real time    2.4763

 eigenvalue-minimisations  :   128
 total energy-change (2. order) : 0.1218461E-04  (-0.6839686E-09)
 number of electron       8.0000000 magnetization 
 augmentation part       -0.4541706 magnetization 

 Broyden mixing:
  rms(total) = 0.14222E-04    rms(broyden)= 0.14222E-04
  rms(prec ) = 0.15937E-04
  weight for this iteration     100.00

 eigenvalues of (default mixing * dielectric matrix)
  average eigenvalue GAMMA=   1.9869
  3.0482  2.8434  2.5486  2.2931  2.2256  0.9961  0.9827  0.9575

 Free energy of the ion-electron system (eV)
  ---------------------------------------------------
  alpha Z        PSCENC =         3.24857844
  Ewald energy   TEWEN  =      -225.91568183
  -Hartree energ DENC   =       -16.28759307
  -exchange      EXHF   =         0.00000000
  -V(xc)+E(xc)   XCENC  =       -19.53466353
  PAW double counting   =       534.85159984     -498.31662662
  entropy T*S    EENTRO =        -0.00065884
  eigenvalues    EBANDS =         5.60753861
  atomic energy  EATOM  =       208.59434395
  Solvation  Ediel_sol  =         0.00000000
  ---------------------------------------------------
  free energy    TOTEN  =        -7.75316304 eV

  energy without entropy =       -7.75250420  energy(sigma->0) =       -7.75283362


--------------------------------------------------------------------------------------------------------




----------------------------------------- Iteration    1(  14)  ---------------------------------------


    POTLOK:  cpu time    2.4480: real time    2.4541
    SETDIJ:  cpu time    0.0000: real time    0.0022
     EDDAV:  cpu time    0.0360: real time    0.0360
       DOS:  cpu time    0.0000: real time    0.0003
    CHARGE:  cpu time    0.0200: real time    0.0207
    MIXING:  cpu time    0.0040: real time    0.0008
    --------------------------------------------
      LOOP:  cpu time    2.5080: real time    2.8016

 eigenvalue-minimisations  :    80
 total energy-change (2. order) :-0.2594303E-05  (-0.3175145E-10)
 number of electron       8.0000000 magnetization 
 augmentation part       -0.4541705 magnetization 

 Broyden mixing:
  rms(total) = 0.29519E-05    rms(broyden)= 0.29519E-05
  rms(prec ) = 0.32254E-05
  weight for this iteration     100.00

 eigenvalues of (default mixing * dielectric matrix)
  average eigenvalue GAMMA=   1.8773
  2.9950  2.8784  2.5126  2.5126  2.2245  1.0144  0.9810  0.9370  0.8401

 Free energy of the ion-electron system (eV)
  ---------------------------------------------------
  alpha Z        PSCENC =         3.24857844
  Ewald energy   TEWEN  =      -225.91568183
  -Hartree energ DENC   =       -16.28762283
  -exchange      EXHF   =         0.00000000
  -V(xc)+E(xc)   XCENC  =       -19.53466278
  PAW double counting   =       534.83195966     -498.29699633
  entropy T*S    EENTRO =        -0.00065886
  eigenvalues    EBANDS =         5.60757494
  atomic energy  EATOM  =       208.59434395
  Solvation  Ediel_sol  =         0.00000000
  ---------------------------------------------------
  free energy    TOTEN  =        -7.75316564 eV

  energy without entropy =       -7.75250678  energy(sigma->0) =       -7.75283621


--------------------------------------------------------------------------------------------------------




----------------------------------------- Iteration    1(  15)  ---------------------------------------


    POTLOK:  cpu time    2.4200: real time    2.4199
    SETDIJ:  cpu time    0.0040: real time    0.0029
     EDDAV:  cpu time    0.0320: real time    0.0329
       DOS:  cpu time    0.0000: real time    0.0003
    CHARGE:  cpu time    0.0200: real time    0.0205
    MIXING:  cpu time    0.0000: real time    0.0009
    --------------------------------------------
      LOOP:  cpu time    2.4760: real time    2.5635

 eigenvalue-minimisations  :    80
 total energy-change (2. order) :-0.2140856E-06  (-0.1389047E-11)
 number of electron       8.0000000 magnetization 
 augmentation part       -0.4541705 magnetization 

 Broyden mixing:
  rms(total) = 0.93409E-06    rms(broyden)= 0.93409E-06
  rms(prec ) = 0.10346E-05
  weight for this iteration     100.00

 eigenvalues of (default mixing * dielectric matrix)
  average eigenvalue GAMMA=   1.9140
  3.1338  2.9724  2.7120  2.4243  2.2378  1.6677  0.9550  0.9831  0.9831  1.0709

 Free energy of the ion-electron system (eV)
  ---------------------------------------------------
  alpha Z        PSCENC =         3.24857844
  Ewald energy   TEWEN  =      -225.91568183
  -Hartree energ DENC   =       -16.28762315
  -exchange      EXHF   =         0.00000000
  -V(xc)+E(xc)   XCENC  =       -19.53466293
  PAW double counting   =       534.82874041     -498.29377800
  entropy T*S    EENTRO =        -0.00065886
  eigenvalues    EBANDS =         5.60757613
  atomic energy  EATOM  =       208.59434395
  Solvation  Ediel_sol  =         0.00000000
  ---------------------------------------------------
  free energy    TOTEN  =        -7.75316585 eV

  energy without entropy =       -7.75250699  energy(sigma->0) =       -7.75283642


--------------------------------------------------------------------------------------------------------




----------------------------------------- Iteration    1(  16)  ---------------------------------------


    POTLOK:  cpu time    2.4080: real time    2.4044
    SETDIJ:  cpu time    0.0000: real time    0.0027
     EDDAV:  cpu time    0.0320: real time    0.0308
       DOS:  cpu time    0.0000: real time    0.0003
    --------------------------------------------
      LOOP:  cpu time    2.4400: real time    2.5192

 eigenvalue-minimisations  :    64
 total energy-change (2. order) : 0.1044953E-08  (-0.1443067E-12)
 number of electron       8.0000000 magnetization 
 augmentation part       -0.4541705 magnetization 

 Free energy of the ion-electron system (eV)
  ---------------------------------------------------
  alpha Z        PSCENC =         3.24857844
  Ewald energy   TEWEN  =      -225.91568183
  -Hartree energ DENC   =       -16.28762413
  -exchange      EXHF   =         0.00000000
  -V(xc)+E(xc)   XCENC  =       -19.53466302
  PAW double counting   =       534.82761720     -498.29265497
  entropy T*S    EENTRO =        -0.00065886
  eigenvalues    EBANDS =         5.60757737
  atomic energy  EATOM  =       208.59434395
  Solvation  Ediel_sol  =         0.00000000
  ---------------------------------------------------
  free energy    TOTEN  =        -7.75316585 eV

  energy without entropy =       -7.75250699  energy(sigma->0) =       -7.75283642


--------------------------------------------------------------------------------------------------------




 average (electrostatic) potential at core
  the test charge radii are     0.9892
  (the norm of the test charge is              1.0000)
       1 -83.7667       2 -83.7667



 E-fermi :   5.9416     XC(G=0):  -9.2148     alpha+bet :-11.5728


 k-point     1 :       0.0000    0.0000    0.0000
  band No.  band energies     occupation 
      1      -6.1124      2.00000
      2       5.5583      1.99328
      3       5.5583      1.99328
      4       5.5583      1.99328
      5       8.1380      0.00000
      6       8.1380      0.00000
      7       8.1380      0.00000
      8       8.6460      0.00000
      9      13.2635      0.00000
     10      13.2635      0.00000
     11      13.3911      0.00000
     12      16.6814      0.00000
     13      16.6814      0.00000
     14      16.6814      0.00000
     15      20.7810      0.00000
     16      28.2501      0.00000

 k-point     2 :       0.3333    0.0000    0.0000
  band No.  band energies     occupation 
      1      -4.7784      2.00000
      2       0.3627      2.00000
      3       4.5958      2.00000
      4       4.5958      2.00000
      5       7.2561      0.00000
      6       9.0759      0.00000
      7       9.0759      0.00000
      8      13.2978      0.00000
      9      13.4879      0.00000
     10      13.4879      0.00000
     11      14.4675      0.00000
     12      18.8895      0.00000
     13      19.9339      0.00000
     14      19.9339      0.00000
     15      21.9661      0.00000
     16      22.9511      0.00000

 k-point     3 :       0.3333    0.3333    0.0000
  band No.  band energies     occupation 
      1      -4.2643      2.00000
      2       0.6290      2.00000
      3       3.2353      2.00000
      4       3.2353      2.00000
      5       6.3563      0.00336
      6       7.6108      0.00000
      7      12.6842      0.00000
      8      12.6842      0.00000
      9      15.0535      0.00000
     10      15.3598      0.00000
     11      18.3882      0.00000
     12      18.8263      0.00000
     13      18.8263      0.00000
     14      20.5150      0.00000
     15      21.5268      0.00000
     16      21.6793      0.00000

 k-point     4 :      -0.3333    0.3333    0.0000
  band No.  band energies     occupation 
      1      -2.9551      2.00000
      2      -1.0712      2.00000
      3       1.3240      2.00000
      4       3.5283      2.00000
      5       7.1772      0.00000
      6      11.3110      0.00000
      7      11.9495      0.00000
      8      12.4767      0.00000
      9      12.8065      0.00000
     10      13.1776      0.00000
     11      19.7325      0.00000
     12      20.2669      0.00000
     13      20.8577      0.00000
     14      21.0401      0.00000
     15      21.8648      0.00000
     16      22.7510      0.00000


--------------------------------------------------------------------------------------------------------


 soft charge-density along one line, spin component           1
         0         1         2         3         4         5         6         7         8         9
 total charge-density along one line

 pseudopotential strength for first ion, spin component:           1
 18.532  25.850  -0.000  -0.000  -0.000  -0.000  -0.000  -0.000
 25.850  36.064  -0.000  -0.000  -0.000  -0.000  -0.000  -0.000
 -0.000  -0.000   4.199  -0.000  -0.000   7.817  -0.000  -0.000
 -0.000  -0.000  -0.000   4.199  -0.000  -0.000   7.817  -0.000
 -0.000  -0.000  -0.000  -0.000   4.199  -0.000  -0.000   7.817
 -0.000  -0.000   7.817  -0.000  -0.000  14.563  -0.000  -0.000
 -0.000  -0.000  -0.000   7.817  -0.000  -0.000  14.563  -0.000
 -0.000  -0.000  -0.000  -0.000   7.817  -0.000  -0.000  14.563
 total augmentation occupancy for first ion, spin component:           1
  3.179  -0.884   0.000   0.000   0.000  -0.000   0.000   0.000
 -0.884   0.373  -0.000   0.000   0.000   0.000  -0.000   0.000
 -0.000  -0.000   2.263  -0.000  -0.000  -0.395  -0.000  -0.000
 -0.000   0.000  -0.000   2.263  -0.000   0.000  -0.395  -0.000
 -0.000   0.000  -0.000  -0.000   2.263  -0.000  -0.000  -0.395
  0.000   0.000  -0.395  -0.000  -0.000   0.082  -0.000   0.000
  0.000   0.000  -0.000  -0.395   0.000  -0.000   0.082   0.000
 -0.000   0.000  -0.000   0.000  -0.395  -0.000  -0.000   0.082


------------------------ aborting loop because EDIFF is reached ----------------------------------------


    CHARGE:  cpu time    0.0200: real time    0.0218
    FORLOC:  cpu time    0.0040: real time    0.0008
    FORNL :  cpu time    0.0120: real time    0.0121
    STRESS:  cpu time    0.0960: real time    0.0954
    FORCOR:  cpu time    2.3800: real time    2.3799
    FORHAR:  cpu time    0.0040: real time    0.0044
    MIXING:  cpu time    0.0040: real time    0.0008
    OFIELD:  cpu time    0.0000: real time    0.0000

  FORCE on cell =-STRESS in cart. coord.  units (eV):
  Direction    XX          YY          ZZ          XY          YZ          ZX
  --------------------------------------------------------------------------------------
  Alpha Z     3.24858     3.24858     3.24858
  Ewald     -75.30526   -75.30526   -75.30526     0.00000    -0.00000    -0.00000
  Hartree     5.42921     5.42921     5.42921     0.00000     0.00000     0.00000
  E(xc)     -25.42047   -25.42047   -25.42047    -0.00000    -0.00000    -0.00000
  Local     -30.12819   -30.12819   -30.12819     0.00000     0.00000     0.00000
  n-local    78.77422    78.77422    72.79233     2.89258    -1.22750     1.22750
  augment   -11.63007   -11.63007   -11.63007    -0.00000    -0.00000    -0.00000
  Kinetic    59.15514    59.15514    53.99875     4.52007    -1.73039     1.73039
  Fock        0.00000     0.00000     0.00000     0.00000     0.00000     0.00000
  -------------------------------------------------------------------------------------
  Total       0.41039     0.41039     0.41039     0.00000     0.00000    -0.00000
  in kB      15.86301    15.86301    15.86301     0.00000     0.00000    -0.00000
  external pressure =       15.86 kB  Pullay stress =        0.00 kB


 VOLUME and BASIS-vectors are now :
 -----------------------------------------------------------------------------
  energy-cutoff  :      600.00
  volume of cell :       41.45
      direct lattice vectors                 reciprocal lattice vectors
     0.000000000  2.746821138  2.746821138    -0.182028598  0.182028598  0.182028598
     2.746821138  0.000000000  2.746821138     0.182028598 -0.182028598  0.182028598
     2.746821138  2.746821138  0.000000000     0.182028598  0.182028598 -0.182028598

  length of vectors
     3.884591706  3.884591706  3.884591706     0.315282780  0.315282780  0.315282780


 FORCES acting on ions
    electron-ion (+dipol)            ewald-force                    non-local-force                 convergence-correction
 -----------------------------------------------------------------------------------------------
   -.348E-08 -.348E-08 -.103E-08   -.313E-14 -.268E-14 -.153E-14   0.167E-15 0.194E-15 0.193E-15   -.174E-11 -.174E-11 -.175E-11
   0.348E-08 0.348E-08 0.103E-08   0.307E-14 0.301E-14 0.222E-14   -.180E-15 -.194E-15 -.223E-15   0.174E-11 0.174E-11 0.175E-11
 -----------------------------------------------------------------------------------------------
   -.136E-12 -.473E-13 -.886E-13   -.615E-16 0.330E-15 0.690E-15   -.139E-16 0.000E+00 -.295E-16   -.504E-14 -.346E-14 -.347E-15


 POSITION                                       TOTAL-FORCE (eV/Angst)
 -----------------------------------------------------------------------------------
      4.12023      4.12023      4.12023         0.000000      0.000000      0.000000
      2.74682      2.74682      2.74682        -0.000000     -0.000000     -0.000000
 -----------------------------------------------------------------------------------
    total drift:                               -0.000000     -0.000000     -0.000000


--------------------------------------------------------------------------------------------------------



  FREE ENERGIE OF THE ION-ELECTRON SYSTEM (eV)
  ---------------------------------------------------
  free  energy   TOTEN  =        -7.75316585 eV

  energy  without entropy=       -7.75250699  energy(sigma->0) =       -7.75283642



--------------------------------------------------------------------------------------------------------


    POTLOK:  cpu time    2.4000: real time    2.4012


--------------------------------------------------------------------------------------------------------




--------------------------------------------------------------------------------------------------------


  
 reached required accuracy - stopping structural energy minimisation
     LOOP+:  cpu time   35.7160: real time   37.5926
    4ORBIT:  cpu time    0.0000: real time    0.0000

 total amount of memory used by VASP on root node    33339. kBytes
========================================================================

   base      :      30000. kBytes
   nonl-proj :        410. kBytes
   fftplans  :        702. kBytes
   grid      :       2129. kBytes
   one-center:          6. kBytes
   wavefun   :         92. kBytes

  
  
 General timing and accounting informations for this job:
 ========================================================
  
                  Total CPU time used (sec):       36.300
                            User time (sec):       36.100
                          System time (sec):        0.200
                         Elapsed time (sec):       39.467
  
                   Maximum memory used (kb):      120668.
                   Average memory used (kb):           0.
  
                          Minor page faults:       109396
                          Major page faults:            5
                 Voluntary context switches:          240
