 running on   16 total cores
 distrk:  each k-point on   16 cores,    1 groups
 distr:  one band on    1 cores,   16 groups
 using from now: INCAR     
 vasp.5.4.1 24Jun15 (build Feb  9 2019 14:16:27) complex                         
 POSCAR found type information on POSCAR  Si
 POSCAR found :  1 types and       2 ions
 scaLAPACK will be used

 ----------------------------------------------------------------------------- 
|                                                                             |
|           W    W    AA    RRRRR   N    N  II  N    N   GGGG   !!!           |
|           W    W   A  A   R    R  NN   N  II  NN   N  G    G  !!!           |
|           W    W  A    A  R    R  N N  N  II  N N  N  G       !!!           |
|           W WW W  AAAAAA  RRRRR   N  N N  II  N  N N  G  GGG   !            |
|           WW  WW  A    A  R   R   N   NN  II  N   NN  G    G                |
|           W    W  A    A  R    R  N    N  II  N    N   GGGG   !!!           |
|                                                                             |
|      For optimal performance we recommend to set                            |
|        NCORE= 4 - approx SQRT( number of cores)                             |
|      NCORE specifies how many cores store one orbital (NPAR=cpu/NCORE).     |
|      This setting can  greatly improve the performance of VASP for DFT.     |
|      The default, NPAR=number of cores might be grossly inefficient         |
|      on modern multi-core architectures or massively parallel machines.     |
|      Do your own testing !!!!                                               |
|      Unfortunately you need to use the default for GW and RPA calculations. |
|      (for HF NCORE is supported but not extensively tested yet)             |
|                                                                             |
 ----------------------------------------------------------------------------- 


 ----------------------------------------------------------------------------- 
|                                                                             |
|  ADVICE TO THIS USER RUNNING 'VASP/VAMP'   (HEAR YOUR MASTER'S VOICE ...):  |
|                                                                             |
|      You have switched on vdW-DFT.                                          |
|      This routine was written and supplied by Jiri Klimes.                  |
|      We recommed that you carefully read and cite the following             |
|      publication                                                            |
|      J. Klimes, D.R. Bowler, A. Michelides                                  |
|        J. Phys.: Cond Matt. 22 022201 (2010)                                |
|      J. Klimes, D.R. Bowler, A. Michelides                                  |
|        Phys. Rev. B. 83, 195131 (2011)                                      |
|      and references therein.                                                |
|                                                                             |
 ----------------------------------------------------------------------------- 


 ----------------------------------------------------------------------------- 
|                                                                             |
|  ADVICE TO THIS USER RUNNING 'VASP/VAMP'   (HEAR YOUR MASTER'S VOICE ...):  |
|                                                                             |
|      You enforced a specific xc-type in the INCAR file,                     |
|      a different type was found on the POTCAR file                          |
|          I HOPE YOU KNOW, WHAT YOU ARE  DOING                               |
|                                                                             |
 ----------------------------------------------------------------------------- 

 LDA part: xc-table for Pade appr. of Perdew
 POSCAR, INCAR and KPOINTS ok, starting setup
 WARNING: small aliasing (wrap around) errors must be expected
 FFT: planning ...
 WAVECAR not read
 entering main loop
       N       E                     dE             d eps       ncg     rms          rms(c)
Total vdW correction in eV:      1.0901334
DAV:   1     0.380878464175E+01    0.38088E+01   -0.36937E+03   128   0.447E+02
DAV:   2    -0.779425260243E+01   -0.11603E+02   -0.11464E+02   192   0.408E+01
DAV:   3    -0.787324350974E+01   -0.78991E-01   -0.78991E-01   144   0.422E+00
DAV:   4    -0.787343235398E+01   -0.18884E-03   -0.18884E-03   256   0.211E-01
DAV:   5    -0.787343235619E+01   -0.22095E-08   -0.26012E-08   144   0.905E-04    0.393E+00
Total vdW correction in eV:      1.1466608
DAV:   6    -0.779250668107E+01    0.80926E-01   -0.10801E-01   192   0.968E-01    0.242E+00
Total vdW correction in eV:      1.2588738
DAV:   7    -0.777052366166E+01    0.21983E-01   -0.25633E-01   176   0.147E+00    0.209E-01
Total vdW correction in eV:      1.2546532
DAV:   8    -0.775281353166E+01    0.17710E-01   -0.58948E-03   160   0.276E-01    0.112E-01
Total vdW correction in eV:      1.2623768
DAV:   9    -0.775313758780E+01   -0.32406E-03   -0.70723E-04   160   0.101E-01    0.557E-02
Total vdW correction in eV:      1.2620120
DAV:  10    -0.775344503279E+01   -0.30744E-03   -0.21360E-05   192   0.220E-02    0.404E-03
Total vdW correction in eV:      1.2619355
DAV:  11    -0.775318109096E+01    0.26394E-03   -0.13743E-06   192   0.381E-03    0.125E-03
Total vdW correction in eV:      1.2619799
DAV:  12    -0.775317522678E+01    0.58642E-05   -0.50714E-08   144   0.123E-03    0.314E-04
Total vdW correction in eV:      1.2619751
DAV:  13    -0.775316304218E+01    0.12185E-04   -0.68397E-09   128   0.327E-04    0.142E-04
Total vdW correction in eV:      1.2619763
DAV:  14    -0.775316563648E+01   -0.25943E-05   -0.31751E-10    80   0.930E-05    0.295E-05
Total vdW correction in eV:      1.2619761
DAV:  15    -0.775316585056E+01   -0.21409E-06   -0.13890E-11    80   0.174E-05    0.934E-06
Total vdW correction in eV:      1.2619761
DAV:  16    -0.775316584952E+01    0.10450E-08   -0.14431E-12    64   0.672E-06
Total vdW correction in eV:      1.2619760
Total vdW correction in eV:      1.2619761
   1 F= -.77531658E+01 E0= -.77528364E+01  d E =-.775317E+01
 curvature:   0.00 expect dE= 0.000E+00 dE for cont linesearch  0.000E+00
 trial: gam= 0.00000 g(F)=  0.401E-50 g(S)=  0.000E+00 ort = 0.000E+00 (trialstep = 0.100E+01)
 search vector abs. value=  0.100E-09
 reached required accuracy - stopping structural energy minimisation
