    2    2    1    2
  0.2072475E+02  0.3884586E-09  0.3884587E-09  0.3884586E-09  0.5000000E-15
  1.000000000000000E-004
  CAR 
 Y3Al5O12-garnet                         
    8  193   32
 
  0.0000000E+00  0.0000000E+00  0.0000000E+00  0.1953125E-02
   1       -7.925513     -7.925513
   2        5.134636      5.134709
   3        5.134649      5.134722
   4        5.134650      5.134723
   5        8.453707      8.453638
   6        8.453719      8.453650
   7        8.453723      8.453654
   8        9.027805      9.027798
   9       13.785959     13.785971
  10       13.970229     13.970199
  11       13.970230     13.970200
  12       17.366954     17.366901
  13       17.366961     17.366908
  14       17.366964     17.366911
  15       21.184320     21.184277
  16       29.675785     29.675803
  17       29.675818     29.675835
  18       29.675821     29.675839
  19       30.997129     30.997131
  20       30.997131     30.997133
  21       32.086110     32.086149
  22       32.086144     32.086182
  23       32.086153     32.086191
  24       35.465079     35.465044
  25       35.465086     35.465050
  26       35.465147     35.465111
  27       41.515092     41.515100
  28       41.515228     41.515235
  29       41.515236     41.515243
  30       43.847440     43.847368
  31       45.189617     45.189641
  32       45.189666     45.189657
 
  0.1250000E+00  0.0000000E+00  0.0000000E+00  0.1562500E-01
   1       -7.705703     -7.705702
   2        3.446024      3.446063
   3        4.842191      4.842251
   4        4.842203      4.842263
   5        8.305756      8.305715
   6        8.888885      8.888827
   7        8.888899      8.888841
   8       10.483942     10.483946
   9       13.435413     13.435380
  10       13.435423     13.435390
  11       14.620378     14.620381
  12       16.748378     16.748330
  13       18.598848     18.598799
  14       18.598849     18.598800
  15       22.495417     22.495370
  16       27.538581     27.538591
  17       27.538731     27.538740
  18       27.781676     27.781700
  19       30.563146     30.563154
  20       30.563417     30.563424
  21       32.671524     32.671554
  22       32.671542     32.671572
  23       33.655233     33.655263
  24       35.653436     35.653401
  25       37.788871     37.788850
  26       37.788960     37.788939
  27       38.916445     38.916449
  28       40.881211     40.881234
  29       40.881233     40.881258
  30       43.080527     43.080633
  31       43.080579     43.080792
  32       44.659213     44.545277
 
  0.2500000E+00  0.0000000E+00  0.0000000E+00  0.1562500E-01
   1       -7.064297     -7.064294
   2        0.898637      0.898655
   3        4.338962      4.339009
   4        4.338976      4.339023
   5        7.778344      7.778316
   6        9.448848      9.448795
   7        9.448871      9.448818
   8       12.837164     12.837168
   9       13.361442     13.361413
  10       13.361478     13.361449
  11       14.943233     14.943208
  12       17.863589     17.863576
  13       20.965375     20.965326
  14       20.965399     20.965350
  15       24.172972     24.172980
  16       24.173061     24.173069
  17       24.267664     24.267643
  18       25.980815     25.980811
  19       30.735657     30.735665
  20       30.735957     30.735965
  21       33.055727     33.055756
  22       33.055769     33.055798
  23       34.433439     34.433461
  24       35.698102     35.698105
  25       36.183531     36.183496
  26       38.020663     38.020651
  27       38.020791     38.020780
  28       39.853207     39.853214
  29       39.853232     39.853240
  30       40.783111     40.782999
  31       40.783187     40.783060
  32       44.177575     44.142402
 
  0.3750000E+00  0.0000000E+00  0.0000000E+00  0.1562500E-01
   1       -6.103717     -6.103710
   2       -1.318146     -1.318141
   3        3.975353      3.975394
   4        3.975367      3.975408
   5        7.389215      7.389194
   6        9.415684      9.415629
   7        9.415712      9.415657
   8       13.881962     13.881913
   9       14.804327     14.804307
  10       14.804382     14.804362
  11       15.655196     15.655219
  12       20.154681     20.154661
  13       20.154768     20.154748
  14       20.162648     20.162646
  15       22.956776     22.956786
  16       24.768534     24.768511
  17       24.768543     24.768520
  18       28.843370     28.843330
  19       30.266572     30.266581
  20       30.537370     30.537364
  21       30.537583     30.537577
  22       33.245114     33.245140
  23       33.245169     33.245194
  24       34.547451     34.547464
  25       34.547541     34.547554
  26       36.043716     36.043703
  27       36.899753     36.899714
  28       38.816501     38.816495
  29       38.816584     38.816577
  30       39.775933     39.775913
  31       39.776026     39.776006
  32       40.603010     40.603049
 
  0.5000000E+00  0.0000000E+00  0.0000000E+00  0.7812500E-02
   1       -5.425089     -5.425076
   2       -2.427366     -2.427368
   3        3.848301      3.848340
   4        3.848316      3.848355
   5        7.250587      7.250567
   6        9.307920      9.307864
   7        9.307949      9.307892
   8       13.713982     13.713931
   9       16.905082     16.905072
  10       16.905227     16.905217
  11       17.392915     17.392945
  12       17.572492     17.572470
  13       17.572515     17.572492
  14       19.095747     19.095745
  15       25.756846     25.756834
  16       26.119053     26.119082
  17       27.916407     27.916394
  18       27.916514     27.916500
  19       28.309358     28.309318
  20       28.309500     28.309459
  21       31.765436     31.765383
  22       32.813767     32.813795
  23       32.813965     32.813993
  24       33.915973     33.916008
  25       33.916002     33.916037
  26       34.117899     34.117879
  27       37.304191     37.304158
  28       38.491464     38.491460
  29       38.491686     38.491683
  30       39.117673     39.117645
  31       39.117848     39.117819
  32       40.056090     40.056103
 
  0.1250000E+00  0.1250000E+00  0.0000000E+00  0.1171875E-01
   1       -7.631526     -7.631525
   2        3.693843      3.693898
   3        4.314368      4.314410
   4        4.314376      4.314418
   5        7.855339      7.855279
   6        9.619156      9.619118
   7        9.619164      9.619127
   8       10.161390     10.161383
   9       12.595489     12.595464
  10       14.282475     14.282446
  11       14.926364     14.926368
  12       17.859011     17.858957
  13       17.859014     17.858960
  14       18.330389     18.330349
  15       23.143063     23.143016
  16       27.015268     27.015286
  17       27.015282     27.015300
  18       28.430648     28.430638
  19       29.142490     29.142505
  20       30.024205     30.024225
  21       33.115081     33.115100
  22       33.263329     33.263355
  23       33.263354     33.263380
  24       37.544829     37.544810
  25       37.544865     37.544846
  26       38.164305     38.164284
  27       39.506156     39.506152
  28       39.506198     39.506194
  29       39.675413     39.675414
  30       41.636426     41.636441
  31       43.194156     43.194154
  32       44.535986     44.536120
 
  0.2500000E+00  0.1250000E+00  0.0000000E+00  0.4687500E-01
   1       -7.126474     -7.126472
   2        1.647368      1.647398
   3        3.761231      3.761262
   4        3.850299      3.850334
   5        7.964035      7.963995
   6        9.575866      9.575830
   7       10.437243     10.437213
   8       10.729955     10.729927
   9       13.510734     13.510739
  10       14.422782     14.422753
  11       15.997879     15.997862
  12       17.640720     17.640690
  13       19.371579     19.371527
  14       20.637938     20.637892
  15       23.934778     23.934785
  16       24.390887     24.390899
  17       25.359948     25.359903
  18       27.921857     27.921875
  19       28.115642     28.115642
  20       29.467533     29.467551
  21       32.819597     32.819606
  22       33.678227     33.678251
  23       34.824539     34.824561
  24       36.154285     36.154293
  25       37.710738     37.710728
  26       38.129149     38.129125
  27       38.294296     38.294305
  28       39.244984     39.244974
  29       39.849383     39.849372
  30       40.578240     40.578211
  31       41.908464     41.908398
  32       42.104457     42.104413
 
  0.3750000E+00  0.1250000E+00  0.0000000E+00  0.4687500E-01
   1       -6.248875     -6.248869
   2       -0.605951     -0.605938
   3        3.216095      3.216120
   4        3.459080      3.459108
   5        8.051195      8.051167
   6        9.540268      9.540232
   7       10.460745     10.460706
   8       11.481842     11.481817
   9       15.438637     15.438597
  10       15.585804     15.585784
  11       15.975141     15.975156
  12       19.543350     19.543341
  13       19.808262     19.808236
  14       21.534077     21.534071
  15       22.837623     22.837603
  16       23.953767     23.953748
  17       24.896663     24.896657
  18       28.457341     28.457345
  19       28.804367     28.804340
  20       29.841717     29.841726
  21       31.014298     31.014297
  22       32.134499     32.134506
  23       34.008793     34.008815
  24       35.239619     35.239630
  25       36.301570     36.301541
  26       36.501127     36.501125
  27       36.887571     36.887564
  28       37.936505     37.936508
  29       39.075335     39.075312
  30       39.494730     39.494709
  31       41.048312     41.048266
  32       42.083255     42.083155
 
  0.5000000E+00  0.1250000E+00  0.0000000E+00  0.4687500E-01
   1       -5.327564     -5.327552
   2       -2.197267     -2.197265
   3        2.732812      2.732831
   4        3.473254      3.473284
   5        7.989952      7.989925
   6        9.410937      9.410907
   7       10.094432     10.094385
   8       13.465091     13.465060
   9       15.071641     15.071611
  10       16.808798     16.808785
  11       17.660437     17.660442
  12       17.943330     17.943311
  13       18.689564     18.689567
  14       21.332807     21.332804
  15       24.581951     24.581956
  16       25.949351     25.949320
  17       26.524060     26.524054
  18       27.497102     27.497084
  19       28.496322     28.496321
  20       28.723981     28.723963
  21       30.964267     30.964285
  22       32.073586     32.073550
  23       32.538501     32.538498
  24       34.034605     34.034621
  25       34.461688     34.461697
  26       35.566230     35.566208
  27       36.093785     36.093770
  28       36.485930     36.485926
  29       39.028646     39.028628
  30       39.521939     39.521918
  31       39.956479     39.956438
  32       41.202816     41.202809
 
 -0.3750000E+00  0.1250000E+00  0.0000000E+00  0.4687500E-01
   1       -5.587834     -5.587824
   2       -1.796545     -1.796540
   3        2.542004      2.542020
   4        3.785729      3.785766
   5        8.153388      8.153361
   6        9.529419      9.529393
   7        9.858988      9.858934
   8       13.982023     13.981989
   9       14.295359     14.295341
  10       15.310833     15.310816
  11       17.334924     17.334911
  12       18.700361     18.700365
  13       20.682686     20.682670
  14       20.875792     20.875792
  15       23.115216     23.115212
  16       24.890215     24.890195
  17       26.970158     26.970133
  18       28.465347     28.465358
  19       28.773444     28.773436
  20       29.125115     29.125109
  21       30.960840     30.960841
  22       31.116214     31.116182
  23       33.583828     33.583824
  24       33.940148     33.940165
  25       34.274930     34.274947
  26       35.320290     35.320274
  27       36.428583     36.428564
  28       37.421290     37.421280
  29       39.634708     39.634662
  30       39.764441     39.764420
  31       39.812879     39.812796
  32       41.109871     41.109874
 
 -0.2500000E+00  0.1250000E+00  0.0000000E+00  0.4687500E-01
   1       -6.578708     -6.578704
   2        0.114336      0.114354
   3        2.720838      2.720851
   4        4.310784      4.310832
   5        8.525626      8.525597
   6        9.652492      9.652431
   7        9.761613      9.761596
   8       12.287283     12.287261
   9       12.600063     12.600040
  10       15.844327     15.844305
  11       16.291519     16.291509
  12       18.542231     18.542209
  13       20.315683     20.315660
  14       21.532958     21.532950
  15       22.884795     22.884750
  16       24.404926     24.404925
  17       25.095028     25.095033
  18       27.685324     27.685299
  19       28.468510     28.468518
  20       29.453029     29.453038
  21       32.564749     32.564769
  22       33.071471     33.071480
  23       33.690601     33.690609
  24       35.642443     35.642432
  25       36.073849     36.073846
  26       37.248002     37.247998
  27       37.310392     37.310383
  28       38.443194     38.443201
  29       39.453469     39.453435
  30       40.572868     40.572849
  31       40.856850     40.856815
  32       43.395394     43.396292
 
 -0.1250000E+00  0.1250000E+00  0.0000000E+00  0.2343750E-01
   1       -7.343490     -7.343488
   2        2.235248      2.235283
   3        3.471615      3.471634
   4        4.819139      4.819201
   5        8.888187      8.888141
   6        9.056287      9.056221
   7        9.187333      9.187329
   8       11.461770     11.461754
   9       12.468177     12.468146
  10       14.181240     14.181224
  11       15.691624     15.691619
  12       17.291192     17.291152
  13       18.518842     18.518792
  14       20.747925     20.747880
  15       24.050176     24.050184
  16       24.140387     24.140337
  17       27.244451     27.244479
  18       27.600265     27.600276
  19       28.220355     28.220359
  20       29.660038     29.660043
  21       32.979358     32.979379
  22       33.232538     33.232560
  23       35.360330     35.360366
  24       36.750796     36.750803
  25       37.098810     37.098783
  26       38.333766     38.333755
  27       38.565477     38.565451
  28       40.026889     40.026934
  29       40.219759     40.219676
  30       40.753504     40.753481
  31       42.121301     42.121291
  32       42.265007     42.265080
 
  0.2500000E+00  0.2500000E+00  0.0000000E+00  0.1171875E-01
   1       -6.758768     -6.758765
   2        1.284177      1.284217
   3        3.144529      3.144549
   4        3.144536      3.144556
   5        6.920425      6.920374
   6        9.046254      9.046208
   7       11.795643     11.795625
   8       11.795654     11.795637
   9       14.025576     14.025594
  10       15.217358     15.217331
  11       17.394703     17.394701
  12       19.247429     19.247372
  13       19.247433     19.247376
  14       19.837405     19.837368
  15       23.676148     23.676169
  16       23.676160     23.676181
  17       24.863262     24.863246
  18       26.685479     26.685493
  19       27.201419     27.201368
  20       31.276392     31.276417
  21       32.892044     32.892035
  22       33.782635     33.782652
  23       33.782670     33.782688
  24       35.637441     35.637428
  25       35.637455     35.637438
  26       36.144290     36.144317
  27       36.486067     36.486077
  28       41.215094     41.215062
  29       41.259259     41.259232
  30       41.827163     41.827189
  31       41.827427     41.827239
  32       43.442217     43.439932
 
  0.3750000E+00  0.2500000E+00  0.0000000E+00  0.4687500E-01
   1       -5.992180     -5.992174
   2       -0.277082     -0.277053
   3        2.330100      2.330107
   4        2.792188      2.792205
   5        7.147156      7.147113
   6        8.792741      8.792701
   7       12.008133     12.008124
   8       12.353147     12.353125
   9       16.270168     16.270182
  10       16.287877     16.287857
  11       17.771657     17.771629
  12       19.630391     19.630357
  13       19.834184     19.834163
  14       21.147201     21.147197
  15       22.031152     22.031135
  16       23.214656     23.214638
  17       24.829354     24.829354
  18       26.227531     26.227545
  19       28.393460     28.393434
  20       30.404683     30.404665
  21       31.433990     31.433987
  22       32.681461     32.681452
  23       32.840643     32.840651
  24       33.556312     33.556314
  25       35.150860     35.150869
  26       35.614017     35.614021
  27       36.774831     36.774837
  28       39.487920     39.487912
  29       39.641764     39.641741
  30       41.452770     41.452323
  31       42.804605     42.798487
  32       43.117772     43.094697
 
  0.5000000E+00  0.2500000E+00  0.0000000E+00  0.4687500E-01
   1       -4.995639     -4.995627
   2       -1.842641     -1.842625
   3        1.405027      1.405025
   4        2.788583      2.788601
   5        7.345156      7.345111
   6       10.405742     10.405726
   7       11.722456     11.722443
   8       12.001558     12.001525
   9       16.375271     16.375244
  10       16.839836     16.839824
  11       18.519110     18.519094
  12       18.869045     18.869049
  13       19.104729     19.104725
  14       23.058102     23.058104
  15       24.129512     24.129475
  16       25.024252     25.024259
  17       25.626163     25.626169
  18       25.854415     25.854391
  19       26.253178     26.253163
  20       29.075085     29.075085
  21       30.234148     30.234139
  22       31.436431     31.436413
  23       31.785539     31.785532
  24       33.851917     33.851894
  25       35.377988     35.377988
  26       35.578263     35.578254
  27       35.613877     35.613878
  28       37.255114     37.255117
  29       38.211558     38.211505
  30       40.446951     40.446940
  31       41.555061     41.554910
  32       42.321139     42.320811
 
 -0.3750000E+00  0.2500000E+00  0.0000000E+00  0.4687500E-01
   1       -4.779373     -4.779359
   2       -2.118466     -2.118453
   3        0.911816      0.911809
   4        3.128967      3.128990
   5        7.684772      7.684727
   6       11.415386     11.415398
   7       11.550955     11.550910
   8       13.044027     13.044000
   9       14.097858     14.097833
  10       14.170087     14.170076
  11       18.640374     18.640355
  12       21.283087     21.283074
  13       21.299599     21.299602
  14       22.351918     22.351906
  15       22.734742     22.734749
  16       24.916638     24.916626
  17       25.800890     25.800900
  18       26.286099     26.286093
  19       28.189693     28.189680
  20       28.309996     28.309978
  21       30.949556     30.949547
  22       31.517434     31.517421
  23       31.952911     31.952889
  24       32.503585     32.503576
  25       34.007613     34.007582
  26       34.912129     34.912124
  27       35.641119     35.641132
  28       36.217020     36.217006
  29       39.464335     39.464246
  30       40.283190     40.283192
  31       41.882365     41.882293
  32       42.207824     42.207378
 
 -0.2500000E+00  0.2500000E+00  0.0000000E+00  0.2343750E-01
   1       -5.722980     -5.722971
   2       -0.858671     -0.858649
   3        1.184840      1.184831
   4        3.725883      3.725917
   5        8.309833      8.309788
   6       10.827629     10.827570
   7       11.061466     11.061493
   8       12.127457     12.127420
   9       12.561596     12.561586
  10       15.819335     15.819301
  11       18.729731     18.729709
  12       19.502539     19.502541
  13       19.526948     19.526945
  14       22.838135     22.838110
  15       23.636497     23.636469
  16       23.815606     23.815616
  17       25.131594     25.131591
  18       27.768498     27.768505
  19       27.854361     27.854362
  20       30.277253     30.277263
  21       30.667760     30.667731
  22       31.695714     31.695693
  23       33.050759     33.050742
  24       33.186595     33.186589
  25       34.148541     34.148547
  26       35.537149     35.537147
  27       36.636429     36.636419
  28       37.299907     37.299892
  29       40.566682     40.566686
  30       40.595816     40.595849
  31       42.140812     42.140635
  32       43.473860     43.454352
 
  0.3750000E+00  0.3750000E+00  0.0000000E+00  0.1171875E-01
   1       -5.338666     -5.338658
   2       -1.172214     -1.172187
   3        2.356065      2.356077
   4        2.356072      2.356083
   5        6.390236      6.390189
   6        7.389343      7.389296
   7       14.203935     14.203921
   8       14.203949     14.203934
   9       16.764663     16.764685
  10       16.769858     16.769833
  11       19.439358     19.439340
  12       19.439370     19.439352
  13       19.690913     19.690917
  14       21.641019     21.640999
  15       22.110170     22.110136
  16       22.874795     22.874784
  17       22.874797     22.874786
  18       25.078462     25.078469
  19       29.657660     29.657637
  20       30.249099     30.249063
  21       30.308847     30.308827
  22       30.308856     30.308836
  23       31.535898     31.535908
  24       33.973912     33.973931
  25       35.012681     35.012697
  26       35.372055     35.372068
  27       35.372092     35.372105
  28       41.145334     41.145302
  29       41.145355     41.145323
  30       41.259031     41.259019
  31       42.073883     42.073878
  32       42.614952     42.614951
 
  0.5000000E+00  0.3750000E+00  0.0000000E+00  0.4687500E-01
   1       -4.367207     -4.367194
   2       -2.362115     -2.362093
   3        1.507657      1.507655
   4        2.270255      2.270266
   5        6.694348      6.694302
   6        7.801748      7.801714
   7       14.450592     14.450564
   8       14.483207     14.483197
   9       16.985090     16.985081
  10       17.119023     17.119019
  11       18.713162     18.713147
  12       19.023967     19.023985
  13       21.127569     21.127587
  14       21.403868     21.403851
  15       22.091967     22.091938
  16       24.789307     24.789286
  17       25.063842     25.063827
  18       25.586308     25.586284
  19       26.969979     26.969969
  20       28.482123     28.482099
  21       28.902715     28.902693
  22       29.870174     29.870190
  23       30.496731     30.496703
  24       32.413309     32.413317
  25       35.724939     35.724955
  26       36.269035     36.269026
  27       38.183094     38.183103
  28       38.911420     38.911417
  29       39.198841     39.198829
  30       40.555755     40.555746
  31       41.880906     41.880955
  32       42.862927     42.864222
 
 -0.3750000E+00  0.3750000E+00  0.0000000E+00  0.2343750E-01
   1       -3.902628     -3.902609
   2       -2.787551     -2.787533
   3        0.595800      0.595784
   4        2.548555      2.548570
   5        7.020405      7.020359
   6       10.068994     10.068976
   7       13.628760     13.628708
   8       14.114088     14.114108
   9       14.316579     14.316540
  10       14.718628     14.718636
  11       20.865099     20.865099
  12       21.413357     21.413350
  13       21.888971     21.888955
  14       21.956938     21.956933
  15       21.974307     21.974283
  16       23.406927     23.406941
  17       26.145125     26.145144
  18       26.148661     26.148643
  19       27.694893     27.694878
  20       27.748953     27.748922
  21       28.924696     28.924675
  22       29.466537     29.466513
  23       31.413607     31.413586
  24       32.040834     32.040837
  25       35.166463     35.166448
  26       35.795867     35.795863
  27       35.803665     35.803682
  28       37.265421     37.265390
  29       40.748950     40.748940
  30       41.019748     41.019728
  31       41.064458     41.064469
  32       41.373871     41.373823
 
  0.5000000E+00  0.5000000E+00  0.0000000E+00  0.5859375E-02
   1       -3.437421     -3.437405
   2       -3.437420     -3.437404
   3        2.084963      2.084973
   4        2.084970      2.084980
   5        6.506281      6.506235
   6        6.506299      6.506253
   7       16.328402     16.328350
   8       16.328418     16.328366
   9       17.344619     17.344657
  10       17.344626     17.344663
  11       18.915881     18.915859
  12       18.915882     18.915859
  13       19.134735     19.134752
  14       19.134751     19.134769
  15       25.132622     25.132596
  16       25.132676     25.132650
  17       25.804288     25.804263
  18       25.804291     25.804265
  19       26.413251     26.413226
  20       26.413253     26.413227
  21       27.519003     27.518995
  22       27.519035     27.519027
  23       32.273994     32.273997
  24       32.274244     32.274247
  25       35.861542     35.861560
  26       35.861590     35.861608
  27       40.201168     40.201140
  28       40.201177     40.201149
  29       40.264588     40.264598
  30       40.264705     40.264715
  31       42.208366     42.208364
  32       42.208370     42.208366
 
  0.3750000E+00  0.2500000E+00  0.1250000E+00  0.4687500E-01
   1       -6.492438     -6.492433
   2        0.449530      0.449560
   3        2.301716      2.301720
   4        3.638835      3.638866
   5        8.284187      8.284153
   6        9.801347      9.801306
   7       10.156062     10.156037
   8       11.518373     11.518357
   9       13.905202     13.905187
  10       16.449499     16.449500
  11       17.145968     17.145944
  12       18.254614     18.254575
  13       20.165925     20.165895
  14       21.165788     21.165790
  15       22.274313     22.274271
  16       24.422035     24.422050
  17       25.766239     25.766237
  18       26.916844     26.916811
  19       28.221706     28.221718
  20       29.474527     29.474534
  21       31.717143     31.717143
  22       32.452761     32.452770
  23       34.138981     34.138977
  24       35.260416     35.260419
  25       35.993900     35.993908
  26       37.767209     37.767232
  27       37.919973     37.919955
  28       38.194576     38.194569
  29       40.054133     40.054105
  30       40.214705     40.214674
  31       41.748638     41.747795
  32       41.813085     41.810682
 
  0.5000000E+00  0.2500000E+00  0.1250000E+00  0.9375000E-01
   1       -5.535463     -5.535454
   2       -1.242139     -1.242122
   3        1.631370      1.631372
   4        3.109765      3.109784
   5        8.741410      8.741380
   6        9.453010      9.452981
   7       11.009542     11.009510
   8       11.981351     11.981337
   9       15.199728     15.199714
  10       15.906965     15.906935
  11       18.107584     18.107567
  12       19.224591     19.224593
  13       20.461053     20.461048
  14       21.363567     21.363557
  15       23.495154     23.495129
  16       24.643467     24.643471
  17       25.490545     25.490525
  18       27.228889     27.228885
  19       28.292723     28.292716
  20       29.079381     29.079388
  21       30.719036     30.719039
  22       31.780938     31.780919
  23       32.092258     32.092242
  24       33.473332     33.473326
  25       35.031816     35.031800
  26       35.776531     35.776519
  27       37.415602     37.415586
  28       37.656820     37.656830
  29       38.702381     38.702391
  30       39.371867     39.371773
  31       41.015769     41.015626
  32       42.066444     42.059598
 
 -0.3750000E+00  0.2500000E+00  0.1250000E+00  0.4687500E-01
   1       -4.838541     -4.838526
   2       -2.260834     -2.260826
   3        1.482586      1.482589
   4        2.865343      2.865359
   5        8.917858      8.917832
   6        9.033933      9.033901
   7       11.954859     11.954838
   8       13.208244     13.208239
   9       13.503334     13.503293
  10       16.811281     16.811257
  11       17.893079     17.893073
  12       18.524921     18.524913
  13       21.832541     21.832534
  14       21.937605     21.937614
  15       24.377187     24.377183
  16       24.752192     24.752173
  17       25.818872     25.818866
  18       27.169680     27.169651
  19       27.376523     27.376523
  20       28.484718     28.484725
  21       31.157156     31.157150
  22       31.507532     31.507513
  23       31.583867     31.583850
  24       32.560081     32.560088
  25       34.507595     34.507557
  26       35.740230     35.740217
  27       36.062334     36.062326
  28       37.156356     37.156329
  29       38.163367     38.163387
  30       38.600447     38.600447
  31       40.719895     40.719909
  32       41.614208     41.615247
 
  0.5000000E+00  0.3750000E+00  0.1250000E+00  0.4687500E-01
   1       -5.125964     -5.125954
   2       -1.412501     -1.412475
   3        1.591513      1.591511
   4        2.230567      2.230573
   5        7.762407      7.762374
   6        8.525800      8.525764
   7       11.774969     11.774948
   8       14.152007     14.151994
   9       16.392959     16.392952
  10       16.446776     16.446759
  11       19.164598     19.164589
  12       19.690405     19.690389
  13       20.343333     20.343333
  14       20.794331     20.794323
  15       22.828828     22.828811
  16       23.492900     23.492882
  17       25.737569     25.737547
  18       26.334666     26.334676
  19       28.048342     28.048328
  20       28.335269     28.335253
  21       29.615225     29.615216
  22       30.832461     30.832461
  23       32.509442     32.509435
  24       33.729950     33.729937
  25       34.230461     34.230449
  26       35.409738     35.409728
  27       38.094920     38.094940
  28       38.848789     38.848779
  29       38.971250     38.971238
  30       39.488639     39.488649
  31       40.026283     40.026268
  32       43.598563     43.597276
 
 -0.3750000E+00  0.3750000E+00  0.1250000E+00  0.9375000E-01
   1       -4.184591     -4.184574
   2       -2.467722     -2.467702
   3        0.850735      0.850724
   4        2.020504      2.020506
   5        8.236440      8.236408