 running on   16 total cores
 distrk:  each k-point on   16 cores,    1 groups
 distr:  one band on    1 cores,   16 groups
 using from now: INCAR     
 vasp.5.3.3 18Dez12 (build Jan 30 2013 10:57:47) complex                        
  
 POSCAR found type information on POSCAR  Si
 POSCAR found :  1 types and       2 ions

 ----------------------------------------------------------------------------- 
|                                                                             |
|           W    W    AA    RRRRR   N    N  II  N    N   GGGG   !!!           |
|           W    W   A  A   R    R  NN   N  II  NN   N  G    G  !!!           |
|           W    W  A    A  R    R  N N  N  II  N N  N  G       !!!           |
|           W WW W  AAAAAA  RRRRR   N  N N  II  N  N N  G  GGG   !            |
|           WW  WW  A    A  R   R   N   NN  II  N   NN  G    G                |
|           W    W  A    A  R    R  N    N  II  N    N   GGGG   !!!           |
|                                                                             |
|      For optimal performance we recommend that you set                      |
|        NPAR = 4 - approx SQRT( number of cores)                             |
|      (number of cores/NPAR must be integer)                                 |
|      This setting will greatly improve the performance of VASP for DFT.     |
|      The default NPAR=number of cores might be grossly inefficient          |
|      on modern multi-core architectures or massively parallel machines.     |
|      Do your own testing.                                                   |
|      Unfortunately you need to use the default for hybrid, GW and RPA       |
|      calculations.                                                          |
|                                                                             |
 ----------------------------------------------------------------------------- 


 ----------------------------------------------------------------------------- 
|                                                                             |
|           W    W    AA    RRRRR   N    N  II  N    N   GGGG   !!!           |
|           W    W   A  A   R    R  NN   N  II  NN   N  G    G  !!!           |
|           W    W  A    A  R    R  N N  N  II  N N  N  G       !!!           |
|           W WW W  AAAAAA  RRRRR   N  N N  II  N  N N  G  GGG   !            |
|           WW  WW  A    A  R   R   N   NN  II  N   NN  G    G                |
|           W    W  A    A  R    R  N    N  II  N    N   GGGG   !!!           |
|                                                                             |
|  Use PRECFOCK to select the mode for HF type calculations                   |
|      PRECFOCK= L low     (coarse grid for HF, normal augmentation charge)   |
|      PRECFOCK= M medium  (normal grid for HF, normal augmentation charge)   |
|      PRECFOCK= F fast    (coarse grid for HF, soft augmentation charge)     |
|      PRECFOCK= N normal  (PREC=N grid for HF, soft augmentation charge)     |
|      PRECFOCK= A accurate (PREC=A grid for HF, soft augmentation charge)    |
|                                                                             |
| L  is equivalent to ENCUTFOCK=0 in vasp.5.2.2                               |
| M  is equivalent to vasp.5.2.2 if ENCUTFOCK is not set                      |
| M&L cause significant noise in the forces and are no longer recommended     |
|                                                                             |
| N  is recommended for routine calculations, little noise to be expected     |
| A  accurate is now recommended for very accurate calculations               |
| F  fast is now recommended for quick calculations (even phonons often ok)   |
|    (speedup between 2 and 4)                                                |
|                                                                             |
 ----------------------------------------------------------------------------- 

 LDA part: xc-table for Pade appr. of Perdew

 ----------------------------------------------------------------------------- 
|                                                                             |
|           W    W    AA    RRRRR   N    N  II  N    N   GGGG   !!!           |
|           W    W   A  A   R    R  NN   N  II  NN   N  G    G  !!!           |
|           W    W  A    A  R    R  N N  N  II  N N  N  G       !!!           |
|           W WW W  AAAAAA  RRRRR   N  N N  II  N  N N  G  GGG   !            |
|           WW  WW  A    A  R   R   N   NN  II  N   NN  G    G                |
|           W    W  A    A  R    R  N    N  II  N    N   GGGG   !!!           |
|                                                                             |
|      Your generating k-point grid is not commensurate to the symmetry       |
|      of the lattice.  This can cause   slow convergence with respect        |
|      to k-points for HF type calculations                                   |
|      suggested SOLUTIONS:                                                   |
|       ) if not already the case, use automatic k-point generation           |
|       ) shift your grid to Gamma (G) (e.g. required for hex or fcc lattice) |
|                                                                             |
 ----------------------------------------------------------------------------- 

 POSCAR, INCAR and KPOINTS ok, starting setup
 WARNING: small aliasing (wrap around) errors must be expected
 FFT: planning ...
 WAVECAR not read
 WARNING: random wavefunctions but no delay for mixing, default for NELMDL
 entering main loop
       N       E                     dE             d eps       ncg     rms          ort
DAV:   1     0.562615434831E+02    0.56262E+02   -0.84355E+03  6176   0.159E+02
DAV:   2    -0.194977294014E+00   -0.56457E+02   -0.54634E+02  6176   0.591E+01
DAV:   3    -0.136049032258E+01   -0.11655E+01   -0.11641E+01  6176   0.802E+00
DAV:   4    -0.136167993111E+01   -0.11896E-02   -0.11900E-02  6176   0.301E-01
DAV:   5    -0.136168084331E+01   -0.91221E-06   -0.93399E-06  6176   0.830E-03
         N     E                     dE            rms(c)
   ROT:  1  -0.125754979876E+02   -0.12575E+02    0.862E+00
   ROT:  2  -0.126676325028E+02   -0.92135E-01    0.489E+00
   ROT:  3  -0.125702348222E+02    0.97398E-01    0.221E+00
   ROT:  4  -0.125827598856E+02   -0.12525E-01    0.348E-01
 gam= 0.000 g(H,U,f)=  0.459E-02 0.102E+00 0.150E+00 ort(H,U,f) = 0.000E+00 0.000E+00 0.000E+00
SDA:   6    -0.125085643712E+02   -0.11147E+02   -0.93399E-06  6176   0.257E+00 0.000E+00
 gam= 0.000 trial= 0.400  step= 0.342 mean= 0.400
         N     E                     dE            rms(c)
   ROT:  1  -0.125871265076E+02   -0.16892E-01    0.187E-01
   ROT:  2  -0.125871672104E+02   -0.40703E-04    0.111E-01
   ROT:  3  -0.125871730448E+02   -0.58344E-05    0.403E-02
   ROT:  4  -0.125872190712E+02   -0.46026E-04    0.555E-03
 gam= 0.109 g(H,U,f)=  0.295E-02 0.240E-01 0.992E-03 ort(H,U,f) = 0.365E-02 0.417E-01 0.202E-02
CGA:   7    -0.125487348883E+02   -0.40171E-01   -0.43930E-01  6176   0.279E-01 0.474E-01
 gam= 0.109 trial= 0.397  step= 0.519 mean= 0.397
         N     E                     dE            rms(c)
   ROT:  1  -0.125897057454E+02   -0.25327E-02    0.266E-01
   ROT:  2  -0.125897184401E+02   -0.12695E-04    0.160E-01
   ROT:  3  -0.125897224003E+02   -0.39602E-05    0.372E-02
   ROT:  4  -0.125897262112E+02   -0.38109E-05    0.206E-03
 gam= 0.040 g(H,U,f)=  0.909E-03 0.215E-03 0.374E-08 ort(H,U,f) = 0.184E-02 0.199E-02-0.136E-07
CGA:   8    -0.125576500704E+02   -0.89152E-02   -0.85771E-02  6176   0.112E-02 0.383E-02
 gam= 0.040 trial= 0.403  step= 0.825 mean= 0.403
         N     E                     dE            rms(c)
   ROT:  1  -0.125901929002E+02   -0.47050E-03    0.219E-01
   ROT:  2  -0.125901983473E+02   -0.54471E-05    0.131E-01
   ROT:  3  -0.125902002384E+02   -0.18911E-05    0.290E-02
   ROT:  4  -0.125902015701E+02   -0.13318E-05    0.130E-03
 gam= 0.119 g(H,U,f)=  0.588E-04 0.747E-04 0.415E-09 ort(H,U,f) = 0.169E-03-0.171E-03-0.329E-09
CGA:   9    -0.125581763065E+02   -0.52624E-03   -0.52683E-03  6176   0.134E-03-0.186E-05
 gam= 0.119 trial= 0.424  step= 0.871 mean= 0.424
         N     E                     dE            rms(c)
   ROT:  1  -0.125902282178E+02   -0.27979E-04    0.954E-02
   ROT:  2  -0.125902284041E+02   -0.18632E-06    0.571E-02
   ROT:  3  -0.125902284713E+02   -0.67196E-07    0.108E-02
 gam= 0.097 g(H,U,f)=  0.108E-04 0.213E-05 0.943E-10 ort(H,U,f) = 0.224E-05 0.133E-05-0.177E-09
CGA:  10    -0.125582351988E+02   -0.58892E-04   -0.58081E-04  6176   0.129E-04 0.356E-05
 gam= 0.097 trial= 0.447  step= 0.858 mean= 0.447
         N     E                     dE            rms(c)
   ROT:  1  -0.125902290069E+02   -0.60276E-06    0.191E-02
   ROT:  2  -0.125902293081E+02   -0.30122E-06    0.114E-02
   ROT:  3  -0.125902293848E+02   -0.76694E-07    0.551E-03
 gam= 0.163 g(H,U,f)=  0.111E-05 0.995E-06 0.568E-11 ort(H,U,f) = 0.150E-05-0.154E-05-0.144E-10
CGA:  11    -0.125582408725E+02   -0.56737E-05   -0.56876E-05  6176   0.211E-05-0.400E-07
 gam= 0.163 trial= 0.467  step= 1.734 mean= 0.467
         N     E                     dE            rms(c)
   ROT:  1  -0.125902323585E+02   -0.30504E-05    0.195E-02
   ROT:  2  -0.125902325199E+02   -0.16141E-06    0.117E-02
   ROT:  3  -0.125902325902E+02   -0.70283E-07    0.610E-03
 gam= 0.000 g(H,U,f)=  0.114E-05 0.893E-06 0.445E-11 ort(H,U,f) =-0.962E-06-0.759E-06-0.302E-11
CGA:  12    -0.125582416344E+02   -0.76191E-06   -0.18213E-05  6176   0.204E-05-0.172E-05
 gam= 0.000 trial= 0.531  step= 0.640 mean= 0.531
   1 F= -.12558242E+02 E0= -.12558242E+02  d E =-.985538E-07  mag=     0.0000
 writing wavefunctions
 optical routines
 imaginary and real dielectric function
 recalculating local potential from charge density
 direction            1
 direction            2
 direction            3
