Y3Al5O12-garnet                         
           1
     3.364150    0.000000    1.942293
     1.121383    3.171752    1.942293
     0.000000    0.000000    3.884586
   Si
   2
Direct configuration=     1
   0.87500000  0.87500000  0.87500000
   0.12500000  0.12500000  0.12500000
