   2   2   0   0
  0.2072484E+02  0.3884592E-09  0.3884592E-09  0.3884592E-09  0.5000000E-15
   1.0000000000000000E-004
  CAR 
 unknown system                          
     30.16620163     -8.19187576  301      5.81327285      1.00000000
     -8.192  0.0000E+00  0.0000E+00
     -8.064  0.0000E+00  0.0000E+00
     -7.936  0.0000E+00  0.0000E+00
     -7.808  0.0000E+00  0.0000E+00
     -7.680  0.0000E+00  0.0000E+00
     -7.553  0.0000E+00  0.0000E+00
     -7.425  0.0000E+00  0.0000E+00
     -7.297  0.1570E-16  0.2007E-17
     -7.169  0.1671E-13  0.2138E-14
     -7.041  0.7918E-11  0.1014E-11
     -6.913  0.1733E-08  0.2226E-09
     -6.785  0.1770E-06  0.2285E-07
     -6.658  0.8564E-05  0.1118E-05
     -6.530  0.2007E-03  0.2678E-04
     -6.402  0.2352E-02  0.3275E-03
     -6.274  0.1443E-01  0.2173E-02
     -6.146  0.4981E-01  0.8541E-02
     -6.018  0.1076E+00  0.2230E-01
     -5.890  0.1677E+00  0.4374E-01
     -5.763  0.2171E+00  0.7149E-01
     -5.635  0.2576E+00  0.1044E+00
     -5.507  0.2932E+00  0.1419E+00
     -5.379  0.3258E+00  0.1836E+00
     -5.251  0.3578E+00  0.2293E+00
     -5.123  0.3865E+00  0.2787E+00
     -4.995  0.4189E+00  0.3323E+00
     -4.868  0.4471E+00  0.3895E+00
     -4.740  0.4775E+00  0.4505E+00
     -4.612  0.5148E+00  0.5163E+00
     -4.484  0.5432E+00  0.5858E+00
     -4.356  0.5866E+00  0.6608E+00
     -4.228  0.6405E+00  0.7427E+00
     -4.100  0.6948E+00  0.8315E+00
     -3.972  0.7827E+00  0.9316E+00
     -3.845  0.8501E+00  0.1040E+01
     -3.717  0.8491E+00  0.1149E+01
     -3.589  0.8321E+00  0.1255E+01
     -3.461  0.7878E+00  0.1356E+01
     -3.333  0.7315E+00  0.1450E+01
     -3.205  0.6948E+00  0.1538E+01
     -3.077  0.6438E+00  0.1621E+01
     -2.950  0.5884E+00  0.1696E+01
     -2.822  0.5478E+00  0.1766E+01
     -2.694  0.4844E+00  0.1828E+01
     -2.566  0.4256E+00  0.1882E+01
     -2.438  0.3669E+00  0.1929E+01
     -2.310  0.2716E+00  0.1964E+01
     -2.182  0.1954E+00  0.1989E+01
     -2.055  0.1525E+00  0.2008E+01
     -1.927  0.1545E+00  0.2028E+01
     -1.799  0.2305E+00  0.2058E+01
     -1.671  0.3229E+00  0.2099E+01
     -1.543  0.3951E+00  0.2149E+01
     -1.415  0.5354E+00  0.2218E+01
     -1.287  0.7815E+00  0.2318E+01
     -1.160  0.1062E+01  0.2454E+01
     -1.032  0.1201E+01  0.2607E+01
     -0.904  0.1080E+01  0.2745E+01
     -0.776  0.8654E+00  0.2856E+01
     -0.648  0.7371E+00  0.2950E+01
     -0.520  0.6570E+00  0.3034E+01
     -0.392  0.5749E+00  0.3108E+01
     -0.265  0.5286E+00  0.3175E+01
     -0.137  0.4951E+00  0.3239E+01
     -0.009  0.4445E+00  0.3295E+01
      0.119  0.4063E+00  0.3347E+01
      0.247  0.3912E+00  0.3397E+01
      0.375  0.3660E+00  0.3444E+01
      0.503  0.3195E+00  0.3485E+01
      0.630  0.3045E+00  0.3524E+01
      0.758  0.3018E+00  0.3563E+01
      0.886  0.2744E+00  0.3598E+01
      1.014  0.2449E+00  0.3629E+01
      1.142  0.2671E+00  0.3663E+01
      1.270  0.3922E+00  0.3713E+01
      1.398  0.6357E+00  0.3795E+01
      1.526  0.9077E+00  0.3911E+01
      1.653  0.1095E+01  0.4051E+01
      1.781  0.1143E+01  0.4197E+01
      1.909  0.1114E+01  0.4339E+01
      2.037  0.1101E+01  0.4480E+01
      2.165  0.1070E+01  0.4617E+01
      2.293  0.1081E+01  0.4755E+01
      2.421  0.1165E+01  0.4904E+01
      2.548  0.1258E+01  0.5065E+01
      2.676  0.1365E+01  0.5239E+01
      2.804  0.1431E+01  0.5422E+01
      2.932  0.1487E+01  0.5612E+01
      3.060  0.1560E+01  0.5812E+01
      3.188  0.1515E+01  0.6005E+01
      3.316  0.1434E+01  0.6189E+01
      3.443  0.1411E+01  0.6369E+01
      3.571  0.1373E+01  0.6545E+01
      3.699  0.1348E+01  0.6717E+01
      3.827  0.1321E+01  0.6886E+01
      3.955  0.1279E+01  0.7049E+01
      4.083  0.1238E+01  0.7208E+01
      4.211  0.1174E+01  0.7358E+01
      4.338  0.1064E+01  0.7494E+01
      4.466  0.9050E+00  0.7610E+01
      4.594  0.7392E+00  0.7704E+01
      4.722  0.6013E+00  0.7781E+01
      4.850  0.4817E+00  0.7843E+01
      4.978  0.3863E+00  0.7892E+01
      5.106  0.3190E+00  0.7933E+01
      5.233  0.2481E+00  0.7965E+01
      5.361  0.1599E+00  0.7985E+01
      5.489  0.8045E-01  0.7995E+01
      5.617  0.2885E-01  0.7999E+01
      5.745  0.6413E-02  0.8000E+01
      5.873  0.1406E-02  0.8000E+01
      6.001  0.5736E-02  0.8001E+01
      6.128  0.2857E-01  0.8004E+01
      6.256  0.8743E-01  0.8016E+01
      6.384  0.1811E+00  0.8039E+01
      6.512  0.2895E+00  0.8076E+01
      6.640  0.3969E+00  0.8127E+01
      6.768  0.4769E+00  0.8188E+01
      6.896  0.5316E+00  0.8256E+01
      7.023  0.6171E+00  0.8334E+01
      7.151  0.7633E+00  0.8432E+01
      7.279  0.9304E+00  0.8551E+01
      7.407  0.1057E+01  0.8686E+01
      7.535  0.1204E+01  0.8840E+01
      7.663  0.1383E+01  0.9017E+01
      7.791  0.1483E+01  0.9206E+01
      7.919  0.1535E+01  0.9403E+01
      8.046  0.1518E+01  0.9597E+01
      8.174  0.1408E+01  0.9777E+01
      8.302  0.1281E+01  0.9941E+01
      8.430  0.1155E+01  0.1009E+02
      8.558  0.1113E+01  0.1023E+02
      8.686  0.1313E+01  0.1040E+02
      8.814  0.1711E+01  0.1062E+02
      8.941  0.1984E+01  0.1087E+02
      9.069  0.1967E+01  0.1112E+02
      9.197  0.1848E+01  0.1136E+02
      9.325  0.1700E+01  0.1158E+02
      9.453  0.1483E+01  0.1177E+02
      9.581  0.1253E+01  0.1193E+02
      9.709  0.1159E+01  0.1207E+02
      9.836  0.1271E+01  0.1224E+02
      9.964  0.1431E+01  0.1242E+02
     10.092  0.1426E+01  0.1260E+02
     10.220  0.1296E+01  0.1277E+02
     10.348  0.1196E+01  0.1292E+02
     10.476  0.1223E+01  0.1308E+02
     10.604  0.1318E+01  0.1325E+02
     10.731  0.1348E+01  0.1342E+02
     10.859  0.1257E+01  0.1358E+02
     10.987  0.1066E+01  0.1371E+02
     11.115  0.9443E+00  0.1384E+02
     11.243  0.1003E+01  0.1396E+02
     11.371  0.1146E+01  0.1411E+02
     11.499  0.1265E+01  0.1427E+02
     11.626  0.1295E+01  0.1444E+02
     11.754  0.1134E+01  0.1458E+02
     11.882  0.9141E+00  0.1470E+02
     12.010  0.8722E+00  0.1481E+02
     12.138  0.9952E+00  0.1494E+02
     12.266  0.1210E+01  0.1509E+02
     12.394  0.1413E+01  0.1527E+02
     12.521  0.1516E+01  0.1547E+02
     12.649  0.1393E+01  0.1565E+02
     12.777  0.1108E+01  0.1579E+02
     12.905  0.9684E+00  0.1591E+02
     13.033  0.1001E+01  0.1604E+02
     13.161  0.1057E+01  0.1617E+02
     13.289  0.1205E+01  0.1633E+02
     13.417  0.1512E+01  0.1652E+02
     13.544  0.1695E+01  0.1674E+02
     13.672  0.1468E+01  0.1693E+02
     13.800  0.1100E+01  0.1707E+02
     13.928  0.9338E+00  0.1719E+02
     14.056  0.9603E+00  0.1731E+02
     14.184  0.1099E+01  0.1745E+02
     14.312  0.1310E+01  0.1762E+02
     14.439  0.1527E+01  0.1781E+02
     14.567  0.1653E+01  0.1802E+02
     14.695  0.1540E+01  0.1822E+02
     14.823  0.1284E+01  0.1838E+02
     14.951  0.1175E+01  0.1853E+02
     15.079  0.1224E+01  0.1869E+02
     15.207  0.1350E+01  0.1886E+02
     15.334  0.1512E+01  0.1906E+02
     15.462  0.1519E+01  0.1925E+02
     15.590  0.1367E+01  0.1943E+02
     15.718  0.1220E+01  0.1958E+02
     15.846  0.1146E+01  0.1973E+02
     15.974  0.1110E+01  0.1987E+02
     16.102  0.1120E+01  0.2001E+02
     16.229  0.1243E+01  0.2017E+02
     16.357  0.1422E+01  0.2035E+02
     16.485  0.1487E+01  0.2054E+02
     16.613  0.1350E+01  0.2072E+02
     16.741  0.1163E+01  0.2087E+02
     16.869  0.1108E+01  0.2101E+02
     16.997  0.1153E+01  0.2116E+02
     17.124  0.1216E+01  0.2131E+02
     17.252  0.1350E+01  0.2148E+02
     17.380  0.1536E+01  0.2168E+02
     17.508  0.1693E+01  0.2190E+02
     17.636  0.1773E+01  0.2212E+02
     17.764  0.1711E+01  0.2234E+02
     17.892  0.1590E+01  0.2255E+02
     18.019  0.1532E+01  0.2274E+02
     18.147  0.1500E+01  0.2293E+02
     18.275  0.1476E+01  0.2312E+02
     18.403  0.1514E+01  0.2332E+02
     18.531  0.1610E+01  0.2352E+02
     18.659  0.1660E+01  0.2373E+02
     18.787  0.1592E+01  0.2394E+02
     18.914  0.1497E+01  0.2413E+02
     19.042  0.1572E+01  0.2433E+02
     19.170  0.1762E+01  0.2455E+02
     19.298  0.1847E+01  0.2479E+02
     19.426  0.1865E+01  0.2503E+02
     19.554  0.1781E+01  0.2526E+02
     19.682  0.1554E+01  0.2546E+02
     19.810  0.1380E+01  0.2563E+02
     19.937  0.1328E+01  0.2580E+02
     20.065  0.1338E+01  0.2597E+02
     20.193  0.1365E+01  0.2615E+02
     20.321  0.1423E+01  0.2633E+02
     20.449  0.1534E+01  0.2653E+02
     20.577  0.1674E+01  0.2674E+02
     20.705  0.1741E+01  0.2696E+02
     20.832  0.1598E+01  0.2717E+02
     20.960  0.1359E+01  0.2734E+02
     21.088  0.1257E+01  0.2750E+02
     21.216  0.1337E+01  0.2767E+02
     21.344  0.1453E+01  0.2786E+02
     21.472  0.1457E+01  0.2804E+02
     21.600  0.1392E+01  0.2822E+02
     21.727  0.1386E+01  0.2840E+02
     21.855  0.1458E+01  0.2859E+02
     21.983  0.1522E+01  0.2878E+02
     22.111  0.1489E+01  0.2897E+02
     22.239  0.1407E+01  0.2915E+02
     22.367  0.1462E+01  0.2934E+02
     22.495  0.1698E+01  0.2955E+02
     22.622  0.1799E+01  0.2978E+02
     22.750  0.1673E+01  0.3000E+02
     22.878  0.1605E+01  0.3020E+02
     23.006  0.1643E+01  0.3041E+02
     23.134  0.1601E+01  0.3062E+02
     23.262  0.1476E+01  0.3081E+02
     23.390  0.1426E+01  0.3099E+02
     23.517  0.1439E+01  0.3117E+02
     23.645  0.1344E+01  0.3134E+02
     23.773  0.1170E+01  0.3149E+02
     23.901  0.9870E+00  0.3162E+02
     24.029  0.6976E+00  0.3171E+02
     24.157  0.3772E+00  0.3176E+02
     24.285  0.2090E+00  0.3178E+02
     24.412  0.1890E+00  0.3181E+02
     24.540  0.2001E+00  0.3183E+02
     24.668  0.2037E+00  0.3186E+02
     24.796  0.1930E+00  0.3189E+02
     24.924  0.1484E+00  0.3190E+02
     25.052  0.1169E+00  0.3192E+02
     25.180  0.1309E+00  0.3194E+02
     25.308  0.1506E+00  0.3196E+02
     25.435  0.1202E+00  0.3197E+02
     25.563  0.5672E-01  0.3198E+02
     25.691  0.1784E-01  0.3198E+02
     25.819  0.5322E-02  0.3198E+02
     25.947  0.1811E-02  0.3198E+02
     26.075  0.2502E-02  0.3198E+02
     26.203  0.4898E-02  0.3198E+02
     26.330  0.7297E-02  0.3198E+02
     26.458  0.1522E-01  0.3198E+02
     26.586  0.2890E-01  0.3199E+02
     26.714  0.3118E-01  0.3199E+02
     26.842  0.1766E-01  0.3199E+02
     26.970  0.5139E-02  0.3200E+02
     27.098  0.7896E-03  0.3200E+02
     27.225  0.4979E-03  0.3200E+02
     27.353  0.2140E-02  0.3200E+02
     27.481  0.5261E-02  0.3200E+02
     27.609  0.7836E-02  0.3200E+02
     27.737  0.8230E-02  0.3200E+02
     27.865  0.5604E-02  0.3200E+02
     27.993  0.2232E-02  0.3200E+02
     28.120  0.9552E-03  0.3200E+02
     28.248  0.8183E-03  0.3200E+02
     28.376  0.4845E-03  0.3200E+02
     28.504  0.1377E-03  0.3200E+02
     28.632  0.1815E-04  0.3200E+02
     28.760  0.1100E-05  0.3200E+02
     28.888  0.3046E-07  0.3200E+02
     29.015  0.3830E-09  0.3200E+02
     29.143  0.2174E-11  0.3200E+02
     29.271  0.5549E-14  0.3200E+02
     29.399  0.6330E-17  0.3200E+02
     29.527  0.0000E+00  0.3200E+02
     29.655  0.0000E+00  0.3200E+02
     29.783  0.0000E+00  0.3200E+02
     29.910  0.0000E+00  0.3200E+02
     30.038  0.0000E+00  0.3200E+02
     30.166  0.0000E+00  0.3200E+02
