    2    2    1    1
  0.2072484E+02  0.3884592E-09  0.3884592E-09  0.3884592E-09  0.5000000E-15
   1.0000000000000000E-004
  CAR 
 unknown system                          
      8    220     16

  0.3742002E-15  0.3742002E-15  0.3742002E-15  0.1457938E-03
    1       -6.191876   1.000000
    2        5.458884   0.993893
    3        5.458884   0.993893
    4        5.458884   0.993893
    5        8.074146   0.000000
    6        8.074146   0.000000
    7        8.074146   0.000000
    8        8.529723   0.000000
    9       13.214013   0.000000
   10       13.214013   0.000000
   11       13.348499   0.000000
   12       16.655514   0.000000
   13       16.655514   0.000000
   14       16.655514   0.000000
   15       20.750607   0.000000
   16       28.166202   0.000000

  0.5263158E-01  0.3712308E-15  0.3712308E-15  0.1166351E-02
    1       -6.156674   1.000000
    2        5.075491   1.000000
    3        5.402102   0.998178
    4        5.402102   0.998178
    5        8.104849   0.000000
    6        8.158471   0.000000
    7        8.158471   0.000000
    8        8.821974   0.000000
    9       13.096827   0.000000
   10       13.096827   0.000000
   11       13.503308   0.000000
   12       16.516634   0.000000
   13       16.887451   0.000000
   14       16.887451   0.000000
   15       20.996718   0.000000
   16       27.704937   0.000000

  0.1052632E+00  0.3816392E-15  0.3816392E-15  0.1166351E-02
    1       -6.051435   1.000000
    2        4.250847   1.000000
    3        5.255877   0.999959
    4        5.255877   0.999959
    5        7.995638   0.000000
    6        8.376916   0.000000
    7        8.376916   0.000000
    8        9.594249   0.000000
    9       12.842663   0.000000
   10       12.842663   0.000000
   11       13.921163   0.000000
   12       16.215425   0.000000
   13       17.493447   0.000000
   14       17.493447   0.000000
   15       21.638012   0.000000
   16       26.670924   0.000000

  0.1578947E+00  0.3885781E-15  0.3885781E-15  0.1166351E-02
    1       -5.877654   1.000000
    2        3.302824   1.000000
    3        5.066901   1.000000
    4        5.066901   1.000000
    5        7.804466   0.000000
    6        8.649641   0.000000
    7        8.649641   0.000000
    8       10.514857   0.000000
    9       12.620604   0.000000
   10       12.620604   0.000000
   11       14.407891   0.000000
   12       16.042402   0.000000
   13       18.326223   0.000000
   14       18.326223   0.000000
   15       22.490110   0.000000
   16       25.309087   0.000000

  0.2105263E+00  0.3885781E-15  0.3885781E-15  0.1166351E-02
    1       -5.638083   1.000000
    2        2.342951   1.000000
    3        4.872593   1.000000
    4        4.872593   1.000000
    5        7.593970   0.000000
    6        8.885347   0.000000
    7        8.885347   0.000000
    8       11.454043   0.000000
    9       12.566017   0.000000
   10       12.566017   0.000000
   11       14.539320   0.000000
   12       16.458250   0.000000
   13       19.267994   0.000000
   14       19.267994   0.000000
   15       23.212608   0.000000
   16       23.947889   0.000000

  0.2631579E+00  0.3885781E-15  0.3885781E-15  0.1166351E-02
    1       -5.337982   1.000000
    2        1.416392   1.000000
    3        4.695112   1.000000
    4        4.695112   1.000000
    5        7.395181   0.000000
    6        9.014371   0.000000
    7        9.014371   0.000000
    8       12.356146   0.000000
    9       12.764875   0.000000
   10       12.764875   0.000000
   11       14.368035   0.000000
   12       17.409758   0.000000
   13       20.116569   0.000000
   14       20.116569   0.000000
   15       22.816441   0.000000
   16       22.818535   0.000000

  0.3157895E+00  0.3608225E-15  0.3608225E-15  0.1166351E-02
    1       -4.987205   1.000000
    2        0.551558   1.000000
    3        4.546228   1.000000
    4        4.546228   1.000000
    5        7.224947   0.000000
    6        9.030023   0.000000
    7        9.030023   0.000000
    8       13.088366   0.000000
    9       13.229330   0.000000
   10       13.229330   0.000000
   11       14.315338   0.000000
   12       18.498337   0.000000
   13       20.126195   0.000000
   14       20.126195   0.000000
   15       22.101884   0.000000
   16       22.664955   0.000000

  0.3684211E+00  0.3885781E-15  0.3885781E-15  0.1166351E-02
    1       -4.606102   1.000000
    2       -0.221341   1.000000
    3        4.431833   1.000000
    4        4.431833   1.000000
    5        7.092329   0.000000
    6        8.980322   0.000000
    7        8.980322   0.000000
    8       13.327375   0.000000
    9       13.911192   0.000000
   10       13.911192   0.000000
   11       14.799911   0.000000
   12       19.165290   0.000000
   13       19.165290   0.000000
   14       19.202337   0.000000
   15       21.744297   0.000000
   16       23.621633   0.000000

  0.4210526E+00  0.4440892E-15  0.4440892E-15  0.1166351E-02
    1       -4.240161   1.000000
    2       -0.851077   1.000000
    3        4.354674   1.000000
    4        4.354674   1.000000
    5        7.002057   0.000000
    6        8.918857   0.000000
    7        8.918857   0.000000
    8       13.277183   0.000000
    9       14.749017   0.000000
   10       14.749017   0.000000
   11       15.625492   0.000000
   12       18.022560   0.000000
   13       18.022560   0.000000
   14       18.879364   0.000000
   15       22.543526   0.000000
   16       24.888256   0.000000

  0.4736842E+00  0.3885781E-15  0.3885781E-15  0.1166351E-02
    1       -3.989064   1.000000
    2       -1.234818   1.000000
    3        4.315900   1.000000
    4        4.315900   1.000000
    5        6.956433   0.000000
    6        8.880309   0.000000
    7        8.880309   0.000000
    8       13.221671   0.000000
    9       15.656325   0.000000
   10       15.656325   0.000000
   11       16.389733   0.000000
   12       16.951548   0.000000
   13       16.951548   0.000000
   14       18.201015   0.000000
   15       23.931189   0.000000
   16       25.615632   0.000000

  0.5263158E-01  0.5263158E-01  0.3742002E-15  0.8747631E-03
    1       -6.144911   1.000000
    2        5.144323   0.999999
    3        5.280486   0.999918
    4        5.280486   0.999918
    5        7.961847   0.000000
    6        8.310354   0.000000
    7        8.310354   0.000000
    8        8.833992   0.000000
    9       12.865263   0.000000
   10       13.266411   0.000000
   11       13.554459   0.000000
   12       16.738003   0.000000
   13       16.738003   0.000000
   14       16.898951   0.000000
   15       21.087852   0.000000
   16       27.480778   0.000000

  0.1052632E+00  0.5263158E-01  0.3712308E-15  0.3499052E-02
    1       -6.062931   1.000000
    2        4.490691   1.000000
    3        5.091790   1.000000
    4        5.216927   0.999988
    5        7.949447   0.000000
    6        8.368447   0.000000
    7        8.578340   0.000000
    8        9.409218   0.000000
    9       12.535103   0.000000
   10       13.214283   0.000000
   11       13.887712   0.000000
   12       16.514808   0.000000
   13       17.044293   0.000000
   14       17.481465   0.000000
   15       21.614139   0.000000
   16       26.553087   0.000000

  0.1578947E+00  0.5263158E-01  0.3816392E-15  0.3499052E-02
    1       -5.911855   1.000000
    2        3.594854   1.000000
    3        4.881842   1.000000
    4        5.083410   1.000000
    5        7.988129   0.000000
    6        8.368169   0.000000
    7        8.887247   0.000000
    8       10.228644   0.000000
    9       12.279270   0.000000
   10       13.065841   0.000000
   11       14.389965   0.000000
   12       16.235034   0.000000
   13       17.702628   0.000000
   14       18.330408   0.000000
   15       22.407081   0.000000
   16       25.225987   0.000000

  0.2105263E+00  0.5263158E-01  0.3747003E-15  0.3499052E-02
    1       -5.693879   1.000000
    2        2.649923   1.000000
    3        4.682013   1.000000
    4        4.893660   1.000000
    5        7.867341   0.000000
    6        8.548627   0.000000
    7        9.153746   0.000000
    8       10.966517   0.000000
    9       12.302109   0.000000
   10       13.002765   0.000000
   11       14.716955   0.000000
   12       16.351837   0.000000
   13       18.558650   0.000000
   14       19.298355   0.000000
   15       23.205962   0.000000
   16       23.841388   0.000000

  0.2631579E+00  0.5263158E-01  0.3747003E-15  0.3499052E-02
    1       -5.413308   1.000000
    2        1.719547   1.000000
    3        4.510210   1.000000
    4        4.689769   1.000000
    5        7.688977   0.000000
    6        8.737177   0.000000
    7        9.305543   0.000000
    8       11.469495   0.000000
    9       12.789666   0.000000
   10       13.154659   0.000000
   11       14.619767   0.000000
   12       17.118303   0.000000
   13       19.437929   0.000000
   14       20.252090   0.000000
   15       22.595520   0.000000
   16       22.924712   0.000000

  0.3157895E+00  0.5263158E-01  0.3885781E-15  0.3499052E-02
    1       -5.077969   1.000000
    2        0.838012   1.000000
    3        4.375830   1.000000
    4        4.496830   1.000000
    5        7.519452   0.000000
    6        8.827137   0.000000
    7        9.323634   0.000000
    8       11.938966   0.000000
    9       13.516080   0.000000
   10       13.565969   0.000000
   11       14.457841   0.000000
   12       18.158766   0.000000
   13       19.781063   0.000000
   14       20.648138   0.000000
   15       22.044406   0.000000
   16       22.334263   0.000000

  0.3684211E+00  0.5263158E-01  0.3608225E-15  0.3499052E-02
    1       -4.703686   1.000000
    2        0.034627   1.000000
    3        4.283359   1.000000
    4        4.328343   1.000000
    5        7.379124   0.000000
    6        8.833110   0.000000
    7        9.250695   0.000000
    8       12.523889   0.000000
    9       13.900042   0.000000
   10       14.203391   0.000000
   11       14.796057   0.000000
   12       18.913074   0.000000
   13       18.994933   0.000000
   14       20.121314   0.000000
   15       21.894524   0.000000
   16       22.775963   0.000000

  0.4210526E+00  0.5263158E-01  0.3885781E-15  0.3499052E-02
    1       -4.324838   1.000000
    2       -0.648467   1.000000
    3        4.191729   1.000000
    4        4.234360   1.000000
    5        7.276711   0.000000
    6        8.812056   0.000000
    7        9.145300   0.000000
    8       13.086679   0.000000
    9       14.032829   0.000000
   10       15.004507   0.000000
   11       15.643553   0.000000
   12       17.871325   0.000000
   13       18.389394   0.000000
   14       19.678570   0.000000
   15       22.181443   0.000000
   16       23.995002   0.000000

  0.4736842E+00  0.5263158E-01  0.4440892E-15  0.3499052E-02
    1       -4.019732   1.000000
    2       -1.128761   1.000000
    3        4.091489   1.000000
    4        4.228596   1.000000
    5        7.216387   0.000000
    6        8.807543   0.000000
    7        9.049669   0.000000
    8       13.305283   0.000000
    9       14.598707   0.000000
   10       15.846974   0.000000
   11       16.481110   0.000000
   12       16.825938   0.000000
   13       17.483413   0.000000
   14       18.861425   0.000000
   15       23.424987   0.000000
   16       25.341991   0.000000

 -0.4736842E+00  0.5263158E-01  0.3885781E-15  0.3499052E-02
    1       -3.925071   1.000000
    2       -1.267251   1.000000
    3        4.030745   1.000000
    4        4.264726   1.000000
    5        7.200098   0.000000
    6        8.840756   0.000000
    7        8.986217   0.000000
    8       13.339021   0.000000
    9       15.288165   0.000000
   10       15.497240   0.000000
   11       16.467731   0.000000
   12       17.132874   0.000000
   13       17.255877   0.000000
   14       18.315157   0.000000
   15       24.334599   0.000000
   16       25.076313   0.000000

 -0.4210526E+00  0.5263158E-01  0.3608225E-15  0.3499052E-02
    1       -4.105843   1.000000
    2       -0.998524   1.000000
    3        4.011932   1.000000
    4        4.340593   1.000000
    5        7.228422   0.000000
    6        8.915500   0.000000
    7        8.961245   0.000000
    8       13.345705   0.000000
    9       14.539460   0.000000
   10       15.019193   0.000000
   11       16.536243   0.000000
   12       16.942425   0.000000
   13       18.212549   0.000000
   14       18.911172   0.000000
   15       22.929488   0.000000
   16       24.851272   0.000000

 -0.3684211E+00  0.5263158E-01  0.3885781E-15  0.3499052E-02
    1       -4.448422   1.000000
    2       -0.437216   1.000000
    3        4.036926   1.000000
    4        4.453335   1.000000
    5        7.300770   0.000000
    6        8.965823   0.000000
    7        9.020368   0.000000
    8       13.234985   0.000000
    9       13.665528   0.000000
   10       14.445103   0.000000
   11       15.608844   0.000000
   12       17.954292   0.000000
   13       19.361659   0.000000
   14       19.499228   0.000000
   15       21.880174   0.000000
   16       23.514152   0.000000

 -0.3157895E+00  0.5263158E-01  0.3885781E-15  0.3499052E-02
    1       -4.831557   1.000000
    2        0.292450   1.000000
    3        4.106935   1.000000
    4        4.599106   1.000000
    5        7.415274   0.000000
    6        8.972661   0.000000
    7        9.125601   0.000000
    8       12.797846   0.000000
    9       12.941324   0.000000
   10       14.262054   0.000000
   11       14.731858   0.000000
   12       18.608067   0.000000
   13       19.455122   0.000000
   14       20.424978   0.000000
   15       21.857664   0.000000
   16       22.472151   0.000000

 -0.2631579E+00  0.5263158E-01  0.3885781E-15  0.3499052E-02
    1       -5.195377   1.000000
    2        1.125189   1.000000
    3        4.222149   1.000000
    4        4.772196   1.000000
    5        7.567931   0.000000
    6        8.934238   0.000000
    7        9.177338   0.000000
    8       12.186889   0.000000
    9       12.426456   0.000000
   10       13.832880   0.000000
   11       14.505679   0.000000
   12       17.781257   0.000000
   13       19.728158   0.000000
   14       20.800146   0.000000
   15       21.772584   0.000000
   16       22.901921   0.000000

 -0.2105263E+00  0.5263158E-01  0.3885781E-15  0.3499052E-02
    1       -5.513642   1.000000
    2        2.024899   1.000000
    3        4.381197   1.000000
    4        4.963191   1.000000
    5        7.750968   0.000000
    6        8.802298   0.000000
    7        9.106691   0.000000
    8       11.545992   0.000000
    9       12.177007   0.000000
   10       13.249672   0.000000
   11       14.698799   0.000000
   12       16.798901   0.000000
   13       19.066817   0.000000
   14       20.095321   0.000000
   15       22.632380   0.000000
   16       23.469642   0.000000

 -0.1578947E+00  0.5263158E-01  0.3747003E-15  0.3499052E-02
    1       -5.773936   1.000000
    2        2.960488   1.000000
    3        4.580651   1.000000
    4        5.155533   0.999998
    5        7.949678   0.000000
    6        8.579011   0.000000
    7        8.882579   0.000000
    8       10.825909   0.000000
    9       12.198620   0.000000
   10       12.983622   0.000000
   11       14.665810   0.000000
   12       16.238144   0.000000
   13       18.145444   0.000000
   14       19.128834   0.000000
   15       22.939645   0.000000
   16       23.967482   0.000000

 -0.1052632E+00  0.5263158E-01  0.3885781E-15  0.3499052E-02
    1       -5.969910   1.000000
    2        3.883807   1.000000
    3        4.816230   1.000000
    4        5.320504   0.999753
    5        8.135682   0.000000
    6        8.336078   0.000000
    7        8.558542   0.000000
    8       10.023293   0.000000
    9       12.428242   0.000000
   10       13.003742   0.000000
   11       14.216202   0.000000
   12       16.311807   0.000000
   13       17.327785   0.000000
   14       18.204658   0.000000
   15       22.095319   0.000000
   16       25.332137   0.000000

 -0.5263158E-01  0.5263158E-01  0.3816392E-15  0.1749526E-02
    1       -6.098083   1.000000
    2        4.670037   1.000000
    3        5.101018   1.000000
    4        5.415624   0.997537
    5        8.171161   0.000000
    6        8.233521   0.000000
    7        8.258205   0.000000
    8        9.264137   0.000000
    9       12.768263   0.000000
   10       13.114271   0.000000
   11       13.747569   0.000000
   12       16.543981   0.000000
   13       16.825135   0.000000
   14       17.423043   0.000000
   15       21.378764   0.000000
   16       26.660708   0.000000

  0.1052632E+00  0.1052632E+00  0.3742002E-15  0.8747631E-03
    1       -6.004255   1.000000
    2        4.431610   1.000000
    3        4.875299   1.000000
    4        4.875299   1.000000
    5        7.674546   0.000000
    6        8.887862   0.000000
    7        8.887862   0.000000
    8        9.442069   0.000000
    9       12.184266   0.000000
   10       13.423544   0.000000
   11       14.120698   0.000000
   12       16.983960   0.000000
   13       16.983960   0.000000
   14       17.395428   0.000000
   15       22.033180   0.000000
   16       26.186627   0.000000

  0.1578947E+00  0.1052632E+00  0.3712308E-15  0.3499052E-02
    1       -5.876114   1.000000
    2        3.762412   1.000000
    3        4.649184   1.000000
    4        4.742836   1.000000
    5        7.622082   0.000000
    6        8.950109   0.000000
    7        9.237383   0.000000
    8        9.964976   0.000000
    9       11.991058   0.000000
   10       13.448875   0.000000
   11       14.569947   0.000000
   12       16.785129   0.000000
   13       17.354553   0.000000
   14       18.104713   0.000000
   15       22.749706   0.000000
   16       25.136774   0.000000

  0.2105263E+00  0.1052632E+00  0.3816392E-15  0.3499052E-02
    1       -5.680287   1.000000
    2        2.897887   1.000000
    3        4.441294   1.000000
    4        4.577555   1.000000
    5        7.732629   0.000000
    6        8.865678   0.000000
    7        9.550267   0.000000
    8       10.373586   0.000000
    9       12.236409   0.000000
   10       13.436730   0.000000
   11       15.049838   0.000000
   12       16.623651   0.000000
   13       18.040526   0.000000
   14       19.080978   0.000000
   15       23.516818   0.000000
   16       23.785770   0.000000

  0.2631579E+00  0.1052632E+00  0.3747003E-15  0.3499052E-02
    1       -5.420247   1.000000
    2        2.001476   1.000000
    3        4.267652   1.000000
    4        4.358187   1.000000
    5        7.832194   0.000000
    6        8.848903   0.000000
    7        9.749570   0.000000
    8       10.536733   0.000000
    9       12.935648   0.000000
   10       13.565124   0.000000
   11       15.160338   0.000000
   12       17.040898   0.000000
   13       18.858734   0.000000
   14       20.095415   0.000000
   15       22.485553   0.000000
   16       22.957198   0.000000

  0.3157895E+00  0.1052632E+00  0.3747003E-15  0.3499052E-02
    1       -5.102237   1.000000
    2        1.127844   1.000000
    3        4.125972   1.000000
    4        4.136957   1.000000
    5        7.819950   0.000000
    6        8.885449   0.000000
    7        9.798311   0.000000
    8       10.795966   0.000000
    9       13.803347   0.000000
   10       13.929734   0.000000
   11       14.974092   0.000000
   12       17.929345   0.000000
   13       19.396785   0.000000
   14       20.713133   0.000000
   15       21.647756   0.000000
   16       22.361513   0.000000

  0.3684211E+00  0.1052632E+00  0.3885781E-15  0.3499052E-02
    1       -4.738564   1.000000
    2        0.312396   1.000000
    3        3.907275   1.000000
    4        4.053526   1.000000
    5        7.744387   0.000000
    6        8.886312   0.000000
    7        9.727597   0.000000
    8       11.298834   0.000000
    9       14.475641   0.000000
   10       14.525300   0.000000
   11       15.003906   0.000000
   12       18.696327   0.000000
   13       18.846809   0.000000
   14       20.422647   0.000000
   15       22.068057   0.000000
   16       22.573046   0.000000

  0.4210526E+00  0.1052632E+00  0.3885781E-15  0.3499052E-02
    1       -4.355219   1.000000
    2       -0.406262   1.000000
    3        3.716542   1.000000
    4        4.018931   1.000000
    5        7.667630   0.000000
    6        8.857471   0.000000
    7        9.599260   0.000000
    8       11.993104   0.000000
    9       14.413451   0.000000
   10       15.292767   0.000000
   11       15.835927   0.000000
   12       17.760635   0.000000
   13       18.363127   0.000000
   14       20.635283   0.000000
   15       22.179380   0.000000
   16       23.189519   0.000000

  0.4736842E+00  0.1052632E+00  0.3885781E-15  0.3499052E-02
    1       -4.011971   1.000000
    2       -0.961392   1.000000
    3        3.562268   1.000000
    4        4.032839   1.000000
    5        7.618999   0.000000
    6        8.841240   0.000000
    7        9.463381   0.000000
    8       12.769687   0.000000
    9       14.322156   0.000000
   10       16.045858   0.000000
   11       16.683725   0.000000
   12       16.772676   0.000000
   13       17.597999   0.000000
   14       20.129599   0.000000
   15       22.954981   0.000000
   16       24.494569   0.000000

 -0.4736842E+00  0.1052632E+00  0.3885781E-15  0.3499052E-02
    1       -3.831098   1.000000
    2       -1.226943   1.000000
    3        3.450198   1.000000
    4        4.093443   1.000000
    5        7.609601   0.000000
    6        8.862928   0.000000
    7        9.348975   0.000000
    8       13.423675   0.000000
    9       14.380918   0.000000
   10       15.382495   0.000000
   11       16.474176   0.000000
   12       17.354331   0.000000
   13       17.952762   0.000000
   14       19.188125   0.000000
   15       24.289415   0.000000
   16       24.739348   0.000000

 -0.4210526E+00  0.1052632E+00  0.3885781E-15  0.3499052E-02
    1       -3.927649   1.000000
    2       -1.086642   1.000000
    3        3.384715   1.000000
    4        4.197646   1.000000
    5        7.642291   0.000000
    6        8.930910   0.000000
    7        9.267696   0.000000
    8       13.576358   0.000000
    9       14.383776   0.000000
   10       14.586717   0.000000
   11       16.249341   0.000000
   12       17.948078   0.000000
   13       18.434719   0.000000
   14       19.091523   0.000000
   15       23.141035   0.000000
   16       24.957116   0.000000

 -0.3684211E+00  0.1052632E+00  0.3885781E-15  0.3499052E-02
    1       -4.234527   1.000000
    2       -0.608415   1.000000
    3        3.369531   1.000000
    4        4.340923   1.000000
    5        7.715905   0.000000
    6        9.039680   0.000000
    7        9.215810   0.000000
    8       13.200376   0.000000
    9       13.476682   0.000000
   10       14.639054   0.000000
   11       16.855184   0.000000
   12       16.987051   0.000000
   13       19.582830   0.000000
   14       19.790207   0.000000
   15       21.952516   0.000000
   16       23.574749   0.000000

 -0.3157895E+00  0.1052632E+00  0.4440892E-15  0.3499052E-02
    1       -4.613792   1.000000
    2        0.066205   1.000000
    3        3.408103   1.000000
    4        4.516930   1.000000
    5        7.827176   0.000000
    6        9.165816   0.000000
    7        9.171459   0.000000
    8       12.555402   0.000000
    9       12.715653   0.000000
   10       14.763099   0.000000
   11       16.005382   0.000000
   12       17.748616   0.000000
   13       19.632980   0.000000
   14       20.697978   0.000000
   15       21.598388   0.000000
   16       22.534802   0.000000

 -0.2631579E+00  0.1052632E+00  0.3885781E-15  0.3499052E-02
    1       -4.987681   1.000000
    2        0.852021   1.000000
    3        3.504352   1.000000
    4        4.716440   1.000000
    5        7.970807   0.000000
    6        9.091556   0.000000
    7        9.254981   0.000000
    8       11.902858   0.000000
    9       12.160242   0.000000
   10       14.953633   0.000000
   11       15.097526   0.000000
   12       17.930971   0.000000
   13       19.328604   0.000000
   14       21.001335   0.000000
   15       21.392418   0.000000
   16       22.924232   0.000000

 -0.2105263E+00  0.1052632E+00  0.3608225E-15  0.3499052E-02
    1       -5.322301   1.000000
    2        1.699546   1.000000
    3        3.664849   1.000000
    4        4.925251   1.000000
    5        8.137581   0.000000
    6        8.929892   0.000000
    7        9.211236   0.000000
    8       11.381483   0.000000
    9       11.871652   0.000000
   10       14.215954   0.000000
   11       15.199105   0.000000
   12       17.151906   0.000000
   13       18.943407   0.000000
   14       20.970759   0.000000
   15       21.338581   0.000000
   16       23.607337   0.000000

 -0.1578947E+00  0.1052632E+00  0.3885781E-15  0.3499052E-02
    1       -5.602115   1.000000
    2        2.557752   1.000000
    3        3.906545   1.000000
    4        5.120513   1.000000
    5        8.308131   0.000000
    6        8.693039   0.000000
    7        8.961870   0.000000
    8       10.997048   0.000000
    9       11.861746   0.000000
   10       13.537293   0.000000
   11       15.161259   0.000000
   12       16.600929   0.000000
   13       18.068885   0.000000
   14       20.041199   0.000000
   15       22.535641   0.000000
   16       23.548088   0.000000

 -0.1052632E+00  0.1052632E+00  0.3747003E-15  0.1749526E-02
    1       -5.819380   1.000000
    2        3.329823   1.000000
    3        4.278917   1.000000
    4        5.266805   0.999944
    5        8.403320   0.000000
    6        8.461719   0.000000
    7        8.619267   0.000000
    8       10.567543   0.000000
    9       12.073900   0.000000
   10       13.149025   0.000000
   11       14.706565   0.000000
   12       16.521830   0.000000
   13       17.391586   0.000000
   14       19.078679   0.000000
   15       22.820890   0.000000
   16       23.916460   0.000000

  0.1578947E+00  0.1578947E+00  0.3742002E-15  0.8747631E-03
    1       -5.770833   1.000000
    2        3.575038   1.000000
    3        4.410590   1.000000
    4        4.410590   1.000000
    5        7.308021   0.000000
    6        9.636321   0.000000
    7        9.636321   0.000000
    8        9.709042   0.000000
    9       11.909339   0.000000
   10       13.685271   0.000000
   11       14.944197   0.000000
   12       17.386447   0.000000
   13       17.386447   0.000000
   14       17.950083   0.000000
   15       23.402103   0.000000
   16       24.796775   0.000000

  0.2105263E+00  0.1578947E+00  0.3712308E-15  0.3499052E-02
    1       -5.597405   1.000000
    2        2.958454   1.000000
    3        4.193043   1.000000
    4        4.213577   1.000000
    5        7.252486   0.000000
    6        9.455814   0.000000
    7       10.012510   0.000000
    8       10.030438   0.000000
    9       12.264899   0.000000
   10       13.799705   0.000000
   11       15.446549   0.000000
   12       17.258944   0.000000
   13       17.804738   0.000000
   14       18.723714   0.000000
   15       23.738601   0.000000
   16       23.876509   0.000000

  0.2631579E+00  0.1578947E+00  0.3816392E-15  0.3499052E-02
    1       -5.358555   1.000000
    2        2.178091   1.000000
    3        3.980648   1.000000
    4        4.012350   1.000000
    5        7.384732   0.000000
    6        9.342647   0.000000
    7       10.054150   0.000000
    8       10.284796   0.000000
    9       13.038061   0.000000
   10       13.950550   0.000000
   11       15.806538   0.000000
   12       17.290333   0.000000
   13       18.467499   0.000000
   14       19.748442   0.000000
   15       22.453674   0.000000
   16       22.895647   0.000000

  0.3157895E+00  0.1578947E+00  0.3885781E-15  0.3499052E-02
    1       -5.059282   1.000000
    2        1.362519   1.000000
    3        3.708742   1.000000
    4        3.877393   1.000000
    5        7.529057   0.000000
    6        9.433163   0.000000
    7        9.985422   0.000000
    8       10.394646   0.000000
    9       13.980551   0.000000
   10       14.287094   0.000000
   11       15.739147   0.000000
   12       17.905019   0.000000
   13       19.041398   0.000000
   14       20.524534   0.000000
   15       21.454571   0.000000
   16       22.220207   0.000000

  0.3684211E+00  0.1578947E+00  0.3885781E-15  0.3499052E-02
    1       -4.709175   1.000000
    2        0.569144   1.000000
    3        3.436704   1.000000
    4        3.792830   1.000000
    5        7.582834   0.000000
    6        9.557110   0.000000
    7       10.162814   0.000000
    8       10.353799   0.000000
    9       14.849887   0.000000
   10       14.936139   0.000000
   11       15.528594   0.000000
   12       18.613525   0.000000
   13       18.718014   0.000000
   14       20.375090   0.000000
   15       21.543856   0.000000
   16       22.771453   0.000000

  0.4210526E+00  0.1578947E+00  0.3885781E-15  0.3499052E-02
    1       -4.327893   1.000000
    2       -0.158129   1.000000
    3        3.189266   1.000000
    4        3.760634   1.000000
    5        7.581068   0.000000
    6        9.501045   0.000000
    7       10.224843   0.000000
    8       10.772655   0.000000
    9       15.147756   0.000000
   10       15.592543   0.000000
   11       16.051696   0.000000
   12       17.688912   0.000000
   13       18.394821   0.000000
   14       20.799404   0.000000
   15       22.517300   0.000000
   16       23.013358   0.000000

  0.4736842E+00  0.1578947E+00  0.3608225E-15  0.3499052E-02
    1       -3.960309   1.000000
    2       -0.761019   1.000000
    3        2.980120   1.000000
    4        3.780862   1.000000
    5        7.584106   0.000000
    6        9.423876   0.000000
    7       10.067213   0.000000