       N       E                     dE             d eps       ncg     rms          rms(c)
DAV:   1     0.276086744641E+01    0.27609E+01   -0.34700E+03  7040   0.392E+02
DAV:   2    -0.832793046163E+01   -0.11089E+02   -0.10964E+02 10288   0.396E+01
DAV:   3    -0.840897850067E+01   -0.81048E-01   -0.81048E-01  7840   0.431E+00
DAV:   4    -0.840921431020E+01   -0.23581E-03   -0.23581E-03 13296   0.257E-01
DAV:   5    -0.840921432107E+01   -0.10866E-07   -0.11206E-07  7696   0.152E-03    0.367E+00
DAV:   6    -0.835975897014E+01    0.49455E-01   -0.84729E-02 10432   0.858E-01    0.224E+00
DAV:   7    -0.835394100720E+01    0.58180E-02   -0.19365E-01 11216   0.128E+00    0.186E-01
DAV:   8    -0.833753065356E+01    0.16410E-01   -0.49202E-03  8192   0.242E-01    0.953E-02
DAV:   9    -0.833865752769E+01   -0.11269E-02   -0.55590E-04 10720   0.823E-02    0.524E-02
DAV:  10    -0.833866877395E+01   -0.11246E-04   -0.23739E-05  9680   0.216E-02    0.102E-02
DAV:  11    -0.833848604610E+01    0.18273E-03   -0.29702E-07 11184   0.257E-03    0.178E-03
DAV:  12    -0.833847475425E+01    0.11292E-04   -0.69742E-08  9312   0.138E-03    0.380E-04
DAV:  13    -0.833847254591E+01    0.22083E-05   -0.49955E-09  8176   0.326E-04    0.708E-05
DAV:  14    -0.833847292267E+01   -0.37676E-06   -0.17535E-10  4656   0.667E-05    0.370E-06
DAV:  15    -0.833847266527E+01    0.25740E-06   -0.69763E-12  4368   0.132E-05    0.239E-06
DAV:  16    -0.833847265780E+01    0.74651E-08   -0.15061E-12  4176   0.574E-06
   1 F= -.83384727E+01 E0= -.83384616E+01  d E =-.833847E+01
