<?xml version="1.0" encoding="ISO-8859-1"?>
<modeling>
 <generator>
  <i name="program" type="string">vasp </i>
  <i name="version" type="string">5.4.1  </i>
  <i name="subversion" type="string">24Jun15 (build Feb  9 2019 14:16:27) complex                          parallel </i>
  <i name="platform" type="string">IFC91_ompi </i>
  <i name="date" type="string">2020 09 26 </i>
  <i name="time" type="string">22:35:14 </i>
 </generator>
 <incar>
  <i type="string" name="PREC">accurate</i>
  <i type="int" name="NELM">   400</i>
  <i type="int" name="IBRION">     2</i>
  <i name="EDIFF">      0.00000010</i>
  <i type="int" name="NSW">     1</i>
  <i type="int" name="ISIF">     2</i>
  <i name="ENCUT">    500.00000000</i>
  <i type="int" name="ISMEAR">     0</i>
  <i type="logical" name="LWAVE"> F  </i>
  <i type="logical" name="LCHARG"> F  </i>
  <v type="int" name="KPOINT_BSE">    -1     0     0     0</v>
  <i type="int" name="NELM">   400</i>
  <i type="string" name="GGA">BO</i>
  <i name="PARAM1">      0.18333333</i>
  <i name="PARAM2">      0.22000000</i>
  <i type="logical" name="LUSE_VDW"> T  </i>
  <i name="AGGAC">      0.00000000</i>
 </incar>
 <kpoints>
  <generation param="Gamma">
   <v type="int" name="divisions">      19       19       19 </v>
   <v name="usershift">      0.00000000       0.00000000       0.00000000 </v>
   <v name="genvec1">      0.05263158       0.00000000       0.00000000 </v>
   <v name="genvec2">      0.00000000       0.05263158       0.00000000 </v>
   <v name="genvec3">      0.00000000       0.00000000       0.05263158 </v>
   <v name="shift">      0.00000000       0.00000000       0.00000000 </v>
  </generation>
  <varray name="kpointlist" >
   <v>       0.00000000       0.00000000       0.00000000 </v>
   <v>       0.05263158       0.00000000       0.00000000 </v>
   <v>       0.10526316       0.00000000       0.00000000 </v>
   <v>       0.15789474       0.00000000       0.00000000 </v>
   <v>       0.21052632       0.00000000       0.00000000 </v>
   <v>       0.26315789       0.00000000       0.00000000 </v>
   <v>       0.31578947       0.00000000       0.00000000 </v>
   <v>       0.36842105       0.00000000       0.00000000 </v>
   <v>       0.42105263       0.00000000       0.00000000 </v>
   <v>       0.47368421       0.00000000       0.00000000 </v>
   <v>       0.05263158       0.05263158       0.00000000 </v>
   <v>       0.10526316       0.05263158       0.00000000 </v>
   <v>       0.15789474       0.05263158       0.00000000 </v>
   <v>       0.21052632       0.05263158       0.00000000 </v>
   <v>       0.26315789       0.05263158       0.00000000 </v>
   <v>       0.31578947       0.05263158       0.00000000 </v>
   <v>       0.36842105       0.05263158       0.00000000 </v>
   <v>       0.42105263       0.05263158       0.00000000 </v>
   <v>       0.47368421       0.05263158       0.00000000 </v>
   <v>      -0.47368421       0.05263158       0.00000000 </v>
   <v>      -0.42105263       0.05263158       0.00000000 </v>
   <v>      -0.36842105       0.05263158       0.00000000 </v>
   <v>      -0.31578947       0.05263158       0.00000000 </v>
   <v>      -0.26315789       0.05263158       0.00000000 </v>
   <v>      -0.21052632       0.05263158       0.00000000 </v>
   <v>      -0.15789474       0.05263158       0.00000000 </v>
   <v>      -0.10526316       0.05263158       0.00000000 </v>
   <v>      -0.05263158       0.05263158       0.00000000 </v>
   <v>       0.10526316       0.10526316       0.00000000 </v>
   <v>       0.15789474       0.10526316       0.00000000 </v>
   <v>       0.21052632       0.10526316       0.00000000 </v>
   <v>       0.26315789       0.10526316       0.00000000 </v>
   <v>       0.31578947       0.10526316       0.00000000 </v>
   <v>       0.36842105       0.10526316       0.00000000 </v>
   <v>       0.42105263       0.10526316       0.00000000 </v>
   <v>       0.47368421       0.10526316       0.00000000 </v>
   <v>      -0.47368421       0.10526316       0.00000000 </v>
   <v>      -0.42105263       0.10526316       0.00000000 </v>
   <v>      -0.36842105       0.10526316       0.00000000 </v>
   <v>      -0.31578947       0.10526316       0.00000000 </v>
   <v>      -0.26315789       0.10526316       0.00000000 </v>
   <v>      -0.21052632       0.10526316       0.00000000 </v>
   <v>      -0.15789474       0.10526316       0.00000000 </v>
   <v>      -0.10526316       0.10526316       0.00000000 </v>
   <v>       0.15789474       0.15789474       0.00000000 </v>
   <v>       0.21052632       0.15789474       0.00000000 </v>
   <v>       0.26315789       0.15789474       0.00000000 </v>
   <v>       0.31578947       0.15789474       0.00000000 </v>
   <v>       0.36842105       0.15789474       0.00000000 </v>
   <v>       0.42105263       0.15789474       0.00000000 </v>
   <v>       0.47368421       0.15789474       0.00000000 </v>
   <v>      -0.47368421       0.15789474       0.00000000 </v>
   <v>      -0.42105263       0.15789474       0.00000000 </v>
   <v>      -0.36842105       0.15789474       0.00000000 </v>
   <v>      -0.31578947       0.15789474       0.00000000 </v>
   <v>      -0.26315789       0.15789474       0.00000000 </v>
   <v>      -0.21052632       0.15789474       0.00000000 </v>
   <v>      -0.15789474       0.15789474       0.00000000 </v>
   <v>       0.21052632       0.21052632       0.00000000 </v>
   <v>       0.26315789       0.21052632       0.00000000 </v>
   <v>       0.31578947       0.21052632       0.00000000 </v>
   <v>       0.36842105       0.21052632       0.00000000 </v>
   <v>       0.42105263       0.21052632       0.00000000 </v>
   <v>       0.47368421       0.21052632       0.00000000 </v>
   <v>      -0.47368421       0.21052632       0.00000000 </v>
   <v>      -0.42105263       0.21052632       0.00000000 </v>
   <v>      -0.36842105       0.21052632       0.00000000 </v>
   <v>      -0.31578947       0.21052632       0.00000000 </v>
   <v>      -0.26315789       0.21052632       0.00000000 </v>
   <v>      -0.21052632       0.21052632       0.00000000 </v>
   <v>       0.26315789       0.26315789       0.00000000 </v>
   <v>       0.31578947       0.26315789       0.00000000 </v>
   <v>       0.36842105       0.26315789       0.00000000 </v>
   <v>       0.42105263       0.26315789       0.00000000 </v>
   <v>       0.47368421       0.26315789       0.00000000 </v>
   <v>      -0.47368421       0.26315789       0.00000000 </v>
   <v>      -0.42105263       0.26315789       0.00000000 </v>
   <v>      -0.36842105       0.26315789       0.00000000 </v>
   <v>      -0.31578947       0.26315789       0.00000000 </v>
   <v>      -0.26315789       0.26315789       0.00000000 </v>
   <v>       0.31578947       0.31578947       0.00000000 </v>
   <v>       0.36842105       0.31578947       0.00000000 </v>
   <v>       0.42105263       0.31578947       0.00000000 </v>
   <v>       0.47368421       0.31578947       0.00000000 </v>
   <v>      -0.47368421       0.31578947       0.00000000 </v>
   <v>      -0.42105263       0.31578947       0.00000000 </v>
   <v>      -0.36842105       0.31578947       0.00000000 </v>
   <v>      -0.31578947       0.31578947       0.00000000 </v>
   <v>       0.36842105       0.36842105       0.00000000 </v>
   <v>       0.42105263       0.36842105       0.00000000 </v>
   <v>       0.47368421       0.36842105       0.00000000 </v>
   <v>      -0.47368421       0.36842105       0.00000000 </v>
   <v>      -0.42105263       0.36842105       0.00000000 </v>
   <v>      -0.36842105       0.36842105       0.00000000 </v>
   <v>       0.42105263       0.42105263       0.00000000 </v>
   <v>       0.47368421       0.42105263       0.00000000 </v>
   <v>      -0.47368421       0.42105263       0.00000000 </v>
   <v>      -0.42105263       0.42105263       0.00000000 </v>
   <v>       0.47368421       0.47368421       0.00000000 </v>
   <v>      -0.47368421       0.47368421       0.00000000 </v>
   <v>       0.15789474       0.10526316       0.05263158 </v>
   <v>       0.21052632       0.10526316       0.05263158 </v>
   <v>       0.26315789       0.10526316       0.05263158 </v>
   <v>       0.31578947       0.10526316       0.05263158 </v>
   <v>       0.36842105       0.10526316       0.05263158 </v>
   <v>       0.42105263       0.10526316       0.05263158 </v>
   <v>       0.47368421       0.10526316       0.05263158 </v>
   <v>      -0.47368421       0.10526316       0.05263158 </v>
   <v>       0.21052632       0.15789474       0.05263158 </v>
   <v>       0.26315789       0.15789474       0.05263158 </v>
   <v>       0.31578947       0.15789474       0.05263158 </v>
   <v>       0.36842105       0.15789474       0.05263158 </v>
   <v>       0.42105263       0.15789474       0.05263158 </v>
   <v>       0.47368421       0.15789474       0.05263158 </v>
   <v>      -0.47368421       0.15789474       0.05263158 </v>
   <v>      -0.42105263       0.15789474       0.05263158 </v>
   <v>      -0.36842105       0.15789474       0.05263158 </v>
   <v>      -0.31578947       0.15789474       0.05263158 </v>
   <v>      -0.26315789       0.15789474       0.05263158 </v>
   <v>      -0.21052632       0.15789474       0.05263158 </v>
   <v>      -0.15789474       0.15789474       0.05263158 </v>
   <v>      -0.10526316       0.15789474       0.05263158 </v>
   <v>       0.26315789       0.21052632       0.05263158 </v>
   <v>       0.31578947       0.21052632       0.05263158 </v>
   <v>       0.36842105       0.21052632       0.05263158 </v>
   <v>       0.42105263       0.21052632       0.05263158 </v>
   <v>       0.47368421       0.21052632       0.05263158 </v>
   <v>      -0.47368421       0.21052632       0.05263158 </v>
   <v>      -0.42105263       0.21052632       0.05263158 </v>
   <v>      -0.36842105       0.21052632       0.05263158 </v>
   <v>      -0.31578947       0.21052632       0.05263158 </v>
   <v>      -0.26315789       0.21052632       0.05263158 </v>
   <v>      -0.21052632       0.21052632       0.05263158 </v>
   <v>      -0.15789474       0.21052632       0.05263158 </v>
   <v>       0.31578947       0.26315789       0.05263158 </v>
   <v>       0.36842105       0.26315789       0.05263158 </v>
   <v>       0.42105263       0.26315789       0.05263158 </v>
   <v>       0.47368421       0.26315789       0.05263158 </v>
   <v>      -0.47368421       0.26315789       0.05263158 </v>
   <v>      -0.42105263       0.26315789       0.05263158 </v>
   <v>      -0.36842105       0.26315789       0.05263158 </v>
   <v>      -0.31578947       0.26315789       0.05263158 </v>
   <v>      -0.26315789       0.26315789       0.05263158 </v>
   <v>      -0.21052632       0.26315789       0.05263158 </v>
   <v>       0.36842105       0.31578947       0.05263158 </v>
   <v>       0.42105263       0.31578947       0.05263158 </v>
   <v>       0.47368421       0.31578947       0.05263158 </v>
   <v>      -0.47368421       0.31578947       0.05263158 </v>
   <v>      -0.42105263       0.31578947       0.05263158 </v>
   <v>      -0.36842105       0.31578947       0.05263158 </v>
   <v>      -0.31578947       0.31578947       0.05263158 </v>
   <v>      -0.26315789       0.31578947       0.05263158 </v>
   <v>       0.42105263       0.36842105       0.05263158 </v>
   <v>       0.47368421       0.36842105       0.05263158 </v>
   <v>      -0.47368421       0.36842105       0.05263158 </v>
   <v>      -0.42105263       0.36842105       0.05263158 </v>
   <v>      -0.36842105       0.36842105       0.05263158 </v>
   <v>      -0.31578947       0.36842105       0.05263158 </v>
   <v>       0.47368421       0.42105263       0.05263158 </v>
   <v>      -0.47368421       0.42105263       0.05263158 </v>
   <v>      -0.42105263       0.42105263       0.05263158 </v>
   <v>      -0.36842105       0.42105263       0.05263158 </v>
   <v>      -0.47368421       0.47368421       0.05263158 </v>
   <v>      -0.42105263       0.47368421       0.05263158 </v>
   <v>       0.31578947       0.21052632       0.10526316 </v>
   <v>       0.36842105       0.21052632       0.10526316 </v>
   <v>       0.42105263       0.21052632       0.10526316 </v>
   <v>       0.47368421       0.21052632       0.10526316 </v>
   <v>      -0.47368421       0.21052632       0.10526316 </v>
   <v>      -0.42105263       0.21052632       0.10526316 </v>
   <v>       0.36842105       0.26315789       0.10526316 </v>
   <v>       0.42105263       0.26315789       0.10526316 </v>
   <v>       0.47368421       0.26315789       0.10526316 </v>
   <v>      -0.47368421       0.26315789       0.10526316 </v>
   <v>      -0.42105263       0.26315789       0.10526316 </v>
   <v>      -0.36842105       0.26315789       0.10526316 </v>
   <v>      -0.31578947       0.26315789       0.10526316 </v>
   <v>      -0.26315789       0.26315789       0.10526316 </v>
   <v>      -0.21052632       0.26315789       0.10526316 </v>
   <v>      -0.15789474       0.26315789       0.10526316 </v>
   <v>       0.42105263       0.31578947       0.10526316 </v>
   <v>       0.47368421       0.31578947       0.10526316 </v>
   <v>      -0.47368421       0.31578947       0.10526316 </v>
   <v>      -0.42105263       0.31578947       0.10526316 </v>
   <v>      -0.36842105       0.31578947       0.10526316 </v>
   <v>      -0.31578947       0.31578947       0.10526316 </v>
   <v>      -0.26315789       0.31578947       0.10526316 </v>
   <v>      -0.21052632       0.31578947       0.10526316 </v>
   <v>       0.47368421       0.36842105       0.10526316 </v>
   <v>      -0.47368421       0.36842105       0.10526316 </v>
   <v>      -0.42105263       0.36842105       0.10526316 </v>
   <v>      -0.36842105       0.36842105       0.10526316 </v>
   <v>      -0.31578947       0.36842105       0.10526316 </v>
   <v>      -0.26315789       0.36842105       0.10526316 </v>
   <v>      -0.47368421       0.42105263       0.10526316 </v>
   <v>      -0.42105263       0.42105263       0.10526316 </v>
   <v>      -0.36842105       0.42105263       0.10526316 </v>
   <v>      -0.31578947       0.42105263       0.10526316 </v>
   <v>      -0.42105263       0.47368421       0.10526316 </v>
   <v>      -0.36842105       0.47368421       0.10526316 </v>
   <v>       0.47368421       0.31578947       0.15789474 </v>
   <v>      -0.47368421       0.31578947       0.15789474 </v>
   <v>      -0.42105263       0.31578947       0.15789474 </v>
   <v>      -0.36842105       0.31578947       0.15789474 </v>
   <v>      -0.47368421       0.36842105       0.15789474 </v>
   <v>      -0.42105263       0.36842105       0.15789474 </v>
   <v>      -0.36842105       0.36842105       0.15789474 </v>
   <v>      -0.31578947       0.36842105       0.15789474 </v>
   <v>      -0.26315789       0.36842105       0.15789474 </v>
   <v>      -0.21052632       0.36842105       0.15789474 </v>
   <v>      -0.42105263       0.42105263       0.15789474 </v>
   <v>      -0.36842105       0.42105263       0.15789474 </v>
   <v>      -0.31578947       0.42105263       0.15789474 </v>
   <v>      -0.26315789       0.42105263       0.15789474 </v>
   <v>      -0.36842105       0.47368421       0.15789474 </v>
   <v>      -0.31578947       0.47368421       0.15789474 </v>
   <v>      -0.36842105       0.42105263       0.21052632 </v>
   <v>      -0.31578947       0.42105263       0.21052632 </v>
   <v>      -0.31578947       0.47368421       0.21052632 </v>
   <v>      -0.26315789       0.47368421       0.21052632 </v>
  </varray>
  <varray name="weights" >
   <v>       0.00014579 </v>
   <v>       0.00116635 </v>
   <v>       0.00116635 </v>
   <v>       0.00116635 </v>
   <v>       0.00116635 </v>
   <v>       0.00116635 </v>
   <v>       0.00116635 </v>
   <v>       0.00116635 </v>
   <v>       0.00116635 </v>
   <v>       0.00116635 </v>
   <v>       0.00087476 </v>
   <v>       0.00349905 </v>
   <v>       0.00349905 </v>
   <v>       0.00349905 </v>
   <v>       0.00349905 </v>
   <v>       0.00349905 </v>
   <v>       0.00349905 </v>
   <v>       0.00349905 </v>
   <v>       0.00349905 </v>
   <v>       0.00349905 </v>
   <v>       0.00349905 </v>
   <v>       0.00349905 </v>
   <v>       0.00349905 </v>
   <v>       0.00349905 </v>
   <v>       0.00349905 </v>
   <v>       0.00349905 </v>
   <v>       0.00349905 </v>
   <v>       0.00174953 </v>
   <v>       0.00087476 </v>
   <v>       0.00349905 </v>
   <v>       0.00349905 </v>
   <v>       0.00349905 </v>
   <v>       0.00349905 </v>
   <v>       0.00349905 </v>
   <v>       0.00349905 </v>
   <v>       0.00349905 </v>
   <v>       0.00349905 </v>
   <v>       0.00349905 </v>
   <v>       0.00349905 </v>
   <v>       0.00349905 </v>
   <v>       0.00349905 </v>
   <v>       0.00349905 </v>
   <v>       0.00349905 </v>
   <v>       0.00174953 </v>
   <v>       0.00087476 </v>
   <v>       0.00349905 </v>
   <v>       0.00349905 </v>
   <v>       0.00349905 </v>
   <v>       0.00349905 </v>
   <v>       0.00349905 </v>
   <v>       0.00349905 </v>
   <v>       0.00349905 </v>
   <v>       0.00349905 </v>
   <v>       0.00349905 </v>
   <v>       0.00349905 </v>
   <v>       0.00349905 </v>
   <v>       0.00349905 </v>
   <v>       0.00174953 </v>
   <v>       0.00087476 </v>
   <v>       0.00349905 </v>
   <v>       0.00349905 </v>
   <v>       0.00349905 </v>
   <v>       0.00349905 </v>
   <v>       0.00349905 </v>
   <v>       0.00349905 </v>
   <v>       0.00349905 </v>
   <v>       0.00349905 </v>
   <v>       0.00349905 </v>
   <v>       0.00349905 </v>
   <v>       0.00174953 </v>
   <v>       0.00087476 </v>
   <v>       0.00349905 </v>
   <v>       0.00349905 </v>
   <v>       0.00349905 </v>
   <v>       0.00349905 </v>
   <v>       0.00349905 </v>
   <v>       0.00349905 </v>
   <v>       0.00349905 </v>
   <v>       0.00349905 </v>
   <v>       0.00174953 </v>
   <v>       0.00087476 </v>
   <v>       0.00349905 </v>
   <v>       0.00349905 </v>
   <v>       0.00349905 </v>
   <v>       0.00349905 </v>
   <v>       0.00349905 </v>
   <v>       0.00349905 </v>
   <v>       0.00174953 </v>
   <v>       0.00087476 </v>
   <v>       0.00349905 </v>
   <v>       0.00349905 </v>
   <v>       0.00349905 </v>
   <v>       0.00349905 </v>
   <v>       0.00174953 </v>
   <v>       0.00087476 </v>
   <v>       0.00349905 </v>
   <v>       0.00349905 </v>
   <v>       0.00174953 </v>
   <v>       0.00087476 </v>
   <v>       0.00174953 </v>
   <v>       0.00349905 </v>
   <v>       0.00699810 </v>
   <v>       0.00699810 </v>
   <v>       0.00699810 </v>
   <v>       0.00699810 </v>
   <v>       0.00699810 </v>
   <v>       0.00699810 </v>
   <v>       0.00699810 </v>
   <v>       0.00349905 </v>
   <v>       0.00699810 </v>
   <v>       0.00699810 </v>
   <v>       0.00699810 </v>
   <v>       0.00699810 </v>
   <v>       0.00699810 </v>
   <v>       0.00699810 </v>
   <v>       0.00699810 </v>
   <v>       0.00699810 </v>
   <v>       0.00699810 </v>
   <v>       0.00699810 </v>
   <v>       0.00699810 </v>
   <v>       0.00699810 </v>
   <v>       0.00349905 </v>
   <v>       0.00349905 </v>
   <v>       0.00699810 </v>
   <v>       0.00699810 </v>
   <v>       0.00699810 </v>
   <v>       0.00699810 </v>
   <v>       0.00699810 </v>
   <v>       0.00699810 </v>
   <v>       0.00699810 </v>
   <v>       0.00699810 </v>
   <v>       0.00699810 </v>
   <v>       0.00699810 </v>
   <v>       0.00349905 </v>
   <v>       0.00349905 </v>
   <v>       0.00699810 </v>
   <v>       0.00699810 </v>
   <v>       0.00699810 </v>
   <v>       0.00699810 </v>
   <v>       0.00699810 </v>
   <v>       0.00699810 </v>
   <v>       0.00699810 </v>
   <v>       0.00699810 </v>
   <v>       0.00349905 </v>
   <v>       0.00349905 </v>
   <v>       0.00699810 </v>
   <v>       0.00699810 </v>
   <v>       0.00699810 </v>
   <v>       0.00699810 </v>
   <v>       0.00699810 </v>
   <v>       0.00699810 </v>
   <v>       0.00349905 </v>
   <v>       0.00349905 </v>
   <v>       0.00699810 </v>
   <v>       0.00699810 </v>
   <v>       0.00699810 </v>
   <v>       0.00699810 </v>
   <v>       0.00349905 </v>
   <v>       0.00349905 </v>
   <v>       0.00699810 </v>
   <v>       0.00699810 </v>
   <v>       0.00349905 </v>
   <v>       0.00349905 </v>
   <v>       0.00349905 </v>
   <v>       0.00349905 </v>
   <v>       0.00699810 </v>
   <v>       0.00699810 </v>
   <v>       0.00699810 </v>
   <v>       0.00699810 </v>
   <v>       0.00699810 </v>
   <v>       0.00349905 </v>
   <v>       0.00699810 </v>
   <v>       0.00699810 </v>
   <v>       0.00699810 </v>
   <v>       0.00699810 </v>
   <v>       0.00699810 </v>
   <v>       0.00699810 </v>
   <v>       0.00699810 </v>
   <v>       0.00699810 </v>
   <v>       0.00349905 </v>
   <v>       0.00349905 </v>
   <v>       0.00699810 </v>
   <v>       0.00699810 </v>
   <v>       0.00699810 </v>
   <v>       0.00699810 </v>
   <v>       0.00699810 </v>
   <v>       0.00699810 </v>
   <v>       0.00349905 </v>
   <v>       0.00349905 </v>
   <v>       0.00699810 </v>
   <v>       0.00699810 </v>
   <v>       0.00699810 </v>
   <v>       0.00699810 </v>
   <v>       0.00349905 </v>
   <v>       0.00349905 </v>
   <v>       0.00699810 </v>
   <v>       0.00699810 </v>
   <v>       0.00349905 </v>
   <v>       0.00349905 </v>
   <v>       0.00349905 </v>
   <v>       0.00349905 </v>
   <v>       0.00699810 </v>
   <v>       0.00699810 </v>
   <v>       0.00699810 </v>
   <v>       0.00349905 </v>
   <v>       0.00699810 </v>
   <v>       0.00699810 </v>
   <v>       0.00699810 </v>
   <v>       0.00699810 </v>
   <v>       0.00349905 </v>
   <v>       0.00349905 </v>
   <v>       0.00699810 </v>
   <v>       0.00699810 </v>
   <v>       0.00349905 </v>
   <v>       0.00349905 </v>
   <v>       0.00349905 </v>
   <v>       0.00349905 </v>
   <v>       0.00699810 </v>
   <v>       0.00349905 </v>
   <v>       0.00349905 </v>
  </varray>
 </kpoints>
 <parameters>
  <separator name="general" >
   <i type="string" name="SYSTEM">unknown system</i>
   <i type="logical" name="LCOMPAT"> F  </i>
  </separator>
  <separator name="electronic" >
   <i type="string" name="PREC">accura</i>
   <i name="ENMAX">    500.00000000</i>
   <i name="ENAUG">    322.06900000</i>
   <i name="EDIFF">      0.00000010</i>
   <i type="int" name="IALGO">    38</i>
   <i type="int" name="IWAVPR">    11</i>
   <i type="int" name="NBANDS">    16</i>
   <i name="NELECT">      8.00000000</i>
   <i type="int" name="TURBO">     0</i>
   <i type="int" name="IRESTART">     0</i>
   <i type="int" name="NREBOOT">     0</i>
   <i type="int" name="NMIN">     0</i>
   <i name="EREF">      0.00000000</i>
   <separator name="electronic smearing" >
    <i type="int" name="ISMEAR">     0</i>
    <i name="SIGMA">      0.20000000</i>
    <i name="KSPACING">      0.50000000</i>
    <i type="logical" name="KGAMMA"> T  </i>
   </separator>
   <separator name="electronic projectors" >
    <i type="logical" name="LREAL"> F  </i>
    <v name="ROPT">      0.00000000</v>
    <i type="int" name="LMAXPAW">  -100</i>
    <i type="int" name="LMAXMIX">     2</i>
    <i type="logical" name="NLSPLINE"> F  </i>
   </separator>
   <separator name="electronic startup" >
    <i type="int" name="ISTART">     0</i>
    <i type="int" name="ICHARG">     2</i>
    <i type="int" name="INIWAV">     1</i>
   </separator>
   <separator name="electronic spin" >
    <i type="int" name="ISPIN">     1</i>
    <i type="logical" name="LNONCOLLINEAR"> F  </i>
    <v name="MAGMOM">      1.00000000      1.00000000</v>
    <i name="NUPDOWN">     -1.00000000</i>
    <i type="logical" name="LSORBIT"> F  </i>
    <v name="SAXIS">      0.00000000      0.00000000      1.00000000</v>
    <i type="logical" name="LSPIRAL"> F  </i>
    <v name="QSPIRAL">      0.00000000      0.00000000      0.00000000</v>
    <i type="logical" name="LZEROZ"> F  </i>
   </separator>
   <separator name="electronic exchange-correlation" >
    <i type="logical" name="LASPH"> F  </i>
    <i type="logical" name="LMETAGGA"> F  </i>
   </separator>
   <separator name="electronic convergence" >
    <i type="int" name="NELM">   400</i>
    <i type="int" name="NELMDL">    -5</i>
    <i type="int" name="NELMIN">     2</i>
    <i name="ENINI">    500.00000000</i>
    <separator name="electronic convergence detail" >
     <i type="logical" name="LDIAG"> T  </i>
     <i type="logical" name="LSUBROT"> F  </i>
     <i name="WEIMIN">      0.00100000</i>
     <i name="EBREAK">      0.00000000</i>
     <i name="DEPER">      0.30000000</i>
     <i type="int" name="NRMM">     4</i>
     <i name="TIME">      0.40000000</i>
    </separator>
   </separator>
   <separator name="electronic mixer" >
    <i name="AMIX">      0.40000000</i>
    <i name="BMIX">      1.00000000</i>
    <i name="AMIN">      0.10000000</i>
    <i name="AMIX_MAG">      1.60000000</i>
    <i name="BMIX_MAG">      1.00000000</i>
    <separator name="electronic mixer details" >
     <i type="int" name="IMIX">     4</i>
     <i type="logical" name="MIXFIRST"> F  </i>
     <i type="int" name="MAXMIX">   -45</i>
     <i name="WC">    100.00000000</i>
     <i type="int" name="INIMIX">     1</i>
     <i type="int" name="MIXPRE">     1</i>
     <i type="int" name="MREMOVE">     5</i>
    </separator>
   </separator>
   <separator name="electronic dipolcorrection" >
    <i type="logical" name="LDIPOL"> F  </i>
    <i type="logical" name="LMONO"> F  </i>
    <i type="int" name="IDIPOL">     0</i>
    <i name="EPSILON">      1.00000000</i>
    <v name="DIPOL">   -100.00000000   -100.00000000   -100.00000000</v>
    <i name="EFIELD">      0.00000000</i>
   </separator>
  </separator>
  <separator name="grids" >
   <i type="int" name="NGX">    28</i>
   <i type="int" name="NGY">    28</i>
   <i type="int" name="NGZ">    28</i>
   <i type="int" name="NGXF">    56</i>
   <i type="int" name="NGYF">    56</i>
   <i type="int" name="NGZF">    56</i>
   <i type="logical" name="ADDGRID"> F  </i>
  </separator>
  <separator name="ionic" >
   <i type="int" name="NSW">     1</i>
   <i type="int" name="IBRION">     2</i>
   <i type="int" name="ISIF">     2</i>
   <i name="PSTRESS">      0.00000000</i>
   <i name="EDIFFG">      0.00000100</i>
   <i type="int" name="NFREE">     1</i>
   <i name="POTIM">      0.50000000</i>
   <i name="SMASS">     -3.00000000</i>
   <i name="SCALEE">      1.00000000</i>
  </separator>
  <separator name="ionic md" >
   <i name="TEBEG">      0.00010000</i>
   <i name="TEEND">      0.00010000</i>
   <i type="int" name="NBLOCK">     1</i>
   <i type="int" name="KBLOCK">     1</i>
   <i type="int" name="NPACO">   256</i>
   <i name="APACO">     16.00000000</i>
  </separator>
  <separator name="symmetry" >
   <i type="int" name="ISYM">     2</i>
   <i name="SYMPREC">      0.00001000</i>
  </separator>
  <separator name="dos" >
   <i type="logical" name="LORBIT"> T  </i>
   <v name="RWIGS">     -1.00000000</v>
   <i type="int" name="NEDOS">   301</i>
   <i name="EMIN">     10.00000000</i>
   <i name="EMAX">    -10.00000000</i>
   <i name="EFERMI">      0.00000000</i>
  </separator>
  <separator name="writing" >
   <i type="int" name="NWRITE">     2</i>
   <i type="logical" name="LWAVE"> F  </i>
   <i type="logical" name="LCHARG"> F  </i>
   <i type="logical" name="LPARD"> F  </i>
   <i type="logical" name="LVTOT"> F  </i>
   <i type="logical" name="LVHAR"> F  </i>
   <i type="logical" name="LELF"> F  </i>
   <i type="logical" name="LOPTICS"> F  </i>
   <v name="STM">      0.00000000      0.00000000      0.00000000      0.00000000      0.00000000      0.00000000      0.00000000</v>
  </separator>
  <separator name="performance" >
   <i type="int" name="NPAR">    16</i>
   <i type="int" name="NSIM">     4</i>
   <i type="int" name="NBLK">    -1</i>
   <i type="logical" name="LPLANE"> T  </i>
   <i type="logical" name="LSCALAPACK"> T  </i>
   <i type="logical" name="LSCAAWARE"> F  </i>
   <i type="logical" name="LSCALU"> F  </i>
   <i type="logical" name="LASYNC"> F  </i>
   <i type="logical" name="LORBITALREAL"> F  </i>
  </separator>
  <separator name="miscellaneous" >
   <i type="int" name="IDIOT">     3</i>
   <i type="logical" name="LMUSIC"> F  </i>
   <v name="POMASS">     28.08500000</v>
   <v name="DARWINR">      0.00000000</v>
   <v name="DARWINV">      1.00000000</v>
   <i type="logical" name="LCORR"> T  </i>
  </separator>
  <i type="logical" name="GGA_COMPAT"> T  </i>
  <i type="logical" name="LBERRY"> F  </i>
  <i type="int" name="ICORELEVEL">     0</i>
  <i type="logical" name="LDAU"> F  </i>
  <i type="int" name="I_CONSTRAINED_M">     0</i>
  <separator name="electronic exchange-correlation" >
   <i type="string" name="GGA">BO</i>
   <i type="int" name="VOSKOWN">     0</i>
   <i type="logical" name="LHFCALC"> F  </i>
   <i type="string" name="PRECFOCK"></i>
   <i type="logical" name="LSYMGRAD"> F  </i>
   <i type="logical" name="LHFONE"> F  </i>
   <i type="logical" name="LRHFCALC"> F  </i>
   <i type="logical" name="LTHOMAS"> F  </i>
   <i type="logical" name="LMODELHF"> F  </i>
   <i name="ENCUT4O">     -1.00000000</i>
   <i type="int" name="EXXOEP">     0</i>
   <i type="int" name="FOURORBIT">     0</i>
   <i name="AEXX">      0.00000000</i>
   <i name="HFALPHA">      0.00000000</i>
   <i name="MCALPHA">      0.00000000</i>
   <i name="ALDAX">      1.00000000</i>
   <i name="AGGAX">      1.00000000</i>
   <i name="ALDAC">      1.00000000</i>
   <i name="AGGAC">      0.00000000</i>
   <i type="int" name="NKREDX">     1</i>
   <i type="int" name="NKREDY">     1</i>
   <i type="int" name="NKREDZ">     1</i>
   <i type="logical" name="SHIFTRED"> F  </i>
   <i type="logical" name="ODDONLY"> F  </i>
   <i type="logical" name="EVENONLY"> F  </i>
   <i type="int" name="LMAXFOCK">     0</i>
   <i type="int" name="NMAXFOCKAE">     0</i>
   <i type="logical" name="LFOCKAEDFT"> F  </i>
   <i name="HFSCREEN">      0.00000000</i>
   <i name="HFSCREENC">      0.00000000</i>
   <i type="int" name="NBANDSGWLOW">     0</i>
  </separator>
  <separator name="vdW DFT" >
   <i type="logical" name="LUSE_VDW"> T  </i>
   <i name="Zab_VDW">     -0.84910000</i>
   <i name="PARAM1">      0.18333333</i>
   <i name="PARAM2">      0.22000000</i>
   <i name="PARAM3">      0.00000000</i>
  </separator>
  <separator name="model GW" >
   <i type="int" name="MODEL_GW">     0</i>
   <i name="MODEL_EPS0">     12.43490274</i>
   <i name="MODEL_ALPHA">      1.00000000</i>
  </separator>
  <separator name="linear response parameters" >
   <i type="logical" name="LEPSILON"> F  </i>
   <i type="logical" name="LRPA"> F  </i>
   <i type="logical" name="LNABLA"> F  </i>
   <i type="logical" name="LVEL"> F  </i>
   <i type="int" name="KINTER">     0</i>
   <i name="CSHIFT">      0.10000000</i>
   <i name="OMEGAMAX">     -1.00000000</i>
   <i name="DEG_THRESHOLD">      0.00200000</i>
  </separator>
  <separator name="orbital magnetization" >
   <i type="logical" name="NUCIND"> F  </i>
   <v name="MAGPOS">      0.00000000      0.00000000      0.00000000</v>
   <i type="logical" name="LNICSALL"> T  </i>
   <i type="logical" name="ORBITALMAG"> F  </i>
   <i type="logical" name="LMAGBLOCH"> F  </i>
   <i type="logical" name="LCHIMAG"> F  </i>
   <i type="logical" name="LGAUGE"> T  </i>
   <i type="int" name="MAGATOM">     0</i>
   <v name="MAGDIPOL">      0.00000000      0.00000000      0.00000000</v>
   <v name="AVECCONST">      0.00000000      0.00000000      0.00000000</v>
  </separator>
  <separator name="response functions" >
   <i type="logical" name="LADDER"> F  </i>
   <i type="logical" name="LFXC"> F  </i>
   <i type="logical" name="LHARTREE"> T  </i>
   <i type="int" name="IBSE">     0</i>
   <v type="int" name="KPOINT">    -1     0     0     0</v>
   <i type="logical" name="LTCTE"> F  </i>
   <i type="logical" name="LTETE"> F  </i>
   <i type="logical" name="LTRIPLET"> F  </i>
   <i type="logical" name="LFXCEPS"> F  </i>
   <i type="logical" name="LFXHEG"> F  </i>
   <i type="int" name="NATURALO">     0</i>
   <i type="logical" name="L2ORDER"> F  </i>
   <i type="logical" name="LUSEW"> F  </i>
   <i name="ENCUTGW">     -2.00000000</i>
   <i name="ENCUTGWSOFT">     -2.00000000</i>
   <i name="ENCUTLF">     -1.00000000</i>
   <i type="int" name="LMAXMP2">    -1</i>
   <i name="SCISSOR">      0.00000000</i>
   <i type="int" name="NOMEGA">     0</i>
   <i type="int" name="NOMEGAR">     0</i>
   <i type="int" name="NBANDSGW">    -1</i>
   <i type="int" name="NBANDSO">    -1</i>
   <i type="int" name="NBANDSV">    -1</i>
   <i type="int" name="NELM">   400</i>
   <i type="int" name="NELMHF">     1</i>
   <i type="int" name="DIM">     3</i>
   <i type="int" name="ANTIRES">     0</i>
   <i name="OMEGAMAX">    -30.00000000</i>
   <i name="OMEGAMIN">    -30.00000000</i>
   <i name="OMEGATL">   -200.00000000</i>
   <i type="int" name="OMEGAGRID">     0</i>
   <i name="CSHIFT">     -0.10000000</i>
   <i type="logical" name="SELFENERGY"> F  </i>
   <i type="logical" name="LSPECTRAL"> F  </i>
   <i type="logical" name="LSPECTRALGW"> F  </i>
   <i type="logical" name="LSINGLES"> F  </i>
   <i type="logical" name="LFERMIGW"> F  </i>
   <i type="logical" name="ODDONLYGW"> F  </i>
   <i type="logical" name="EVENONLYGW"> F  </i>
   <i type="int" name="NKREDLFX">     1</i>
   <i type="int" name="NKREDLFY">     1</i>
   <i type="int" name="NKREDLFZ">     1</i>
   <i type="int" name="MAXMEM">  1800</i>
   <i type="int" name="TELESCOPE">     0</i>
   <i type="int" name="TAUPAR">     1</i>
   <i type="int" name="OMEGAPAR">    -1</i>
   <i name="LAMBDA">      1.00000000</i>
  </separator>
  <separator name="External order field" >
   <i name="OFIELD_KAPPA">      0.00000000</i>
   <v name="OFIELD_K">      0.00000000      0.00000000      0.00000000</v>
   <i name="OFIELD_Q6_NEAR">      0.00000000</i>
   <i name="OFIELD_Q6_FAR">      0.00000000</i>
   <i name="OFIELD_A">      0.00000000</i>
  </separator>
 </parameters>
 <atominfo>
  <atoms>       2 </atoms>
  <types>       1 </types>
  <array name="atoms" >
   <dimension dim="1">ion</dimension>
   <field type="string">element</field>
   <field type="int">atomtype</field>
   <set>
    <rc><c>Si</c><c>   1</c></rc>
    <rc><c>Si</c><c>   1</c></rc>
   </set>
  </array>
  <array name="atomtypes" >
   <dimension dim="1">type</dimension>
   <field type="int">atomspertype</field>
   <field type="string">element</field>
   <field>mass</field>
   <field>valence</field>
   <field type="string">pseudopotential</field>
   <set>
    <rc><c>   2</c><c>Si</c><c>     28.08500000</c><c>      4.00000000</c><c>  PAW_PBE Si 05Jan2001                  </c></rc>
   </set>
  </array>
 </atominfo>
 <structure name="initialpos" >
  <crystal>
   <varray name="basis" >
    <v>       0.00000000       2.74682114       2.74682114 </v>
    <v>       2.74682114       0.00000000       2.74682114 </v>
    <v>       2.74682114       2.74682114       0.00000000 </v>
   </varray>
   <i name="volume">     41.44967579 </i>
   <varray name="rec_basis" >
    <v>      -0.18202860       0.18202860       0.18202860 </v>
    <v>       0.18202860      -0.18202860       0.18202860 </v>
    <v>       0.18202860       0.18202860      -0.18202860 </v>
   </varray>
  </crystal>
  <varray name="positions" >
   <v>       0.75000000       0.75000000       0.75000000 </v>
   <v>       0.50000000       0.50000000       0.50000000 </v>
  </varray>
 </structure>
 <calculation>
  <scstep>
   <time name="dav">    2.61    2.61</time>
   <time name="total">    4.67    4.67</time>
   <energy>
    <i name="alphaZ">      3.24857844 </i>
    <i name="ewald">   -225.91568183 </i>
    <i name="hartreedc">    -11.53197166 </i>
    <i name="XCdc">    -20.29573795 </i>
    <i name="pawpsdc">    189.40224250 </i>
    <i name="pawaedc">   -152.61488262 </i>
    <i name="eentropy">     -0.00767799 </i>
    <i name="bandstr">     11.88226028 </i>
    <i name="atom">    208.59373829 </i>
    <i name="e_fr_energy">      2.76086745 </i>
    <i name="e_wo_entrp">      2.76854544 </i>
    <i name="e_0_energy">      2.76470644 </i>
   </energy>
  </scstep>
  <scstep>
   <time name="dav">    3.94    3.94</time>
   <time name="total">    3.95    4.05</time>
   <energy>
    <i name="e_fr_energy">     -8.32793046 </i>
    <i name="e_wo_entrp">     -8.32792924 </i>
    <i name="e_0_energy">     -8.32792985 </i>
   </energy>
  </scstep>
  <scstep>
   <time name="dav">    3.50    3.50</time>
   <time name="total">    3.50    3.57</time>
   <energy>
    <i name="e_fr_energy">     -8.40897850 </i>
    <i name="e_wo_entrp">     -8.40897757 </i>
    <i name="e_0_energy">     -8.40897803 </i>
   </energy>
  </scstep>
  <scstep>
   <time name="dav">    5.89    5.89</time>
   <time name="total">    5.90    5.94</time>
   <energy>
    <i name="e_fr_energy">     -8.40921431 </i>
    <i name="e_wo_entrp">     -8.40921338 </i>
    <i name="e_0_energy">     -8.40921384 </i>
   </energy>
  </scstep>
  <scstep>
   <time name="dav">    3.00    3.00</time>
   <time name="total">    3.11    3.18</time>
   <energy>
    <i name="e_fr_energy">     -8.40921432 </i>
    <i name="e_wo_entrp">     -8.40921339 </i>
    <i name="e_0_energy">     -8.40921386 </i>
   </energy>
  </scstep>
  <scstep>
   <time name="dav">    4.56    4.56</time>
   <time name="total">    6.30    6.35</time>
   <energy>
    <i name="e_fr_energy">     -8.35975897 </i>
    <i name="e_wo_entrp">     -8.35975493 </i>
    <i name="e_0_energy">     -8.35975695 </i>
   </energy>
  </scstep>
  <scstep>
   <time name="dav">    5.07    5.07</time>
   <time name="total">    6.89    6.96</time>
   <energy>
    <i name="e_fr_energy">     -8.35394101 </i>
    <i name="e_wo_entrp">     -8.35391119 </i>
    <i name="e_0_energy">     -8.35392610 </i>
   </energy>
  </scstep>
  <scstep>
   <time name="dav">    3.25    3.25</time>
   <time name="total">    5.04    5.07</time>
   <energy>
    <i name="e_fr_energy">     -8.33753065 </i>
    <i name="e_wo_entrp">     -8.33750986 </i>
    <i name="e_0_energy">     -8.33752026 </i>
   </energy>
  </scstep>
  <scstep>
   <time name="dav">    4.98    4.98</time>
   <time name="total">    6.76    6.82</time>
   <energy>
    <i name="e_fr_energy">     -8.33865753 </i>
    <i name="e_wo_entrp">     -8.33863484 </i>
    <i name="e_0_energy">     -8.33864618 </i>
   </energy>
  </scstep>
  <scstep>
   <time name="dav">    3.88    3.88</time>
   <time name="total">    5.70    5.78</time>
   <energy>
    <i name="e_fr_energy">     -8.33866877 </i>
    <i name="e_wo_entrp">     -8.33864654 </i>
    <i name="e_0_energy">     -8.33865766 </i>
   </energy>
  </scstep>
  <scstep>
   <time name="dav">    4.92    4.92</time>
   <time name="total">    6.72    6.78</time>
   <energy>
    <i name="e_fr_energy">     -8.33848605 </i>
    <i name="e_wo_entrp">     -8.33846385 </i>
    <i name="e_0_energy">     -8.33847495 </i>
   </energy>
  </scstep>
  <scstep>
   <time name="dav">    3.73    3.72</time>
   <time name="total">    5.53    5.80</time>
   <energy>
    <i name="e_fr_energy">     -8.33847475 </i>
    <i name="e_wo_entrp">     -8.33845257 </i>
    <i name="e_0_energy">     -8.33846366 </i>
   </energy>
  </scstep>
  <scstep>
   <time name="dav">    3.61    3.61</time>
   <time name="total">    5.39    5.51</time>
   <energy>
    <i name="e_fr_energy">     -8.33847255 </i>
    <i name="e_wo_entrp">     -8.33845037 </i>
    <i name="e_0_energy">     -8.33846146 </i>
   </energy>
  </scstep>
  <scstep>
   <time name="dav">    1.89    1.89</time>
   <time name="total">    3.70    3.77</time>
   <energy>
    <i name="e_fr_energy">     -8.33847292 </i>
    <i name="e_wo_entrp">     -8.33845075 </i>
    <i name="e_0_energy">     -8.33846183 </i>
   </energy>
  </scstep>
  <scstep>
   <time name="dav">    1.93    1.93</time>
   <time name="total">    3.72    3.78</time>
   <energy>
    <i name="e_fr_energy">     -8.33847267 </i>
    <i name="e_wo_entrp">     -8.33845049 </i>
    <i name="e_0_energy">     -8.33846158 </i>
   </energy>
  </scstep>
  <scstep>
   <time name="dav">    1.79    1.79</time>
   <time name="total">    3.42    3.50</time>
   <energy>
    <i name="alphaZ">      3.24857844 </i>
    <i name="ewald">   -225.91568183 </i>
    <i name="hartreedc">    -15.53139088 </i>
    <i name="XCdc">    -19.63668200 </i>
    <i name="pawpsdc">    523.22472399 </i>
    <i name="pawaedc">   -486.67257878 </i>
    <i name="eentropy">     -0.00002218 </i>
    <i name="bandstr">      4.35084231 </i>
    <i name="atom">    208.59373829 </i>
    <i name="e_fr_energy">     -8.33847266 </i>
    <i name="e_wo_entrp">     -8.33845048 </i>
    <i name="e_0_energy">     -8.33846157 </i>
   </energy>
  </scstep>
  <structure>
   <crystal>
    <varray name="basis" >
     <v>       0.00000000       2.74682114       2.74682114 </v>
     <v>       2.74682114       0.00000000       2.74682114 </v>
     <v>       2.74682114       2.74682114       0.00000000 </v>
    </varray>
    <i name="volume">     41.44967579 </i>
    <varray name="rec_basis" >
     <v>      -0.18202860       0.18202860       0.18202860 </v>
     <v>       0.18202860      -0.18202860       0.18202860 </v>
     <v>       0.18202860       0.18202860      -0.18202860 </v>
    </varray>
   </crystal>
   <varray name="positions" >
    <v>       0.75000000       0.75000000       0.75000000 </v>
    <v>       0.50000000       0.50000000       0.50000000 </v>
   </varray>
  </structure>
  <varray name="forces" >
   <v>      -0.00000000      -0.00000000      -0.00000000 </v>
   <v>       0.00000000       0.00000000       0.00000000 </v>
  </varray>
  <varray name="stress" >
   <v>       0.00833635       0.00000000      -0.00000000 </v>
   <v>       0.00000000       0.00833635       0.00000000 </v>
   <v>       0.00000000       0.00000000       0.00833635 </v>
  </varray>
  <energy>
   <i name="e_fr_energy">     -8.33847266 </i>
   <i name="e_wo_entrp">     -8.33846157 </i>
   <i name="e_0_energy">     -0.00002218 </i>
  </energy>
  <time name="totalsc">   87.18   88.51</time>
  <eigenvalues>
   <array>
    <dimension dim="1">band</dimension>
    <dimension dim="2">kpoint</dimension>
    <dimension dim="3">spin</dimension>
    <field>eigene</field>
    <field>occ</field>
    <set>
     <set comment="spin 1">
      <set comment="kpoint 1">
       <r>   -6.1919    1.0000 </r>
       <r>    5.4589    0.9939 </r>
       <r>    5.4589    0.9939 </r>
       <r>    5.4589    0.9939 </r>
       <r>    8.0741    0.0000 </r>
       <r>    8.0741    0.0000 </r>
       <r>    8.0741    0.0000 </r>
       <r>    8.5297    0.0000 </r>
       <r>   13.2140    0.0000 </r>
       <r>   13.2140    0.0000 </r>
       <r>   13.3485    0.0000 </r>
       <r>   16.6555    0.0000 </r>
       <r>   16.6555    0.0000 </r>
       <r>   16.6555    0.0000 </r>
       <r>   20.7506    0.0000 </r>
       <r>   28.1662    0.0000 </r>
      </set>
      <set comment="kpoint 2">
       <r>   -6.1567    1.0000 </r>
       <r>    5.0755    1.0000 </r>
       <r>    5.4021    0.9982 </r>
       <r>    5.4021    0.9982 </r>
       <r>    8.1048    0.0000 </r>
       <r>    8.1585    0.0000 </r>
       <r>    8.1585    0.0000 </r>
       <r>    8.8220    0.0000 </r>
       <r>   13.0968    0.0000 </r>
       <r>   13.0968    0.0000 </r>
       <r>   13.5033    0.0000 </r>
       <r>   16.5166    0.0000 </r>
       <r>   16.8875    0.0000 </r>
       <r>   16.8875    0.0000 </r>
       <r>   20.9967    0.0000 </r>
       <r>   27.7049    0.0000 </r>
      </set>
      <set comment="kpoint 3">
       <r>   -6.0514    1.0000 </r>
       <r>    4.2508    1.0000 </r>
       <r>    5.2559    1.0000 </r>
       <r>    5.2559    1.0000 </r>
       <r>    7.9956    0.0000 </r>
       <r>    8.3769    0.0000 </r>
       <r>    8.3769    0.0000 </r>
       <r>    9.5942    0.0000 </r>
       <r>   12.8427    0.0000 </r>
       <r>   12.8427    0.0000 </r>
       <r>   13.9212    0.0000 </r>
       <r>   16.2154    0.0000 </r>
       <r>   17.4934    0.0000 </r>
       <r>   17.4934    0.0000 </r>
       <r>   21.6380    0.0000 </r>
       <r>   26.6709    0.0000 </r>
      </set>
      <set comment="kpoint 4">
       <r>   -5.8777    1.0000 </r>
       <r>    3.3028    1.0000 </r>
       <r>    5.0669    1.0000 </r>
       <r>    5.0669    1.0000 </r>
       <r>    7.8045    0.0000 </r>
       <r>    8.6496    0.0000 </r>
       <r>    8.6496    0.0000 </r>
       <r>   10.5149    0.0000 </r>
       <r>   12.6206    0.0000 </r>
       <r>   12.6206    0.0000 </r>
       <r>   14.4079    0.0000 </r>
       <r>   16.0424    0.0000 </r>
       <r>   18.3262    0.0000 </r>
       <r>   18.3262    0.0000 </r>
       <r>   22.4901    0.0000 </r>
       <r>   25.3091    0.0000 </r>
      </set>
      <set comment="kpoint 5">
       <r>   -5.6381    1.0000 </r>
       <r>    2.3430    1.0000 </r>
       <r>    4.8726    1.0000 </r>
       <r>    4.8726    1.0000 </r>
       <r>    7.5940    0.0000 </r>
       <r>    8.8853    0.0000 </r>
       <r>    8.8853    0.0000 </r>
       <r>   11.4540    0.0000 </r>
       <r>   12.5660    0.0000 </r>
       <r>   12.5660    0.0000 </r>
       <r>   14.5393    0.0000 </r>
       <r>   16.4583    0.0000 </r>
       <r>   19.2680    0.0000 </r>
       <r>   19.2680    0.0000 </r>
       <r>   23.2126    0.0000 </r>
       <r>   23.9479    0.0000 </r>
      </set>
      <set comment="kpoint 6">
       <r>   -5.3380    1.0000 </r>
       <r>    1.4164    1.0000 </r>
       <r>    4.6951    1.0000 </r>
       <r>    4.6951    1.0000 </r>
       <r>    7.3952    0.0000 </r>
       <r>    9.0144    0.0000 </r>
       <r>    9.0144    0.0000 </r>
       <r>   12.3561    0.0000 </r>
       <r>   12.7649    0.0000 </r>
       <r>   12.7649    0.0000 </r>
       <r>   14.3680    0.0000 </r>
       <r>   17.4098    0.0000 </r>
       <r>   20.1166    0.0000 </r>
       <r>   20.1166    0.0000 </r>
       <r>   22.8164    0.0000 </r>
       <r>   22.8185    0.0000 </r>
      </set>
      <set comment="kpoint 7">
       <r>   -4.9872    1.0000 </r>
       <r>    0.5516    1.0000 </r>
       <r>    4.5462    1.0000 </r>
       <r>    4.5462    1.0000 </r>
       <r>    7.2249    0.0000 </r>
       <r>    9.0300    0.0000 </r>
       <r>    9.0300    0.0000 </r>
       <r>   13.0884    0.0000 </r>
       <r>   13.2293    0.0000 </r>
       <r>   13.2293    0.0000 </r>
       <r>   14.3153    0.0000 </r>
       <r>   18.4983    0.0000 </r>
       <r>   20.1262    0.0000 </r>
       <r>   20.1262    0.0000 </r>
       <r>   22.1019    0.0000 </r>
       <r>   22.6650    0.0000 </r>
      </set>
      <set comment="kpoint 8">
       <r>   -4.6061    1.0000 </r>
       <r>   -0.2213    1.0000 </r>
       <r>    4.4318    1.0000 </r>
       <r>    4.4318    1.0000 </r>
       <r>    7.0923    0.0000 </r>
       <r>    8.9803    0.0000 </r>
       <r>    8.9803    0.0000 </r>
       <r>   13.3274    0.0000 </r>
       <r>   13.9112    0.0000 </r>
       <r>   13.9112    0.0000 </r>
       <r>   14.7999    0.0000 </r>
       <r>   19.1653    0.0000 </r>
       <r>   19.1653    0.0000 </r>
       <r>   19.2023    0.0000 </r>
       <r>   21.7443    0.0000 </r>
       <r>   23.6216    0.0000 </r>
      </set>
      <set comment="kpoint 9">
       <r>   -4.2402    1.0000 </r>
       <r>   -0.8511    1.0000 </r>
       <r>    4.3547    1.0000 </r>
       <r>    4.3547    1.0000 </r>
       <r>    7.0021    0.0000 </r>
       <r>    8.9189    0.0000 </r>
       <r>    8.9189    0.0000 </r>
       <r>   13.2772    0.0000 </r>
       <r>   14.7490    0.0000 </r>
       <r>   14.7490    0.0000 </r>
       <r>   15.6255    0.0000 </r>
       <r>   18.0226    0.0000 </r>
       <r>   18.0226    0.0000 </r>
       <r>   18.8794    0.0000 </r>
       <r>   22.5435    0.0000 </r>
       <r>   24.8883    0.0000 </r>
      </set>
      <set comment="kpoint 10">
       <r>   -3.9891    1.0000 </r>
       <r>   -1.2348    1.0000 </r>
       <r>    4.3159    1.0000 </r>
       <r>    4.3159    1.0000 </r>
       <r>    6.9564    0.0000 </r>
       <r>    8.8803    0.0000 </r>
       <r>    8.8803    0.0000 </r>
       <r>   13.2217    0.0000 </r>
       <r>   15.6563    0.0000 </r>
       <r>   15.6563    0.0000 </r>
       <r>   16.3897    0.0000 </r>
       <r>   16.9515    0.0000 </r>
       <r>   16.9515    0.0000 </r>
       <r>   18.2010    0.0000 </r>
       <r>   23.9312    0.0000 </r>
       <r>   25.6156    0.0000 </r>
      </set>
      <set comment="kpoint 11">
       <r>   -6.1449    1.0000 </r>
       <r>    5.1443    1.0000 </r>
       <r>    5.2805    0.9999 </r>
       <r>    5.2805    0.9999 </r>
       <r>    7.9618    0.0000 </r>
       <r>    8.3104    0.0000 </r>
       <r>    8.3104    0.0000 </r>
       <r>    8.8340    0.0000 </r>
       <r>   12.8653    0.0000 </r>
       <r>   13.2664    0.0000 </r>
       <r>   13.5545    0.0000 </r>
       <r>   16.7380    0.0000 </r>
       <r>   16.7380    0.0000 </r>
       <r>   16.8990    0.0000 </r>
       <r>   21.0879    0.0000 </r>
       <r>   27.4808    0.0000 </r>
      </set>
      <set comment="kpoint 12">
       <r>   -6.0629    1.0000 </r>
       <r>    4.4907    1.0000 </r>
       <r>    5.0918    1.0000 </r>
       <r>    5.2169    1.0000 </r>
       <r>    7.9494    0.0000 </r>
       <r>    8.3684    0.0000 </r>
       <r>    8.5783    0.0000 </r>
       <r>    9.4092    0.0000 </r>
       <r>   12.5351    0.0000 </r>
       <r>   13.2143    0.0000 </r>
       <r>   13.8877    0.0000 </r>
       <r>   16.5148    0.0000 </r>
       <r>   17.0443    0.0000 </r>
       <r>   17.4815    0.0000 </r>
       <r>   21.6141    0.0000 </r>
       <r>   26.5531    0.0000 </r>
      </set>
      <set comment="kpoint 13">
       <r>   -5.9119    1.0000 </r>
       <r>    3.5949    1.0000 </r>
       <r>    4.8818    1.0000 </r>
       <r>    5.0834    1.0000 </r>
       <r>    7.9881    0.0000 </r>
       <r>    8.3682    0.0000 </r>
       <r>    8.8872    0.0000 </r>
       <r>   10.2286    0.0000 </r>
       <r>   12.2793    0.0000 </r>
       <r>   13.0658    0.0000 </r>
       <r>   14.3900    0.0000 </r>
       <r>   16.2350    0.0000 </r>
       <r>   17.7026    0.0000 </r>
       <r>   18.3304    0.0000 </r>
       <r>   22.4071    0.0000 </r>
       <r>   25.2260    0.0000 </r>
      </set>
      <set comment="kpoint 14">
       <r>   -5.6939    1.0000 </r>
       <r>    2.6499    1.0000 </r>
       <r>    4.6820    1.0000 </r>
       <r>    4.8937    1.0000 </r>
       <r>    7.8673    0.0000 </r>
       <r>    8.5486    0.0000 </r>
       <r>    9.1537    0.0000 </r>
       <r>   10.9665    0.0000 </r>
       <r>   12.3021    0.0000 </r>
       <r>   13.0028    0.0000 </r>
       <r>   14.7170    0.0000 </r>
       <r>   16.3518    0.0000 </r>
       <r>   18.5587    0.0000 </r>
       <r>   19.2984    0.0000 </r>
       <r>   23.2060    0.0000 </r>
       <r>   23.8414    0.0000 </r>
      </set>
      <set comment="kpoint 15">
       <r>   -5.4133    1.0000 </r>
       <r>    1.7195    1.0000 </r>
       <r>    4.5102    1.0000 </r>
       <r>    4.6898    1.0000 </r>
       <r>    7.6890    0.0000 </r>
       <r>    8.7372    0.0000 </r>
       <r>    9.3055    0.0000 </r>
       <r>   11.4695    0.0000 </r>
       <r>   12.7897    0.0000 </r>
       <r>   13.1547    0.0000 </r>
       <r>   14.6198    0.0000 </r>
       <r>   17.1183    0.0000 </r>
       <r>   19.4379    0.0000 </r>
       <r>   20.2521    0.0000 </r>
       <r>   22.5955    0.0000 </r>
       <r>   22.9247    0.0000 </r>
      </set>
      <set comment="kpoint 16">
       <r>   -5.0780    1.0000 </r>
       <r>    0.8380    1.0000 </r>
       <r>    4.3758    1.0000 </r>
       <r>    4.4968    1.0000 </r>
       <r>    7.5195    0.0000 </r>
       <r>    8.8271    0.0000 </r>
       <r>    9.3236    0.0000 </r>
       <r>   11.9390    0.0000 </r>
       <r>   13.5161    0.0000 </r>
       <r>   13.5660    0.0000 </r>
       <r>   14.4578    0.0000 </r>
       <r>   18.1588    0.0000 </r>
       <r>   19.7811    0.0000 </r>
       <r>   20.6481    0.0000 </r>
       <r>   22.0444    0.0000 </r>
       <r>   22.3343    0.0000 </r>
      </set>
      <set comment="kpoint 17">
       <r>   -4.7037    1.0000 </r>
       <r>    0.0346    1.0000 </r>
       <r>    4.2834    1.0000 </r>
       <r>    4.3283    1.0000 </r>
       <r>    7.3791    0.0000 </r>
       <r>    8.8331    0.0000 </r>
       <r>    9.2507    0.0000 </r>
       <r>   12.5239    0.0000 </r>
       <r>   13.9000    0.0000 </r>
       <r>   14.2034    0.0000 </r>
       <r>   14.7961    0.0000 </r>
       <r>   18.9131    0.0000 </r>
       <r>   18.9949    0.0000 </r>
       <r>   20.1213    0.0000 </r>
       <r>   21.8945    0.0000 </r>
       <r>   22.7760    0.0000 </r>
      </set>
      <set comment="kpoint 18">
       <r>   -4.3248    1.0000 </r>
       <r>   -0.6485    1.0000 </r>
       <r>    4.1917    1.0000 </r>
       <r>    4.2344    1.0000 </r>
       <r>    7.2767    0.0000 </r>
       <r>    8.8121    0.0000 </r>
       <r>    9.1453    0.0000 </r>
       <r>   13.0867    0.0000 </r>
       <r>   14.0328    0.0000 </r>
       <r>   15.0045    0.0000 </r>
       <r>   15.6436    0.0000 </r>
       <r>   17.8713    0.0000 </r>
       <r>   18.3894    0.0000 </r>
       <r>   19.6786    0.0000 </r>
       <r>   22.1814    0.0000 </r>
       <r>   23.9950    0.0000 </r>
      </set>
      <set comment="kpoint 19">
       <r>   -4.0197    1.0000 </r>
       <r>   -1.1288    1.0000 </r>
       <r>    4.0915    1.0000 </r>
       <r>    4.2286    1.0000 </r>
       <r>    7.2164    0.0000 </r>
       <r>    8.8075    0.0000 </r>
       <r>    9.0497    0.0000 </r>
       <r>   13.3053    0.0000 </r>
       <r>   14.5987    0.0000 </r>
       <r>   15.8470    0.0000 </r>
       <r>   16.4811    0.0000 </r>
       <r>   16.8259    0.0000 </r>
       <r>   17.4834    0.0000 </r>
       <r>   18.8614    0.0000 </r>
       <r>   23.4250    0.0000 </r>
       <r>   25.3420    0.0000 </r>
      </set>
      <set comment="kpoint 20">
       <r>   -3.9251    1.0000 </r>
       <r>   -1.2673    1.0000 </r>
       <r>    4.0307    1.0000 </r>
       <r>    4.2647    1.0000 </r>
       <r>    7.2001    0.0000 </r>
       <r>    8.8408    0.0000 </r>
       <r>    8.9862    0.0000 </r>
       <r>   13.3390    0.0000 </r>
       <r>   15.2882    0.0000 </r>
       <r>   15.4972    0.0000 </r>
       <r>   16.4677    0.0000 </r>
       <r>   17.1329    0.0000 </r>
       <r>   17.2559    0.0000 </r>
       <r>   18.3152    0.0000 </r>
       <r>   24.3346    0.0000 </r>
       <r>   25.0763    0.0000 </r>
      </set>
      <set comment="kpoint 21">
       <r>   -4.1058    1.0000 </r>
       <r>   -0.9985    1.0000 </r>
       <r>    4.0119    1.0000 </r>
       <r>    4.3406    1.0000 </r>
       <r>    7.2284    0.0000 </r>
       <r>    8.9155    0.0000 </r>
       <r>    8.9612    0.0000 </r>
       <r>   13.3457    0.0000 </r>
       <r>   14.5395    0.0000 </r>
       <r>   15.0192    0.0000 </r>
       <r>   16.5362    0.0000 </r>
       <r>   16.9424    0.0000 </r>
       <r>   18.2125    0.0000 </r>
       <r>   18.9112    0.0000 </r>
       <r>   22.9295    0.0000 </r>
       <r>   24.8513    0.0000 </r>
      </set>
      <set comment="kpoint 22">
       <r>   -4.4484    1.0000 </r>
       <r>   -0.4372    1.0000 </r>
       <r>    4.0369    1.0000 </r>
       <r>    4.4533    1.0000 </r>
       <r>    7.3008    0.0000 </r>
       <r>    8.9658    0.0000 </r>
       <r>    9.0204    0.0000 </r>
       <r>   13.2350    0.0000 </r>
       <r>   13.6655    0.0000 </r>
       <r>   14.4451    0.0000 </r>
       <r>   15.6088    0.0000 </r>
       <r>   17.9543    0.0000 </r>
       <r>   19.3617    0.0000 </r>
       <r>   19.4992    0.0000 </r>
       <r>   21.8802    0.0000 </r>
       <r>   23.5142    0.0000 </r>
      </set>
      <set comment="kpoint 23">
       <r>   -4.8316    1.0000 </r>
       <r>    0.2924    1.0000 </r>
       <r>    4.1069    1.0000 </r>
       <r>    4.5991    1.0000 </r>
       <r>    7.4153    0.0000 </r>
       <r>    8.9727    0.0000 </r>
       <r>    9.1256    0.0000 </r>
       <r>   12.7978    0.0000 </r>
       <r>   12.9413    0.0000 </r>
       <r>   14.2621    0.0000 </r>
       <r>   14.7319    0.0000 </r>
       <r>   18.6081    0.0000 </r>
       <r>   19.4551    0.0000 </r>
       <r>   20.4250    0.0000 </r>
       <r>   21.8577    0.0000 </r>
       <r>   22.4722    0.0000 </r>
      </set>
      <set comment="kpoint 24">
       <r>   -5.1954    1.0000 </r>
       <r>    1.1252    1.0000 </r>
       <r>    4.2221    1.0000 </r>
       <r>    4.7722    1.0000 </r>
       <r>    7.5679    0.0000 </r>
       <r>    8.9342    0.0000 </r>
       <r>    9.1773    0.0000 </r>
       <r>   12.1869    0.0000 </r>
       <r>   12.4265    0.0000 </r>
       <r>   13.8329    0.0000 </r>
       <r>   14.5057    0.0000 </r>
       <r>   17.7813    0.0000 </r>
       <r>   19.7282    0.0000 </r>
       <r>   20.8001    0.0000 </r>
       <r>   21.7726    0.0000 </r>
       <r>   22.9019    0.0000 </r>
      </set>
      <set comment="kpoint 25">
       <r>   -5.5136    1.0000 </r>
       <r>    2.0249    1.0000 </r>
       <r>    4.3812    1.0000 </r>
       <r>    4.9632    1.0000 </r>
       <r>    7.7510    0.0000 </r>
       <r>    8.8023    0.0000 </r>
       <r>    9.1067    0.0000 </r>
       <r>   11.5460    0.0000 </r>
       <r>   12.1770    0.0000 </r>
       <r>   13.2497    0.0000 </r>
       <r>   14.6988    0.0000 </r>
       <r>   16.7989    0.0000 </r>
       <r>   19.0668    0.0000 </r>
       <r>   20.0953    0.0000 </r>
       <r>   22.6324    0.0000 </r>
       <r>   23.4696    0.0000 </r>
      </set>
      <set comment="kpoint 26">
       <r>   -5.7739    1.0000 </r>
       <r>    2.9605    1.0000 </r>
       <r>    4.5807    1.0000 </r>
       <r>    5.1555    1.0000 </r>
       <r>    7.9497    0.0000 </r>
       <r>    8.5790    0.0000 </r>
       <r>    8.8826    0.0000 </r>
       <r>   10.8259    0.0000 </r>
       <r>   12.1986    0.0000 </r>
       <r>   12.9836    0.0000 </r>
       <r>   14.6658    0.0000 </r>
       <r>   16.2381    0.0000 </r>
       <r>   18.1454    0.0000 </r>
       <r>   19.1288    0.0000 </r>
       <r>   22.9396    0.0000 </r>
       <r>   23.9675    0.0000 </r>
      </set>
      <set comment="kpoint 27">
       <r>   -5.9699    1.0000 </r>
       <r>    3.8838    1.0000 </r>
       <r>    4.8162    1.0000 </r>
       <r>    5.3205    0.9998 </r>
       <r>    8.1357    0.0000 </r>
       <r>    8.3361    0.0000 </r>
       <r>    8.5585    0.0000 </r>
       <r>   10.0233    0.0000 </r>
       <r>   12.4282    0.0000 </r>
       <r>   13.0037    0.0000 </r>
       <r>   14.2162    0.0000 </r>
       <r>   16.3118    0.0000 </r>
       <r>   17.3278    0.0000 </r>
       <r>   18.2047    0.0000 </r>
       <r>   22.0953    0.0000 </r>
       <r>   25.3321    0.0000 </r>
      </set>
      <set comment="kpoint 28">
       <r>   -6.0981    1.0000 </r>
       <r>    4.6700    1.0000 </r>
       <r>    5.1010    1.0000 </r>
       <r>    5.4156    0.9975 </r>
       <r>    8.1712    0.0000 </r>
       <r>    8.2335    0.0000 </r>
       <r>    8.2582    0.0000 </r>
       <r>    9.2641    0.0000 </r>
       <r>   12.7683    0.0000 </r>
       <r>   13.1143    0.0000 </r>
       <r>   13.7476    0.0000 </r>
       <r>   16.5440    0.0000 </r>
       <r>   16.8251    0.0000 </r>
       <r>   17.4230    0.0000 </r>
       <r>   21.3788    0.0000 </r>
       <r>   26.6607    0.0000 </r>
      </set>
      <set comment="kpoint 29">
       <r>   -6.0043    1.0000 </r>
       <r>    4.4316    1.0000 </r>
       <r>    4.8753    1.0000 </r>
       <r>    4.8753    1.0000 </r>
       <r>    7.6745    0.0000 </r>
       <r>    8.8879    0.0000 </r>
       <r>    8.8879    0.0000 </r>
       <r>    9.4421    0.0000 </r>
       <r>   12.1843    0.0000 </r>
       <r>   13.4235    0.0000 </r>
       <r>   14.1207    0.0000 </r>
       <r>   16.9840    0.0000 </r>
       <r>   16.9840    0.0000 </r>
       <r>   17.3954    0.0000 </r>
       <r>   22.0332    0.0000 </r>
       <r>   26.1866    0.0000 </r>
      </set>
      <set comment="kpoint 30">
       <r>   -5.8761    1.0000 </r>
       <r>    3.7624    1.0000 </r>
       <r>    4.6492    1.0000 </r>
       <r>    4.7428    1.0000 </r>
       <r>    7.6221    0.0000 </r>
       <r>    8.9501    0.0000 </r>
       <r>    9.2374    0.0000 </r>
       <r>    9.9650    0.0000 </r>
       <r>   11.9911    0.0000 </r>
       <r>   13.4489    0.0000 </r>
       <r>   14.5699    0.0000 </r>
       <r>   16.7851    0.0000 </r>
       <r>   17.3546    0.0000 </r>
       <r>   18.1047    0.0000 </r>
       <r>   22.7497    0.0000 </r>
       <r>   25.1368    0.0000 </r>
      </set>
      <set comment="kpoint 31">
       <r>   -5.6803    1.0000 </r>
       <r>    2.8979    1.0000 </r>
       <r>    4.4413    1.0000 </r>
       <r>    4.5776    1.0000 </r>
       <r>    7.7326    0.0000 </r>
       <r>    8.8657    0.0000 </r>
       <r>    9.5503    0.0000 </r>
       <r>   10.3736    0.0000 </r>
       <r>   12.2364    0.0000 </r>
       <r>   13.4367    0.0000 </r>
       <r>   15.0498    0.0000 </r>
       <r>   16.6237    0.0000 </r>
       <r>   18.0405    0.0000 </r>
       <r>   19.0810    0.0000 </r>
       <r>   23.5168    0.0000 </r>
       <r>   23.7858    0.0000 </r>
      </set>
      <set comment="kpoint 32">
       <r>   -5.4202    1.0000 </r>
       <r>    2.0015    1.0000 </r>
       <r>    4.2677    1.0000 </r>
       <r>    4.3582    1.0000 </r>
       <r>    7.8322    0.0000 </r>
       <r>    8.8489    0.0000 </r>
       <r>    9.7496    0.0000 </r>
       <r>   10.5367    0.0000 </r>
       <r>   12.9356    0.0000 </r>
       <r>   13.5651    0.0000 </r>
       <r>   15.1603    0.0000 </r>
       <r>   17.0409    0.0000 </r>
       <r>   18.8587    0.0000 </r>
       <r>   20.0954    0.0000 </r>
       <r>   22.4856    0.0000 </r>
       <r>   22.9572    0.0000 </r>
      </set>
      <set comment="kpoint 33">
       <r>   -5.1022    1.0000 </r>
       <r>    1.1278    1.0000 </r>
       <r>    4.1260    1.0000 </r>
       <r>    4.1370    1.0000 </r>
       <r>    7.8200    0.0000 </r>
       <r>    8.8854    0.0000 </r>
       <r>    9.7983    0.0000 </r>
       <r>   10.7960    0.0000 </r>
       <r>   13.8033    0.0000 </r>
       <r>   13.9297    0.0000 </r>
       <r>   14.9741    0.0000 </r>
       <r>   17.9293    0.0000 </r>
       <r>   19.3968    0.0000 </r>
       <r>   20.7131    0.0000 </r>
       <r>   21.6478    0.0000 </r>
       <r>   22.3615    0.0000 </r>
      </set>
      <set comment="kpoint 34">
       <r>   -4.7386    1.0000 </r>
       <r>    0.3124    1.0000 </r>
       <r>    3.9073    1.0000 </r>
       <r>    4.0535    1.0000 </r>
       <r>    7.7444    0.0000 </r>
       <r>    8.8863    0.0000 </r>
       <r>    9.7276    0.0000 </r>
       <r>   11.2988    0.0000 </r>
       <r>   14.4756    0.0000 </r>
       <r>   14.5253    0.0000 </r>
       <r>   15.0039    0.0000 </r>
       <r>   18.6963    0.0000 </r>
       <r>   18.8468    0.0000 </r>
       <r>   20.4226    0.0000 </r>
       <r>   22.0681    0.0000 </r>
       <r>   22.5730    0.0000 </r>
      </set>
      <set comment="kpoint 35">
       <r>   -4.3552    1.0000 </r>
       <r>   -0.4063    1.0000 </r>
       <r>    3.7165    1.0000 </r>
       <r>    4.0189    1.0000 </r>
       <r>    7.6676    0.0000 </r>
       <r>    8.8575    0.0000 </r>
       <r>    9.5993    0.0000 </r>
       <r>   11.9931    0.0000 </r>
       <r>   14.4135    0.0000 </r>
       <r>   15.2928    0.0000 </r>
       <r>   15.8359    0.0000 </r>
       <r>   17.7606    0.0000 </r>
       <r>   18.3631    0.0000 </r>
       <r>   20.6353    0.0000 </r>
       <r>   22.1794    0.0000 </r>
       <r>   23.1895    0.0000 </r>
      </set>
      <set comment="kpoint 36">
       <r>   -4.0120    1.0000 </r>
       <r>   -0.9614    1.0000 </r>
       <r>    3.5623    1.0000 </r>
       <r>    4.0328    1.0000 </r>
       <r>    7.6190    0.0000 </r>
       <r>    8.8412    0.0000 </r>
       <r>    9.4634    0.0000 </r>
       <r>   12.7697    0.0000 </r>
       <r>   14.3222    0.0000 </r>
       <r>   16.0459    0.0000 </r>
       <r>   16.6837    0.0000 </r>
       <r>   16.7727    0.0000 </r>
       <r>   17.5980    0.0000 </r>
       <r>   20.1296    0.0000 </r>
       <r>   22.9550    0.0000 </r>
       <r>   24.4946    0.0000 </r>
      </set>
      <set comment="kpoint 37">
       <r>   -3.8311    1.0000 </r>
       <r>   -1.2269    1.0000 </r>
       <r>    3.4502    1.0000 </r>
       <r>    4.0934    1.0000 </r>
       <r>    7.6096    0.0000 </r>
       <r>    8.8629    0.0000 </r>
       <r>    9.3490    0.0000 </r>
       <r>   13.4237    0.0000 </r>
       <r>   14.3809    0.0000 </r>
       <r>   15.3825    0.0000 </r>
       <r>   16.4742    0.0000 </r>
       <r>   17.3543    0.0000 </r>
       <r>   17.9528    0.0000 </r>
       <r>   19.1881    0.0000 </r>
       <r>   24.2894    0.0000 </r>
       <r>   24.7393    0.0000 </r>
      </set>
      <set comment="kpoint 38">
       <r>   -3.9276    1.0000 </r>
       <r>   -1.0866    1.0000 </r>
       <r>    3.3847    1.0000 </r>
       <r>    4.1976    1.0000 </r>
       <r>    7.6423    0.0000 </r>
       <r>    8.9309    0.0000 </r>
       <r>    9.2677    0.0000 </r>
       <r>   13.5764    0.0000 </r>
       <r>   14.3838    0.0000 </r>
       <r>   14.5867    0.0000 </r>
       <r>   16.2493    0.0000 </r>
       <r>   17.9481    0.0000 </r>
       <r>   18.4347    0.0000 </r>
       <r>   19.0915    0.0000 </r>
       <r>   23.1410    0.0000 </r>
       <r>   24.9571    0.0000 </r>
      </set>
      <set comment="kpoint 39">
       <r>   -4.2345    1.0000 </r>
       <r>   -0.6084    1.0000 </r>
       <r>    3.3695    1.0000 </r>
       <r>    4.3409    1.0000 </r>
       <r>    7.7159    0.0000 </r>
       <r>    9.0397    0.0000 </r>
       <r>    9.2158    0.0000 </r>
       <r>   13.2004    0.0000 </r>
       <r>   13.4767    0.0000 </r>
       <r>   14.6391    0.0000 </r>
       <r>   16.8552    0.0000 </r>
       <r>   16.9871    0.0000 </r>
       <r>   19.5828    0.0000 </r>
       <r>   19.7902    0.0000 </r>
       <r>   21.9525    0.0000 </r>
       <r>   23.5747    0.0000 </r>
      </set>
      <set comment="kpoint 40">
       <r>   -4.6138    1.0000 </r>
       <r>    0.0662    1.0000 </r>
       <r>    3.4081    1.0000 </r>
       <r>    4.5169    1.0000 </r>
       <r>    7.8272    0.0000 </r>
       <r>    9.1658    0.0000 </r>
       <r>    9.1715    0.0000 </r>
       <r>   12.5554    0.0000 </r>
       <r>   12.7157    0.0000 </r>
       <r>   14.7631    0.0000 </r>
       <r>   16.0054    0.0000 </r>
       <r>   17.7486    0.0000 </r>
       <r>   19.6330    0.0000 </r>
       <r>   20.6980    0.0000 </r>
       <r>   21.5984    0.0000 </r>
       <r>   22.5348    0.0000 </r>
      </set>
      <set comment="kpoint 41">
       <r>   -4.9877    1.0000 </r>
       <r>    0.8520    1.0000 </r>
       <r>    3.5044    1.0000 </r>
       <r>    4.7164    1.0000 </r>
       <r>    7.9708    0.0000 </r>
       <r>    9.0916    0.0000 </r>
       <r>    9.2550    0.0000 </r>
       <r>   11.9029    0.0000 </r>
       <r>   12.1602    0.0000 </r>
       <r>   14.9536    0.0000 </r>
       <r>   15.0975    0.0000 </r>
       <r>   17.9310    0.0000 </r>
       <r>   19.3286    0.0000 </r>
       <r>   21.0013    0.0000 </r>
       <r>   21.3924    0.0000 </r>
       <r>   22.9242    0.0000 </r>
      </set>
      <set comment="kpoint 42">
       <r>   -5.3223    1.0000 </r>
       <r>    1.6995    1.0000 </r>
       <r>    3.6648    1.0000 </r>
       <r>    4.9253    1.0000 </r>
       <r>    8.1376    0.0000 </r>
       <r>    8.9299    0.0000 </r>
       <r>    9.2112    0.0000 </r>
       <r>   11.3815    0.0000 </r>
       <r>   11.8717    0.0000 </r>
       <r>   14.2160    0.0000 </r>
       <r>   15.1991    0.0000 </r>
       <r>   17.1519    0.0000 </r>
       <r>   18.9434    0.0000 </r>
       <r>   20.9708    0.0000 </r>
       <r>   21.3386    0.0000 </r>
       <r>   23.6073    0.0000 </r>
      </set>
      <set comment="kpoint 43">
       <r>   -5.6021    1.0000 </r>
       <r>    2.5578    1.0000 </r>
       <r>    3.9065    1.0000 </r>
       <r>    5.1205    1.0000 </r>
       <r>    8.3081    0.0000 </r>
       <r>    8.6930    0.0000 </r>
       <r>    8.9619    0.0000 </r>
       <r>   10.9970    0.0000 </r>
       <r>   11.8617    0.0000 </r>
       <r>   13.5373    0.0000 </r>
       <r>   15.1613    0.0000 </r>
       <r>   16.6009    0.0000 </r>
       <r>   18.0689    0.0000 </r>
       <r>   20.0412    0.0000 </r>
       <r>   22.5356    0.0000 </r>
       <r>   23.5481    0.0000 </r>
      </set>
      <set comment="kpoint 44">
       <r>   -5.8194    1.0000 </r>
       <r>    3.3298    1.0000 </r>
       <r>    4.2789    1.0000 </r>
       <r>    5.2668    0.9999 </r>
       <r>    8.4033    0.0000 </r>
       <r>    8.4617    0.0000 </r>
       <r>    8.6193    0.0000 </r>
       <r>   10.5675    0.0000 </r>
       <r>   12.0739    0.0000 </r>
       <r>   13.1490    0.0000 </r>
       <r>   14.7066    0.0000 </r>
       <r>   16.5218    0.0000 </r>
       <r>   17.3916    0.0000 </r>
       <r>   19.0787    0.0000 </r>
       <r>   22.8209    0.0000 </r>
       <r>   23.9165    0.0000 </r>
      </set>
      <set comment="kpoint 45">
       <r>   -5.7708    1.0000 </r>
       <r>    3.5750    1.0000 </r>
       <r>    4.4106    1.0000 </r>
       <r>    4.4106    1.0000 </r>
       <r>    7.3080    0.0000 </r>
       <r>    9.6363    0.0000 </r>
       <r>    9.6363    0.0000 </r>
       <r>    9.7090    0.0000 </r>
       <r>   11.9093    0.0000 </r>
       <r>   13.6853    0.0000 </r>
       <r>   14.9442    0.0000 </r>
       <r>   17.3864    0.0000 </r>
       <r>   17.3864    0.0000 </r>
       <r>   17.9501    0.0000 </r>
       <r>   23.4021    0.0000 </r>
       <r>   24.7968    0.0000 </r>
      </set>
      <set comment="kpoint 46">
       <r>   -5.5974    1.0000 </r>
       <r>    2.9585    1.0000 </r>
       <r>    4.1930    1.0000 </r>
       <r>    4.2136    1.0000 </r>
       <r>    7.2525    0.0000 </r>
       <r>    9.4558    0.0000 </r>
       <r>   10.0125    0.0000 </r>
       <r>   10.0304    0.0000 </r>
       <r>   12.2649    0.0000 </r>
       <r>   13.7997    0.0000 </r>
       <r>   15.4465    0.0000 </r>
       <r>   17.2589    0.0000 </r>
       <r>   17.8047    0.0000 </r>
       <r>   18.7237    0.0000 </r>
       <r>   23.7386    0.0000 </r>
       <r>   23.8765    0.0000 </r>
      </set>
      <set comment="kpoint 47">
       <r>   -5.3586    1.0000 </r>
       <r>    2.1781    1.0000 </r>
       <r>    3.9806    1.0000 </r>
       <r>    4.0124    1.0000 </r>
       <r>    7.3847    0.0000 </r>
       <r>    9.3426    0.0000 </r>
       <r>   10.0541    0.0000 </r>
       <r>   10.2848    0.0000 </r>
       <r>   13.0381    0.0000 </r>
       <r>   13.9505    0.0000 </r>
       <r>   15.8065    0.0000 </r>
       <r>   17.2903    0.0000 </r>
       <r>   18.4675    0.0000 </r>
       <r>   19.7484    0.0000 </r>
       <r>   22.4537    0.0000 </r>
       <r>   22.8956    0.0000 </r>
      </set>
      <set comment="kpoint 48">
       <r>   -5.0593    1.0000 </r>
       <r>    1.3625    1.0000 </r>
       <r>    3.7087    1.0000 </r>
       <r>    3.8774    1.0000 </r>
       <r>    7.5291    0.0000 </r>
       <r>    9.4332    0.0000 </r>
       <r>    9.9854    0.0000 </r>
       <r>   10.3946    0.0000 </r>
       <r>   13.9806    0.0000 </r>
       <r>   14.2871    0.0000 </r>
       <r>   15.7391    0.0000 </r>
       <r>   17.9050    0.0000 </r>
       <r>   19.0414    0.0000 </r>
       <r>   20.5245    0.0000 </r>
       <r>   21.4546    0.0000 </r>
       <r>   22.2202    0.0000 </r>
      </set>
      <set comment="kpoint 49">
       <r>   -4.7092    1.0000 </r>
       <r>    0.5691    1.0000 </r>
       <r>    3.4367    1.0000 </r>
       <r>    3.7928    1.0000 </r>
       <r>    7.5828    0.0000 </r>
       <r>    9.5571    0.0000 </r>
       <r>   10.1628    0.0000 </r>
       <r>   10.3538    0.0000 </r>
       <r>   14.8499    0.0000 </r>
       <r>   14.9361    0.0000 </r>
       <r>   15.5286    0.0000 </r>
       <r>   18.6135    0.0000 </r>
       <r>   18.7180    0.0000 </r>
       <r>   20.3751    0.0000 </r>
       <r>   21.5439    0.0000 </r>
       <r>   22.7715    0.0000 </r>
      </set>
      <set comment="kpoint 50">
       <r>   -4.3279    1.0000 </r>
       <r>   -0.1581    1.0000 </r>
       <r>    3.1893    1.0000 </r>
       <r>    3.7606    1.0000 </r>
       <r>    7.5811    0.0000 </r>
       <r>    9.5010    0.0000 </r>
       <r>   10.2248    0.0000 </r>
       <r>   10.7727    0.0000 </r>
       <r>   15.1478    0.0000 </r>
       <r>   15.5925    0.0000 </r>
       <r>   16.0517    0.0000 </r>
       <r>   17.6889    0.0000 </r>
       <r>   18.3948    0.0000 </r>
       <r>   20.7994    0.0000 </r>
       <r>   22.5173    0.0000 </r>
       <r>   23.0134    0.0000 </r>
      </set>
      <set comment="kpoint 51">
       <r>   -3.9603    1.0000 </r>
       <r>   -0.7610    1.0000 </r>
       <r>    2.9801    1.0000 </r>
       <r>    3.7809    1.0000 </r>
       <r>    7.5841    0.0000 </r>
       <r>    9.4239    0.0000 </r>
       <r>   10.0672    0.0000 </r>
       <r>   11.5867    0.0000 </r>
       <r>   14.8849    0.0000 </r>
       <r>   16.2189    0.0000 </r>
       <r>   16.8085    0.0000 </r>
       <r>   16.9412    0.0000 </r>
       <r>   17.7060    0.0000 </r>
       <r>   21.3495    0.0000 </r>
       <r>   22.6999    0.0000 </r>
       <r>   23.7337    0.0000 </r>
      </set>
      <set comment="kpoint 52">
       <r>   -3.7076    1.0000 </r>
       <r>   -1.1312    1.0000 </r>
       <r>    2.8177    1.0000 </r>
       <r>    3.8520    1.0000 </r>
       <r>    7.6233    0.0000 </r>
       <r>    9.3775    0.0000 </r>
       <r>    9.9176    0.0000 </r>
       <r>   12.4999    0.0000 </r>
       <r>   14.5143    0.0000 </r>
       <r>   15.3185    0.0000 </r>
       <r>   16.7568    0.0000 </r>
       <r>   17.5968    0.0000 </r>
       <r>   18.2132    0.0000 </r>
       <r>   20.5726    0.0000 </r>
       <r>   23.8106    0.0000 </r>
       <r>   24.6082    0.0000 </r>
      </set>
      <set comment="kpoint 53">
       <r>   -3.7120    1.0000 </r>
       <r>   -1.1235    1.0000 </r>
       <r>    2.7084    1.0000 </r>
       <r>    3.9708    1.0000 </r>
       <r>    7.7088    0.0000 </r>
       <r>    9.3736    0.0000 </r>
       <r>    9.7928    0.0000 </r>
       <r>   13.4389    0.0000 </r>
       <r>   13.9476    0.0000 </r>
       <r>   14.2866    0.0000 </r>
       <r>   16.4418    0.0000 </r>
       <r>   18.6763    0.0000 </r>
       <r>   19.1515    0.0000 </r>
       <r>   19.5677    0.0000 </r>
       <r>   23.0998    0.0000 </r>
       <r>   25.1207    0.0000 </r>
      </set>
      <set comment="kpoint 54">
       <r>   -3.9699    1.0000 </r>
       <r>   -0.7424    1.0000 </r>
       <r>    2.6581    1.0000 </r>
       <r>    4.1323    1.0000 </r>
       <r>    7.8387    0.0000 </r>
       <r>    9.4125    0.0000 </r>
       <r>    9.6921    0.0000 </r>
       <r>   13.1792    0.0000 </r>
       <r>   13.3514    0.0000 </r>
       <r>   14.3433    0.0000 </r>
       <r>   16.5319    0.0000 </r>
       <r>   18.4481    0.0000 </r>
       <r>   19.8206    0.0000 </r>
       <r>   20.0463    0.0000 </r>
       <r>   21.8367    0.0000 </r>
       <r>   23.9138    0.0000 </r>
      </set>
      <set comment="kpoint 55">
       <r>   -4.3384    1.0000 </r>
       <r>   -0.1367    1.0000 </r>
       <r>    2.6740    1.0000 </r>
       <r>    4.3290    1.0000 </r>
       <r>    8.0037    0.0000 </r>
       <r>    9.4809    0.0000 </r>
       <r>    9.5952    0.0000 </r>
       <r>   12.3881    0.0000 </r>
       <r>   12.5631    0.0000 </r>
       <r>   15.0342    0.0000 </r>
       <r>   17.0013    0.0000 </r>
       <r>   17.4131    0.0000 </r>
       <r>   19.8909    0.0000 </r>
       <r>   20.9575    0.0000 </r>
       <r>   21.4785    0.0000 </r>
       <r>   22.7469    0.0000 </r>
      </set>
      <set comment="kpoint 56">
       <r>   -4.7187    1.0000 </r>
       <r>    0.5807    1.0000 </r>
       <r>    2.7684    1.0000 </r>
       <r>    4.5494    1.0000 </r>
       <r>    8.1884    0.0000 </r>
       <r>    9.4572    0.0000 </r>
       <r>    9.5317    0.0000 </r>
       <r>   11.6765    0.0000 </r>
       <r>   11.9862    0.0000 </r>
       <r>   15.4949    0.0000 </r>
       <r>   16.3643    0.0000 </r>
       <r>   17.5567    0.0000 </r>
       <r>   19.1836    0.0000 </r>
       <r>   20.8657    0.0000 </r>
       <r>   21.8413    0.0000 </r>
       <r>   22.8827    0.0000 </r>
      </set>
      <set comment="kpoint 57">
       <r>   -5.0673    1.0000 </r>
       <r>    1.3318    1.0000 </r>
       <r>    2.9677    1.0000 </r>
       <r>    4.7755    1.0000 </r>
       <r>    8.3668    0.0000 </r>
       <r>    9.2324    0.0000 </r>
       <r>    9.4499    0.0000 </r>
       <r>   11.1935    0.0000 </r>
       <r>   11.6867    0.0000 </r>
       <r>   15.3048    0.0000 </r>
       <r>   15.8185    0.0000 </r>
       <r>   17.2612    0.0000 </r>
       <r>   19.1214    0.0000 </r>
       <r>   20.3225    0.0000 </r>
       <r>   21.7896    0.0000 </r>
       <r>   23.5435    0.0000 </r>
      </set>
      <set comment="kpoint 58">
       <r>   -5.3649    1.0000 </r>
       <r>    2.0227    1.0000 </r>
       <r>    3.3305    1.0000 </r>
       <r>    4.9793    1.0000 </r>
       <r>    8.4728    0.0000 </r>
       <r>    8.9443    0.0000 </r>
       <r>    9.1673    0.0000 </r>
       <r>   11.0304    0.0000 </r>
       <r>   11.6674    0.0000 </r>
       <r>   14.3555    0.0000 </r>
       <r>   15.6917    0.0000 </r>
       <r>   16.8289    0.0000 </r>
       <r>   18.4838    0.0000 </r>
       <r>   20.9889    0.0000 </r>
       <r>   21.2195    0.0000 </r>
       <r>   23.8563    0.0000 </r>
      </set>
      <set comment="kpoint 59">
       <r>   -5.4462    1.0000 </r>
       <r>    2.6703    1.0000 </r>
       <r>    3.9652    1.0000 </r>
       <r>    3.9652    1.0000 </r>
       <r>    6.9395    0.0000 </r>
       <r>    9.2151    0.0000 </r>
       <r>   10.4730    0.0000 </r>
       <r>   10.4730    0.0000 </r>
       <r>   12.5142    0.0000 </r>
       <r>   14.0513    0.0000 </r>
       <r>   15.9312    0.0000 </r>
       <r>   17.9216    0.0000 </r>
       <r>   17.9216    0.0000 </r>
       <r>   18.5678    0.0000 </r>
       <r>   23.4581    0.0000 </r>
       <r>   23.4581    0.0000 </r>
      </set>
      <set comment="kpoint 60">
       <r>   -5.2288    1.0000 </r>
       <r>    2.1076    1.0000 </r>
       <r>    3.7301    1.0000 </r>
       <r>    3.7745    1.0000 </r>
       <r>    6.9047    0.0000 </r>
       <r>    8.9218    0.0000 </r>
       <r>   10.7219    0.0000 </r>
       <r>   10.8486    0.0000 </r>
       <r>   13.1633    0.0000 </r>
       <r>   14.2648    0.0000 </r>
       <r>   16.4233    0.0000 </r>
       <r>   17.8986    0.0000 </r>
       <r>   18.3444    0.0000 </r>
       <r>   19.3637    0.0000 </r>
       <r>   22.4598    0.0000 </r>
       <r>   22.6976    0.0000 </r>
      </set>
      <set comment="kpoint 61">
       <r>   -4.9492    1.0000 </r>
       <r>    1.4286    1.0000 </r>
       <r>    3.4218    1.0000 </r>
       <r>    3.6304    1.0000 </r>
       <r>    7.0568    0.0000 </r>
       <r>    8.8320    0.0000 </r>
       <r>   10.7054    0.0000 </r>
       <r>   11.0573    0.0000 </r>
       <r>   14.0926    0.0000 </r>
       <r>   14.5963    0.0000 </r>
       <r>   16.5855    0.0000 </r>
[...]
       <r>   19.7602    0.0000 </r>
       <r>   20.3591    0.0000 </r>
       <r>   21.6399    0.0000 </r>
       <r>   22.6840    0.0000 </r>
       <r>   23.6634    0.0000 </r>
      </set>
      <set comment="kpoint 215">
       <r>   -2.4116    1.0000 </r>
       <r>   -1.7490    1.0000 </r>
       <r>    1.9699    1.0000 </r>
       <r>    2.1395    1.0000 </r>
       <r>    8.0470    0.0000 </r>
       <r>    8.1777    0.0000 </r>
       <r>   11.9105    0.0000 </r>
       <r>   12.8269    0.0000 </r>
       <r>   15.3240    0.0000 </r>
       <r>   16.2768    0.0000 </r>
       <r>   17.7579    0.0000 </r>
       <r>   18.6299    0.0000 </r>
       <r>   21.0163    0.0000 </r>
       <r>   21.7823    0.0000 </r>
       <r>   21.9469    0.0000 </r>
       <r>   22.9538    0.0000 </r>
      </set>
      <set comment="kpoint 216">
       <r>   -2.2202    1.0000 </r>
       <r>   -1.9046    1.0000 </r>
       <r>    1.7152    1.0000 </r>
       <r>    2.1688    1.0000 </r>
       <r>    8.2362    0.0000 </r>
       <r>    9.0195    0.0000 </r>
       <r>   11.6622    0.0000 </r>
       <r>   11.7739    0.0000 </r>
       <r>   15.3794    0.0000 </r>
       <r>   16.0072    0.0000 </r>
       <r>   17.9861    0.0000 </r>
       <r>   18.7093    0.0000 </r>
       <r>   21.4589    0.0000 </r>
       <r>   22.0974    0.0000 </r>
       <r>   22.4777    0.0000 </r>
       <r>   22.6127    0.0000 </r>
      </set>
      <set comment="kpoint 217">
       <r>   -2.8895    1.0000 </r>
       <r>   -1.2225    1.0000 </r>
       <r>    1.6197    1.0000 </r>
       <r>    2.4265    1.0000 </r>
       <r>    9.0864    0.0000 </r>
       <r>    9.3538    0.0000 </r>
       <r>    9.9362    0.0000 </r>
       <r>   12.4881    0.0000 </r>
       <r>   14.2187    0.0000 </r>
       <r>   15.8416    0.0000 </r>
       <r>   18.1887    0.0000 </r>
       <r>   19.5688    0.0000 </r>
       <r>   20.2224    0.0000 </r>
       <r>   21.4844    0.0000 </r>
       <r>   21.7994    0.0000 </r>
       <r>   23.9450    0.0000 </r>
      </set>
      <set comment="kpoint 218">
       <r>   -2.5858    1.0000 </r>
       <r>   -1.5152    1.0000 </r>
       <r>    1.5530    1.0000 </r>
       <r>    2.2669    1.0000 </r>
       <r>    9.2837    0.0000 </r>
       <r>    9.5786    0.0000 </r>
       <r>   10.3340    0.0000 </r>
       <r>   11.3994    0.0000 </r>
       <r>   14.5679    0.0000 </r>
       <r>   16.2730    0.0000 </r>
       <r>   17.7170    0.0000 </r>
       <r>   19.4646    0.0000 </r>
       <r>   20.5766    0.0000 </r>
       <r>   22.1969    0.0000 </r>
       <r>   22.6367    0.0000 </r>
       <r>   23.5345    0.0000 </r>
      </set>
      <set comment="kpoint 219">
       <r>   -2.3265    1.0000 </r>
       <r>   -1.7653    1.0000 </r>
       <r>    1.7330    1.0000 </r>
       <r>    2.0022    1.0000 </r>
       <r>    9.1032    0.0000 </r>
       <r>    9.2055    0.0000 </r>
       <r>   10.6573    0.0000 </r>
       <r>   11.5288    0.0000 </r>
       <r>   15.3322    0.0000 </r>
       <r>   16.2110    0.0000 </r>
       <r>   17.8635    0.0000 </r>
       <r>   18.7190    0.0000 </r>
       <r>   21.2744    0.0000 </r>
       <r>   22.1453    0.0000 </r>
       <r>   22.6573    0.0000 </r>
       <r>   23.4852    0.0000 </r>
      </set>
      <set comment="kpoint 220">
       <r>   -2.2583    1.0000 </r>
       <r>   -1.8190    1.0000 </r>
       <r>    1.6409    1.0000 </r>
       <r>    2.0134    1.0000 </r>
       <r>    9.2907    0.0000 </r>
       <r>    9.9489    0.0000 </r>
       <r>   10.5449    0.0000 </r>
       <r>   10.6199    0.0000 </r>
       <r>   15.3512    0.0000 </r>
       <r>   16.1206    0.0000 </r>
       <r>   17.9384    0.0000 </r>
       <r>   18.7570    0.0000 </r>
       <r>   21.2960    0.0000 </r>
       <r>   22.0327    0.0000 </r>
       <r>   23.4132    0.0000 </r>
       <r>   23.5459    0.0000 </r>
      </set>
     </set>
    </set>
   </array>
  </eigenvalues>
  <separator name="orbital magnetization" >
   <v name="MAGDIPOLOUT">      0.00000000      0.00000000      0.00000000</v>
  </separator>
  <dos>
   <i name="efermi">      5.81327285 </i>
   <total>
    <array>
     <dimension dim="1">gridpoints</dimension>
     <dimension dim="2">spin</dimension>
     <field>energy</field>
     <field>total</field>
     <field>integrated</field>
     <set>
      <set comment="spin 1">
       <r>    -8.1919     0.0000     0.0000 </r>
       <r>    -8.0640     0.0000     0.0000 </r>
       <r>    -7.9362     0.0000     0.0000 </r>
       <r>    -7.8083     0.0000     0.0000 </r>
       <r>    -7.6804     0.0000     0.0000 </r>
       <r>    -7.5526     0.0000     0.0000 </r>
       <r>    -7.4247     0.0000     0.0000 </r>
       <r>    -7.2969     0.0000     0.0000 </r>
       <r>    -7.1690     0.0000     0.0000 </r>
       <r>    -7.0411     0.0000     0.0000 </r>
       <r>    -6.9133     0.0000     0.0000 </r>
       <r>    -6.7854     0.0000     0.0000 </r>
       <r>    -6.6576     0.0000     0.0000 </r>
       <r>    -6.5297     0.0002     0.0000 </r>
       <r>    -6.4018     0.0024     0.0003 </r>
       <r>    -6.2740     0.0144     0.0022 </r>
       <r>    -6.1461     0.0498     0.0085 </r>
       <r>    -6.0183     0.1076     0.0223 </r>
       <r>    -5.8904     0.1677     0.0437 </r>
       <r>    -5.7625     0.2171     0.0715 </r>
       <r>    -5.6347     0.2576     0.1044 </r>
       <r>    -5.5068     0.2932     0.1419 </r>
       <r>    -5.3790     0.3258     0.1836 </r>
       <r>    -5.2511     0.3578     0.2293 </r>
       <r>    -5.1232     0.3865     0.2787 </r>
       <r>    -4.9954     0.4189     0.3323 </r>
       <r>    -4.8675     0.4471     0.3895 </r>
       <r>    -4.7396     0.4775     0.4505 </r>
       <r>    -4.6118     0.5148     0.5163 </r>
       <r>    -4.4839     0.5432     0.5858 </r>
       <r>    -4.3561     0.5866     0.6608 </r>
       <r>    -4.2282     0.6405     0.7427 </r>
       <r>    -4.1003     0.6948     0.8315 </r>
       <r>    -3.9725     0.7827     0.9316 </r>
       <r>    -3.8446     0.8501     1.0403 </r>
       <r>    -3.7168     0.8491     1.1488 </r>
       <r>    -3.5889     0.8321     1.2552 </r>
       <r>    -3.4610     0.7878     1.3560 </r>
       <r>    -3.3332     0.7315     1.4495 </r>
       <r>    -3.2053     0.6948     1.5383 </r>
       <r>    -3.0775     0.6438     1.6207 </r>
       <r>    -2.9496     0.5884     1.6959 </r>
       <r>    -2.8217     0.5478     1.7659 </r>
       <r>    -2.6939     0.4844     1.8279 </r>
       <r>    -2.5660     0.4256     1.8823 </r>
       <r>    -2.4382     0.3669     1.9292 </r>
       <r>    -2.3103     0.2716     1.9639 </r>
       <r>    -2.1824     0.1954     1.9889 </r>
       <r>    -2.0546     0.1525     2.0084 </r>
       <r>    -1.9267     0.1545     2.0282 </r>
       <r>    -1.7989     0.2305     2.0576 </r>
       <r>    -1.6710     0.3229     2.0989 </r>
       <r>    -1.5431     0.3951     2.1494 </r>
       <r>    -1.4153     0.5354     2.2179 </r>
       <r>    -1.2874     0.7815     2.3178 </r>
       <r>    -1.1596     1.0616     2.4536 </r>
       <r>    -1.0317     1.2015     2.6072 </r>
       <r>    -0.9038     1.0800     2.7453 </r>
       <r>    -0.7760     0.8654     2.8559 </r>
       <r>    -0.6481     0.7371     2.9502 </r>
       <r>    -0.5203     0.6570     3.0342 </r>
       <r>    -0.3924     0.5749     3.1077 </r>
       <r>    -0.2645     0.5286     3.1753 </r>
       <r>    -0.1367     0.4951     3.2386 </r>
       <r>    -0.0088     0.4445     3.2954 </r>
       <r>     0.1190     0.4063     3.3473 </r>
       <r>     0.2469     0.3912     3.3973 </r>
       <r>     0.3748     0.3660     3.4441 </r>
       <r>     0.5026     0.3195     3.4850 </r>
       <r>     0.6305     0.3045     3.5239 </r>
       <r>     0.7583     0.3018     3.5625 </r>
       <r>     0.8862     0.2744     3.5976 </r>
       <r>     1.0141     0.2449     3.6289 </r>
       <r>     1.1419     0.2671     3.6631 </r>
       <r>     1.2698     0.3922     3.7132 </r>
       <r>     1.3976     0.6357     3.7945 </r>
       <r>     1.5255     0.9077     3.9106 </r>
       <r>     1.6534     1.0953     4.0506 </r>
       <r>     1.7812     1.1429     4.1967 </r>
       <r>     1.9091     1.1143     4.3392 </r>
       <r>     2.0369     1.1007     4.4799 </r>
       <r>     2.1648     1.0703     4.6168 </r>
       <r>     2.2927     1.0810     4.7550 </r>
       <r>     2.4205     1.1650     4.9040 </r>
       <r>     2.5484     1.2576     5.0648 </r>
       <r>     2.6762     1.3647     5.2392 </r>
       <r>     2.8041     1.4314     5.4223 </r>
       <r>     2.9320     1.4869     5.6124 </r>
       <r>     3.0598     1.5595     5.8118 </r>
       <r>     3.1877     1.5148     6.0055 </r>
       <r>     3.3155     1.4343     6.1888 </r>
       <r>     3.4434     1.4105     6.3692 </r>
       <r>     3.5713     1.3727     6.5447 </r>
       <r>     3.6991     1.3480     6.7171 </r>
       <r>     3.8270     1.3209     6.8860 </r>
       <r>     3.9548     1.2790     7.0495 </r>
       <r>     4.0827     1.2384     7.2078 </r>
       <r>     4.2106     1.1743     7.3580 </r>
       <r>     4.3384     1.0643     7.4940 </r>
       <r>     4.4663     0.9050     7.6098 </r>
       <r>     4.5942     0.7392     7.7043 </r>
       <r>     4.7220     0.6013     7.7812 </r>
       <r>     4.8499     0.4817     7.8427 </r>
       <r>     4.9777     0.3863     7.8921 </r>
       <r>     5.1056     0.3190     7.9329 </r>
       <r>     5.2335     0.2481     7.9647 </r>
       <r>     5.3613     0.1599     7.9851 </r>
       <r>     5.4892     0.0804     7.9954 </r>
       <r>     5.6170     0.0289     7.9991 </r>
       <r>     5.7449     0.0064     7.9999 </r>
       <r>     5.8728     0.0014     8.0001 </r>
       <r>     6.0006     0.0057     8.0008 </r>
       <r>     6.1285     0.0286     8.0045 </r>
       <r>     6.2563     0.0874     8.0156 </r>
       <r>     6.3842     0.1811     8.0388 </r>
       <r>     6.5121     0.2895     8.0758 </r>
       <r>     6.6399     0.3969     8.1266 </r>
       <r>     6.7678     0.4769     8.1875 </r>
       <r>     6.8956     0.5316     8.2555 </r>
       <r>     7.0235     0.6171     8.3344 </r>
       <r>     7.1514     0.7633     8.4320 </r>
       <r>     7.2792     0.9304     8.5510 </r>
       <r>     7.4071     1.0567     8.6861 </r>
       <r>     7.5349     1.2037     8.8400 </r>
       <r>     7.6628     1.3833     9.0169 </r>
       <r>     7.7907     1.4831     9.2065 </r>
       <r>     7.9185     1.5347     9.4027 </r>
       <r>     8.0464     1.5176     9.5968 </r>
       <r>     8.1742     1.4075     9.7767 </r>
       <r>     8.3021     1.2809     9.9405 </r>
       <r>     8.4300     1.1549    10.0882 </r>
       <r>     8.5578     1.1126    10.2304 </r>
       <r>     8.6857     1.3130    10.3983 </r>
       <r>     8.8135     1.7108    10.6170 </r>
       <r>     8.9414     1.9841    10.8707 </r>
       <r>     9.0693     1.9673    11.1223 </r>
       <r>     9.1971     1.8481    11.3586 </r>
       <r>     9.3250     1.6995    11.5759 </r>
       <r>     9.4528     1.4830    11.7655 </r>
       <r>     9.5807     1.2531    11.9257 </r>
       <r>     9.7086     1.1587    12.0739 </r>
       <r>     9.8364     1.2710    12.2364 </r>
       <r>     9.9643     1.4308    12.4193 </r>
       <r>    10.0921     1.4263    12.6017 </r>
       <r>    10.2200     1.2959    12.7674 </r>
       <r>    10.3479     1.1964    12.9204 </r>
       <r>    10.4757     1.2233    13.0768 </r>
       <r>    10.6036     1.3181    13.2453 </r>
       <r>    10.7314     1.3480    13.4176 </r>
       <r>    10.8593     1.2573    13.5784 </r>
       <r>    10.9872     1.0663    13.7148 </r>
       <r>    11.1150     0.9443    13.8355 </r>
       <r>    11.2429     1.0032    13.9638 </r>
       <r>    11.3707     1.1458    14.1103 </r>
       <r>    11.4986     1.2652    14.2720 </r>
       <r>    11.6265     1.2955    14.4377 </r>
       <r>    11.7543     1.1335    14.5826 </r>
       <r>    11.8822     0.9141    14.6995 </r>
       <r>    12.0100     0.8722    14.8110 </r>
       <r>    12.1379     0.9952    14.9382 </r>
       <r>    12.2658     1.2096    15.0929 </r>
       <r>    12.3936     1.4135    15.2736 </r>
       <r>    12.5215     1.5161    15.4675 </r>
       <r>    12.6493     1.3925    15.6455 </r>
       <r>    12.7772     1.1079    15.7872 </r>
       <r>    12.9051     0.9684    15.9110 </r>
       <r>    13.0329     1.0014    16.0390 </r>
       <r>    13.1608     1.0569    16.1742 </r>
       <r>    13.2886     1.2045    16.3282 </r>
       <r>    13.4165     1.5120    16.5215 </r>
       <r>    13.5444     1.6947    16.7382 </r>
       <r>    13.6722     1.4680    16.9259 </r>
       <r>    13.8001     1.0996    17.0665 </r>
       <r>    13.9279     0.9338    17.1859 </r>
       <r>    14.0558     0.9603    17.3087 </r>
       <r>    14.1837     1.0994    17.4493 </r>
       <r>    14.3115     1.3096    17.6167 </r>
       <r>    14.4394     1.5271    17.8120 </r>
       <r>    14.5673     1.6533    18.0234 </r>
       <r>    14.6951     1.5397    18.2202 </r>
       <r>    14.8230     1.2837    18.3844 </r>
       <r>    14.9508     1.1753    18.5346 </r>
       <r>    15.0787     1.2237    18.6911 </r>
       <r>    15.2066     1.3500    18.8637 </r>
       <r>    15.3344     1.5123    19.0571 </r>
       <r>    15.4623     1.5187    19.2513 </r>
       <r>    15.5901     1.3675    19.4261 </r>
       <r>    15.7180     1.2197    19.5821 </r>
       <r>    15.8459     1.1464    19.7286 </r>
       <r>    15.9737     1.1101    19.8706 </r>
       <r>    16.1016     1.1198    20.0138 </r>
       <r>    16.2294     1.2428    20.1727 </r>
       <r>    16.3573     1.4223    20.3545 </r>
       <r>    16.4852     1.4871    20.5447 </r>
       <r>    16.6130     1.3503    20.7173 </r>
       <r>    16.7409     1.1634    20.8661 </r>
       <r>    16.8687     1.1084    21.0078 </r>
       <r>    16.9966     1.1528    21.1552 </r>
       <r>    17.1245     1.2160    21.3107 </r>
       <r>    17.2523     1.3502    21.4833 </r>
       <r>    17.3802     1.5361    21.6797 </r>
       <r>    17.5080     1.6934    21.8962 </r>
       <r>    17.6359     1.7729    22.1229 </r>
       <r>    17.7638     1.7112    22.3417 </r>
       <r>    17.8916     1.5901    22.5450 </r>
       <r>    18.0195     1.5319    22.7409 </r>
       <r>    18.1473     1.5002    22.9327 </r>
       <r>    18.2752     1.4760    23.1214 </r>
       <r>    18.4031     1.5142    23.3150 </r>
       <r>    18.5309     1.6102    23.5209 </r>
       <r>    18.6588     1.6600    23.7331 </r>
       <r>    18.7866     1.5921    23.9367 </r>
       <r>    18.9145     1.4973    24.1281 </r>
       <r>    19.0424     1.5723    24.3292 </r>
       <r>    19.1702     1.7615    24.5544 </r>
       <r>    19.2981     1.8474    24.7906 </r>
       <r>    19.4259     1.8647    25.0290 </r>
       <r>    19.5538     1.7812    25.2568 </r>
       <r>    19.6817     1.5535    25.4554 </r>
       <r>    19.8095     1.3805    25.6319 </r>
       <r>    19.9374     1.3280    25.8017 </r>
       <r>    20.0652     1.3380    25.9728 </r>
       <r>    20.1931     1.3646    26.1473 </r>
       <r>    20.3210     1.4228    26.3292 </r>
       <r>    20.4488     1.5335    26.5253 </r>
       <r>    20.5767     1.6738    26.7393 </r>
       <r>    20.7045     1.7408    26.9619 </r>
       <r>    20.8324     1.5977    27.1662 </r>
       <r>    20.9603     1.3591    27.3399 </r>
       <r>    21.0881     1.2572    27.5007 </r>
       <r>    21.2160     1.3366    27.6716 </r>
       <r>    21.3438     1.4529    27.8574 </r>
       <r>    21.4717     1.4568    28.0436 </r>
       <r>    21.5996     1.3923    28.2216 </r>
       <r>    21.7274     1.3855    28.3988 </r>
       <r>    21.8553     1.4582    28.5852 </r>
       <r>    21.9831     1.5223    28.7799 </r>
       <r>    22.1110     1.4890    28.9703 </r>
       <r>    22.2389     1.4067    29.1501 </r>
       <r>    22.3667     1.4620    29.3370 </r>
       <r>    22.4946     1.6978    29.5541 </r>
       <r>    22.6224     1.7986    29.7841 </r>
       <r>    22.7503     1.6728    29.9980 </r>
       <r>    22.8782     1.6048    30.2032 </r>
       <r>    23.0060     1.6435    30.4133 </r>
       <r>    23.1339     1.6011    30.6180 </r>
       <r>    23.2617     1.4764    30.8068 </r>
       <r>    23.3896     1.4263    30.9892 </r>
       <r>    23.5175     1.4387    31.1731 </r>
       <r>    23.6453     1.3438    31.3449 </r>
       <r>    23.7732     1.1701    31.4945 </r>
       <r>    23.9010     0.9870    31.6207 </r>
       <r>    24.0289     0.6976    31.7099 </r>
       <r>    24.1568     0.3772    31.7582 </r>
       <r>    24.2846     0.2090    31.7849 </r>
       <r>    24.4125     0.1890    31.8091 </r>
       <r>    24.5404     0.2001    31.8347 </r>
       <r>    24.6682     0.2037    31.8607 </r>
       <r>    24.7961     0.1930    31.8854 </r>
       <r>    24.9239     0.1484    31.9044 </r>
       <r>    25.0518     0.1169    31.9193 </r>
       <r>    25.1797     0.1309    31.9360 </r>
       <r>    25.3075     0.1506    31.9553 </r>
       <r>    25.4354     0.1202    31.9707 </r>
       <r>    25.5632     0.0567    31.9779 </r>
       <r>    25.6911     0.0178    31.9802 </r>
       <r>    25.8190     0.0053    31.9809 </r>
       <r>    25.9468     0.0018    31.9811 </r>
       <r>    26.0747     0.0025    31.9814 </r>
       <r>    26.2025     0.0049    31.9820 </r>
       <r>    26.3304     0.0073    31.9830 </r>
       <r>    26.4583     0.0152    31.9849 </r>
       <r>    26.5861     0.0289    31.9886 </r>
       <r>    26.7140     0.0312    31.9926 </r>
       <r>    26.8418     0.0177    31.9949 </r>
       <r>    26.9697     0.0051    31.9955 </r>
       <r>    27.0976     0.0008    31.9956 </r>
       <r>    27.2254     0.0005    31.9957 </r>
       <r>    27.3533     0.0021    31.9960 </r>
       <r>    27.4811     0.0053    31.9966 </r>
       <r>    27.6090     0.0078    31.9976 </r>
       <r>    27.7369     0.0082    31.9987 </r>
       <r>    27.8647     0.0056    31.9994 </r>
       <r>    27.9926     0.0022    31.9997 </r>
       <r>    28.1204     0.0010    31.9998 </r>
       <r>    28.2483     0.0008    31.9999 </r>
       <r>    28.3762     0.0005    32.0000 </r>
       <r>    28.5040     0.0001    32.0000 </r>
       <r>    28.6319     0.0000    32.0000 </r>
       <r>    28.7597     0.0000    32.0000 </r>
       <r>    28.8876     0.0000    32.0000 </r>
       <r>    29.0155     0.0000    32.0000 </r>
       <r>    29.1433     0.0000    32.0000 </r>
       <r>    29.2712     0.0000    32.0000 </r>
       <r>    29.3990     0.0000    32.0000 </r>
       <r>    29.5269     0.0000    32.0000 </r>
       <r>    29.6548     0.0000    32.0000 </r>
       <r>    29.7826     0.0000    32.0000 </r>
       <r>    29.9105     0.0000    32.0000 </r>
       <r>    30.0383     0.0000    32.0000 </r>
       <r>    30.1662     0.0000    32.0000 </r>
      </set>
     </set>
    </array>
   </total>
  </dos>
 </calculation>
 <structure name="finalpos" >
  <crystal>
   <varray name="basis" >
    <v>       0.00000000       2.74682114       2.74682114 </v>
    <v>       2.74682114       0.00000000       2.74682114 </v>
    <v>       2.74682114       2.74682114       0.00000000 </v>
   </varray>
   <i name="volume">     41.44967579 </i>
   <varray name="rec_basis" >
    <v>      -0.18202860       0.18202860       0.18202860 </v>
    <v>       0.18202860      -0.18202860       0.18202860 </v>
    <v>       0.18202860       0.18202860      -0.18202860 </v>
   </varray>
  </crystal>
  <varray name="positions" >
   <v>       0.75000000       0.75000000       0.75000000 </v>
   <v>       0.50000000       0.50000000       0.50000000 </v>
  </varray>
 </structure>
</modeling>
