    2    2    1    1
  0.2044415E+02  0.3866974E-09  0.3866975E-09  0.3866975E-09  0.5000000E-15
  1.000000000000000E-004
  CAR 
 unknown system                          
    8    3    8
 
  0.0000000E+00  0.0000000E+00  0.0000000E+00  0.1250000E+00
   1       -5.925993
   2        5.872714
   3        5.872715
   4        5.872716
   5        8.396676
   6        8.396678
   7        8.396680
   8        9.144579
 
  0.5000000E+00  0.5551115E-16  0.0000000E+00  0.5000000E+00
   1       -3.622538
   2       -1.012171
   3        4.691419
   4        4.691422
   5        7.358624
   6        9.151814
   7        9.151817
   8       13.446780
 
  0.5000000E+00  0.5000000E+00  0.0000000E+00  0.3750000E+00
   1       -1.836796
   2       -1.836796
   3        3.054799
   4        3.054799
   5        6.539252
   6        6.539252
   7       15.846570
   8       15.846570
