Automatically generated mesh
       3
Reciprocal lattice
    0.00000000000000    0.00000000000000    0.00000000000000             1
    0.50000000000000    0.00000000000000    0.00000000000000             4
    0.50000000000000    0.50000000000000    0.00000000000000             3
