 running on   16 total cores
 distrk:  each k-point on   16 cores,    1 groups
 distr:  one band on    4 cores,    4 groups
 using from now: INCAR     
 vasp.5.3.3 18Dez12 (build Jan 30 2013 10:57:47) complex                        
  
 POSCAR found type information on POSCAR  Si
 POSCAR found :  1 types and       2 ions

 ----------------------------------------------------------------------------- 
|                                                                             |
|  ADVICE TO THIS USER RUNNING 'VASP/VAMP'   (HEAR YOUR MASTER'S VOICE ...):  |
|                                                                             |
|      You have switched on vdW-DFT.                                          |
|      This routine was written and supplied by Jiri Klimes.                  |
|      We recommed that you carefully read and cite the following             |
|      publication                                                            |
|      J. Klimes, D.R. Bowler, A. Michelides                                  |
|        J. Phys.: Cond Matt. 22 022201 (2010)                                |
|      J. Klimes, D.R. Bowler, A. Michelides                                  |
|        Phys. Rev. B. 83, 195131 (2011)                                      |
|      and references therein.                                                |
|                                                                             |
 ----------------------------------------------------------------------------- 


 ----------------------------------------------------------------------------- 
|                                                                             |
|  ADVICE TO THIS USER RUNNING 'VASP/VAMP'   (HEAR YOUR MASTER'S VOICE ...):  |
|                                                                             |
|      You enforced a specific xc-type in the INCAR file,                     |
|      a different type was found on the POTCAR file                          |
|          I HOPE YOU KNOW, WHAT YOU ARE  DOING                               |
|                                                                             |
 ----------------------------------------------------------------------------- 

 LDA part: xc-table for Pade appr. of Perdew
 POSCAR, INCAR and KPOINTS ok, starting setup
 FFT: planning ...
 WAVECAR not read
 entering main loop
       N       E                     dE             d eps       ncg     rms          rms(c)
Total vdW correction in eV:      1.0792472
DAV:   1     0.838192245576E+01    0.83819E+01   -0.36035E+03    48   0.890E+02
DAV:   2    -0.592526414212E+01   -0.14307E+02   -0.14284E+02    72   0.794E+01
DAV:   3    -0.611592967514E+01   -0.19067E+00   -0.19066E+00    80   0.105E+01
DAV:   4    -0.611686807782E+01   -0.93840E-03   -0.93840E-03    72   0.722E-01
DAV:   5    -0.611686931163E+01   -0.12338E-05   -0.12340E-05    64   0.258E-02    0.453E+00
Total vdW correction in eV:      1.1529213
DAV:   6    -0.595527276689E+01    0.16160E+00   -0.16592E-01    48   0.239E+00    0.282E+00
Total vdW correction in eV:      1.3062977
DAV:   7    -0.589393051624E+01    0.61342E-01   -0.41423E-01    48   0.375E+00    0.284E-01
Total vdW correction in eV:      1.2956183
DAV:   8    -0.587013478384E+01    0.23796E-01   -0.15915E-02    64   0.843E-01    0.183E-01
Total vdW correction in eV:      1.3102255
DAV:   9    -0.587382041955E+01   -0.36856E-02   -0.31457E-03    56   0.342E-01    0.108E-01
Total vdW correction in eV:      1.3106271
DAV:  10    -0.587237486259E+01    0.14456E-02   -0.11008E-04    64   0.877E-02    0.524E-02
Total vdW correction in eV:      1.3107114
DAV:  11    -0.587239132418E+01   -0.16462E-04   -0.37008E-06    64   0.157E-02    0.181E-03
Total vdW correction in eV:      1.3107566
DAV:  12    -0.587240970513E+01   -0.18381E-04   -0.11174E-07    64   0.302E-03    0.103E-03
Total vdW correction in eV:      1.3107408
DAV:  13    -0.587240299324E+01    0.67119E-05   -0.23035E-08    48   0.107E-03    0.129E-04
Total vdW correction in eV:      1.3107417
DAV:  14    -0.587240282436E+01    0.16888E-06   -0.31819E-10    48   0.146E-04    0.299E-05
Total vdW correction in eV:      1.3107407
DAV:  15    -0.587240240381E+01    0.42055E-06   -0.45118E-11    24   0.636E-05    0.335E-06
Total vdW correction in eV:      1.3107410
DAV:  16    -0.587240245416E+01   -0.50351E-07   -0.54550E-12    24   0.178E-05
Total vdW correction in eV:      1.3107410
Total vdW correction in eV:      1.3107410
   1 F= -.58724025E+01 E0= -.58687050E+01  d E =-.587240E+01
 curvature:   0.00 expect dE= 0.000E+00 dE for cont linesearch  0.000E+00
 trial: gam= 0.00000 g(F)=  0.291E-44 g(S)=  0.000E+00 ort = 0.000E+00 (trialstep = 0.100E+01)
 search vector abs. value=  0.100E-09
 reached required accuracy - stopping structural energy minimisation
