16   
1    

1    
  0.0000000000000000   0.0070710678118655   0.0070710678118655
  -0.0015555800   -0.0941483300   -0.0941483300
   0.0000158000    0.0066924700    0.0066924700
   0.0035175900   -0.0060909500    0.0031715000
  -0.0035398400    0.0031556300   -0.0060935500
   0.0035175900    0.0031715000   -0.0060909500
  -0.0035398400   -0.0060935500    0.0031556300
  -0.0000084700   -0.0003651600   -0.0003651600
   0.0000042200    0.0009028700    0.0009028700
   0.0018083600    0.0000339900    0.0000339900
  -0.0018089900    0.0000287500    0.0000287500
  -0.0000036600   -0.0017820900   -0.0017727000
   0.0001161600    0.0086877900    0.0085529800
  -0.0000036600   -0.0017727000   -0.0017820900
   0.0001161600    0.0085529800    0.0086877900
  -0.0302155900    0.0390068200    0.0390068200
   0.0315797500    0.0400199900    0.0400199900
