mesh: [    31,    31,    31 ]
nqpoint: 816    
reciprocal_lattice:
- [  -0.18294249,   0.18294249,   0.18294249 ] # a*
- [   0.18294249,  -0.18294249,   0.18294249 ] # b*
- [   0.18294249,   0.18294249,  -0.18294249 ] # c*
natom:   2      
lattice:
- [     0.000000000000000,     2.733099421887393,     2.733099421887393 ] # a
- [     2.733099421887393,     0.000000000000000,     2.733099421887393 ] # b
- [     2.733099421887393,     2.733099421887393,     0.000000000000000 ] # c
points:
- symbol: Si # 1
  coordinates: [  0.875000000000000,  0.875000000000000,  0.875000000000000 ]
  mass: 28.085500
- symbol: Si # 2
  coordinates: [  0.125000000000000,  0.125000000000000,  0.125000000000000 ]
  mass: 28.085500

phonon:
- q-position: [    0.0000000,    0.0000000,    0.0000000 ]
  distance_from_gamma:  0.000000000
  weight: 1    
  band:
  - # 1
    frequency:    -0.0035080611
  - # 2
    frequency:    -0.0035080611
  - # 3
    frequency:    -0.0035080611
  - # 4
    frequency:    15.1111964993
  - # 5
    frequency:    15.1111964993
  - # 6
    frequency:    15.1111964993

- q-position: [    0.0322581,    0.0000000,    0.0000000 ]
  distance_from_gamma:  0.010221474
  weight: 8    
  band:
  - # 1
    frequency:     0.3102602986
  - # 2
    frequency:     0.3102602986
  - # 3
    frequency:     0.8394198223
  - # 4
    frequency:    15.1015405971
  - # 5
    frequency:    15.1040234404
  - # 6
    frequency:    15.1040234404

- q-position: [    0.0645161,    0.0000000,    0.0000000 ]
  distance_from_gamma:  0.020442947
  weight: 8    
  band:
  - # 1
    frequency:     0.6188410768
  - # 2
    frequency:     0.6188410768
  - # 3
    frequency:     1.6771473835
  - # 4
    frequency:    15.0721646215
  - # 5
    frequency:    15.0827175138
  - # 6
    frequency:    15.0827175138

- q-position: [    0.0967742,    0.0000000,    0.0000000 ]
  distance_from_gamma:  0.030664421
  weight: 8    
  band:
  - # 1
    frequency:     0.9239062776
  - # 2
    frequency:     0.9239062776
  - # 3
    frequency:     2.5113555744
  - # 4
    frequency:    15.0218762568
  - # 5
    frequency:    15.0479193509
  - # 6
    frequency:    15.0479193509

- q-position: [    0.1290323,    0.0000000,    0.0000000 ]
  distance_from_gamma:  0.040885894
  weight: 8    
  band:
  - # 1
    frequency:     1.2234860170
  - # 2
    frequency:     1.2234860170
  - # 3
    frequency:     3.3400242322
  - # 4
    frequency:    14.9487929968
  - # 5
    frequency:    15.0006989177
  - # 6
    frequency:    15.0006989177

- q-position: [    0.1612903,    0.0000000,    0.0000000 ]
  distance_from_gamma:  0.051107368
  weight: 8    
  band:
  - # 1
    frequency:     1.5153585166
  - # 2
    frequency:     1.5153585166
  - # 3
    frequency:     4.1608482530
  - # 4
    frequency:    14.8504873560
  - # 5
    frequency:    14.9425564307
  - # 6
    frequency:    14.9425564307

- q-position: [    0.1935484,    0.0000000,    0.0000000 ]
  distance_from_gamma:  0.061328841
  weight: 8    
  band:
  - # 1
    frequency:     1.7969984462
  - # 2
    frequency:     1.7969984462
  - # 3
    frequency:     4.9711924467
  - # 4
    frequency:    14.7241693515
  - # 5
    frequency:    14.8754186114
  - # 6
    frequency:    14.8754186114

- q-position: [    0.2258065,    0.0000000,    0.0000000 ]
  distance_from_gamma:  0.071550315
  weight: 8    
  band:
  - # 1
    frequency:     2.0655466514
  - # 2
    frequency:     2.0655466514
  - # 3
    frequency:     5.7680747262
  - # 4
    frequency:    14.5668914071
  - # 5
    frequency:    14.8016250271
  - # 6
    frequency:    14.8016250271

- q-position: [    0.2580645,    0.0000000,    0.0000000 ]
  distance_from_gamma:  0.081771788
  weight: 8    
  band:
  - # 1
    frequency:     2.3178104709
  - # 2
    frequency:     2.3178104709
  - # 3
    frequency:     6.5481725660
  - # 4
    frequency:    14.3757640607
  - # 5
    frequency:    14.7238976715
  - # 6
    frequency:    14.7238976715

- q-position: [    0.2903226,    0.0000000,    0.0000000 ]
  distance_from_gamma:  0.091993262
  weight: 8    
  band:
  - # 1
    frequency:     2.5503018671
  - # 2
    frequency:     2.5503018671
  - # 3
    frequency:     7.3078378320
  - # 4
    frequency:    14.1481794133
  - # 5
    frequency:    14.6452856782
  - # 6
    frequency:    14.6452856782

- q-position: [    0.3225806,    0.0000000,    0.0000000 ]
  distance_from_gamma:  0.102214735
  weight: 8    
  band:
  - # 1
    frequency:     2.7593198584
  - # 2
    frequency:     2.7593198584
  - # 3
    frequency:     8.0430879906
  - # 4
    frequency:    13.8820580624
  - # 5
    frequency:    14.5690767870
  - # 6
    frequency:    14.5690767870

- q-position: [    0.3548387,    0.0000000,    0.0000000 ]
  distance_from_gamma:  0.112436209
  weight: 8    
  band:
  - # 1
    frequency:     2.9410815754
  - # 2
    frequency:     2.9410815754
  - # 3
    frequency:     8.7494971767
  - # 4
    frequency:    13.5761829027
  - # 5
    frequency:    14.4986688115
  - # 6
    frequency:    14.4986688115

- q-position: [    0.3870968,    0.0000000,    0.0000000 ]
  distance_from_gamma:  0.122657682
  weight: 8    
  band:
  - # 1
    frequency:     3.0919014414
  - # 2
    frequency:     3.0919014414
  - # 3
    frequency:     9.4217623030
  - # 4
    frequency:    13.2308350230
  - # 5
    frequency:    14.4373989355
  - # 6
    frequency:    14.4373989355

- q-position: [    0.4193548,    0.0000000,    0.0000000 ]
  distance_from_gamma:  0.132879156
  weight: 8    
  band:
  - # 1
    frequency:     3.2084098547
  - # 2
    frequency:     3.2084098547
  - # 3
    frequency:    10.0520980293
  - # 4
    frequency:    12.8495715928
  - # 5
    frequency:    14.3883368005
  - # 6
    frequency:    14.3883368005

- q-position: [    0.4516129,    0.0000000,    0.0000000 ]
  distance_from_gamma:  0.143100629
  weight: 8    
  band:
  - # 1
    frequency:     3.2877919491
  - # 2
    frequency:     3.2877919491
  - # 3
    frequency:    10.6231001981
  - # 4
    frequency:    12.4465025019
  - # 5
    frequency:    14.3540583682
  - # 6
    frequency:    14.3540583682

- q-position: [    0.4838710,    0.0000000,    0.0000000 ]
  distance_from_gamma:  0.153322103
  weight: 8    
  band:
  - # 1
    frequency:     3.3280161836
  - # 2
    frequency:     3.3280161836
  - # 3
    frequency:    11.0622315561
  - # 4
    frequency:    12.0919101794
  - # 5
    frequency:    14.3364287162
  - # 6
    frequency:    14.3364287162

- q-position: [    0.0322581,    0.0322581,    0.0000000 ]
  distance_from_gamma:  0.011802741
  weight: 6    
  band:
  - # 1
    frequency:     0.3993001364
  - # 2
    frequency:     0.3993001364
  - # 3
    frequency:     0.9360727582
  - # 4
    frequency:    15.0981366853
  - # 5
    frequency:    15.0981366853
  - # 6
    frequency:    15.1052843189

- q-position: [    0.0645161,    0.0322581,    0.0000000 ]
  distance_from_gamma:  0.019572632
  weight: 24   
  band:
  - # 1
    frequency:     0.6194184894
  - # 2
    frequency:     0.6429888969
  - # 3
    frequency:     1.5752978045
  - # 4
    frequency:    15.0754327903
  - # 5
    frequency:    15.0780563483
  - # 6
    frequency:    15.0919894469

- q-position: [    0.0967742,    0.0322581,    0.0000000 ]
  distance_from_gamma:  0.028910693
  weight: 24   
  band:
  - # 1
    frequency:     0.8847115593
  - # 2
    frequency:     0.9235018841
  - # 3
    frequency:     2.3428040847
  - # 4
    frequency:    15.0326350524
  - # 5
    frequency:    15.0443835646
  - # 6
    frequency:    15.0643979876

- q-position: [    0.1290323,    0.0322581,    0.0000000 ]
  distance_from_gamma:  0.038697874
  weight: 24   
  band:
  - # 1
    frequency:     1.1692026514
  - # 2
    frequency:     1.2114254128
  - # 3
    frequency:     3.1387582373
  - # 4
    frequency:    14.9679021975
  - # 5
    frequency:    14.9981498900
  - # 6
    frequency:    15.0235220104

- q-position: [    0.1612903,    0.0322581,    0.0000000 ]
  distance_from_gamma:  0.048663948
  weight: 24   
  band:
  - # 1
    frequency:     1.4571573729
  - # 2
    frequency:     1.4973348965
  - # 3
    frequency:     3.9406804100
  - # 4
    frequency:    14.8787629471
  - # 5
    frequency:    14.9408186718
  - # 6
    frequency:    14.9708387586

- q-position: [    0.1935484,    0.0322581,    0.0000000 ]
  distance_from_gamma:  0.058717895
  weight: 24   
  band:
  - # 1
    frequency:     1.7408084493
  - # 2
    frequency:     1.7761474510
  - # 3
    frequency:     4.7395632337
  - # 4
    frequency:    14.7623883455
  - # 5
    frequency:    14.8742820205
  - # 6
    frequency:    14.9081877011

- q-position: [    0.2258065,    0.0322581,    0.0000000 ]
  distance_from_gamma:  0.068821215
  weight: 24   
  band:
  - # 1
    frequency:     2.0151174880
  - # 2
    frequency:     2.0438852277
  - # 3
    frequency:     5.5298545691
  - # 4
    frequency:    14.6158111666
  - # 5
    frequency:    14.8008482598
  - # 6
    frequency:    14.8377413455

- q-position: [    0.2580645,    0.0322581,    0.0000000 ]
  distance_from_gamma:  0.078954956
  weight: 24   
  band:
  - # 1
    frequency:     2.2759343858
  - # 2
    frequency:     2.2967899667
  - # 3
    frequency:     6.3070337388
  - # 4
    frequency:    14.4361173926
  - # 5
    frequency:    14.7232131296
  - # 6
    frequency:    14.7620061511

- q-position: [    0.2903226,    0.0322581,    0.0000000 ]
  distance_from_gamma:  0.089108740
  weight: 24   
  band:
  - # 1
    frequency:     2.5193473072
  - # 2
    frequency:     2.5310534871
  - # 3
    frequency:     7.0668401786
  - # 4
    frequency:    14.2206394361
  - # 5
    frequency:    14.6444067296
  - # 6
    frequency:    14.6838102185

- q-position: [    0.3225806,    0.0322581,    0.0000000 ]
  distance_from_gamma:  0.099276418
  weight: 24   
  band:
  - # 1
    frequency:     2.7414626855
  - # 2
    frequency:     2.7427734642
  - # 3
    frequency:     7.8049696710
  - # 4
    frequency:    13.9671731750
  - # 5
    frequency:    14.5677078029
  - # 6
    frequency:    14.6062556426

- q-position: [    0.3548387,    0.0322581,    0.0000000 ]
  distance_from_gamma:  0.109454117
  weight: 24   
  band:
  - # 1
    frequency:     2.9280247303
  - # 2
    frequency:     2.9383779538
  - # 3
    frequency:     8.5168725054
  - # 4
    frequency:    13.6742627461
  - # 5
    frequency:    14.4965183907
  - # 6
    frequency:    14.5326267301

- q-position: [    0.3870968,    0.0322581,    0.0000000 ]
  distance_from_gamma:  0.119639280
  weight: 24   
  band:
  - # 1
    frequency:     3.0830070218
  - # 2
    frequency:     3.1062650482
  - # 3
    frequency:     9.1973961646
  - # 4
    frequency:    13.3416964111
  - # 5
    frequency:    14.4341961769
  - # 6
    frequency:    14.4662513995

- q-position: [    0.4193548,    0.0322581,    0.0000000 ]
  distance_from_gamma:  0.129830151
  weight: 24   
  band:
  - # 1
    frequency:     3.2042461520
  - # 2
    frequency:     3.2415285228
  - # 3
    frequency:     9.8396947711
  - # 4
    frequency:    12.9717433675
  - # 5
    frequency:    14.3838496774
  - # 6
    frequency:    14.4103188813

- q-position: [    0.4516129,    0.0322581,    0.0000000 ]
  distance_from_gamma:  0.140025482
  weight: 24   
  band:
  - # 1
    frequency:     3.2888236290
  - # 2
    frequency:     3.3410115407
  - # 3
    frequency:    10.4309215412
  - # 4
    frequency:    12.5735931197
  - # 5
    frequency:    14.3481122796
  - # 6
    frequency:    14.3676654598

- q-position: [    0.4838710,    0.0322581,    0.0000000 ]
  distance_from_gamma:  0.150224367
  weight: 24   
  band:
  - # 1
    frequency:     3.3346022772
  - # 2
    frequency:     3.4022192542
  - # 3
    frequency:    10.9283833354
  - # 4
    frequency:    12.1873077258
  - # 5
    frequency:    14.3289224823
  - # 6
    frequency:    14.3405508042

- q-position: [   -0.4838710,    0.0322581,    0.0000000 ]
  distance_from_gamma:  0.157025256
  weight: 24   
  band:
  - # 1
    frequency:     3.3404100525
  - # 2
    frequency:     3.4235228182
  - # 3
    frequency:    11.1161242179
  - # 4
    frequency:    12.0273150214
  - # 5
    frequency:    14.3273450689
  - # 6
    frequency:    14.3304569144

- q-position: [   -0.4516129,    0.0322581,    0.0000000 ]
  distance_from_gamma:  0.146824390
  weight: 24   
  band:
  - # 1
    frequency:     3.3061467945
  - # 2
    frequency:     3.4043058280
  - # 3
    frequency:    10.7792865993
  - # 4
    frequency:    12.3080920473
  - # 5
    frequency:    14.3379449328
  - # 6
    frequency:    14.3434666758

- q-position: [   -0.4193548,    0.0322581,    0.0000000 ]
  distance_from_gamma:  0.136626604
  weight: 24   
  band:
  - # 1
    frequency:     3.2327915587
  - # 2
    frequency:     3.3450229788
  - # 3
    frequency:    10.2406121737
  - # 4
    frequency:    12.7076756325
  - # 5
    frequency:    14.3625983014
  - # 6
    frequency:    14.3763872814

- q-position: [   -0.3870968,    0.0322581,    0.0000000 ]
  distance_from_gamma:  0.126432645
  weight: 24   
  band:
  - # 1
    frequency:     3.1223087124
  - # 2
    frequency:     3.2471581963
  - # 3
    frequency:     9.6298321797
  - # 4
    frequency:    13.0982504576
  - # 5
    frequency:    14.4030642868
  - # 6
    frequency:    14.4243094428

- q-position: [   -0.3548387,    0.0322581,    0.0000000 ]
  distance_from_gamma:  0.116243517
  weight: 24   
  band:
  - # 1
    frequency:     2.9774722047
  - # 2
    frequency:     3.1130912844
  - # 3
    frequency:     8.9735488021
  - # 4
    frequency:    13.4562131739
  - # 5
    frequency:    14.4571850269
  - # 6
    frequency:    14.4847067092

- q-position: [   -0.3225806,    0.0322581,    0.0000000 ]
  distance_from_gamma:  0.106060615
  weight: 24   
  band:
  - # 1
    frequency:     2.8016419566
  - # 2
    frequency:     2.9459006051
  - # 3
    frequency:     8.2816544363
  - # 4
    frequency:    13.7756671190
  - # 5
    frequency:    14.5221916961
  - # 6
    frequency:    14.5545390013

- q-position: [   -0.2903226,    0.0322581,    0.0000000 ]
  distance_from_gamma:  0.095885921
  weight: 24   
  band:
  - # 1
    frequency:     2.5985305232
  - # 2
    frequency:     2.7491386567
  - # 3
    frequency:     7.5602278599
  - # 4
    frequency:    14.0554116140
  - # 5
    frequency:    14.5949270295
  - # 6
    frequency:    14.6304796654

- q-position: [   -0.2580645,    0.0322581,    0.0000000 ]
  distance_from_gamma:  0.085722358
  weight: 24   
  band:
  - # 1
    frequency:     2.3719936101
  - # 2
    frequency:     2.5266166668
  - # 3
    frequency:     6.8141815975
  - # 4
    frequency:    14.2961582463
  - # 5
    frequency:    14.6720634017
  - # 6
    frequency:    14.7091251306

- q-position: [   -0.2258065,    0.0322581,    0.0000000 ]
  distance_from_gamma:  0.075574417
  weight: 24   
  band:
  - # 1
    frequency:     2.1258699420
  - # 2
    frequency:     2.2822270304
  - # 3
    frequency:     6.0479966323
  - # 4
    frequency:    14.4996522102
  - # 5
    frequency:    14.7502926988
  - # 6
    frequency:    14.7871691592

- q-position: [   -0.1935484,    0.0322581,    0.0000000 ]
  distance_from_gamma:  0.065449365
  weight: 24   
  band:
  - # 1
    frequency:     1.8638912341
  - # 2
    frequency:     2.0198242285
  - # 3
    frequency:     5.2660033917
  - # 4
    frequency:    14.6682703965
  - # 5
    frequency:    14.8264754796
  - # 6
    frequency:    14.8615349101

- q-position: [   -0.1612903,    0.0322581,    0.0000000 ]
  distance_from_gamma:  0.055359762
  weight: 24   
  band:
  - # 1
    frequency:     1.5896911654
  - # 2
    frequency:     1.7431812600
  - # 3
    frequency:     4.4726178516
  - # 4
    frequency:    14.8047578709
  - # 5
    frequency:    14.8977466221
  - # 6
    frequency:    14.9294665003

- q-position: [   -0.1290323,    0.0322581,    0.0000000 ]
  distance_from_gamma:  0.045329287
  weight: 24   
  band:
  - # 1
    frequency:     1.3069869486
  - # 2
    frequency:     1.4560438818
  - # 3
    frequency:     3.6728136886
  - # 4
    frequency:    14.9120058388
  - # 5
    frequency:    14.9615813379
  - # 6
    frequency:    14.9885866303

- q-position: [   -0.0967742,    0.0322581,    0.0000000 ]
  distance_from_gamma:  0.035408223
  weight: 24   
  band:
  - # 1
    frequency:     1.0201801427
  - # 2
    frequency:     1.1623137981
  - # 3
    frequency:     2.8734368219
  - # 4
    frequency:    14.9928427266
  - # 5
    frequency:    15.0158299354
  - # 6
    frequency:    15.0369286722

- q-position: [   -0.0645161,    0.0322581,    0.0000000 ]
  distance_from_gamma:  0.025723478
  weight: 24   
  band:
  - # 1
    frequency:     0.7363870600
  - # 2
    frequency:     0.8662955962
  - # 3
    frequency:     2.0876794008
  - # 4
    frequency:    15.0498398178
  - # 5
    frequency:    15.0587261232
  - # 6
    frequency:    15.0729514418

- q-position: [   -0.0322581,    0.0322581,    0.0000000 ]
  distance_from_gamma:  0.016691596
  weight: 12   
  band:
  - # 1
    frequency:     0.4742659635
  - # 2
    frequency:     0.5719953467
  - # 3
    frequency:     1.3549737972
  - # 4
    frequency:    15.0853253859
  - # 5
    frequency:    15.0886915691
  - # 6
    frequency:    15.0955436532

- q-position: [    0.0645161,    0.0645161,    0.0000000 ]
  distance_from_gamma:  0.023605482
  weight: 6    
  band:
  - # 1
    frequency:     0.7960702611
  - # 2
    frequency:     0.7960702611
  - # 3
    frequency:     1.8673480854
  - # 4
    frequency:    15.0591025478
  - # 5
    frequency:    15.0591025478
  - # 6
    frequency:    15.0869421390

- q-position: [    0.0967742,    0.0645161,    0.0000000 ]
  distance_from_gamma:  0.030664421
  weight: 24   
  band:
  - # 1
    frequency:     1.0094697879
  - # 2
    frequency:     1.0196150798
  - # 3
    frequency:     2.4353553686
  - # 4
    frequency:    15.0233921621
  - # 5
    frequency:    15.0264207986
  - # 6
    frequency:    15.0668553834

- q-position: [    0.1290323,    0.0645161,    0.0000000 ]
  distance_from_gamma:  0.039145263
  weight: 24   
  band:
  - # 1
    frequency:     1.2581215753
  - # 2
    frequency:     1.2736408393
  - # 3
    frequency:     3.1211166506
  - # 4
    frequency:    14.9670971760
  - # 5
    frequency:    14.9810084024
  - # 6
    frequency:    15.0321232063

- q-position: [    0.1612903,    0.0645161,    0.0000000 ]
  distance_from_gamma:  0.048304799
  weight: 24   
  band:
  - # 1
    frequency:     1.5304929045
  - # 2
    frequency:     1.5385396041
  - # 3
    frequency:     3.8540483878
  - # 4
    frequency:    14.8877031966
  - # 5
    frequency:    14.9242970924
  - # 6
    frequency:    14.9842501308

- q-position: [    0.1935484,    0.0645161,    0.0000000 ]
  distance_from_gamma:  0.057821386
  weight: 24   
  band:
  - # 1
    frequency:     1.8039267839
  - # 2
    frequency:     1.8121508611
  - # 3
    frequency:     4.6057528546
  - # 4
    frequency:    14.7819707658
  - # 5
    frequency:    14.8581507066
  - # 6
    frequency:    14.9254201500

- q-position: [    0.2258065,    0.0645161,    0.0000000 ]
  distance_from_gamma:  0.067544272
  weight: 24   
  band:
  - # 1
    frequency:     2.0630924229
  - # 2
    frequency:     2.0927306524
  - # 3
    frequency:     5.3622649358
  - # 4
    frequency:    14.6465586846
  - # 5
    frequency:    14.7848537019
  - # 6
    frequency:    14.8580555074

- q-position: [    0.2580645,    0.0645161,    0.0000000 ]
  distance_from_gamma:  0.077395748
  weight: 24   
  band:
  - # 1
    frequency:     2.3107831483
  - # 2
    frequency:     2.3648971613
  - # 3
    frequency:     6.1149589345
  - # 4
    frequency:    14.4783731667
  - # 5
    frequency:    14.7070838887
  - # 6
    frequency:    14.7846604479

- q-position: [    0.2903226,    0.0645161,    0.0000000 ]
  distance_from_gamma:  0.087332308
  weight: 24   
  band:
  - # 1
    frequency:     2.5423155110
  - # 2
    frequency:     2.6229495016
  - # 3
    frequency:     6.8573635776
  - # 4
    frequency:    14.2747073675
  - # 5
    frequency:    14.6278614370
  - # 6
    frequency:    14.7078712032

- q-position: [    0.3225806,    0.0645161,    0.0000000 ]
  distance_from_gamma:  0.097327895
  weight: 24   
  band:
  - # 1
    frequency:     2.7532396191
  - # 2
    frequency:     2.8620116189
  - # 3
    frequency:     7.5838850681
  - # 4
    frequency:    14.0333613611
  - # 5
    frequency:    14.5504657036
  - # 6
    frequency:    14.6305181763

- q-position: [    0.3548387,    0.0645161,    0.0000000 ]
  distance_from_gamma:  0.107366026
  weight: 24   
  band:
  - # 1
    frequency:     2.9392635037
  - # 2
    frequency:     3.0776405023
  - # 3
    frequency:     8.2891882803
  - # 4
    frequency:    13.7528446964
  - # 5
    frequency:    14.4783126660
  - # 6
    frequency:    14.5556206369

- q-position: [    0.3870968,    0.0645161,    0.0000000 ]
  distance_from_gamma:  0.117435790
  weight: 24   
  band:
  - # 1
    frequency:     3.0963223205
  - # 2
    frequency:     3.2656827307
  - # 3
    frequency:     8.9677064332
  - # 4
    frequency:    13.4327644807
  - # 5
    frequency:    14.4147897648
  - # 6
    frequency:    14.4863090164

- q-position: [    0.4193548,    0.0645161,    0.0000000 ]
  distance_from_gamma:  0.127529695
  weight: 24   
  band:
  - # 1
    frequency:     3.2207358150
  - # 2
    frequency:     3.4222847455
  - # 3
    frequency:     9.6127487607
  - # 4
    frequency:    13.0747464573
  - # 5
    frequency:    14.3630525235
  - # 6
    frequency:    14.4256863747

- q-position: [    0.4516129,    0.0645161,    0.0000000 ]
  distance_from_gamma:  0.137642430
  weight: 24   
  band:
  - # 1
    frequency:     3.3094139294
  - # 2
    frequency:     3.5440021503
  - # 3
    frequency:    10.2136226941
  - # 4
    frequency:    12.6853885780
  - # 5
    frequency:    14.3257980435
  - # 6
    frequency:    14.3766433711

- q-position: [    0.4838710,    0.0645161,    0.0000000 ]
  distance_from_gamma:  0.147770128
  weight: 24   
  band:
  - # 1
    frequency:     3.3600709365
  - # 2
    frequency:     3.6279666541
  - # 3
    frequency:    10.7421626343
  - # 4
    frequency:    12.2898149440
  - # 5
    frequency:    14.3050420238
  - # 6
    frequency:    14.3416466693

- q-position: [    0.5161290,    0.0645161,    0.0000000 ]
  distance_from_gamma:  0.157909912
  weight: 24   
  band:
  - # 1
    frequency:     3.3714063805
  - # 2
    frequency:     3.6720699708
  - # 3
    frequency:    11.0683170443
  - # 4
    frequency:    12.0161589046
  - # 5
    frequency:    14.3019339561
  - # 6
    frequency:    14.3225290465

- q-position: [   -0.4516129,    0.0645161,    0.0000000 ]
  distance_from_gamma:  0.151148834
  weight: 24   
  band:
  - # 1
    frequency:     3.3432147435
  - # 2
    frequency:     3.6751226400
  - # 3
    frequency:    10.8869606230
  - # 4
    frequency:    12.1687991743
  - # 5
    frequency:    14.3166447567
  - # 6
    frequency:    14.3203156086

- q-position: [   -0.4193548,    0.0645161,    0.0000000 ]
  distance_from_gamma:  0.141016826
  weight: 24   
  band:
  - # 1
    frequency:     3.2763989853
  - # 2
    frequency:     3.6369499591
  - # 3
    frequency:    10.3984331657
  - # 4
    frequency:    12.5478432016
  - # 5
    frequency:    14.3351191730
  - # 6
    frequency:    14.3483499314

- q-position: [   -0.3870968,    0.0645161,    0.0000000 ]
  distance_from_gamma:  0.130898730
  weight: 24   
  band:
  - # 1
    frequency:     3.1728841446
  - # 2
    frequency:     3.5584004966
  - # 3
    frequency:     9.8146512430
  - # 4
    frequency:    12.9430105022
  - # 5
    frequency:    14.3661265621
  - # 6
    frequency:    14.3953118955

- q-position: [   -0.3548387,    0.0645161,    0.0000000 ]
  distance_from_gamma:  0.120798041
  weight: 24   
  band:
  - # 1
    frequency:     3.0354495066
  - # 2
    frequency:     3.4412630468
  - # 3
    frequency:     9.1805839990
  - # 4
    frequency:    13.3121258068
  - # 5
    frequency:    14.4116786381
  - # 6
    frequency:    14.4550442131

- q-position: [   -0.3225806,    0.0645161,    0.0000000 ]
  distance_from_gamma:  0.110719524
  weight: 24   
  band:
  - # 1
    frequency:     2.8675140520
  - # 2
    frequency:     3.2881089075
  - # 3
    frequency:     8.5102043973
  - # 4
    frequency:    13.6451146259
  - # 5
    frequency:    14.4694270015
  - # 6
    frequency:    14.5245259670

- q-position: [   -0.2903226,    0.0645161,    0.0000000 ]
  distance_from_gamma:  0.100669839
  weight: 24   
  band:
  - # 1
    frequency:     2.6729161973
  - # 2
    frequency:     3.1020907622
  - # 3
    frequency:     7.8111760210
  - # 4
    frequency:    13.9392497196
  - # 5
    frequency:    14.5365366028
  - # 6
    frequency:    14.6004304884

- q-position: [   -0.2580645,    0.0645161,    0.0000000 ]
  distance_from_gamma:  0.090658574
  weight: 24   
  band:
  - # 1
    frequency:     2.4557269374
  - # 2
    frequency:     2.8867331586
  - # 3
    frequency:     7.0895124042
  - # 4
    frequency:    14.1944289543
  - # 5
    frequency:    14.6098999155
  - # 6
    frequency:    14.6793383741

- q-position: [   -0.2258065,    0.0645161,    0.0000000 ]
  distance_from_gamma:  0.080700028
  weight: 24   
  band:
  - # 1
    frequency:     2.2201317012
  - # 2
    frequency:     2.6457430606
  - # 3
    frequency:     6.3508775674
  - # 4
    frequency:    14.4118511458
  - # 5
    frequency:    14.6863337848
  - # 6
    frequency:    14.7579157190

- q-position: [   -0.1935484,    0.0645161,    0.0000000 ]
  distance_from_gamma:  0.070816446
  weight: 24   
  band:
  - # 1
    frequency:     1.9704200195
  - # 2
    frequency:     2.3828551243
  - # 3
    frequency:     5.6012016476
  - # 4
    frequency:    14.5934888896
  - # 5
    frequency:    14.7627405935
  - # 6
    frequency:    14.8330499743

- q-position: [   -0.1612903,    0.0645161,    0.0000000 ]
  distance_from_gamma:  0.061044251
  weight: 24   
  band:
  - # 1
    frequency:     1.7111488591
  - # 2
    frequency:     2.1017070193
  - # 3
    frequency:     4.8473386429
  - # 4
    frequency:    14.7417883111
  - # 5
    frequency:    14.8362275827
  - # 6
    frequency:    14.9019446659

- q-position: [   -0.1290323,    0.0645161,    0.0000000 ]
  distance_from_gamma:  0.051446955
  weight: 24   
  band:
  - # 1
    frequency:     1.4476304427
  - # 2
    frequency:     1.8057163569
  - # 3
    frequency:     4.0982880154
  - # 4
    frequency:    14.8594270084
  - # 5
    frequency:    14.9041972215
  - # 6
    frequency:    14.9621793967

- q-position: [   -0.0967742,    0.0645161,    0.0000000 ]
  distance_from_gamma:  0.042144215
  weight: 24   
  band:
  - # 1
    frequency:     1.1871381269
  - # 2
    frequency:     1.4979439643
  - # 3
    frequency:     3.3679114916
  - # 4
    frequency:    14.9489579802
  - # 5
    frequency:    14.9645398445
  - # 6
    frequency:    15.0117435864

- q-position: [   -0.0645161,    0.0645161,    0.0000000 ]
  distance_from_gamma:  0.033383193
  weight: 12   
  band:
  - # 1
    frequency:     0.9418997135
  - # 2
    frequency:     1.1814771017
  - # 3
    frequency:     2.6812377365
  - # 4
    frequency:    15.0109226151
  - # 5
    frequency:    15.0173433877
  - # 6
    frequency:    15.0490523158

- q-position: [    0.0967742,    0.0967742,    0.0000000 ]
  distance_from_gamma:  0.035408223
  weight: 6    
  band:
  - # 1
    frequency:     1.1877813736
  - # 2
    frequency:     1.1877813736
  - # 3
    frequency:     2.7891144966
  - # 4
    frequency:    14.9945635532
  - # 5
    frequency:    14.9945635532
  - # 6
    frequency:    15.0544057612

- q-position: [    0.1290323,    0.0967742,    0.0000000 ]
  distance_from_gamma:  0.042144215
  weight: 24   
  band:
  - # 1
    frequency:     1.3995838890
  - # 2
    frequency:     1.4012722129
  - # 3
    frequency:     3.3174728745
  - # 4
    frequency:    14.9460786907
  - # 5
    frequency:    14.9497801364
  - # 6
    frequency:    15.0263482200

- q-position: [    0.1612903,    0.0967742,    0.0000000 ]
  distance_from_gamma:  0.050074789
  weight: 24   
  band:
  - # 1
    frequency:     1.6342427912
  - # 2
    frequency:     1.6529185062
  - # 3
    frequency:     3.9389795628
  - # 4
    frequency:    14.8762076356
  - # 5
    frequency:    14.8934769032
  - # 6
    frequency:    14.9834267174

- q-position: [    0.1935484,    0.0967742,    0.0000000 ]
  distance_from_gamma:  0.058717895
  weight: 24   
  band:
  - # 1
    frequency:     1.8782113800
  - # 2
    frequency:     1.9312703367
  - # 3
    frequency:     4.6082249443
  - # 4
    frequency:    14.7816401918
  - # 5
    frequency:    14.8274965909
  - # 6
    frequency:    14.9278850890

- q-position: [    0.2258065,    0.0967742,    0.0000000 ]
  distance_from_gamma:  0.067801585
  weight: 24   
  band:
  - # 1
    frequency:     2.1222752729
  - # 2
    frequency:     2.2216113693
  - # 3
    frequency:     5.3013419029
  - # 4
    frequency:    14.6583330734
  - # 5
    frequency:    14.7541078265
  - # 6
    frequency:    14.8627875923

- q-position: [    0.2580645,    0.0967742,    0.0000000 ]
  distance_from_gamma:  0.077170433
  weight: 24   
  band:
  - # 1
    frequency:     2.3594900896
  - # 2
    frequency:     2.5118605216
  - # 3
    frequency:     6.0043453739
  - # 4
    frequency:    14.5025255681
  - # 5
    frequency:    14.6759792691
  - # 6
    frequency:    14.7911893254

- q-position: [    0.2903226,    0.0967742,    0.0000000 ]
  distance_from_gamma:  0.086732079
  weight: 24   
  band:
  - # 1
    frequency:     2.5840570719
  - # 2
    frequency:     2.7928890952
  - # 3
    frequency:     6.7077250031
  - # 4
    frequency:    14.3112052498
  - # 5
    frequency:    14.5961304671
  - # 6
    frequency:    14.7158617896

- q-position: [    0.3225806,    0.0967742,    0.0000000 ]
  distance_from_gamma:  0.096429188
  weight: 24   