# Tetrahedron method
       -1.5149785171        0.0000000000
       -1.4242902897        0.0000000000
       -1.3336020624        0.0000000000
       -1.2429138350        0.0000000000
       -1.1522256077        0.0000000000
       -1.0615373803        0.0000000000
       -0.9708491529        0.0000000000
       -0.8801609256        0.0000000000
       -0.7894726982        0.0000000000
       -0.6987844708        0.0000000000
       -0.6080962435        0.0000000000
       -0.5174080161        0.0000000000
       -0.4267197888        0.0000000000
       -0.3360315614        0.0000000000
       -0.2453433340        0.0000000000
       -0.1546551067        0.0000000000
       -0.0639668793        0.0000000000
        0.0267213481        0.0000191153
        0.1174095754        0.0003058440
        0.2080978028        0.0009366474
        0.2987860301        0.0019115252
        0.3894742575        0.0048770206
        0.4801624849        0.0071786266
        0.5708507122        0.0103179600
        0.6615389396        0.0142431704
        0.7522271670        0.0182554774
        0.8429153943        0.0232472050
        0.9336036217        0.0287081919
        1.0242918490        0.0348021012
        1.1149800764        0.0413863557
        1.2056683038        0.0481467073
        1.2963565311        0.0560544059
        1.3870447585        0.0641824851
        1.4777329859        0.0738677297
        1.5684212132        0.0829631286
        1.6591094406        0.0934123682
        1.7497976679        0.1052274236
        1.8404858953        0.1168874863
        1.9311741227        0.1294958576
        2.0218623500        0.1431967029
        2.1125505774        0.1589672831
        2.2032388048        0.1748538947
        2.2939270321        0.1913615475
        2.3846152595        0.2110383390
        2.4753034868        0.2317278664
        2.5659917142        0.2542370551
        2.6566799416        0.2779186236
        2.7473681689        0.3054425476
        2.8380563963        0.3379269390
        2.9287446237        0.3722997957
        3.0194328510        0.4139038038
        3.1101210784        0.4646773498
        3.2008093057        0.5296852462
        3.2914975331        0.6323692453
        3.3821857605        0.7760445206
        3.4728739878        0.7529362010
        3.5635622152        0.7409992218
        3.6542504426        0.7252913547
        3.7449386699        0.7167018143
        3.8356268973        0.7125878146
        3.9263151246        0.6993233223
        4.0170033520        0.6954127579
        4.1076915794        0.6850148327
        4.1983798067        0.6810559697
        4.2890680341        0.6712752429
        4.3797562614        0.6621071325
        4.4704444888        0.5429613844
        4.5611327162        0.4974380487
        4.6518209435        0.4548570811
        4.7425091709        0.4343969659
        4.8331973983        0.4085145155
        4.9238856256        0.3883041872
        5.0145738530        0.3739764891
        5.1052620803        0.3620421248
        5.1959503077        0.3501426607
        5.2866385351        0.3403529736
        5.3773267624        0.3334331522
        5.4680149898        0.3300279890
        5.5587032172        0.3240538798
        5.6493914445        0.3176122538
        5.7400796719        0.3256127613
        5.8307678992        0.3335941261
        5.9214561266        0.3451227900
        6.0121443540        0.3559693580
        6.1028325813        0.3649348682
        6.1935208087        0.3738037291
        6.2842090361        0.3850714457
        6.3748972634        0.3671173579
        6.4655854908        0.2774443115
        6.5562737181        0.2299413525
        6.6469619455        0.1932217703
        6.7376501729        0.1517953507
        6.8283384002        0.0988993717
        6.9190266276        0.0669613448
        7.0097148550        0.0695808702
        7.1004030823        0.0721773670
        7.1910913097        0.0746835147
        7.2817795370        0.0776941750
        7.3724677644        0.0809562204
        7.4631559918        0.0842021638
        7.5538442191        0.0873072394
        7.6445324465        0.0904154814
        7.7352206739        0.0940892211
        7.8259089012        0.0981258982
        7.9165971286        0.1019925567
        8.0072853559        0.1058328668
        8.0979735833        0.1096358218
        8.1886618107        0.1145666290
        8.2793500380        0.1194186108
        8.3700382654        0.1240789248
        8.4607264928        0.1287345320
        8.5514147201        0.1343965098
        8.6421029475        0.1403646985
        8.7327911748        0.1462346701
        8.8234794022        0.1519632858
        8.9141676296        0.1590203316
        9.0048558569        0.1664368219
        9.0955440843        0.1736746333
        9.1862323117        0.1809535872
        9.2769205390        0.1904443410
        9.3676087664        0.1997004068
        9.4582969937        0.2091307959
        9.5489852211        0.2200634025
        9.6396734485        0.2324280383
        9.7303616758        0.2451554107
        9.8210499032        0.2591594886
        9.9117381306        0.2767904732
       10.0024263579        0.2958885221
       10.0931145853        0.3181822615
       10.1838028126        0.3491390694
       10.2744910400        0.3891873904
       10.3651792674        0.4549583856
       10.4558674947        0.6770226016
       10.5465557221        0.4862054776
       10.6372439495        0.3794459160
       10.7279321768        0.3159853731
       10.8186204042        0.2633769918
       10.9093086315        0.2233538271
       10.9999968589        0.1711837994
       11.0906850863        0.1171726491
       11.1813733136        0.0871898349
       11.2720615410        0.0920874917
       11.3627497684        0.1166171767
       11.4534379957        0.1353683376
       11.5441262231        0.2083729710
       11.6348144504        0.3808603627
       11.7255026778        0.4230764903
       11.8161909052        0.4672027215
       11.9068791325        0.5114416857
       11.9975673599        0.5463635330
       12.0882555872        0.4741362343
       12.1789438146        0.4121437090
       12.2696320420        0.3786769164
       12.3603202693        0.3542383065
       12.4510084967        0.3385023977
       12.5416967241        0.3258645451
       12.6323849514        0.3137574725
       12.7230731788        0.3042210144
       12.8137614061        0.2962310766
       12.9044496335        0.2884010917
       12.9951378609        0.2812466438
       13.0858260882        0.2750910071
       13.1765143156        0.2692108743
       13.2672025430        0.2635471497
       13.3578907703        0.2581970107
       13.4485789977        0.3937916713
       13.5392672250        0.6248615092
       13.6299554524        0.8685702277
       13.7206436798        1.2308164359
       13.8113319071        1.9540166784
       13.9020201345        2.0720907618
       13.9927083619        2.2046117978
       14.0833965892        2.3638927690
       14.1740848166        2.5097006960
       14.2647730439        2.6196481898
       14.3554612713        2.1394038199
       14.4461494987        1.5535026559
       14.5368377260        1.2488979209
       14.6275259534        1.0380772279
       14.7182141808        0.8708525849
       14.8089024081        0.7255675627
       14.8995906355        0.5882402516
       14.9902788628        0.4337822400
       15.0809670902        0.2149375899
       15.1716553176        0.0000000000
       15.2623435449        0.0000000000
       15.3530317723        0.0000000000
       15.4437199997        0.0000000000
       15.5344082270        0.0000000000
       15.6250964544        0.0000000000
       15.7157846817        0.0000000000
       15.8064729091        0.0000000000
       15.8971611365        0.0000000000
       15.9878493638        0.0000000000
       16.0785375912        0.0000000000
       16.1692258186        0.0000000000
       16.2599140459        0.0000000000
       16.3506022733        0.0000000000
       16.4412905006        0.0000000000
       16.5319787280        0.0000000000
       16.6226669554        0.0000000000
