   2   2   0   0
  0.2072484E+02  0.3884592E-09  0.3884592E-09  0.3884592E-09  0.5000000E-15
   1.0000000000000000E-004
  CAR 
 unknown system                          
     30.16634249     -8.19174453  301      5.80434599      1.00000000
     -8.192  0.0000E+00  0.0000E+00
     -8.064  0.0000E+00  0.0000E+00
     -7.936  0.0000E+00  0.0000E+00
     -7.808  0.0000E+00  0.0000E+00
     -7.680  0.0000E+00  0.0000E+00
     -7.552  0.0000E+00  0.0000E+00
     -7.425  0.0000E+00  0.0000E+00
     -7.297  0.3262E-16  0.4171E-17
     -7.169  0.2963E-13  0.3793E-14
     -7.041  0.1201E-10  0.1539E-11
     -6.913  0.2254E-08  0.2898E-09
     -6.785  0.2013E-06  0.2603E-07
     -6.657  0.8860E-05  0.1159E-05
     -6.530  0.1991E-03  0.2661E-04
     -6.402  0.2337E-02  0.3254E-03
     -6.274  0.1453E-01  0.2183E-02
     -6.146  0.4978E-01  0.8548E-02
     -6.018  0.1065E+00  0.2216E-01
     -5.890  0.1704E+00  0.4396E-01
     -5.762  0.2178E+00  0.7181E-01
     -5.635  0.2467E+00  0.1034E+00
     -5.507  0.3012E+00  0.1419E+00
     -5.379  0.3435E+00  0.1858E+00
     -5.251  0.3397E+00  0.2292E+00
     -5.123  0.3581E+00  0.2750E+00
     -4.995  0.4435E+00  0.3317E+00
     -4.867  0.4919E+00  0.3946E+00
     -4.740  0.4619E+00  0.4537E+00
     -4.612  0.4435E+00  0.5104E+00
     -4.484  0.5354E+00  0.5788E+00
     -4.356  0.6750E+00  0.6651E+00
     -4.228  0.6853E+00  0.7528E+00
     -4.100  0.6215E+00  0.8322E+00
     -3.972  0.6852E+00  0.9198E+00
     -3.844  0.8996E+00  0.1035E+01
     -3.717  0.9685E+00  0.1159E+01
     -3.589  0.8122E+00  0.1263E+01
     -3.461  0.6839E+00  0.1350E+01
     -3.333  0.7247E+00  0.1443E+01
     -3.205  0.7835E+00  0.1543E+01
     -3.077  0.6468E+00  0.1626E+01
     -2.949  0.5128E+00  0.1691E+01
     -2.822  0.5485E+00  0.1761E+01
     -2.694  0.5668E+00  0.1834E+01
     -2.566  0.4236E+00  0.1888E+01
     -2.438  0.2876E+00  0.1925E+01
     -2.310  0.2604E+00  0.1958E+01
     -2.182  0.2421E+00  0.1989E+01
     -2.054  0.1912E+00  0.2013E+01
     -1.927  0.1631E+00  0.2034E+01
     -1.799  0.1740E+00  0.2056E+01
     -1.671  0.2527E+00  0.2089E+01
     -1.543  0.4461E+00  0.2146E+01
     -1.415  0.6403E+00  0.2228E+01
     -1.287  0.7558E+00  0.2324E+01
     -1.159  0.9765E+00  0.2449E+01
     -1.032  0.1184E+01  0.2601E+01
     -0.904  0.1127E+01  0.2745E+01
     -0.776  0.9162E+00  0.2862E+01
     -0.648  0.6907E+00  0.2950E+01
     -0.520  0.6178E+00  0.3029E+01
     -0.392  0.6353E+00  0.3110E+01
     -0.264  0.5359E+00  0.3179E+01
     -0.137  0.4585E+00  0.3238E+01
     -0.009  0.4366E+00  0.3293E+01
      0.119  0.3979E+00  0.3344E+01
      0.247  0.4050E+00  0.3396E+01
      0.375  0.3924E+00  0.3446E+01
      0.503  0.3239E+00  0.3488E+01
      0.631  0.3036E+00  0.3526E+01
      0.758  0.3175E+00  0.3567E+01
      0.886  0.2403E+00  0.3598E+01
      1.014  0.1588E+00  0.3618E+01
      1.142  0.2665E+00  0.3652E+01
      1.270  0.5077E+00  0.3717E+01
      1.398  0.7131E+00  0.3808E+01
      1.526  0.8659E+00  0.3919E+01
      1.653  0.9705E+00  0.4043E+01
      1.781  0.1125E+01  0.4187E+01
      1.909  0.1239E+01  0.4345E+01
      2.037  0.1116E+01  0.4488E+01
      2.165  0.9807E+00  0.4613E+01
      2.293  0.1039E+01  0.4746E+01
      2.421  0.1216E+01  0.4902E+01
      2.549  0.1318E+01  0.5070E+01
      2.676  0.1290E+01  0.5235E+01
      2.804  0.1425E+01  0.5417E+01
      2.932  0.1636E+01  0.5626E+01
      3.060  0.1540E+01  0.5823E+01
      3.188  0.1398E+01  0.6002E+01
      3.316  0.1444E+01  0.6187E+01
      3.444  0.1363E+01  0.6361E+01
      3.571  0.1297E+01  0.6527E+01
      3.699  0.1451E+01  0.6712E+01
      3.827  0.1465E+01  0.6900E+01
      3.955  0.1302E+01  0.7066E+01
      4.083  0.1196E+01  0.7219E+01
      4.211  0.1060E+01  0.7355E+01
      4.339  0.9672E+00  0.7478E+01
      4.466  0.9357E+00  0.7598E+01
      4.594  0.8058E+00  0.7701E+01
      4.722  0.6678E+00  0.7786E+01
      4.850  0.5159E+00  0.7852E+01
      4.978  0.3658E+00  0.7899E+01
      5.106  0.2752E+00  0.7934E+01
      5.234  0.2060E+00  0.7961E+01
      5.361  0.1587E+00  0.7981E+01
      5.489  0.1013E+00  0.7994E+01
      5.617  0.3920E-01  0.7999E+01
      5.745  0.8580E-02  0.8000E+01
      5.873  0.2339E-02  0.8000E+01
      6.001  0.1010E-01  0.8001E+01
      6.129  0.4098E-01  0.8007E+01
      6.256  0.1040E+00  0.8020E+01
      6.384  0.1931E+00  0.8045E+01
      6.512  0.2776E+00  0.8080E+01
      6.640  0.3271E+00  0.8122E+01
      6.768  0.3828E+00  0.8171E+01
      6.896  0.5236E+00  0.8238E+01
      7.024  0.6871E+00  0.8326E+01
      7.151  0.8384E+00  0.8433E+01
      7.279  0.1021E+01  0.8563E+01
      7.407  0.1128E+01  0.8708E+01
      7.535  0.1203E+01  0.8861E+01
      7.663  0.1335E+01  0.9032E+01
      7.791  0.1462E+01  0.9219E+01
      7.919  0.1438E+01  0.9403E+01
      8.047  0.1362E+01  0.9577E+01
      8.174  0.1353E+01  0.9750E+01
      8.302  0.1237E+01  0.9908E+01
      8.430  0.1119E+01  0.1005E+02
      8.558  0.1179E+01  0.1020E+02
      8.686  0.1545E+01  0.1040E+02
      8.814  0.1998E+01  0.1066E+02
      8.942  0.2085E+01  0.1092E+02
      9.069  0.1897E+01  0.1116E+02
      9.197  0.1779E+01  0.1139E+02
      9.325  0.1632E+01  0.1160E+02
      9.453  0.1283E+01  0.1176E+02
      9.581  0.1067E+01  0.1190E+02
      9.709  0.1133E+01  0.1205E+02
      9.837  0.1146E+01  0.1219E+02
      9.964  0.1113E+01  0.1233E+02
     10.092  0.1474E+01  0.1252E+02
     10.220  0.1902E+01  0.1277E+02
     10.348  0.1789E+01  0.1299E+02
     10.476  0.1424E+01  0.1318E+02
     10.604  0.1163E+01  0.1333E+02
     10.732  0.9529E+00  0.1345E+02
     10.859  0.8336E+00  0.1355E+02
     10.987  0.8860E+00  0.1367E+02
     11.115  0.1079E+01  0.1381E+02
     11.243  0.1163E+01  0.1395E+02
     11.371  0.1045E+01  0.1409E+02
     11.499  0.1064E+01  0.1422E+02
     11.627  0.1308E+01  0.1439E+02
     11.754  0.1456E+01  0.1458E+02
     11.882  0.1316E+01  0.1475E+02
     12.010  0.1120E+01  0.1489E+02
     12.138  0.1098E+01  0.1503E+02
     12.266  0.1078E+01  0.1517E+02
     12.394  0.9617E+00  0.1529E+02
     12.522  0.9079E+00  0.1541E+02
     12.649  0.1017E+01  0.1554E+02
     12.777  0.1091E+01  0.1568E+02
     12.905  0.1159E+01  0.1582E+02
     13.033  0.1375E+01  0.1600E+02
     13.161  0.1568E+01  0.1620E+02
     13.289  0.1656E+01  0.1641E+02
     13.417  0.1702E+01  0.1663E+02
     13.545  0.1531E+01  0.1682E+02
     13.672  0.1072E+01  0.1696E+02
     13.800  0.8206E+00  0.1707E+02
     13.928  0.9220E+00  0.1718E+02
     14.056  0.1113E+01  0.1733E+02
     14.184  0.1220E+01  0.1748E+02
     14.312  0.1141E+01  0.1763E+02
     14.440  0.1011E+01  0.1776E+02
     14.567  0.1029E+01  0.1789E+02
     14.695  0.1296E+01  0.1806E+02
     14.823  0.1622E+01  0.1826E+02
     14.951  0.1827E+01  0.1850E+02
     15.079  0.1850E+01  0.1873E+02
     15.207  0.1816E+01  0.1897E+02
     15.335  0.1763E+01  0.1919E+02
     15.462  0.1473E+01  0.1938E+02
     15.590  0.1067E+01  0.1952E+02
     15.718  0.8723E+00  0.1963E+02
     15.846  0.9038E+00  0.1974E+02
     15.974  0.1037E+01  0.1988E+02
     16.102  0.1092E+01  0.2001E+02
     16.230  0.9796E+00  0.2014E+02
     16.357  0.9901E+00  0.2027E+02
     16.485  0.1181E+01  0.2042E+02
     16.613  0.1293E+01  0.2058E+02
     16.741  0.1321E+01  0.2075E+02
     16.869  0.1457E+01  0.2094E+02
     16.997  0.1705E+01  0.2116E+02
     17.125  0.1918E+01  0.2140E+02
     17.252  0.1842E+01  0.2164E+02
     17.380  0.1529E+01  0.2183E+02
     17.508  0.1265E+01  0.2199E+02
     17.636  0.1273E+01  0.2216E+02
     17.764  0.1510E+01  0.2235E+02
     17.892  0.1646E+01  0.2256E+02
     18.020  0.1417E+01  0.2274E+02
     18.147  0.1082E+01  0.2288E+02
     18.275  0.1090E+01  0.2302E+02
     18.403  0.1439E+01  0.2320E+02
     18.531  0.1765E+01  0.2343E+02
     18.659  0.1888E+01  0.2367E+02
     18.787  0.1842E+01  0.2391E+02
     18.915  0.1849E+01  0.2414E+02
     19.042  0.2056E+01  0.2441E+02
     19.170  0.2093E+01  0.2467E+02
     19.298  0.1818E+01  0.2491E+02
     19.426  0.1554E+01  0.2510E+02
     19.554  0.1329E+01  0.2527E+02
     19.682  0.1178E+01  0.2542E+02
     19.810  0.1253E+01  0.2558E+02
     19.938  0.1369E+01  0.2576E+02
     20.065  0.1323E+01  0.2593E+02
     20.193  0.1262E+01  0.2609E+02
     20.321  0.1482E+01  0.2628E+02
     20.449  0.1820E+01  0.2651E+02
     20.577  0.1914E+01  0.2676E+02
     20.705  0.1772E+01  0.2698E+02
     20.833  0.1505E+01  0.2718E+02
     20.960  0.1233E+01  0.2733E+02
     21.088  0.1242E+01  0.2749E+02
     21.216  0.1587E+01  0.2770E+02
     21.344  0.1702E+01  0.2791E+02
     21.472  0.1419E+01  0.2810E+02
     21.600  0.1250E+01  0.2825E+02
     21.728  0.1274E+01  0.2842E+02
     21.855  0.1279E+01  0.2858E+02
     21.983  0.1360E+01  0.2876E+02
     22.111  0.1495E+01  0.2895E+02
     22.239  0.1544E+01  0.2914E+02
     22.367  0.1487E+01  0.2933E+02
     22.495  0.1396E+01  0.2951E+02
     22.623  0.1443E+01  0.2970E+02
     22.750  0.1707E+01  0.2991E+02
     22.878  0.2012E+01  0.3017E+02
     23.006  0.2026E+01  0.3043E+02
     23.134  0.1737E+01  0.3065E+02
     23.262  0.1583E+01  0.3086E+02
     23.390  0.1580E+01  0.3106E+02
     23.518  0.1364E+01  0.3123E+02
     23.645  0.1071E+01  0.3137E+02
     23.773  0.8799E+00  0.3148E+02
     23.901  0.7448E+00  0.3158E+02
     24.029  0.6614E+00  0.3166E+02
     24.157  0.5255E+00  0.3173E+02
     24.285  0.3276E+00  0.3177E+02
     24.413  0.1867E+00  0.3179E+02
     24.540  0.2029E+00  0.3182E+02
     24.668  0.3148E+00  0.3186E+02
     24.796  0.3202E+00  0.3190E+02
     24.924  0.1871E+00  0.3193E+02
     25.052  0.1048E+00  0.3194E+02
     25.180  0.1033E+00  0.3195E+02
     25.308  0.7458E-01  0.3196E+02
     25.436  0.2767E-01  0.3197E+02
     25.563  0.1313E-01  0.3197E+02
     25.691  0.2517E-01  0.3197E+02
     25.819  0.3253E-01  0.3197E+02
     25.947  0.1983E-01  0.3198E+02
     26.075  0.5646E-02  0.3198E+02
     26.203  0.1130E-02  0.3198E+02
     26.331  0.3370E-02  0.3198E+02
     26.458  0.1306E-01  0.3198E+02
     26.586  0.2392E-01  0.3198E+02
     26.714  0.2155E-01  0.3199E+02
     26.842  0.1617E-01  0.3199E+02
     26.970  0.2540E-01  0.3199E+02
     27.098  0.3281E-01  0.3199E+02
     27.226  0.2082E-01  0.3200E+02
     27.353  0.6164E-02  0.3200E+02
     27.481  0.8452E-03  0.3200E+02
     27.609  0.5378E-04  0.3200E+02
     27.737  0.1515E-04  0.3200E+02
     27.865  0.1800E-03  0.3200E+02
     27.993  0.1096E-02  0.3200E+02
     28.121  0.3095E-02  0.3200E+02
     28.248  0.4067E-02  0.3200E+02
     28.376  0.2491E-02  0.3200E+02
     28.504  0.7095E-03  0.3200E+02
     28.632  0.9352E-04  0.3200E+02
     28.760  0.5669E-05  0.3200E+02
     28.888  0.1570E-06  0.3200E+02
     29.016  0.1974E-08  0.3200E+02
     29.143  0.1120E-10  0.3200E+02
     29.271  0.2859E-13  0.3200E+02
     29.399  0.3262E-16  0.3200E+02
     29.527  0.0000E+00  0.3200E+02
     29.655  0.0000E+00  0.3200E+02
     29.783  0.0000E+00  0.3200E+02
     29.911  0.0000E+00  0.3200E+02
     30.038  0.0000E+00  0.3200E+02
     30.166  0.0000E+00  0.3200E+02
