    2    2    1    1
  0.2072484E+02  0.3884592E-09  0.3884592E-09  0.3884592E-09  0.5000000E-15
   1.0000000000000000E-004
  CAR 
 unknown system                          
      8     56     16

  0.3742002E-15  0.3742002E-15  0.3742002E-15  0.7513148E-03
    1       -6.191745   1.000000
    2        5.459045   0.992690
    3        5.459045   0.992690
    4        5.459045   0.992690
    5        8.074256   0.000000
    6        8.074256   0.000000
    7        8.074256   0.000000
    8        8.529918   0.000000
    9       13.214093   0.000000
   10       13.214093   0.000000
   11       13.348558   0.000000
   12       16.655560   0.000000
   13       16.655560   0.000000
   14       16.655560   0.000000
   15       20.750642   0.000000
   16       28.166342   0.000000

  0.9090909E-01  0.3816392E-15  0.3816392E-15  0.6010518E-02
    1       -6.086887   1.000000
    2        4.496116   1.000000
    3        5.302103   0.999808
    4        5.302103   0.999808
    5        8.037703   0.000000
    6        8.308283   0.000000
    7        8.308283   0.000000
    8        9.359128   0.000000
    9       12.915600   0.000000
   10       12.915600   0.000000
   11       13.788050   0.000000
   12       16.300332   0.000000
   13       17.300146   0.000000
   14       17.300146   0.000000
   15       21.434165   0.000000
   16       27.022111   0.000000

  0.1818182E+00  0.3747003E-15  0.3747003E-15  0.6010518E-02
    1       -5.776535   1.000000
    2        2.864718   1.000000
    3        4.977750   1.000000
    4        4.977751   1.000000
    5        7.709012   0.000000
    6        8.766698   0.000000
    7        8.766698   0.000000
    8       10.943191   0.000000
    9       12.568528   0.000000
   10       12.568528   0.000000
   11       14.530437   0.000000
   12       16.139438   0.000000
   13       18.748160   0.000000
   14       18.748160   0.000000
   15       22.877368   0.000000
   16       24.680579   0.000000

  0.2727273E+00  0.3885781E-15  0.3885781E-15  0.6010518E-02
    1       -5.277431   1.000000
    2        1.253926   1.000000
    3        4.665832   1.000000
    4        4.665832   1.000000
    5        7.361890   0.000000
    6        9.024797   0.000000
    7        9.024797   0.000000
    8       12.509700   0.000000
    9       12.830540   0.000000
   10       12.830540   0.000000
   11       14.337458   0.000000
   12       17.607667   0.000000
   13       20.214935   0.000000
   14       20.214935   0.000000
   15       22.681967   0.000000
   16       22.688210   0.000000

  0.3636364E+00  0.3885781E-15  0.3885781E-15  0.6010518E-02
    1       -4.640951   1.000000
    2       -0.155831   1.000000
    3        4.440870   1.000000
    4        4.440870   1.000000
    5        7.102819   0.000000
    6        8.986112   0.000000
    7        8.986112   0.000000
    8       13.324995   0.000000
    9       13.841953   0.000000
   10       13.841953   0.000000
   11       14.734219   0.000000
   12       19.179190   0.000000
   13       19.266587   0.000000
   14       19.266587   0.000000
   15       21.731456   0.000000
   16       23.515434   0.000000

  0.4545455E+00  0.3885781E-15  0.3885781E-15  0.6010518E-02
    1       -4.057750   1.000000
    2       -1.132943   1.000000
    3        4.325672   1.000000
    4        4.325672   1.000000
    5        6.967901   0.000000
    6        8.890417   0.000000
    7        8.890417   0.000000
    8       13.236707   0.000000
    9       15.330998   0.000000
   10       15.330998   0.000000
   11       16.147205   0.000000
   12       17.318055   0.000000
   13       17.318055   0.000000
   14       18.429421   0.000000
   15       23.401372   0.000000
   16       25.736290   0.000000

  0.9090909E-01  0.9090909E-01  0.3742002E-15  0.4507889E-02
    1       -6.051722   1.000000
    2        4.647341   1.000000
    3        4.997065   1.000000
    4        4.997065   1.000000
    5        7.764869   0.000000
    6        8.708165   0.000000
    7        8.708165   0.000000
    8        9.277531   0.000000
    9       12.365832   0.000000
   10       13.370390   0.000000
   11       13.936398   0.000000
   12       16.900952   0.000000
   13       16.900952   0.000000
   14       17.251462   0.000000
   15       21.724100   0.000000
   16       26.559094   0.000000

  0.1818182E+00  0.9090909E-01  0.3747003E-15  0.1803156E-01
    1       -5.809079   1.000000
    2        3.337024   1.000000
    3        4.618177   1.000000
    4        4.781978   1.000000
    5        7.789030   0.000000
    6        8.712765   0.000000
    7        9.279978   0.000000
    8       10.303605   0.000000
    9       12.076430   0.000000
   10       13.329733   0.000000
   11       14.733987   0.000000
   12       16.508922   0.000000
   13       17.727967   0.000000
   14       18.615107   0.000000
   15       22.996974   0.000000
   16       24.548505   0.000000

  0.2727273E+00  0.9090909E-01  0.3885781E-15  0.1803156E-01
    1       -5.370307   1.000000
    2        1.767085   1.000000
    3        4.309782   1.000000
    4        4.422421   1.000000
    5        7.870677   0.000000
    6        8.739308   0.000000
    7        9.634482   0.000000
    8       10.816945   0.000000
    9       13.047736   0.000000
   10       13.503070   0.000000
   11       14.964462   0.000000
   12       17.188933   0.000000
   13       19.143025   0.000000
   14       20.326263   0.000000
   15       22.303401   0.000000
   16       22.791979   0.000000

  0.3636364E+00  0.9090909E-01  0.3885781E-15  0.1803156E-01
    1       -4.769843   1.000000
    2        0.306922   1.000000
    3        4.053500   1.000000
    4        4.127094   1.000000
    5        7.699006   0.000000
    6        8.812697   0.000000
    7        9.590231   0.000000
    8       11.573296   0.000000
    9       14.294205   0.000000
   10       14.372788   0.000000
   11       14.876358   0.000000
   12       18.711939   0.000000
   13       18.974872   0.000000
   14       20.417018   0.000000
   15       22.158349   0.000000
   16       22.410904   0.000000

  0.4545455E+00  0.9090909E-01  0.3885781E-15  0.1803156E-01
    1       -4.127393   1.000000
    2       -0.843455   1.000000
    3        3.766021   1.000000
    4        4.085166   1.000000
    5        7.554049   0.000000
    6        8.788556   0.000000
    7        9.373732   0.000000
    8       12.789132   0.000000
    9       14.229012   0.000000
   10       15.745126   0.000000
   11       16.351341   0.000000
   12       17.092437   0.000000
   13       17.835987   0.000000
   14       20.082803   0.000000
   15       22.621363   0.000000
   16       24.229238   0.000000

 -0.4545455E+00  0.9090909E-01  0.3885781E-15  0.1803156E-01
    1       -3.871343   1.000000
    2       -1.227309   1.000000
    3        3.596276   1.000000
    4        4.180410   1.000000
    5        7.523546   0.000000
    6        8.847041   0.000000
    7        9.198827   0.000000
    8       13.520358   0.000000
    9       14.699771   0.000000
   10       15.044733   0.000000
   11       16.295466   0.000000
   12       17.669917   0.000000
   13       17.952169   0.000000
   14       18.704661   0.000000
   15       24.015560   0.000000
   16       25.133680   0.000000

 -0.3636364E+00  0.9090909E-01  0.3608225E-15  0.1803156E-01
    1       -4.331572   1.000000
    2       -0.509227   1.000000
    3        3.564826   1.000000
    4        4.397489   1.000000
    5        7.620041   0.000000
    6        9.029323   0.000000
    7        9.120562   0.000000
    8       13.160612   0.000000
    9       13.447028   0.000000
   10       14.595176   0.000000
   11       16.503397   0.000000
   12       17.207643   0.000000
   13       19.625337   0.000000
   14       19.744355   0.000000
   15       21.884325   0.000000
   16       23.411297   0.000000

 -0.2727273E+00  0.9090909E-01  0.3885781E-15  0.1803156E-01
    1       -4.985368   1.000000
    2        0.773913   1.000000
    3        3.686743   1.000000
    4        4.708206   1.000000
    5        7.833256   0.000000
    6        9.043222   0.000000
    7        9.221447   0.000000
    8       12.087676   0.000000
    9       12.305625   0.000000
   10       14.784004   0.000000
   11       14.890298   0.000000
   12       18.071234   0.000000
   13       19.392691   0.000000
   14       21.213354   0.000000
   15       21.228666   0.000000
   16       22.782993   0.000000

 -0.1818182E+00  0.9090909E-01  0.3885781E-15  0.1803156E-01
    1       -5.538120   1.000000
    2        2.274969   1.000000
    3        3.979359   1.000000
    4        5.057175   1.000000
    5        8.129491   0.000000
    6        8.755905   0.000000
    7        9.075159   0.000000
    8       11.182961   0.000000
    9       11.911410   0.000000
   10       13.584895   0.000000
   11       15.077932   0.000000
   12       16.690006   0.000000
   13       18.463774   0.000000
   14       20.228590   0.000000
   15       22.320307   0.000000
   16       23.617038   0.000000

 -0.9090909E-01  0.9090909E-01  0.3885781E-15  0.9015778E-02
    1       -5.913217   1.000000
    2        3.701250   1.000000
    3        4.526975   1.000000
    4        5.320165   0.999691
    5        8.363461   0.000000
    6        8.365961   0.000000
    7        8.497492   0.000000
    8       10.255295   0.000000
    9       12.246613   0.000000
   10       13.069024   0.000000
   11       14.417676   0.000000
   12       16.498011   0.000000
   13       17.189815   0.000000
   14       18.582153   0.000000
   15       22.391920   0.000000
   16       24.686210   0.000000

  0.1818182E+00  0.1818182E+00  0.3742002E-15  0.4507889E-02
    1       -5.634325   1.000000
    2        3.167219   1.000000
    3        4.203292   1.000000
    4        4.203292   1.000000
    5        7.137384   0.000000
    6        9.552716   0.000000
    7       10.008637   0.000000
    8       10.008637   0.000000
    9       12.099773   0.000000
   10       13.838821   0.000000
   11       15.377638   0.000000
   12       17.616047   0.000000
   13       17.616047   0.000000
   14       18.220456   0.000000
   15       24.102521   0.000000
   16       24.176031   0.000000

  0.2727273E+00  0.1818182E+00  0.3816392E-15  0.1803156E-01
    1       -5.259395   1.000000
    2        2.048676   1.000000
    3        3.795924   1.000000
    4        3.872046   1.000000
    5        7.183633   0.000000
    6        9.183755   0.000000
    7       10.291545   0.000000
    8       10.582464   0.000000
    9       13.248328   0.000000
   10       14.149079   0.000000
   11       16.134238   0.000000
   12       17.566852   0.000000
   13       18.489484   0.000000
   14       19.749834   0.000000
   15       22.236552   0.000000
   16       22.661398   0.000000

  0.3636364E+00  0.1818182E+00  0.3885781E-15  0.1803156E-01
    1       -4.707251   1.000000
    2        0.725564   1.000000
    3        3.279880   1.000000
    4        3.680584   1.000000
    5        7.413993   0.000000
    6        9.533529   0.000000
    7       10.091530   0.000000
    8       10.681309   0.000000
    9       14.929449   0.000000
   10       14.946961   0.000000
   11       15.919455   0.000000
   12       18.600334   0.000000
   13       18.735516   0.000000
   14       20.333120   0.000000
   15       21.327616   0.000000
   16       22.564687   0.000000

  0.4545455E+00  0.1818182E+00  0.3885781E-15  0.1803156E-01
    1       -4.052522   1.000000
    2       -0.466748   1.000000
    3        2.818127   1.000000
    4        3.647260   1.000000
    5        7.454203   0.000000
    6        9.855174   0.000000
    7       10.451381   0.000000
    8       10.725771   0.000000
    9       15.318341   0.000000
   10       16.215787   0.000000
   11       16.756760   0.000000
   12       17.000517   0.000000
   13       18.017288   0.000000
   14       21.353462   0.000000
   15       22.990192   0.000000
   16       23.051815   0.000000

 -0.4545455E+00  0.1818182E+00  0.3885781E-15  0.1803156E-01
    1       -3.592581   1.000000
    2       -1.145734   1.000000
    3        2.494839   1.000000
    4        3.771384   1.000000
    5        7.546918   0.000000
    6        9.734418   0.000000
    7       10.176174   0.000000
    8       12.310299   0.000000
    9       14.454556   0.000000
   10       14.919129   0.000000
   11       16.864927   0.000000
   12       18.089716   0.000000
   13       18.657765   0.000000
   14       20.865909   0.000000
   15       23.925279   0.000000
   16       24.116905   0.000000

 -0.3636364E+00  0.1818182E+00  0.3885781E-15  0.1803156E-01
    1       -3.864263   1.000000
    2       -0.752338   1.000000
    3        2.350909   1.000000
    4        4.037087   1.000000
    5        7.782843   0.000000
    6        9.730453   0.000000
    7        9.958079   0.000000
    8       13.087718   0.000000
    9       13.237637   0.000000
   10       14.034512   0.000000
   11       16.763675   0.000000
   12       19.023122   0.000000
   13       20.035211   0.000000
   14       20.196758   0.000000
   15       21.659899   0.000000
   16       23.995737   0.000000

 -0.2727273E+00  0.1818182E+00  0.3885781E-15  0.1803156E-01
    1       -4.509424   1.000000
    2        0.321047   1.000000
    3        2.438080   1.000000
    4        4.407284   1.000000
    5        8.126804   0.000000
    6        9.711342   0.000000
    7        9.782549   0.000000
    8       11.721791   0.000000
    9       12.030222   0.000000
   10       15.466592   0.000000
   11       17.086050   0.000000
   12       17.445554   0.000000
   13       19.215183   0.000000
   14       21.227671   0.000000
   15       21.866740   0.000000
   16       22.723979   0.000000

 -0.1818182E+00  0.1818182E+00  0.3885781E-15  0.9015778E-02
    1       -5.104867   1.000000
    2        1.472867   1.000000
    3        2.912359   1.000000
    4        4.802099   1.000000
    5        8.427753   0.000000
    6        9.226563   0.000000
    7        9.470721   0.000000
    8       11.067764   0.000000
    9       11.620558   0.000000
   10       15.254428   0.000000
   11       15.977974   0.000000
   12       17.076444   0.000000
   13       19.043172   0.000000
   14       20.291688   0.000000
   15       21.761486   0.000000
   16       23.671633   0.000000

  0.2727273E+00  0.2727273E+00  0.3742002E-15  0.4507889E-02
    1       -4.947987   1.000000
    2        1.584136   1.000000
    3        3.508027   1.000000
    4        3.508027   1.000000
    5        6.565548   0.000000
    6        8.342490   0.000000
    7       11.527234   0.000000
    8       11.527234   0.000000
    9       13.696866   0.000000
   10       14.617926   0.000000
   11       17.190434   0.000000
   12       18.597285   0.000000
   13       18.597285   0.000000
   14       19.436360   0.000000
   15       22.123657   0.000000
   16       22.123657   0.000000

  0.3636364E+00  0.2727273E+00  0.3747003E-15  0.1803156E-01
    1       -4.450911   1.000000
    2        0.658344   1.000000
    3        2.994764   1.000000
    4        3.283682   1.000000
    5        6.693248   0.000000
    6        8.058612   0.000000
    7       11.796158   0.000000
    8       11.995318   0.000000
    9       15.128423   0.000000
   10       15.333228   0.000000
   11       17.406880   0.000000
   12       18.620039   0.000000
   13       19.118839   0.000000
   14       20.049383   0.000000
   15       21.146234   0.000000
   16       22.058511   0.000000

  0.4545455E+00  0.2727273E+00  0.3747003E-15  0.1803156E-01
    1       -3.814297   1.000000
    2       -0.335403   1.000000
    3        2.297751   1.000000
    4        3.223226   1.000000
    5        6.896067   0.000000
    6        8.775655   0.000000
    7       11.631752   0.000000
    8       11.885955   0.000000
    9       16.336487   0.000000
   10       16.628412   0.000000
   11       16.993977   0.000000
   12       17.029334   0.000000
   13       19.010003   0.000000
   14       20.863160   0.000000
   15       22.027580   0.000000
   16       23.592785   0.000000

 -0.4545455E+00  0.2727273E+00  0.3330669E-15  0.1803156E-01
    1       -3.226106   1.000000
    2       -1.104179   1.000000
    3        1.746143   1.000000
    4        3.330474   1.000000
    5        7.028086   0.000000
    6       10.212418   0.000000
    7       11.465401   0.000000
    8       11.577981   0.000000
    9       14.805470   0.000000
   10       14.962386   0.000000
   11       18.453198   0.000000
   12       18.485315   0.000000
   13       18.872981   0.000000
   14       22.766518   0.000000
   15       22.822192   0.000000
   16       23.271383   0.000000

 -0.3636364E+00  0.2727273E+00  0.3885781E-15  0.1803156E-01
    1       -3.281556   1.000000
    2       -1.026696   1.000000
    3        1.474304   1.000000
    4        3.593644   1.000000
    5        7.305830   0.000000
    6       11.212844   0.000000
    7       11.235659   0.000000
    8       12.110228   0.000000
    9       13.122675   0.000000
   10       13.254290   0.000000
   11       18.444412   0.000000
   12       20.340824   0.000000
   13       20.403724   0.000000
   14       21.177620   0.000000
   15       21.737327   0.000000
   16       22.984336   0.000000

 -0.2727273E+00  0.2727273E+00  0.3885781E-15  0.9015778E-02
    1       -3.891166   1.000000
    2       -0.294367   1.000000
    3        1.632521   1.000000
    4        3.978998   1.000000
    5        7.728910   0.000000
    6       10.645988   0.000000
    7       10.937268   0.000000
    8       11.768409   0.000000
    9       12.201465   0.000000
   10       14.044957   0.000000
   11       18.406828   0.000000
   12       19.049926   0.000000
   13       19.419173   0.000000
   14       21.977456   0.000000
   15       22.085333   0.000000
   16       22.742325   0.000000

  0.3636364E+00  0.3636364E+00  0.3742002E-15  0.4507889E-02
    1       -4.008357   1.000000
    2        0.012551   1.000000
    3        3.018243   1.000000
    4        3.018244   1.000000
    5        6.222996   0.001537
    6        7.238894   0.000000
    7       13.146870   0.000000
    8       13.146870   0.000000
    9       15.579828   0.000000
   10       15.705045   0.000000
   11       18.433902   0.000000
   12       18.433902   0.000000
   13       18.728812   0.000000
   14       20.752559   0.000000
   15       21.063718   0.000000
   16       21.924180   0.000000

  0.4545455E+00  0.3636364E+00  0.3816392E-15  0.1803156E-01
    1       -3.406776   1.000000
    2       -0.777984   1.000000
    3        2.511626   1.000000
    4        2.916127   1.000000
    5        6.428946   0.000005
    6        7.240295   0.000000
    7       13.458081   0.000000
    8       13.488424   0.000000
    9       16.741589   0.000000
   10       16.811317   0.000000
   11       17.063745   0.000000
   12       17.208737   0.000000
   13       19.754669   0.000000
   14       20.376292   0.000000
   15       21.047342   0.000000
   16       23.061806   0.000000

 -0.4545455E+00  0.3636364E+00  0.3330669E-15  0.1803156E-01
    1       -2.758145   1.000000
    2       -1.472133   1.000000
    3        1.771598   1.000000
    4        2.985996   1.000000
    5        6.599666   0.000000
    6        8.378730   0.000000
    7       13.228370   0.000000
    8       13.323787   0.000000
    9       15.038571   0.000000
   10       15.169849   0.000000
   11       18.596893   0.000000
   12       18.819780   0.000000
   13       20.536748   0.000000
   14       20.609683   0.000000
   15       21.172721   0.000000
   16       23.367851   0.000000

 -0.3636364E+00  0.3636364E+00  0.3330669E-15  0.9015778E-02
    1       -2.702450   1.000000
    2       -1.498232   1.000000
    3        1.308456   1.000000
    4        3.220833   1.000000
    5        6.867743   0.000000
    6       10.055695   0.000000
    7       12.568692   0.000000
    8       13.044548   0.000000
    9       13.281335   0.000000
   10       13.705260   0.000000
   11       19.966950   0.000000
   12       20.390470   0.000000
   13       20.712756   0.000000
   14       20.910546   0.000000
   15       20.988184   0.000000
   16       22.503120   0.000000

  0.4545455E+00  0.4545455E+00  0.3742002E-15  0.4507889E-02
    1       -2.840696   1.000000
    2       -1.482989   1.000000
    3        2.767580   1.000000
    4        2.767580   1.000000
    5        6.190446   0.003165
    6        6.517880   0.000000
    7       14.796670   0.000000
    8       14.796670   0.000000
    9       16.843027   0.000000
   10       16.843027   0.000000
   11       17.095658   0.000000
   12       17.356043   0.000000
   13       18.712136   0.000000
   14       18.782411   0.000000
   15       23.104650   0.000000
   16       23.874295   0.000000

 -0.4545455E+00  0.4545455E+00  0.2775558E-15  0.9015778E-02
    1       -2.218124   1.000000
    2       -2.106363   1.000000
    3        2.351998   1.000000
    4        2.791644   1.000000
    5        6.370922   0.000031
    6        6.930155   0.000000
    7       14.741118   0.000000
    8       14.951774   0.000000
    9       15.465738   0.000000
   10       15.680590   0.000000
   11       18.489534   0.000000
   12       18.504376   0.000000
   13       18.538568   0.000000
   14       19.066049   0.000000
   15       23.135491   0.000000
   16       23.469689   0.000000

  0.2727273E+00  0.1818182E+00  0.9090909E-01  0.1803156E-01
    1       -5.500785   1.000000
    2        2.487843   1.000000
    3        3.722859   1.000000
    4        4.673003   1.000000
    5        7.847632   0.000000
    6        9.018805   0.000000
    7        9.809359   0.000000
    8       10.257028   0.000000
    9       12.397754   0.000000
   10       13.830628   0.000000
   11       15.565786   0.000000
   12       16.915726   0.000000
   13       18.042221   0.000000
   14       19.916647   0.000000
   15       22.302954   0.000000
   16       23.947740   0.000000

  0.3636364E+00  0.1818182E+00  0.9090909E-01  0.3606311E-01
    1       -5.004482   1.000000
    2        1.211170   1.000000
    3        3.174409   1.000000
    4        4.369085   1.000000
    5        8.139419   0.000000
    6        8.997598   0.000000
    7       10.156125   0.000000
    8       10.361807   0.000000
    9       12.952792   0.000000
   10       15.169653   0.000000
   11       15.754222   0.000000
   12       17.635125   0.000000
   13       19.159361   0.000000
   14       20.584629   0.000000
   15       21.232153   0.000000
   16       23.183985   0.000000

  0.4545455E+00  0.1818182E+00  0.9090909E-01  0.3606311E-01
    1       -4.369431   1.000000
    2       -0.084332   1.000000
    3        2.917698   1.000000
    4        4.041690   1.000000
    5        8.152804   0.000000
    6        8.845750   0.000000
    7       10.243346   0.000000
    8       11.186740   0.000000
    9       14.018062   0.000000
   10       15.209744   0.000000
   11       16.876100   0.000000
   12       17.260879   0.000000
   13       19.426691   0.000000
   14       20.542609   0.000000
   15       22.080845   0.000000
   16       22.946146   0.000000

 -0.4545455E+00  0.1818182E+00  0.9090909E-01  0.3606311E-01
    1       -3.781363   1.000000
    2       -1.026811   1.000000
    3        2.816575   1.000000
    4        3.841444   1.000000
    5        8.113542   0.000000
    6        8.671907   0.000000
    7       10.184017   0.000000
    8       12.612907   0.000000
    9       14.130032   0.000000
   10       15.258088   0.000000
   11       16.503436   0.000000
   12       17.834698   0.000000
   13       18.704898   0.000000
   14       20.485951   0.000000
   15       22.913029   0.000000
   16       24.714832   0.000000

  0.3636364E+00  0.2727273E+00  0.9090909E-01  0.1803156E-01
    1       -4.824472   1.000000
    2        1.218991   1.000000
    3        3.033002   1.000000
    4        3.714363   1.000000
    5        7.304251   0.000000
    6        8.820117   0.000000
    7       10.397775   0.000000
    8       11.414687   0.000000
    9       13.831969   0.000000
   10       15.296833   0.000000
   11       16.797044   0.000000
   12       17.890873   0.000000
   13       19.113790   0.000000
   14       20.548235   0.000000
   15       20.636158   0.000000
   16       22.792781   0.000000

  0.4545455E+00  0.2727273E+00  0.9090909E-01  0.3606311E-01
    1       -4.227653   1.000000
    2        0.174536   1.000000
    3        2.475630   1.000000
    4        3.417092   1.000000
    5        7.659246   0.000000
    6        9.218137   0.000000
    7       10.093177   0.000000
    8       11.803172   0.000000
    9       14.687107   0.000000
   10       16.040637   0.000000
   11       17.095019   0.000000
   12       17.872377   0.000000
   13       19.430437   0.000000
   14       20.011280   0.000000
   15       21.651761   0.000000
   16       23.340958   0.000000

 -0.4545455E+00  0.2727273E+00  0.9090909E-01  0.3606311E-01
    1       -3.580831   1.000000
    2       -0.794718   1.000000
    3        2.099050   1.000000
    4        3.269307   1.000000
    5        7.792285   0.000000
    6        9.726228   0.000000
    7       10.532794   0.000000
    8       11.765395   0.000000
    9       14.386656   0.000000
   10       16.024668   0.000000
   11       17.053489   0.000000
   12       18.300998   0.000000
   13       18.994683   0.000000
   14       21.642502   0.000000
   15       22.945618   0.000000
   16       23.710115   0.000000

 -0.3636364E+00  0.2727273E+00  0.9090909E-01  0.3606311E-01
    1       -3.327293   1.000000
    2       -1.127280   1.000000
    3        1.877766   1.000000
    4        3.354538   1.000000
    5        7.996483   0.000000
    6        9.470020   0.000000
    7       11.655558   0.000000
    8       12.178639   0.000000
    9       12.656282   0.000000
   10       15.355332   0.000000
   11       17.522025   0.000000
   12       18.322319   0.000000
   13       20.790097   0.000000
   14       21.267265   0.000000
   15       22.519837   0.000000
   16       23.457079   0.000000

 -0.2727273E+00  0.2727273E+00  0.9090909E-01  0.3606311E-01
    1       -3.811519   1.000000
    2       -0.468214   1.000000
    3        1.873858   1.000000
    4        3.636344   1.000000
    5        8.340626   0.000000
    6        9.287878   0.000000
    7       10.980918   0.000000
    8       11.587499   0.000000
    9       13.859972   0.000000
   10       14.119785   0.000000
   11       17.768691   0.000000
   12       19.245255   0.000000
   13       19.857187   0.000000
   14       20.354904   0.000000
   15       22.676902   0.000000
   16       22.984170   0.000000

 -0.1818182E+00  0.2727273E+00  0.9090909E-01  0.1803156E-01
    1       -4.462413   1.000000
    2        0.479488   1.000000
    3        2.243777   1.000000
    4        4.031080   1.000000
    5        8.751452   0.000000
    6        8.877024   0.000000
    7       10.132504   0.000000
    8       11.132800   0.000000
    9       12.964402   0.000000
   10       15.788889   0.000000
   11       17.184615   0.000000
   12       17.884994   0.000000
   13       18.829404   0.000000
   14       21.105838   0.000000
   15       21.371210   0.000000
   16       23.845898   0.000000

  0.4545455E+00  0.3636364E+00  0.9090909E-01  0.1803156E-01
    1       -3.903574   1.000000
    2       -0.120315   1.000000
    3        2.573848   1.000000
    4        2.949844   1.000000
    5        6.961368   0.000000
    6        7.816920   0.000000
    7       11.745138   0.000000
    8       13.114033   0.000000
    9       15.440070   0.000000
   10       16.564804   0.000000
   11       17.058551   0.000000
   12       18.534364   0.000000
   13       19.390475   0.000000
   14       20.102146   0.000000
   15       21.488690   0.000000
   16       22.049082   0.000000

 -0.4545455E+00  0.3636364E+00  0.9090909E-01  0.3606311E-01
    1       -3.247153   1.000000
    2       -0.917851   1.000000
    3        1.960639   1.000000
    4        2.779874   1.000000
    5        7.304452   0.000000
    6        8.594796   0.000000
    7       11.409699   0.000000
    8       13.473488   0.000000
    9       14.655364   0.000000
   10       16.476964   0.000000
   11       17.349407   0.000000
   12       19.026829   0.000000
   13       19.849459   0.000000
   14       20.376019   0.000000
   15       22.292760   0.000000
   16       22.831410   0.000000

 -0.3636364E+00  0.3636364E+00  0.9090909E-01  0.3606311E-01
    1       -2.799448   1.000000
    2       -1.396146   1.000000
    3        1.462368   1.000000
    4        2.890774   1.000000
    5        7.513853   0.000000
    6       10.123381   0.000000
    7       11.120495   0.000000
    8       12.689153   0.000000
    9       13.430675   0.000000
   10       15.442875   0.000000
   11       18.338908   0.000000
   12       19.618963   0.000000
   13       20.783239   0.000000
   14       21.230872   0.000000
   15       22.492022   0.000000
   16       23.331879   0.000000

 -0.2727273E+00  0.3636364E+00  0.9090909E-01  0.1803156E-01
    1       -3.172070   1.000000
    2       -1.007399   1.000000
    3        1.362547   1.000000
    4        3.200415   1.000000
    5        7.871603   0.000000
    6       10.518067   0.000000
    7       11.237170   0.000000
    8       12.112385   0.000000
    9       12.923022   0.000000
   10       14.133799   0.000000
   11       19.514830   0.000000
   12       19.734792   0.000000
   13       19.960108   0.000000
   14       21.661372   0.000000
   15       21.779543   0.000000
   16       22.828479   0.000000

 -0.4545455E+00  0.4545455E+00  0.9090909E-01  0.1803156E-01
    1       -2.771321   1.000000
    2       -1.482516   1.000000
    3        2.389274   1.000000
    4        2.506951   1.000000
    5        6.900785   0.000000
    6        7.173485   0.000000
    7       13.248586   0.000000