Automatically generated mesh
      56
Reciprocal lattice
    0.00000000000000    0.00000000000000    0.00000000000000             1
    0.09090909090909    0.00000000000000    0.00000000000000             8
    0.18181818181818    0.00000000000000    0.00000000000000             8
    0.27272727272727    0.00000000000000    0.00000000000000             8
    0.36363636363636    0.00000000000000    0.00000000000000             8
    0.45454545454546    0.00000000000000    0.00000000000000             8
    0.09090909090909    0.09090909090909    0.00000000000000             6
    0.18181818181818    0.09090909090909    0.00000000000000            24
    0.27272727272727    0.09090909090909    0.00000000000000            24
    0.36363636363636    0.09090909090909    0.00000000000000            24
    0.45454545454546    0.09090909090909    0.00000000000000            24
   -0.45454545454545    0.09090909090909    0.00000000000000            24
   -0.36363636363636    0.09090909090909    0.00000000000000            24
   -0.27272727272727    0.09090909090909    0.00000000000000            24
   -0.18181818181818    0.09090909090909    0.00000000000000            24
   -0.09090909090909    0.09090909090909    0.00000000000000            12
    0.18181818181818    0.18181818181818    0.00000000000000             6
    0.27272727272727    0.18181818181818    0.00000000000000            24
    0.36363636363636    0.18181818181818    0.00000000000000            24
    0.45454545454546    0.18181818181818    0.00000000000000            24
   -0.45454545454545    0.18181818181818    0.00000000000000            24
   -0.36363636363636    0.18181818181818    0.00000000000000            24
   -0.27272727272727    0.18181818181818    0.00000000000000            24
   -0.18181818181818    0.18181818181818    0.00000000000000            12
    0.27272727272727    0.27272727272727    0.00000000000000             6
    0.36363636363636    0.27272727272727    0.00000000000000            24
    0.45454545454546    0.27272727272727    0.00000000000000            24
   -0.45454545454545    0.27272727272727    0.00000000000000            24
   -0.36363636363636    0.27272727272727    0.00000000000000            24
   -0.27272727272727    0.27272727272727    0.00000000000000            12
    0.36363636363636    0.36363636363636    0.00000000000000             6
    0.45454545454546    0.36363636363636    0.00000000000000            24
   -0.45454545454545    0.36363636363636    0.00000000000000            24
   -0.36363636363636    0.36363636363636    0.00000000000000            12
    0.45454545454546    0.45454545454546    0.00000000000000             6
   -0.45454545454545    0.45454545454546    0.00000000000000            12
    0.27272727272727    0.18181818181818    0.09090909090909            24
    0.36363636363636    0.18181818181818    0.09090909090909            48
    0.45454545454546    0.18181818181818    0.09090909090909            48
   -0.45454545454545    0.18181818181818    0.09090909090909            48
    0.36363636363636    0.27272727272727    0.09090909090909            24
    0.45454545454546    0.27272727272727    0.09090909090909            48
   -0.45454545454545    0.27272727272727    0.09090909090909            48
   -0.36363636363636    0.27272727272727    0.09090909090909            48
   -0.27272727272727    0.27272727272727    0.09090909090909            48
   -0.18181818181818    0.27272727272727    0.09090909090909            24
    0.45454545454546    0.36363636363636    0.09090909090909            24
   -0.45454545454545    0.36363636363636    0.09090909090909            48
   -0.36363636363636    0.36363636363636    0.09090909090909            48
   -0.27272727272727    0.36363636363636    0.09090909090909            24
   -0.45454545454545    0.45454545454546    0.09090909090909            24
   -0.36363636363636    0.45454545454546    0.09090909090909            24
   -0.45454545454545    0.36363636363636    0.18181818181818            24
   -0.36363636363636    0.36363636363636    0.18181818181818            48
   -0.36363636363636    0.45454545454546    0.18181818181818            24
   -0.27272727272727    0.45454545454546    0.18181818181818            24
