       N       E                     dE             d eps       ncg     rms          rms(c)
DAV:   1     0.245403033067E+01    0.24540E+01   -0.34154E+03  1792   0.389E+02
DAV:   2    -0.833452400086E+01   -0.10789E+02   -0.10708E+02  2576   0.395E+01
DAV:   3    -0.840873658251E+01   -0.74213E-01   -0.74213E-01  1984   0.414E+00
DAV:   4    -0.840898155556E+01   -0.24497E-03   -0.24497E-03  3424   0.264E-01
DAV:   5    -0.840898156229E+01   -0.67302E-08   -0.67876E-08  1952   0.128E-03    0.367E+00
DAV:   6    -0.835948875595E+01    0.49493E-01   -0.84757E-02  2704   0.858E-01    0.225E+00
DAV:   7    -0.835364453538E+01    0.58442E-02   -0.19369E-01  2720   0.128E+00    0.186E-01
DAV:   8    -0.833723703426E+01    0.16408E-01   -0.49477E-03  2064   0.243E-01    0.954E-02
DAV:   9    -0.833834293725E+01   -0.11059E-02   -0.55196E-04  2736   0.822E-02    0.525E-02
DAV:  10    -0.833837338647E+01   -0.30449E-04   -0.23065E-05  2336   0.216E-02    0.107E-02
DAV:  11    -0.833818658762E+01    0.18680E-03   -0.30301E-07  2928   0.256E-03    0.188E-03
DAV:  12    -0.833817450113E+01    0.12086E-04   -0.65213E-08  2400   0.133E-03    0.388E-04
DAV:  13    -0.833817229531E+01    0.22058E-05   -0.51324E-09  2048   0.329E-04    0.697E-05
DAV:  14    -0.833817259078E+01   -0.29547E-06   -0.16457E-10  1216   0.652E-05    0.332E-06
DAV:  15    -0.833817234335E+01    0.24743E-06   -0.71062E-12  1184   0.130E-05    0.243E-06
DAV:  16    -0.833817233565E+01    0.76965E-08   -0.16869E-12  1088   0.558E-06
   1 F= -.83381723E+01 E0= -.83381537E+01  d E =-.833817E+01
