<?xml version="1.0" encoding="ISO-8859-1"?>
<modeling>
 <generator>
  <i name="program" type="string">vasp </i>
  <i name="version" type="string">5.4.1  </i>
  <i name="subversion" type="string">24Jun15 (build Feb  9 2019 14:16:27) complex                          parallel </i>
  <i name="platform" type="string">IFC91_ompi </i>
  <i name="date" type="string">2020 09 26 </i>
  <i name="time" type="string">22:30:05 </i>
 </generator>
 <incar>
  <i type="string" name="PREC">accurate</i>
  <i type="int" name="NELM">   400</i>
  <i type="int" name="IBRION">     2</i>
  <i name="EDIFF">      0.00000010</i>
  <i type="int" name="NSW">     1</i>
  <i type="int" name="ISIF">     2</i>
  <i name="ENCUT">    500.00000000</i>
  <i type="int" name="ISMEAR">     0</i>
  <i type="logical" name="LWAVE"> F  </i>
  <i type="logical" name="LCHARG"> F  </i>
  <v type="int" name="KPOINT_BSE">    -1     0     0     0</v>
  <i type="int" name="NELM">   400</i>
  <i type="string" name="GGA">BO</i>
  <i name="PARAM1">      0.18333333</i>
  <i name="PARAM2">      0.22000000</i>
  <i type="logical" name="LUSE_VDW"> T  </i>
  <i name="AGGAC">      0.00000000</i>
 </incar>
 <kpoints>
  <generation param="Gamma">
   <v type="int" name="divisions">      11       11       11 </v>
   <v name="usershift">      0.00000000       0.00000000       0.00000000 </v>
   <v name="genvec1">      0.09090909       0.00000000       0.00000000 </v>
   <v name="genvec2">      0.00000000       0.09090909       0.00000000 </v>
   <v name="genvec3">      0.00000000       0.00000000       0.09090909 </v>
   <v name="shift">      0.00000000       0.00000000       0.00000000 </v>
  </generation>
  <varray name="kpointlist" >
   <v>       0.00000000       0.00000000       0.00000000 </v>
   <v>       0.09090909       0.00000000       0.00000000 </v>
   <v>       0.18181818       0.00000000       0.00000000 </v>
   <v>       0.27272727       0.00000000       0.00000000 </v>
   <v>       0.36363636       0.00000000       0.00000000 </v>
   <v>       0.45454545       0.00000000       0.00000000 </v>
   <v>       0.09090909       0.09090909       0.00000000 </v>
   <v>       0.18181818       0.09090909       0.00000000 </v>
   <v>       0.27272727       0.09090909       0.00000000 </v>
   <v>       0.36363636       0.09090909       0.00000000 </v>
   <v>       0.45454545       0.09090909       0.00000000 </v>
   <v>      -0.45454545       0.09090909       0.00000000 </v>
   <v>      -0.36363636       0.09090909       0.00000000 </v>
   <v>      -0.27272727       0.09090909       0.00000000 </v>
   <v>      -0.18181818       0.09090909       0.00000000 </v>
   <v>      -0.09090909       0.09090909       0.00000000 </v>
   <v>       0.18181818       0.18181818       0.00000000 </v>
   <v>       0.27272727       0.18181818       0.00000000 </v>
   <v>       0.36363636       0.18181818       0.00000000 </v>
   <v>       0.45454545       0.18181818       0.00000000 </v>
   <v>      -0.45454545       0.18181818       0.00000000 </v>
   <v>      -0.36363636       0.18181818       0.00000000 </v>
   <v>      -0.27272727       0.18181818       0.00000000 </v>
   <v>      -0.18181818       0.18181818       0.00000000 </v>
   <v>       0.27272727       0.27272727       0.00000000 </v>
   <v>       0.36363636       0.27272727       0.00000000 </v>
   <v>       0.45454545       0.27272727       0.00000000 </v>
   <v>      -0.45454545       0.27272727       0.00000000 </v>
   <v>      -0.36363636       0.27272727       0.00000000 </v>
   <v>      -0.27272727       0.27272727       0.00000000 </v>
   <v>       0.36363636       0.36363636       0.00000000 </v>
   <v>       0.45454545       0.36363636       0.00000000 </v>
   <v>      -0.45454545       0.36363636       0.00000000 </v>
   <v>      -0.36363636       0.36363636       0.00000000 </v>
   <v>       0.45454545       0.45454545       0.00000000 </v>
   <v>      -0.45454545       0.45454545       0.00000000 </v>
   <v>       0.27272727       0.18181818       0.09090909 </v>
   <v>       0.36363636       0.18181818       0.09090909 </v>
   <v>       0.45454545       0.18181818       0.09090909 </v>
   <v>      -0.45454545       0.18181818       0.09090909 </v>
   <v>       0.36363636       0.27272727       0.09090909 </v>
   <v>       0.45454545       0.27272727       0.09090909 </v>
   <v>      -0.45454545       0.27272727       0.09090909 </v>
   <v>      -0.36363636       0.27272727       0.09090909 </v>
   <v>      -0.27272727       0.27272727       0.09090909 </v>
   <v>      -0.18181818       0.27272727       0.09090909 </v>
   <v>       0.45454545       0.36363636       0.09090909 </v>
   <v>      -0.45454545       0.36363636       0.09090909 </v>
   <v>      -0.36363636       0.36363636       0.09090909 </v>
   <v>      -0.27272727       0.36363636       0.09090909 </v>
   <v>      -0.45454545       0.45454545       0.09090909 </v>
   <v>      -0.36363636       0.45454545       0.09090909 </v>
   <v>      -0.45454545       0.36363636       0.18181818 </v>
   <v>      -0.36363636       0.36363636       0.18181818 </v>
   <v>      -0.36363636       0.45454545       0.18181818 </v>
   <v>      -0.27272727       0.45454545       0.18181818 </v>
  </varray>
  <varray name="weights" >
   <v>       0.00075131 </v>
   <v>       0.00601052 </v>
   <v>       0.00601052 </v>
   <v>       0.00601052 </v>
   <v>       0.00601052 </v>
   <v>       0.00601052 </v>
   <v>       0.00450789 </v>
   <v>       0.01803156 </v>
   <v>       0.01803156 </v>
   <v>       0.01803156 </v>
   <v>       0.01803156 </v>
   <v>       0.01803156 </v>
   <v>       0.01803156 </v>
   <v>       0.01803156 </v>
   <v>       0.01803156 </v>
   <v>       0.00901578 </v>
   <v>       0.00450789 </v>
   <v>       0.01803156 </v>
   <v>       0.01803156 </v>
   <v>       0.01803156 </v>
   <v>       0.01803156 </v>
   <v>       0.01803156 </v>
   <v>       0.01803156 </v>
   <v>       0.00901578 </v>
   <v>       0.00450789 </v>
   <v>       0.01803156 </v>
   <v>       0.01803156 </v>
   <v>       0.01803156 </v>
   <v>       0.01803156 </v>
   <v>       0.00901578 </v>
   <v>       0.00450789 </v>
   <v>       0.01803156 </v>
   <v>       0.01803156 </v>
   <v>       0.00901578 </v>
   <v>       0.00450789 </v>
   <v>       0.00901578 </v>
   <v>       0.01803156 </v>
   <v>       0.03606311 </v>
   <v>       0.03606311 </v>
   <v>       0.03606311 </v>
   <v>       0.01803156 </v>
   <v>       0.03606311 </v>
   <v>       0.03606311 </v>
   <v>       0.03606311 </v>
   <v>       0.03606311 </v>
   <v>       0.01803156 </v>
   <v>       0.01803156 </v>
   <v>       0.03606311 </v>
   <v>       0.03606311 </v>
   <v>       0.01803156 </v>
   <v>       0.01803156 </v>
   <v>       0.01803156 </v>
   <v>       0.01803156 </v>
   <v>       0.03606311 </v>
   <v>       0.01803156 </v>
   <v>       0.01803156 </v>
  </varray>
 </kpoints>
 <parameters>
  <separator name="general" >
   <i type="string" name="SYSTEM">unknown system</i>
   <i type="logical" name="LCOMPAT"> F  </i>
  </separator>
  <separator name="electronic" >
   <i type="string" name="PREC">accura</i>
   <i name="ENMAX">    500.00000000</i>
   <i name="ENAUG">    322.06900000</i>
   <i name="EDIFF">      0.00000010</i>
   <i type="int" name="IALGO">    38</i>
   <i type="int" name="IWAVPR">    11</i>
   <i type="int" name="NBANDS">    16</i>
   <i name="NELECT">      8.00000000</i>
   <i type="int" name="TURBO">     0</i>
   <i type="int" name="IRESTART">     0</i>
   <i type="int" name="NREBOOT">     0</i>
   <i type="int" name="NMIN">     0</i>
   <i name="EREF">      0.00000000</i>
   <separator name="electronic smearing" >
    <i type="int" name="ISMEAR">     0</i>
    <i name="SIGMA">      0.20000000</i>
    <i name="KSPACING">      0.50000000</i>
    <i type="logical" name="KGAMMA"> T  </i>
   </separator>
   <separator name="electronic projectors" >
    <i type="logical" name="LREAL"> F  </i>
    <v name="ROPT">      0.00000000</v>
    <i type="int" name="LMAXPAW">  -100</i>
    <i type="int" name="LMAXMIX">     2</i>
    <i type="logical" name="NLSPLINE"> F  </i>
   </separator>
   <separator name="electronic startup" >
    <i type="int" name="ISTART">     0</i>
    <i type="int" name="ICHARG">     2</i>
    <i type="int" name="INIWAV">     1</i>
   </separator>
   <separator name="electronic spin" >
    <i type="int" name="ISPIN">     1</i>
    <i type="logical" name="LNONCOLLINEAR"> F  </i>
    <v name="MAGMOM">      1.00000000      1.00000000</v>
    <i name="NUPDOWN">     -1.00000000</i>
    <i type="logical" name="LSORBIT"> F  </i>
    <v name="SAXIS">      0.00000000      0.00000000      1.00000000</v>
    <i type="logical" name="LSPIRAL"> F  </i>
    <v name="QSPIRAL">      0.00000000      0.00000000      0.00000000</v>
    <i type="logical" name="LZEROZ"> F  </i>
   </separator>
   <separator name="electronic exchange-correlation" >
    <i type="logical" name="LASPH"> F  </i>
    <i type="logical" name="LMETAGGA"> F  </i>
   </separator>
   <separator name="electronic convergence" >
    <i type="int" name="NELM">   400</i>
    <i type="int" name="NELMDL">    -5</i>
    <i type="int" name="NELMIN">     2</i>
    <i name="ENINI">    500.00000000</i>
    <separator name="electronic convergence detail" >
     <i type="logical" name="LDIAG"> T  </i>
     <i type="logical" name="LSUBROT"> F  </i>
     <i name="WEIMIN">      0.00100000</i>
     <i name="EBREAK">      0.00000000</i>
     <i name="DEPER">      0.30000000</i>
     <i type="int" name="NRMM">     4</i>
     <i name="TIME">      0.40000000</i>
    </separator>
   </separator>
   <separator name="electronic mixer" >
    <i name="AMIX">      0.40000000</i>
    <i name="BMIX">      1.00000000</i>
    <i name="AMIN">      0.10000000</i>
    <i name="AMIX_MAG">      1.60000000</i>
    <i name="BMIX_MAG">      1.00000000</i>
    <separator name="electronic mixer details" >
     <i type="int" name="IMIX">     4</i>
     <i type="logical" name="MIXFIRST"> F  </i>
     <i type="int" name="MAXMIX">   -45</i>
     <i name="WC">    100.00000000</i>
     <i type="int" name="INIMIX">     1</i>
     <i type="int" name="MIXPRE">     1</i>
     <i type="int" name="MREMOVE">     5</i>
    </separator>
   </separator>
   <separator name="electronic dipolcorrection" >
    <i type="logical" name="LDIPOL"> F  </i>
    <i type="logical" name="LMONO"> F  </i>
    <i type="int" name="IDIPOL">     0</i>
    <i name="EPSILON">      1.00000000</i>
    <v name="DIPOL">   -100.00000000   -100.00000000   -100.00000000</v>
    <i name="EFIELD">      0.00000000</i>
   </separator>
  </separator>
  <separator name="grids" >
   <i type="int" name="NGX">    28</i>
   <i type="int" name="NGY">    28</i>
   <i type="int" name="NGZ">    28</i>
   <i type="int" name="NGXF">    56</i>
   <i type="int" name="NGYF">    56</i>
   <i type="int" name="NGZF">    56</i>
   <i type="logical" name="ADDGRID"> F  </i>
  </separator>
  <separator name="ionic" >
   <i type="int" name="NSW">     1</i>
   <i type="int" name="IBRION">     2</i>
   <i type="int" name="ISIF">     2</i>
   <i name="PSTRESS">      0.00000000</i>
   <i name="EDIFFG">      0.00000100</i>
   <i type="int" name="NFREE">     1</i>
   <i name="POTIM">      0.50000000</i>
   <i name="SMASS">     -3.00000000</i>
   <i name="SCALEE">      1.00000000</i>
  </separator>
  <separator name="ionic md" >
   <i name="TEBEG">      0.00010000</i>
   <i name="TEEND">      0.00010000</i>
   <i type="int" name="NBLOCK">     1</i>
   <i type="int" name="KBLOCK">     1</i>
   <i type="int" name="NPACO">   256</i>
   <i name="APACO">     16.00000000</i>
  </separator>
  <separator name="symmetry" >
   <i type="int" name="ISYM">     2</i>
   <i name="SYMPREC">      0.00001000</i>
  </separator>
  <separator name="dos" >
   <i type="logical" name="LORBIT"> T  </i>
   <v name="RWIGS">     -1.00000000</v>
   <i type="int" name="NEDOS">   301</i>
   <i name="EMIN">     10.00000000</i>
   <i name="EMAX">    -10.00000000</i>
   <i name="EFERMI">      0.00000000</i>
  </separator>
  <separator name="writing" >
   <i type="int" name="NWRITE">     2</i>
   <i type="logical" name="LWAVE"> F  </i>
   <i type="logical" name="LCHARG"> F  </i>
   <i type="logical" name="LPARD"> F  </i>
   <i type="logical" name="LVTOT"> F  </i>
   <i type="logical" name="LVHAR"> F  </i>
   <i type="logical" name="LELF"> F  </i>
   <i type="logical" name="LOPTICS"> F  </i>
   <v name="STM">      0.00000000      0.00000000      0.00000000      0.00000000      0.00000000      0.00000000      0.00000000</v>
  </separator>
  <separator name="performance" >
   <i type="int" name="NPAR">    16</i>
   <i type="int" name="NSIM">     4</i>
   <i type="int" name="NBLK">    -1</i>
   <i type="logical" name="LPLANE"> T  </i>
   <i type="logical" name="LSCALAPACK"> T  </i>
   <i type="logical" name="LSCAAWARE"> F  </i>
   <i type="logical" name="LSCALU"> F  </i>
   <i type="logical" name="LASYNC"> F  </i>
   <i type="logical" name="LORBITALREAL"> F  </i>
  </separator>
  <separator name="miscellaneous" >
   <i type="int" name="IDIOT">     3</i>
   <i type="logical" name="LMUSIC"> F  </i>
   <v name="POMASS">     28.08500000</v>
   <v name="DARWINR">      0.00000000</v>
   <v name="DARWINV">      1.00000000</v>
   <i type="logical" name="LCORR"> T  </i>
  </separator>
  <i type="logical" name="GGA_COMPAT"> T  </i>
  <i type="logical" name="LBERRY"> F  </i>
  <i type="int" name="ICORELEVEL">     0</i>
  <i type="logical" name="LDAU"> F  </i>
  <i type="int" name="I_CONSTRAINED_M">     0</i>
  <separator name="electronic exchange-correlation" >
   <i type="string" name="GGA">BO</i>
   <i type="int" name="VOSKOWN">     0</i>
   <i type="logical" name="LHFCALC"> F  </i>
   <i type="string" name="PRECFOCK"></i>
   <i type="logical" name="LSYMGRAD"> F  </i>
   <i type="logical" name="LHFONE"> F  </i>
   <i type="logical" name="LRHFCALC"> F  </i>
   <i type="logical" name="LTHOMAS"> F  </i>
   <i type="logical" name="LMODELHF"> F  </i>
   <i name="ENCUT4O">     -1.00000000</i>
   <i type="int" name="EXXOEP">     0</i>
   <i type="int" name="FOURORBIT">     0</i>
   <i name="AEXX">      0.00000000</i>
   <i name="HFALPHA">      0.00000000</i>
   <i name="MCALPHA">      0.00000000</i>
   <i name="ALDAX">      1.00000000</i>
   <i name="AGGAX">      1.00000000</i>
   <i name="ALDAC">      1.00000000</i>
   <i name="AGGAC">      0.00000000</i>
   <i type="int" name="NKREDX">     1</i>
   <i type="int" name="NKREDY">     1</i>
   <i type="int" name="NKREDZ">     1</i>
   <i type="logical" name="SHIFTRED"> F  </i>
   <i type="logical" name="ODDONLY"> F  </i>
   <i type="logical" name="EVENONLY"> F  </i>
   <i type="int" name="LMAXFOCK">     0</i>
   <i type="int" name="NMAXFOCKAE">     0</i>
   <i type="logical" name="LFOCKAEDFT"> F  </i>
   <i name="HFSCREEN">      0.00000000</i>
   <i name="HFSCREENC">      0.00000000</i>
   <i type="int" name="NBANDSGWLOW">     0</i>
  </separator>
  <separator name="vdW DFT" >
   <i type="logical" name="LUSE_VDW"> T  </i>
   <i name="Zab_VDW">     -0.84910000</i>
   <i name="PARAM1">      0.18333333</i>
   <i name="PARAM2">      0.22000000</i>
   <i name="PARAM3">      0.00000000</i>
  </separator>
  <separator name="model GW" >
   <i type="int" name="MODEL_GW">     0</i>
   <i name="MODEL_EPS0">     12.43490274</i>
   <i name="MODEL_ALPHA">      1.00000000</i>
  </separator>
  <separator name="linear response parameters" >
   <i type="logical" name="LEPSILON"> F  </i>
   <i type="logical" name="LRPA"> F  </i>
   <i type="logical" name="LNABLA"> F  </i>
   <i type="logical" name="LVEL"> F  </i>
   <i type="int" name="KINTER">     0</i>
   <i name="CSHIFT">      0.10000000</i>
   <i name="OMEGAMAX">     -1.00000000</i>
   <i name="DEG_THRESHOLD">      0.00200000</i>
  </separator>
  <separator name="orbital magnetization" >
   <i type="logical" name="NUCIND"> F  </i>
   <v name="MAGPOS">      0.00000000      0.00000000      0.00000000</v>
   <i type="logical" name="LNICSALL"> T  </i>
   <i type="logical" name="ORBITALMAG"> F  </i>
   <i type="logical" name="LMAGBLOCH"> F  </i>
   <i type="logical" name="LCHIMAG"> F  </i>
   <i type="logical" name="LGAUGE"> T  </i>
   <i type="int" name="MAGATOM">     0</i>
   <v name="MAGDIPOL">      0.00000000      0.00000000      0.00000000</v>
   <v name="AVECCONST">      0.00000000      0.00000000      0.00000000</v>
  </separator>
  <separator name="response functions" >
   <i type="logical" name="LADDER"> F  </i>
   <i type="logical" name="LFXC"> F  </i>
   <i type="logical" name="LHARTREE"> T  </i>
   <i type="int" name="IBSE">     0</i>
   <v type="int" name="KPOINT">    -1     0     0     0</v>
   <i type="logical" name="LTCTE"> F  </i>
   <i type="logical" name="LTETE"> F  </i>
   <i type="logical" name="LTRIPLET"> F  </i>
   <i type="logical" name="LFXCEPS"> F  </i>
   <i type="logical" name="LFXHEG"> F  </i>
   <i type="int" name="NATURALO">     0</i>
   <i type="logical" name="L2ORDER"> F  </i>
   <i type="logical" name="LUSEW"> F  </i>
   <i name="ENCUTGW">     -2.00000000</i>
   <i name="ENCUTGWSOFT">     -2.00000000</i>
   <i name="ENCUTLF">     -1.00000000</i>
   <i type="int" name="LMAXMP2">    -1</i>
   <i name="SCISSOR">      0.00000000</i>
   <i type="int" name="NOMEGA">     0</i>
   <i type="int" name="NOMEGAR">     0</i>
   <i type="int" name="NBANDSGW">    -1</i>
   <i type="int" name="NBANDSO">    -1</i>
   <i type="int" name="NBANDSV">    -1</i>
   <i type="int" name="NELM">   400</i>
   <i type="int" name="NELMHF">     1</i>
   <i type="int" name="DIM">     3</i>
   <i type="int" name="ANTIRES">     0</i>
   <i name="OMEGAMAX">    -30.00000000</i>
   <i name="OMEGAMIN">    -30.00000000</i>
   <i name="OMEGATL">   -200.00000000</i>
   <i type="int" name="OMEGAGRID">     0</i>
   <i name="CSHIFT">     -0.10000000</i>
   <i type="logical" name="SELFENERGY"> F  </i>
   <i type="logical" name="LSPECTRAL"> F  </i>
   <i type="logical" name="LSPECTRALGW"> F  </i>
   <i type="logical" name="LSINGLES"> F  </i>
   <i type="logical" name="LFERMIGW"> F  </i>
   <i type="logical" name="ODDONLYGW"> F  </i>
   <i type="logical" name="EVENONLYGW"> F  </i>
   <i type="int" name="NKREDLFX">     1</i>
   <i type="int" name="NKREDLFY">     1</i>
   <i type="int" name="NKREDLFZ">     1</i>
   <i type="int" name="MAXMEM">  1800</i>
   <i type="int" name="TELESCOPE">     0</i>
   <i type="int" name="TAUPAR">     1</i>
   <i type="int" name="OMEGAPAR">    -1</i>
   <i name="LAMBDA">      1.00000000</i>
  </separator>
  <separator name="External order field" >
   <i name="OFIELD_KAPPA">      0.00000000</i>
   <v name="OFIELD_K">      0.00000000      0.00000000      0.00000000</v>
   <i name="OFIELD_Q6_NEAR">      0.00000000</i>
   <i name="OFIELD_Q6_FAR">      0.00000000</i>
   <i name="OFIELD_A">      0.00000000</i>
  </separator>
 </parameters>
 <atominfo>
  <atoms>       2 </atoms>
  <types>       1 </types>
  <array name="atoms" >
   <dimension dim="1">ion</dimension>
   <field type="string">element</field>
   <field type="int">atomtype</field>
   <set>
    <rc><c>Si</c><c>   1</c></rc>
    <rc><c>Si</c><c>   1</c></rc>
   </set>
  </array>
  <array name="atomtypes" >
   <dimension dim="1">type</dimension>
   <field type="int">atomspertype</field>
   <field type="string">element</field>
   <field>mass</field>
   <field>valence</field>
   <field type="string">pseudopotential</field>
   <set>
    <rc><c>   2</c><c>Si</c><c>     28.08500000</c><c>      4.00000000</c><c>  PAW_PBE Si 05Jan2001                  </c></rc>
   </set>
  </array>
 </atominfo>
 <structure name="initialpos" >
  <crystal>
   <varray name="basis" >
    <v>       0.00000000       2.74682114       2.74682114 </v>
    <v>       2.74682114       0.00000000       2.74682114 </v>
    <v>       2.74682114       2.74682114       0.00000000 </v>
   </varray>
   <i name="volume">     41.44967579 </i>
   <varray name="rec_basis" >
    <v>      -0.18202860       0.18202860       0.18202860 </v>
    <v>       0.18202860      -0.18202860       0.18202860 </v>
    <v>       0.18202860       0.18202860      -0.18202860 </v>
   </varray>
  </crystal>
  <varray name="positions" >
   <v>       0.75000000       0.75000000       0.75000000 </v>
   <v>       0.50000000       0.50000000       0.50000000 </v>
  </varray>
 </structure>
 <calculation>
  <scstep>
   <time name="dav">    0.67    0.67</time>
   <time name="total">    2.78    2.78</time>
   <energy>
    <i name="alphaZ">      3.24857844 </i>
    <i name="ewald">   -225.91568183 </i>
    <i name="hartreedc">    -11.53197166 </i>
    <i name="XCdc">    -20.29573795 </i>
    <i name="pawpsdc">    189.40224250 </i>
    <i name="pawaedc">   -152.61488262 </i>
    <i name="eentropy">     -0.00601604 </i>
    <i name="bandstr">     11.57376121 </i>
    <i name="atom">    208.59373829 </i>
    <i name="e_fr_energy">      2.45403033 </i>
    <i name="e_wo_entrp">      2.46004637 </i>
    <i name="e_0_energy">      2.45703835 </i>
   </energy>
  </scstep>
  <scstep>
   <time name="dav">    1.05    1.05</time>
   <time name="total">    1.05    1.13</time>
   <energy>
    <i name="e_fr_energy">     -8.33452400 </i>
    <i name="e_wo_entrp">     -8.33452204 </i>
    <i name="e_0_energy">     -8.33452302 </i>
   </energy>
  </scstep>
  <scstep>
   <time name="dav">    0.74    0.74</time>
   <time name="total">    0.74    0.75</time>
   <energy>
    <i name="e_fr_energy">     -8.40873658 </i>
    <i name="e_wo_entrp">     -8.40873493 </i>
    <i name="e_0_energy">     -8.40873576 </i>
   </energy>
  </scstep>
  <scstep>
   <time name="dav">    1.76    1.76</time>
   <time name="total">    1.76    1.77</time>
   <energy>
    <i name="e_fr_energy">     -8.40898156 </i>
    <i name="e_wo_entrp">     -8.40897990 </i>
    <i name="e_0_energy">     -8.40898073 </i>
   </energy>
  </scstep>
  <scstep>
   <time name="dav">    0.84    0.84</time>
   <time name="total">    0.90    0.95</time>
   <energy>
    <i name="e_fr_energy">     -8.40898156 </i>
    <i name="e_wo_entrp">     -8.40897991 </i>
    <i name="e_0_energy">     -8.40898074 </i>
   </energy>
  </scstep>
  <scstep>
   <time name="dav">    1.29    1.29</time>
   <time name="total">    2.99    3.00</time>
   <energy>
    <i name="e_fr_energy">     -8.35948876 </i>
    <i name="e_wo_entrp">     -8.35948173 </i>
    <i name="e_0_energy">     -8.35948524 </i>
   </energy>
  </scstep>
  <scstep>
   <time name="dav">    1.03    1.03</time>
   <time name="total">    2.68    2.96</time>
   <energy>
    <i name="e_fr_energy">     -8.35364454 </i>
    <i name="e_wo_entrp">     -8.35359470 </i>
    <i name="e_0_energy">     -8.35361962 </i>
   </energy>
  </scstep>
  <scstep>
   <time name="dav">    0.75    0.75</time>
   <time name="total">    2.42    2.45</time>
   <energy>
    <i name="e_fr_energy">     -8.33723703 </i>
    <i name="e_wo_entrp">     -8.33720197 </i>
    <i name="e_0_energy">     -8.33721950 </i>
   </energy>
  </scstep>
  <scstep>
   <time name="dav">    1.06    1.06</time>
   <time name="total">    2.75    2.81</time>
   <energy>
    <i name="e_fr_energy">     -8.33834294 </i>
    <i name="e_wo_entrp">     -8.33830478 </i>
    <i name="e_0_energy">     -8.33832386 </i>
   </energy>
  </scstep>
  <scstep>
   <time name="dav">    1.09    1.09</time>
   <time name="total">    2.77    3.01</time>
   <energy>
    <i name="e_fr_energy">     -8.33837339 </i>
    <i name="e_wo_entrp">     -8.33833596 </i>
    <i name="e_0_energy">     -8.33835467 </i>
   </energy>
  </scstep>
  <scstep>
   <time name="dav">    1.21    1.21</time>
   <time name="total">    2.87    2.91</time>
   <energy>
    <i name="e_fr_energy">     -8.33818659 </i>
    <i name="e_wo_entrp">     -8.33814922 </i>
    <i name="e_0_energy">     -8.33816790 </i>
   </energy>
  </scstep>
  <scstep>
   <time name="dav">    0.95    0.95</time>
   <time name="total">    2.61    2.88</time>
   <energy>
    <i name="e_fr_energy">     -8.33817450 </i>
    <i name="e_wo_entrp">     -8.33813715 </i>
    <i name="e_0_energy">     -8.33815583 </i>
   </energy>
  </scstep>
  <scstep>
   <time name="dav">    1.00    1.00</time>
   <time name="total">    2.68    2.77</time>
   <energy>
    <i name="e_fr_energy">     -8.33817230 </i>
    <i name="e_wo_entrp">     -8.33813496 </i>
    <i name="e_0_energy">     -8.33815363 </i>
   </energy>
  </scstep>
  <scstep>
   <time name="dav">    0.51    0.51</time>
   <time name="total">    2.17    2.63</time>
   <energy>
    <i name="e_fr_energy">     -8.33817259 </i>
    <i name="e_wo_entrp">     -8.33813525 </i>
    <i name="e_0_energy">     -8.33815392 </i>
   </energy>
  </scstep>
  <scstep>
   <time name="dav">    0.49    0.49</time>
   <time name="total">    2.17    2.23</time>
   <energy>
    <i name="e_fr_energy">     -8.33817234 </i>
    <i name="e_wo_entrp">     -8.33813500 </i>
    <i name="e_0_energy">     -8.33815367 </i>
   </energy>
  </scstep>
  <scstep>
   <time name="dav">    0.44    0.44</time>
   <time name="total">    2.08    2.14</time>
   <energy>
    <i name="alphaZ">      3.24857844 </i>
    <i name="ewald">   -225.91568183 </i>
    <i name="hartreedc">    -15.53265462 </i>
    <i name="XCdc">    -19.63649352 </i>
    <i name="pawpsdc">    523.23216116 </i>
    <i name="pawaedc">   -486.68003118 </i>
    <i name="eentropy">     -0.00003734 </i>
    <i name="bandstr">      4.35224827 </i>
    <i name="atom">    208.59373829 </i>
    <i name="e_fr_energy">     -8.33817234 </i>
    <i name="e_wo_entrp">     -8.33813500 </i>
    <i name="e_0_energy">     -8.33815367 </i>
   </energy>
  </scstep>
  <structure>
   <crystal>
    <varray name="basis" >
     <v>       0.00000000       2.74682114       2.74682114 </v>
     <v>       2.74682114       0.00000000       2.74682114 </v>
     <v>       2.74682114       2.74682114       0.00000000 </v>
    </varray>
    <i name="volume">     41.44967579 </i>
    <varray name="rec_basis" >
     <v>      -0.18202860       0.18202860       0.18202860 </v>
     <v>       0.18202860      -0.18202860       0.18202860 </v>
     <v>       0.18202860       0.18202860      -0.18202860 </v>
    </varray>
   </crystal>
   <varray name="positions" >
    <v>       0.75000000       0.75000000       0.75000000 </v>
    <v>       0.50000000       0.50000000       0.50000000 </v>
   </varray>
  </structure>
  <varray name="forces" >
   <v>       0.00000000       0.00000000       0.00000000 </v>
   <v>      -0.00000000      -0.00000000      -0.00000000 </v>
  </varray>
  <varray name="stress" >
   <v>      -0.00374233      -0.00000000       0.00000000 </v>
   <v>      -0.00000000      -0.00374233       0.00000000 </v>
   <v>       0.00000000      -0.00000000      -0.00374233 </v>
  </varray>
  <energy>
   <i name="e_fr_energy">     -8.33817234 </i>
   <i name="e_wo_entrp">     -8.33815367 </i>
   <i name="e_0_energy">     -0.00003734 </i>
  </energy>
  <time name="totalsc">   39.55   41.47</time>
  <eigenvalues>
   <array>
    <dimension dim="1">band</dimension>
    <dimension dim="2">kpoint</dimension>
    <dimension dim="3">spin</dimension>
    <field>eigene</field>
    <field>occ</field>
    <set>
     <set comment="spin 1">
      <set comment="kpoint 1">
       <r>   -6.1917    1.0000 </r>
       <r>    5.4590    0.9927 </r>
       <r>    5.4590    0.9927 </r>
       <r>    5.4590    0.9927 </r>
       <r>    8.0743    0.0000 </r>
       <r>    8.0743    0.0000 </r>
       <r>    8.0743    0.0000 </r>
       <r>    8.5299    0.0000 </r>
       <r>   13.2141    0.0000 </r>
       <r>   13.2141    0.0000 </r>
       <r>   13.3486    0.0000 </r>
       <r>   16.6556    0.0000 </r>
       <r>   16.6556    0.0000 </r>
       <r>   16.6556    0.0000 </r>
       <r>   20.7506    0.0000 </r>
       <r>   28.1663    0.0000 </r>
      </set>
      <set comment="kpoint 2">
       <r>   -6.0869    1.0000 </r>
       <r>    4.4961    1.0000 </r>
       <r>    5.3021    0.9998 </r>
       <r>    5.3021    0.9998 </r>
       <r>    8.0377    0.0000 </r>
       <r>    8.3083    0.0000 </r>
       <r>    8.3083    0.0000 </r>
       <r>    9.3591    0.0000 </r>
       <r>   12.9156    0.0000 </r>
       <r>   12.9156    0.0000 </r>
       <r>   13.7881    0.0000 </r>
       <r>   16.3003    0.0000 </r>
       <r>   17.3001    0.0000 </r>
       <r>   17.3001    0.0000 </r>
       <r>   21.4342    0.0000 </r>
       <r>   27.0221    0.0000 </r>
      </set>
      <set comment="kpoint 3">
       <r>   -5.7765    1.0000 </r>
       <r>    2.8647    1.0000 </r>
       <r>    4.9778    1.0000 </r>
       <r>    4.9778    1.0000 </r>
       <r>    7.7090    0.0000 </r>
       <r>    8.7667    0.0000 </r>
       <r>    8.7667    0.0000 </r>
       <r>   10.9432    0.0000 </r>
       <r>   12.5685    0.0000 </r>
       <r>   12.5685    0.0000 </r>
       <r>   14.5304    0.0000 </r>
       <r>   16.1394    0.0000 </r>
       <r>   18.7482    0.0000 </r>
       <r>   18.7482    0.0000 </r>
       <r>   22.8774    0.0000 </r>
       <r>   24.6806    0.0000 </r>
      </set>
      <set comment="kpoint 4">
       <r>   -5.2774    1.0000 </r>
       <r>    1.2539    1.0000 </r>
       <r>    4.6658    1.0000 </r>
       <r>    4.6658    1.0000 </r>
       <r>    7.3619    0.0000 </r>
       <r>    9.0248    0.0000 </r>
       <r>    9.0248    0.0000 </r>
       <r>   12.5097    0.0000 </r>
       <r>   12.8305    0.0000 </r>
       <r>   12.8305    0.0000 </r>
       <r>   14.3375    0.0000 </r>
       <r>   17.6077    0.0000 </r>
       <r>   20.2149    0.0000 </r>
       <r>   20.2149    0.0000 </r>
       <r>   22.6820    0.0000 </r>
       <r>   22.6882    0.0000 </r>
      </set>
      <set comment="kpoint 5">
       <r>   -4.6410    1.0000 </r>
       <r>   -0.1558    1.0000 </r>
       <r>    4.4409    1.0000 </r>
       <r>    4.4409    1.0000 </r>
       <r>    7.1028    0.0000 </r>
       <r>    8.9861    0.0000 </r>
       <r>    8.9861    0.0000 </r>
       <r>   13.3250    0.0000 </r>
       <r>   13.8420    0.0000 </r>
       <r>   13.8420    0.0000 </r>
       <r>   14.7342    0.0000 </r>
       <r>   19.1792    0.0000 </r>
       <r>   19.2666    0.0000 </r>
       <r>   19.2666    0.0000 </r>
       <r>   21.7315    0.0000 </r>
       <r>   23.5154    0.0000 </r>
      </set>
      <set comment="kpoint 6">
       <r>   -4.0577    1.0000 </r>
       <r>   -1.1329    1.0000 </r>
       <r>    4.3257    1.0000 </r>
       <r>    4.3257    1.0000 </r>
       <r>    6.9679    0.0000 </r>
       <r>    8.8904    0.0000 </r>
       <r>    8.8904    0.0000 </r>
       <r>   13.2367    0.0000 </r>
       <r>   15.3310    0.0000 </r>
       <r>   15.3310    0.0000 </r>
       <r>   16.1472    0.0000 </r>
       <r>   17.3181    0.0000 </r>
       <r>   17.3181    0.0000 </r>
       <r>   18.4294    0.0000 </r>
       <r>   23.4014    0.0000 </r>
       <r>   25.7363    0.0000 </r>
      </set>
      <set comment="kpoint 7">
       <r>   -6.0517    1.0000 </r>
       <r>    4.6473    1.0000 </r>
       <r>    4.9971    1.0000 </r>
       <r>    4.9971    1.0000 </r>
       <r>    7.7649    0.0000 </r>
       <r>    8.7082    0.0000 </r>
       <r>    8.7082    0.0000 </r>
       <r>    9.2775    0.0000 </r>
       <r>   12.3658    0.0000 </r>
       <r>   13.3704    0.0000 </r>
       <r>   13.9364    0.0000 </r>
       <r>   16.9010    0.0000 </r>
       <r>   16.9010    0.0000 </r>
       <r>   17.2515    0.0000 </r>
       <r>   21.7241    0.0000 </r>
       <r>   26.5591    0.0000 </r>
      </set>
      <set comment="kpoint 8">
       <r>   -5.8091    1.0000 </r>
       <r>    3.3370    1.0000 </r>
       <r>    4.6182    1.0000 </r>
       <r>    4.7820    1.0000 </r>
       <r>    7.7890    0.0000 </r>
       <r>    8.7128    0.0000 </r>
       <r>    9.2800    0.0000 </r>
       <r>   10.3036    0.0000 </r>
       <r>   12.0764    0.0000 </r>
       <r>   13.3297    0.0000 </r>
       <r>   14.7340    0.0000 </r>
       <r>   16.5089    0.0000 </r>
       <r>   17.7280    0.0000 </r>
       <r>   18.6151    0.0000 </r>
       <r>   22.9970    0.0000 </r>
       <r>   24.5485    0.0000 </r>
      </set>
      <set comment="kpoint 9">
       <r>   -5.3703    1.0000 </r>
       <r>    1.7671    1.0000 </r>
       <r>    4.3098    1.0000 </r>
       <r>    4.4224    1.0000 </r>
       <r>    7.8707    0.0000 </r>
       <r>    8.7393    0.0000 </r>
       <r>    9.6345    0.0000 </r>
       <r>   10.8169    0.0000 </r>
       <r>   13.0477    0.0000 </r>
       <r>   13.5031    0.0000 </r>
       <r>   14.9645    0.0000 </r>
       <r>   17.1889    0.0000 </r>
       <r>   19.1430    0.0000 </r>
       <r>   20.3263    0.0000 </r>
       <r>   22.3034    0.0000 </r>
       <r>   22.7920    0.0000 </r>
      </set>
      <set comment="kpoint 10">
       <r>   -4.7698    1.0000 </r>
       <r>    0.3069    1.0000 </r>
       <r>    4.0535    1.0000 </r>
       <r>    4.1271    1.0000 </r>
       <r>    7.6990    0.0000 </r>
       <r>    8.8127    0.0000 </r>
       <r>    9.5902    0.0000 </r>
       <r>   11.5733    0.0000 </r>
       <r>   14.2942    0.0000 </r>
       <r>   14.3728    0.0000 </r>
       <r>   14.8764    0.0000 </r>
       <r>   18.7119    0.0000 </r>
       <r>   18.9749    0.0000 </r>
       <r>   20.4170    0.0000 </r>
       <r>   22.1583    0.0000 </r>
       <r>   22.4109    0.0000 </r>
      </set>
      <set comment="kpoint 11">
       <r>   -4.1274    1.0000 </r>
       <r>   -0.8435    1.0000 </r>
       <r>    3.7660    1.0000 </r>
       <r>    4.0852    1.0000 </r>
       <r>    7.5540    0.0000 </r>
       <r>    8.7886    0.0000 </r>
       <r>    9.3737    0.0000 </r>
       <r>   12.7891    0.0000 </r>
       <r>   14.2290    0.0000 </r>
       <r>   15.7451    0.0000 </r>
       <r>   16.3513    0.0000 </r>
       <r>   17.0924    0.0000 </r>
       <r>   17.8360    0.0000 </r>
       <r>   20.0828    0.0000 </r>
       <r>   22.6214    0.0000 </r>
       <r>   24.2292    0.0000 </r>
      </set>
      <set comment="kpoint 12">
       <r>   -3.8713    1.0000 </r>
       <r>   -1.2273    1.0000 </r>
       <r>    3.5963    1.0000 </r>
       <r>    4.1804    1.0000 </r>
       <r>    7.5235    0.0000 </r>
       <r>    8.8470    0.0000 </r>
       <r>    9.1988    0.0000 </r>
       <r>   13.5204    0.0000 </r>
       <r>   14.6998    0.0000 </r>
       <r>   15.0447    0.0000 </r>
       <r>   16.2955    0.0000 </r>
       <r>   17.6699    0.0000 </r>
       <r>   17.9522    0.0000 </r>
       <r>   18.7047    0.0000 </r>
       <r>   24.0156    0.0000 </r>
       <r>   25.1337    0.0000 </r>
      </set>
      <set comment="kpoint 13">
       <r>   -4.3316    1.0000 </r>
       <r>   -0.5092    1.0000 </r>
       <r>    3.5648    1.0000 </r>
       <r>    4.3975    1.0000 </r>
       <r>    7.6200    0.0000 </r>
       <r>    9.0293    0.0000 </r>
       <r>    9.1206    0.0000 </r>
       <r>   13.1606    0.0000 </r>
       <r>   13.4470    0.0000 </r>
       <r>   14.5952    0.0000 </r>
       <r>   16.5034    0.0000 </r>
       <r>   17.2076    0.0000 </r>
       <r>   19.6253    0.0000 </r>
       <r>   19.7444    0.0000 </r>
       <r>   21.8843    0.0000 </r>
       <r>   23.4113    0.0000 </r>
      </set>
      <set comment="kpoint 14">
       <r>   -4.9854    1.0000 </r>
       <r>    0.7739    1.0000 </r>
       <r>    3.6867    1.0000 </r>
       <r>    4.7082    1.0000 </r>
       <r>    7.8333    0.0000 </r>
       <r>    9.0432    0.0000 </r>
       <r>    9.2214    0.0000 </r>
       <r>   12.0877    0.0000 </r>
       <r>   12.3056    0.0000 </r>
       <r>   14.7840    0.0000 </r>
       <r>   14.8903    0.0000 </r>
       <r>   18.0712    0.0000 </r>
       <r>   19.3927    0.0000 </r>
       <r>   21.2134    0.0000 </r>
       <r>   21.2287    0.0000 </r>
       <r>   22.7830    0.0000 </r>
      </set>
      <set comment="kpoint 15">
       <r>   -5.5381    1.0000 </r>
       <r>    2.2750    1.0000 </r>
       <r>    3.9794    1.0000 </r>
       <r>    5.0572    1.0000 </r>
       <r>    8.1295    0.0000 </r>
       <r>    8.7559    0.0000 </r>
       <r>    9.0752    0.0000 </r>
       <r>   11.1830    0.0000 </r>
       <r>   11.9114    0.0000 </r>
       <r>   13.5849    0.0000 </r>
       <r>   15.0779    0.0000 </r>
       <r>   16.6900    0.0000 </r>
       <r>   18.4638    0.0000 </r>
       <r>   20.2286    0.0000 </r>
       <r>   22.3203    0.0000 </r>
       <r>   23.6170    0.0000 </r>
      </set>
      <set comment="kpoint 16">
       <r>   -5.9132    1.0000 </r>
       <r>    3.7012    1.0000 </r>
       <r>    4.5270    1.0000 </r>
       <r>    5.3202    0.9997 </r>
       <r>    8.3635    0.0000 </r>
       <r>    8.3660    0.0000 </r>
       <r>    8.4975    0.0000 </r>
       <r>   10.2553    0.0000 </r>
       <r>   12.2466    0.0000 </r>
       <r>   13.0690    0.0000 </r>
       <r>   14.4177    0.0000 </r>
       <r>   16.4980    0.0000 </r>
       <r>   17.1898    0.0000 </r>
       <r>   18.5822    0.0000 </r>
       <r>   22.3919    0.0000 </r>
       <r>   24.6862    0.0000 </r>
      </set>
      <set comment="kpoint 17">
       <r>   -5.6343    1.0000 </r>
       <r>    3.1672    1.0000 </r>
       <r>    4.2033    1.0000 </r>
       <r>    4.2033    1.0000 </r>
       <r>    7.1374    0.0000 </r>
       <r>    9.5527    0.0000 </r>
       <r>   10.0086    0.0000 </r>
       <r>   10.0086    0.0000 </r>
       <r>   12.0998    0.0000 </r>
       <r>   13.8388    0.0000 </r>
       <r>   15.3776    0.0000 </r>
       <r>   17.6160    0.0000 </r>
       <r>   17.6160    0.0000 </r>
       <r>   18.2205    0.0000 </r>
       <r>   24.1025    0.0000 </r>
       <r>   24.1760    0.0000 </r>
      </set>
      <set comment="kpoint 18">
       <r>   -5.2594    1.0000 </r>
       <r>    2.0487    1.0000 </r>
       <r>    3.7959    1.0000 </r>
       <r>    3.8720    1.0000 </r>
       <r>    7.1836    0.0000 </r>
       <r>    9.1838    0.0000 </r>
       <r>   10.2915    0.0000 </r>
       <r>   10.5825    0.0000 </r>
       <r>   13.2483    0.0000 </r>
       <r>   14.1491    0.0000 </r>
       <r>   16.1342    0.0000 </r>
       <r>   17.5669    0.0000 </r>
       <r>   18.4895    0.0000 </r>
       <r>   19.7498    0.0000 </r>
       <r>   22.2366    0.0000 </r>
       <r>   22.6614    0.0000 </r>
      </set>
      <set comment="kpoint 19">
       <r>   -4.7073    1.0000 </r>
       <r>    0.7256    1.0000 </r>
       <r>    3.2799    1.0000 </r>
       <r>    3.6806    1.0000 </r>
       <r>    7.4140    0.0000 </r>
       <r>    9.5335    0.0000 </r>
       <r>   10.0915    0.0000 </r>
       <r>   10.6813    0.0000 </r>
       <r>   14.9294    0.0000 </r>
       <r>   14.9470    0.0000 </r>
       <r>   15.9195    0.0000 </r>
       <r>   18.6003    0.0000 </r>
       <r>   18.7355    0.0000 </r>
       <r>   20.3331    0.0000 </r>
       <r>   21.3276    0.0000 </r>
       <r>   22.5647    0.0000 </r>
      </set>
      <set comment="kpoint 20">
       <r>   -4.0525    1.0000 </r>
       <r>   -0.4667    1.0000 </r>
       <r>    2.8181    1.0000 </r>
       <r>    3.6473    1.0000 </r>
       <r>    7.4542    0.0000 </r>
       <r>    9.8552    0.0000 </r>
       <r>   10.4514    0.0000 </r>
       <r>   10.7258    0.0000 </r>
       <r>   15.3183    0.0000 </r>
       <r>   16.2158    0.0000 </r>
       <r>   16.7568    0.0000 </r>
       <r>   17.0005    0.0000 </r>
       <r>   18.0173    0.0000 </r>
       <r>   21.3535    0.0000 </r>
       <r>   22.9902    0.0000 </r>
       <r>   23.0518    0.0000 </r>
      </set>
      <set comment="kpoint 21">
       <r>   -3.5926    1.0000 </r>
       <r>   -1.1457    1.0000 </r>
       <r>    2.4948    1.0000 </r>
       <r>    3.7714    1.0000 </r>
       <r>    7.5469    0.0000 </r>
       <r>    9.7344    0.0000 </r>
       <r>   10.1762    0.0000 </r>
       <r>   12.3103    0.0000 </r>
       <r>   14.4546    0.0000 </r>
       <r>   14.9191    0.0000 </r>
       <r>   16.8649    0.0000 </r>
       <r>   18.0897    0.0000 </r>
       <r>   18.6578    0.0000 </r>
       <r>   20.8659    0.0000 </r>
       <r>   23.9253    0.0000 </r>
       <r>   24.1169    0.0000 </r>
      </set>
      <set comment="kpoint 22">
       <r>   -3.8643    1.0000 </r>
       <r>   -0.7523    1.0000 </r>
       <r>    2.3509    1.0000 </r>
       <r>    4.0371    1.0000 </r>
       <r>    7.7828    0.0000 </r>
       <r>    9.7305    0.0000 </r>
       <r>    9.9581    0.0000 </r>
       <r>   13.0877    0.0000 </r>
       <r>   13.2376    0.0000 </r>
       <r>   14.0345    0.0000 </r>
       <r>   16.7637    0.0000 </r>
       <r>   19.0231    0.0000 </r>
       <r>   20.0352    0.0000 </r>
       <r>   20.1968    0.0000 </r>
       <r>   21.6599    0.0000 </r>
       <r>   23.9957    0.0000 </r>
      </set>
      <set comment="kpoint 23">
       <r>   -4.5094    1.0000 </r>
       <r>    0.3210    1.0000 </r>
       <r>    2.4381    1.0000 </r>
       <r>    4.4073    1.0000 </r>
       <r>    8.1268    0.0000 </r>
       <r>    9.7113    0.0000 </r>
       <r>    9.7825    0.0000 </r>
       <r>   11.7218    0.0000 </r>
       <r>   12.0302    0.0000 </r>
       <r>   15.4666    0.0000 </r>
       <r>   17.0861    0.0000 </r>
       <r>   17.4456    0.0000 </r>
       <r>   19.2152    0.0000 </r>
       <r>   21.2277    0.0000 </r>
       <r>   21.8667    0.0000 </r>
       <r>   22.7240    0.0000 </r>
      </set>
      <set comment="kpoint 24">
       <r>   -5.1049    1.0000 </r>
       <r>    1.4729    1.0000 </r>
       <r>    2.9124    1.0000 </r>
       <r>    4.8021    1.0000 </r>
       <r>    8.4278    0.0000 </r>
       <r>    9.2266    0.0000 </r>
       <r>    9.4707    0.0000 </r>
       <r>   11.0678    0.0000 </r>
       <r>   11.6206    0.0000 </r>
       <r>   15.2544    0.0000 </r>
       <r>   15.9780    0.0000 </r>
       <r>   17.0764    0.0000 </r>
       <r>   19.0432    0.0000 </r>
       <r>   20.2917    0.0000 </r>
       <r>   21.7615    0.0000 </r>
       <r>   23.6716    0.0000 </r>
      </set>
      <set comment="kpoint 25">
       <r>   -4.9480    1.0000 </r>
       <r>    1.5841    1.0000 </r>
       <r>    3.5080    1.0000 </r>
       <r>    3.5080    1.0000 </r>
       <r>    6.5655    0.0000 </r>
       <r>    8.3425    0.0000 </r>
       <r>   11.5272    0.0000 </r>
       <r>   11.5272    0.0000 </r>
       <r>   13.6969    0.0000 </r>
       <r>   14.6179    0.0000 </r>
       <r>   17.1904    0.0000 </r>
       <r>   18.5973    0.0000 </r>
       <r>   18.5973    0.0000 </r>
       <r>   19.4364    0.0000 </r>
       <r>   22.1237    0.0000 </r>
       <r>   22.1237    0.0000 </r>
      </set>
      <set comment="kpoint 26">
       <r>   -4.4509    1.0000 </r>
       <r>    0.6583    1.0000 </r>
       <r>    2.9948    1.0000 </r>
       <r>    3.2837    1.0000 </r>
       <r>    6.6932    0.0000 </r>
       <r>    8.0586    0.0000 </r>
       <r>   11.7962    0.0000 </r>
       <r>   11.9953    0.0000 </r>
       <r>   15.1284    0.0000 </r>
       <r>   15.3332    0.0000 </r>
       <r>   17.4069    0.0000 </r>
       <r>   18.6200    0.0000 </r>
       <r>   19.1188    0.0000 </r>
       <r>   20.0494    0.0000 </r>
       <r>   21.1462    0.0000 </r>
       <r>   22.0585    0.0000 </r>
      </set>
      <set comment="kpoint 27">
       <r>   -3.8143    1.0000 </r>
       <r>   -0.3354    1.0000 </r>
       <r>    2.2978    1.0000 </r>
       <r>    3.2232    1.0000 </r>
       <r>    6.8961    0.0000 </r>
       <r>    8.7757    0.0000 </r>
       <r>   11.6318    0.0000 </r>
       <r>   11.8860    0.0000 </r>
       <r>   16.3365    0.0000 </r>
       <r>   16.6284    0.0000 </r>
       <r>   16.9940    0.0000 </r>
       <r>   17.0293    0.0000 </r>
       <r>   19.0100    0.0000 </r>
       <r>   20.8632    0.0000 </r>
       <r>   22.0276    0.0000 </r>
       <r>   23.5928    0.0000 </r>
      </set>
      <set comment="kpoint 28">
       <r>   -3.2261    1.0000 </r>
       <r>   -1.1042    1.0000 </r>
       <r>    1.7461    1.0000 </r>
       <r>    3.3305    1.0000 </r>
       <r>    7.0281    0.0000 </r>
       <r>   10.2124    0.0000 </r>
       <r>   11.4654    0.0000 </r>
       <r>   11.5780    0.0000 </r>
       <r>   14.8055    0.0000 </r>
       <r>   14.9624    0.0000 </r>
       <r>   18.4532    0.0000 </r>
       <r>   18.4853    0.0000 </r>
       <r>   18.8730    0.0000 </r>
       <r>   22.7665    0.0000 </r>
       <r>   22.8222    0.0000 </r>
       <r>   23.2714    0.0000 </r>
      </set>
      <set comment="kpoint 29">
       <r>   -3.2816    1.0000 </r>
       <r>   -1.0267    1.0000 </r>
       <r>    1.4743    1.0000 </r>
       <r>    3.5936    1.0000 </r>
       <r>    7.3058    0.0000 </r>
       <r>   11.2128    0.0000 </r>
       <r>   11.2357    0.0000 </r>
       <r>   12.1102    0.0000 </r>
       <r>   13.1227    0.0000 </r>
       <r>   13.2543    0.0000 </r>
       <r>   18.4444    0.0000 </r>
       <r>   20.3408    0.0000 </r>
       <r>   20.4037    0.0000 </r>
       <r>   21.1776    0.0000 </r>
       <r>   21.7373    0.0000 </r>
       <r>   22.9843    0.0000 </r>
      </set>
      <set comment="kpoint 30">
       <r>   -3.8912    1.0000 </r>
       <r>   -0.2944    1.0000 </r>
       <r>    1.6325    1.0000 </r>
       <r>    3.9790    1.0000 </r>
       <r>    7.7289    0.0000 </r>
       <r>   10.6460    0.0000 </r>
       <r>   10.9373    0.0000 </r>
       <r>   11.7684    0.0000 </r>
       <r>   12.2015    0.0000 </r>
       <r>   14.0450    0.0000 </r>
       <r>   18.4068    0.0000 </r>
       <r>   19.0499    0.0000 </r>
       <r>   19.4192    0.0000 </r>
       <r>   21.9775    0.0000 </r>
       <r>   22.0853    0.0000 </r>
       <r>   22.7423    0.0000 </r>
      </set>
      <set comment="kpoint 31">
       <r>   -4.0084    1.0000 </r>
       <r>    0.0126    1.0000 </r>
       <r>    3.0182    1.0000 </r>
       <r>    3.0182    1.0000 </r>
       <r>    6.2230    0.0015 </r>
       <r>    7.2389    0.0000 </r>
       <r>   13.1469    0.0000 </r>
       <r>   13.1469    0.0000 </r>
       <r>   15.5798    0.0000 </r>
       <r>   15.7050    0.0000 </r>
       <r>   18.4339    0.0000 </r>
       <r>   18.4339    0.0000 </r>
       <r>   18.7288    0.0000 </r>
       <r>   20.7526    0.0000 </r>
       <r>   21.0637    0.0000 </r>
       <r>   21.9242    0.0000 </r>
      </set>
      <set comment="kpoint 32">
       <r>   -3.4068    1.0000 </r>
       <r>   -0.7780    1.0000 </r>
       <r>    2.5116    1.0000 </r>
       <r>    2.9161    1.0000 </r>
       <r>    6.4289    0.0000 </r>
       <r>    7.2403    0.0000 </r>
       <r>   13.4581    0.0000 </r>
       <r>   13.4884    0.0000 </r>
       <r>   16.7416    0.0000 </r>
       <r>   16.8113    0.0000 </r>
       <r>   17.0637    0.0000 </r>
       <r>   17.2087    0.0000 </r>
       <r>   19.7547    0.0000 </r>
       <r>   20.3763    0.0000 </r>
       <r>   21.0473    0.0000 </r>
       <r>   23.0618    0.0000 </r>
      </set>
      <set comment="kpoint 33">
       <r>   -2.7581    1.0000 </r>
       <r>   -1.4721    1.0000 </r>
       <r>    1.7716    1.0000 </r>
       <r>    2.9860    1.0000 </r>
       <r>    6.5997    0.0000 </r>
       <r>    8.3787    0.0000 </r>
       <r>   13.2284    0.0000 </r>
       <r>   13.3238    0.0000 </r>
       <r>   15.0386    0.0000 </r>
       <r>   15.1698    0.0000 </r>
       <r>   18.5969    0.0000 </r>
       <r>   18.8198    0.0000 </r>
       <r>   20.5367    0.0000 </r>
       <r>   20.6097    0.0000 </r>
       <r>   21.1727    0.0000 </r>
       <r>   23.3679    0.0000 </r>
      </set>
      <set comment="kpoint 34">
       <r>   -2.7025    1.0000 </r>
       <r>   -1.4982    1.0000 </r>
       <r>    1.3085    1.0000 </r>
       <r>    3.2208    1.0000 </r>
       <r>    6.8677    0.0000 </r>
       <r>   10.0557    0.0000 </r>
       <r>   12.5687    0.0000 </r>
       <r>   13.0445    0.0000 </r>
       <r>   13.2813    0.0000 </r>
       <r>   13.7053    0.0000 </r>
       <r>   19.9670    0.0000 </r>
       <r>   20.3905    0.0000 </r>
       <r>   20.7128    0.0000 </r>
       <r>   20.9105    0.0000 </r>
       <r>   20.9882    0.0000 </r>
       <r>   22.5031    0.0000 </r>
      </set>
      <set comment="kpoint 35">
       <r>   -2.8407    1.0000 </r>
       <r>   -1.4830    1.0000 </r>
       <r>    2.7676    1.0000 </r>
       <r>    2.7676    1.0000 </r>
       <r>    6.1904    0.0032 </r>
       <r>    6.5179    0.0000 </r>
       <r>   14.7967    0.0000 </r>
       <r>   14.7967    0.0000 </r>
       <r>   16.8430    0.0000 </r>
       <r>   16.8430    0.0000 </r>
       <r>   17.0957    0.0000 </r>
       <r>   17.3560    0.0000 </r>
       <r>   18.7121    0.0000 </r>
       <r>   18.7824    0.0000 </r>
       <r>   23.1046    0.0000 </r>
       <r>   23.8743    0.0000 </r>
      </set>
      <set comment="kpoint 36">
       <r>   -2.2181    1.0000 </r>
       <r>   -2.1064    1.0000 </r>
       <r>    2.3520    1.0000 </r>
       <r>    2.7916    1.0000 </r>
       <r>    6.3709    0.0000 </r>
       <r>    6.9302    0.0000 </r>
       <r>   14.7411    0.0000 </r>
       <r>   14.9518    0.0000 </r>
       <r>   15.4657    0.0000 </r>
       <r>   15.6806    0.0000 </r>
       <r>   18.4895    0.0000 </r>
       <r>   18.5044    0.0000 </r>
       <r>   18.5386    0.0000 </r>
       <r>   19.0660    0.0000 </r>
       <r>   23.1355    0.0000 </r>
       <r>   23.4697    0.0000 </r>
      </set>
      <set comment="kpoint 37">
       <r>   -5.5008    1.0000 </r>
       <r>    2.4878    1.0000 </r>
       <r>    3.7229    1.0000 </r>
       <r>    4.6730    1.0000 </r>
       <r>    7.8476    0.0000 </r>
       <r>    9.0188    0.0000 </r>
       <r>    9.8094    0.0000 </r>
       <r>   10.2570    0.0000 </r>
       <r>   12.3978    0.0000 </r>
       <r>   13.8306    0.0000 </r>
       <r>   15.5658    0.0000 </r>
       <r>   16.9157    0.0000 </r>
       <r>   18.0422    0.0000 </r>
       <r>   19.9166    0.0000 </r>
       <r>   22.3030    0.0000 </r>
       <r>   23.9477    0.0000 </r>
      </set>
      <set comment="kpoint 38">
       <r>   -5.0045    1.0000 </r>
       <r>    1.2112    1.0000 </r>
       <r>    3.1744    1.0000 </r>
       <r>    4.3691    1.0000 </r>
       <r>    8.1394    0.0000 </r>
       <r>    8.9976    0.0000 </r>
       <r>   10.1561    0.0000 </r>
       <r>   10.3618    0.0000 </r>
       <r>   12.9528    0.0000 </r>
       <r>   15.1697    0.0000 </r>
       <r>   15.7542    0.0000 </r>
       <r>   17.6351    0.0000 </r>
       <r>   19.1594    0.0000 </r>
       <r>   20.5846    0.0000 </r>
       <r>   21.2322    0.0000 </r>
       <r>   23.1840    0.0000 </r>
      </set>
      <set comment="kpoint 39">
       <r>   -4.3694    1.0000 </r>
       <r>   -0.0843    1.0000 </r>
       <r>    2.9177    1.0000 </r>
       <r>    4.0417    1.0000 </r>
       <r>    8.1528    0.0000 </r>
       <r>    8.8457    0.0000 </r>
       <r>   10.2433    0.0000 </r>
       <r>   11.1867    0.0000 </r>
       <r>   14.0181    0.0000 </r>
       <r>   15.2097    0.0000 </r>
       <r>   16.8761    0.0000 </r>
       <r>   17.2609    0.0000 </r>
       <r>   19.4267    0.0000 </r>
       <r>   20.5426    0.0000 </r>
       <r>   22.0808    0.0000 </r>
       <r>   22.9461    0.0000 </r>
      </set>
      <set comment="kpoint 40">
       <r>   -3.7814    1.0000 </r>
       <r>   -1.0268    1.0000 </r>
       <r>    2.8166    1.0000 </r>
       <r>    3.8414    1.0000 </r>
       <r>    8.1135    0.0000 </r>
       <r>    8.6719    0.0000 </r>
       <r>   10.1840    0.0000 </r>
       <r>   12.6129    0.0000 </r>
       <r>   14.1300    0.0000 </r>
       <r>   15.2581    0.0000 </r>
       <r>   16.5034    0.0000 </r>
       <r>   17.8347    0.0000 </r>
       <r>   18.7049    0.0000 </r>
       <r>   20.4860    0.0000 </r>
       <r>   22.9130    0.0000 </r>
       <r>   24.7148    0.0000 </r>
      </set>
      <set comment="kpoint 41">
       <r>   -4.8245    1.0000 </r>
       <r>    1.2190    1.0000 </r>
       <r>    3.0330    1.0000 </r>
       <r>    3.7144    1.0000 </r>
       <r>    7.3043    0.0000 </r>
       <r>    8.8201    0.0000 </r>
       <r>   10.3978    0.0000 </r>
       <r>   11.4147    0.0000 </r>
       <r>   13.8320    0.0000 </r>
       <r>   15.2968    0.0000 </r>
       <r>   16.7970    0.0000 </r>
       <r>   17.8909    0.0000 </r>
       <r>   19.1138    0.0000 </r>
       <r>   20.5482    0.0000 </r>
       <r>   20.6362    0.0000 </r>
       <r>   22.7928    0.0000 </r>
      </set>
      <set comment="kpoint 42">
       <r>   -4.2277    1.0000 </r>
       <r>    0.1745    1.0000 </r>
       <r>    2.4756    1.0000 </r>
       <r>    3.4171    1.0000 </r>
       <r>    7.6592    0.0000 </r>
       <r>    9.2181    0.0000 </r>
       <r>   10.0932    0.0000 </r>
       <r>   11.8032    0.0000 </r>
       <r>   14.6871    0.0000 </r>
       <r>   16.0406    0.0000 </r>
       <r>   17.0950    0.0000 </r>
       <r>   17.8724    0.0000 </r>
       <r>   19.4304    0.0000 </r>
       <r>   20.0113    0.0000 </r>
       <r>   21.6518    0.0000 </r>
       <r>   23.3410    0.0000 </r>
      </set>
      <set comment="kpoint 43">
       <r>   -3.5808    1.0000 </r>
       <r>   -0.7947    1.0000 </r>
       <r>    2.0991    1.0000 </r>
       <r>    3.2693    1.0000 </r>
       <r>    7.7923    0.0000 </r>
       <r>    9.7262    0.0000 </r>
       <r>   10.5328    0.0000 </r>
       <r>   11.7654    0.0000 </r>
       <r>   14.3867    0.0000 </r>
       <r>   16.0247    0.0000 </r>
       <r>   17.0535    0.0000 </r>
       <r>   18.3010    0.0000 </r>
       <r>   18.9947    0.0000 </r>
       <r>   21.6425    0.0000 </r>
       <r>   22.9456    0.0000 </r>
       <r>   23.7101    0.0000 </r>
      </set>
      <set comment="kpoint 44">
       <r>   -3.3273    1.0000 </r>
       <r>   -1.1273    1.0000 </r>
       <r>    1.8778    1.0000 </r>
       <r>    3.3545    1.0000 </r>
       <r>    7.9965    0.0000 </r>
       <r>    9.4700    0.0000 </r>
       <r>   11.6556    0.0000 </r>
       <r>   12.1786    0.0000 </r>
       <r>   12.6563    0.0000 </r>
       <r>   15.3553    0.0000 </r>
       <r>   17.5220    0.0000 </r>
       <r>   18.3223    0.0000 </r>
       <r>   20.7901    0.0000 </r>
       <r>   21.2673    0.0000 </r>
       <r>   22.5198    0.0000 </r>
       <r>   23.4571    0.0000 </r>
      </set>
      <set comment="kpoint 45">
       <r>   -3.8115    1.0000 </r>
       <r>   -0.4682    1.0000 </r>
       <r>    1.8739    1.0000 </r>
       <r>    3.6363    1.0000 </r>
       <r>    8.3406    0.0000 </r>
       <r>    9.2879    0.0000 </r>
       <r>   10.9809    0.0000 </r>
       <r>   11.5875    0.0000 </r>
       <r>   13.8600    0.0000 </r>
       <r>   14.1198    0.0000 </r>
       <r>   17.7687    0.0000 </r>
       <r>   19.2453    0.0000 </r>
       <r>   19.8572    0.0000 </r>
       <r>   20.3549    0.0000 </r>
       <r>   22.6769    0.0000 </r>
       <r>   22.9842    0.0000 </r>
      </set>
      <set comment="kpoint 46">
       <r>   -4.4624    1.0000 </r>
       <r>    0.4795    1.0000 </r>
       <r>    2.2438    1.0000 </r>
       <r>    4.0311    1.0000 </r>
       <r>    8.7515    0.0000 </r>
       <r>    8.8770    0.0000 </r>
       <r>   10.1325    0.0000 </r>
       <r>   11.1328    0.0000 </r>
       <r>   12.9644    0.0000 </r>
       <r>   15.7889    0.0000 </r>
       <r>   17.1846    0.0000 </r>
       <r>   17.8850    0.0000 </r>
       <r>   18.8294    0.0000 </r>
       <r>   21.1058    0.0000 </r>
       <r>   21.3712    0.0000 </r>
       <r>   23.8459    0.0000 </r>
      </set>
      <set comment="kpoint 47">
       <r>   -3.9036    1.0000 </r>
       <r>   -0.1203    1.0000 </r>
       <r>    2.5738    1.0000 </r>
       <r>    2.9498    1.0000 </r>
       <r>    6.9614    0.0000 </r>
       <r>    7.8169    0.0000 </r>
       <r>   11.7451    0.0000 </r>
       <r>   13.1140    0.0000 </r>
       <r>   15.4401    0.0000 </r>
       <r>   16.5648    0.0000 </r>
       <r>   17.0586    0.0000 </r>
       <r>   18.5344    0.0000 </r>
       <r>   19.3905    0.0000 </r>
       <r>   20.1021    0.0000 </r>
       <r>   21.4887    0.0000 </r>
       <r>   22.0491    0.0000 </r>
      </set>
      <set comment="kpoint 48">
       <r>   -3.2472    1.0000 </r>
       <r>   -0.9179    1.0000 </r>
       <r>    1.9606    1.0000 </r>
       <r>    2.7799    1.0000 </r>
       <r>    7.3045    0.0000 </r>
       <r>    8.5948    0.0000 </r>
       <r>   11.4097    0.0000 </r>
       <r>   13.4735    0.0000 </r>
       <r>   14.6554    0.0000 </r>
       <r>   16.4770    0.0000 </r>
       <r>   17.3494    0.0000 </r>
       <r>   19.0268    0.0000 </r>
       <r>   19.8495    0.0000 </r>
       <r>   20.3760    0.0000 </r>
       <r>   22.2928    0.0000 </r>
       <r>   22.8314    0.0000 </r>
      </set>
      <set comment="kpoint 49">
       <r>   -2.7994    1.0000 </r>
       <r>   -1.3961    1.0000 </r>
       <r>    1.4624    1.0000 </r>
       <r>    2.8908    1.0000 </r>
       <r>    7.5139    0.0000 </r>
       <r>   10.1234    0.0000 </r>
       <r>   11.1205    0.0000 </r>
       <r>   12.6892    0.0000 </r>
       <r>   13.4307    0.0000 </r>
       <r>   15.4429    0.0000 </r>
       <r>   18.3389    0.0000 </r>
       <r>   19.6190    0.0000 </r>
       <r>   20.7832    0.0000 </r>
       <r>   21.2309    0.0000 </r>
       <r>   22.4920    0.0000 </r>
       <r>   23.3319    0.0000 </r>
      </set>
      <set comment="kpoint 50">
       <r>   -3.1721    1.0000 </r>
       <r>   -1.0074    1.0000 </r>
       <r>    1.3625    1.0000 </r>
       <r>    3.2004    1.0000 </r>
       <r>    7.8716    0.0000 </r>
       <r>   10.5181    0.0000 </r>
       <r>   11.2372    0.0000 </r>
       <r>   12.1124    0.0000 </r>
       <r>   12.9230    0.0000 </r>
       <r>   14.1338    0.0000 </r>
       <r>   19.5148    0.0000 </r>
       <r>   19.7348    0.0000 </r>
       <r>   19.9601    0.0000 </r>
       <r>   21.6614    0.0000 </r>
       <r>   21.7795    0.0000 </r>
       <r>   22.8285    0.0000 </r>
      </set>
      <set comment="kpoint 51">
       <r>   -2.7713    1.0000 </r>
       <r>   -1.4825    1.0000 </r>
       <r>    2.3893    1.0000 </r>
       <r>    2.5070    1.0000 </r>
       <r>    6.9008    0.0000 </r>
       <r>    7.1735    0.0000 </r>
       <r>   13.2486    0.0000 </r>
       <r>   14.6188    0.0000 </r>
       <r>   15.2296    0.0000 </r>
       <r>   16.6218    0.0000 </r>
       <r>   17.3591    0.0000 </r>
       <r>   18.8198    0.0000 </r>
       <r>   18.9598    0.0000 </r>
       <r>   20.5829    0.0000 </r>
       <r>   21.9061    0.0000 </r>
       <r>   23.2126    0.0000 </r>
      </set>
      <set comment="kpoint 52">
       <r>   -2.2883    1.0000 </r>
       <r>   -1.9139    1.0000 </r>
       <r>    1.7639    1.0000 </r>
       <r>    2.5763    1.0000 </r>
       <r>    7.1781    0.0000 </r>
       <r>    8.3888    0.0000 </r>
       <r>   12.8131    0.0000 </r>
       <r>   13.0381    0.0000 </r>
       <r>   15.0198    0.0000 </r>
       <r>   15.6623    0.0000 </r>
       <r>   18.2280    0.0000 </r>
       <r>   19.0280    0.0000 </r>
       <r>   20.7083    0.0000 </r>
       <r>   21.3284    0.0000 </r>
       <r>   21.9829    0.0000 </r>
       <r>   22.4047    0.0000 </r>
      </set>
      <set comment="kpoint 53">
       <r>   -3.6060    1.0000 </r>
       <r>   -0.4998    1.0000 </r>
       <r>    1.8510    1.0000 </r>
       <r>    2.9765    1.0000 </r>
       <r>    8.5687    0.0000 </r>
       <r>    9.2284    0.0000 </r>
       <r>    9.7305    0.0000 </r>
       <r>   13.0171    0.0000 </r>
       <r>   14.3007    0.0000 </r>
       <r>   14.8542    0.0000 </r>
       <r>   18.8603    0.0000 </r>
       <r>   19.1072    0.0000 </r>
       <r>   19.5017    0.0000 </r>
       <r>   19.8748    0.0000 </r>
       <r>   21.9007    0.0000 </r>
       <r>   23.2807    0.0000 </r>
      </set>
      <set comment="kpoint 54">
       <r>   -2.9959    1.0000 </r>
       <r>   -1.1771    1.0000 </r>
       <r>    1.5806    1.0000 </r>
       <r>    2.6715    1.0000 </r>
       <r>    8.9454    0.0000 </r>
       <r>    9.2767    0.0000 </r>
       <r>   10.5222    0.0000 </r>
       <r>   12.3444    0.0000 </r>
       <r>   13.4670    0.0000 </r>
       <r>   15.9590    0.0000 </r>
       <r>   17.8205    0.0000 </r>
       <r>   19.3313    0.0000 </r>
       <r>   20.6934    0.0000 </r>
       <r>   21.4753    0.0000 </r>
       <r>   22.2055    0.0000 </r>
       <r>   23.6751    0.0000 </r>
      </set>
      <set comment="kpoint 55">
       <r>   -2.5958    1.0000 </r>
       <r>   -1.5280    1.0000 </r>
       <r>    1.8059    1.0000 </r>
       <r>    2.1752    1.0000 </r>
       <r>    8.4946    0.0000 </r>
       <r>    8.7066    0.0000 </r>
       <r>   11.0164    0.0000 </r>
       <r>   12.5739    0.0000 </r>
       <r>   14.9334    0.0000 </r>
       <r>   16.3629    0.0000 </r>
       <r>   17.6966    0.0000 </r>
       <r>   19.0047    0.0000 </r>
       <r>   20.8890    0.0000 </r>
       <r>   21.5628    0.0000 </r>
       <r>   22.2157    0.0000 </r>
       <r>   23.3149    0.0000 </r>
      </set>
      <set comment="kpoint 56">
       <r>   -2.4059    1.0000 </r>
       <r>   -1.6865    1.0000 </r>
       <r>    1.5407    1.0000 </r>
       <r>    2.2098    1.0000 </r>
       <r>    8.8391    0.0000 </r>
       <r>   10.0964    0.0000 </r>
       <r>   10.7912    0.0000 </r>
       <r>   10.8024    0.0000 </r>
       <r>   14.9518    0.0000 </r>
       <r>   16.0254    0.0000 </r>
       <r>   17.9915    0.0000 </r>
       <r>   19.1538    0.0000 </r>
       <r>   20.9850    0.0000 </r>
       <r>   21.9865    0.0000 </r>
       <r>   23.2141    0.0000 </r>
       <r>   23.4174    0.0000 </r>
      </set>
     </set>
    </set>
   </array>
  </eigenvalues>
  <separator name="orbital magnetization" >
   <v name="MAGDIPOLOUT">      0.00000000      0.00000000      0.00000000</v>
  </separator>
  <dos>
   <i name="efermi">      5.80434599 </i>
   <total>
    <array>
     <dimension dim="1">gridpoints</dimension>
     <dimension dim="2">spin</dimension>
     <field>energy</field>
     <field>total</field>
     <field>integrated</field>
     <set>
      <set comment="spin 1">
       <r>    -8.1917     0.0000     0.0000 </r>
       <r>    -8.0639     0.0000     0.0000 </r>
       <r>    -7.9360     0.0000     0.0000 </r>
       <r>    -7.8082     0.0000     0.0000 </r>
       <r>    -7.6803     0.0000     0.0000 </r>
       <r>    -7.5524     0.0000     0.0000 </r>
       <r>    -7.4246     0.0000     0.0000 </r>
       <r>    -7.2967     0.0000     0.0000 </r>
       <r>    -7.1689     0.0000     0.0000 </r>
       <r>    -7.0410     0.0000     0.0000 </r>
       <r>    -6.9131     0.0000     0.0000 </r>
       <r>    -6.7853     0.0000     0.0000 </r>
       <r>    -6.6574     0.0000     0.0000 </r>
       <r>    -6.5296     0.0002     0.0000 </r>
       <r>    -6.4017     0.0023     0.0003 </r>
       <r>    -6.2738     0.0145     0.0022 </r>
       <r>    -6.1460     0.0498     0.0085 </r>
       <r>    -6.0181     0.1065     0.0222 </r>
       <r>    -5.8903     0.1704     0.0440 </r>
       <r>    -5.7624     0.2178     0.0718 </r>
       <r>    -5.6345     0.2467     0.1034 </r>
       <r>    -5.5067     0.3012     0.1419 </r>
       <r>    -5.3788     0.3435     0.1858 </r>
       <r>    -5.2510     0.3397     0.2292 </r>
       <r>    -5.1231     0.3581     0.2750 </r>
       <r>    -4.9952     0.4435     0.3317 </r>
       <r>    -4.8674     0.4919     0.3946 </r>
       <r>    -4.7395     0.4619     0.4537 </r>
       <r>    -4.6117     0.4435     0.5104 </r>
       <r>    -4.4838     0.5354     0.5788 </r>
       <r>    -4.3559     0.6750     0.6651 </r>
       <r>    -4.2281     0.6853     0.7528 </r>
       <r>    -4.1002     0.6215     0.8322 </r>
       <r>    -3.9724     0.6852     0.9198 </r>
       <r>    -3.8445     0.8996     1.0349 </r>
       <r>    -3.7166     0.9685     1.1587 </r>
       <r>    -3.5888     0.8122     1.2625 </r>
       <r>    -3.4609     0.6839     1.3500 </r>
       <r>    -3.3331     0.7247     1.4426 </r>
       <r>    -3.2052     0.7835     1.5428 </r>
       <r>    -3.0773     0.6468     1.6255 </r>
       <r>    -2.9495     0.5128     1.6911 </r>
       <r>    -2.8216     0.5485     1.7612 </r>
       <r>    -2.6938     0.5668     1.8337 </r>
       <r>    -2.5659     0.4236     1.8878 </r>
       <r>    -2.4380     0.2876     1.9246 </r>
       <r>    -2.3102     0.2604     1.9579 </r>
       <r>    -2.1823     0.2421     1.9889 </r>
       <r>    -2.0545     0.1912     2.0133 </r>
       <r>    -1.9266     0.1631     2.0342 </r>
       <r>    -1.7987     0.1740     2.0564 </r>
       <r>    -1.6709     0.2527     2.0887 </r>
       <r>    -1.5430     0.4461     2.1458 </r>
       <r>    -1.4151     0.6403     2.2276 </r>
       <r>    -1.2873     0.7558     2.3243 </r>
       <r>    -1.1594     0.9765     2.4491 </r>
       <r>    -1.0316     1.1843     2.6006 </r>
       <r>    -0.9037     1.1274     2.7447 </r>
       <r>    -0.7758     0.9162     2.8619 </r>
       <r>    -0.6480     0.6907     2.9502 </r>
       <r>    -0.5201     0.6178     3.0292 </r>
       <r>    -0.3923     0.6353     3.1104 </r>
       <r>    -0.2644     0.5359     3.1789 </r>
       <r>    -0.1365     0.4585     3.2375 </r>
       <r>    -0.0087     0.4366     3.2934 </r>
       <r>     0.1192     0.3979     3.3442 </r>
       <r>     0.2470     0.4050     3.3960 </r>
       <r>     0.3749     0.3924     3.4462 </r>
       <r>     0.5028     0.3239     3.4876 </r>
       <r>     0.6306     0.3036     3.5264 </r>
       <r>     0.7585     0.3175     3.5670 </r>
       <r>     0.8863     0.2403     3.5977 </r>
       <r>     1.0142     0.1588     3.6180 </r>
       <r>     1.1421     0.2665     3.6521 </r>
       <r>     1.2699     0.5077     3.7170 </r>
       <r>     1.3978     0.7131     3.8082 </r>
       <r>     1.5256     0.8659     3.9189 </r>
       <r>     1.6535     0.9705     4.0430 </r>
       <r>     1.7814     1.1246     4.1868 </r>
       <r>     1.9092     1.2392     4.3452 </r>
       <r>     2.0371     1.1157     4.4879 </r>
       <r>     2.1649     0.9807     4.6133 </r>
       <r>     2.2928     1.0387     4.7461 </r>
       <r>     2.4207     1.2157     4.9015 </r>
       <r>     2.5485     1.3178     5.0700 </r>
       <r>     2.6764     1.2901     5.2350 </r>
       <r>     2.8042     1.4252     5.4172 </r>
       <r>     2.9321     1.6364     5.6264 </r>
       <r>     3.0600     1.5404     5.8234 </r>
       <r>     3.1878     1.3978     6.0021 </r>
       <r>     3.3157     1.4436     6.1867 </r>
       <r>     3.4435     1.3633     6.3610 </r>
       <r>     3.5714     1.2966     6.5268 </r>
       <r>     3.6993     1.4515     6.7124 </r>
       <r>     3.8271     1.4651     6.8997 </r>
       <r>     3.9550     1.3017     7.0661 </r>
       <r>     4.0828     1.1960     7.2191 </r>
       <r>     4.2107     1.0595     7.3545 </r>
       <r>     4.3386     0.9672     7.4782 </r>
       <r>     4.4664     0.9357     7.5978 </r>
       <r>     4.5943     0.8058     7.7009 </r>
       <r>     4.7221     0.6678     7.7862 </r>
       <r>     4.8500     0.5159     7.8522 </r>
       <r>     4.9779     0.3658     7.8990 </r>
       <r>     5.1057     0.2752     7.9342 </r>
       <r>     5.2336     0.2060     7.9605 </r>
       <r>     5.3614     0.1587     7.9808 </r>
       <r>     5.4893     0.1013     7.9938 </r>
       <r>     5.6172     0.0392     7.9988 </r>
       <r>     5.7450     0.0086     7.9999 </r>
       <r>     5.8729     0.0023     8.0002 </r>
       <r>     6.0007     0.0101     8.0015 </r>
       <r>     6.1286     0.0410     8.0067 </r>
       <r>     6.2565     0.1040     8.0200 </r>
       <r>     6.3843     0.1931     8.0447 </r>
       <r>     6.5122     0.2776     8.0802 </r>
       <r>     6.6400     0.3271     8.1220 </r>
       <r>     6.7679     0.3828     8.1709 </r>
       <r>     6.8958     0.5236     8.2379 </r>
       <r>     7.0236     0.6871     8.3258 </r>
       <r>     7.1515     0.8384     8.4330 </r>
       <r>     7.2794     1.0207     8.5635 </r>
       <r>     7.4072     1.1279     8.7077 </r>
       <r>     7.5351     1.2026     8.8614 </r>
       <r>     7.6629     1.3354     9.0322 </r>
       <r>     7.7908     1.4624     9.2192 </r>
       <r>     7.9187     1.4375     9.4030 </r>
       <r>     8.0465     1.3618     9.5771 </r>
       <r>     8.1744     1.3533     9.7501 </r>
       <r>     8.3022     1.2372     9.9083 </r>
       <r>     8.4301     1.1193    10.0514 </r>
       <r>     8.5580     1.1792    10.2022 </r>
       <r>     8.6858     1.5453    10.3998 </r>
       <r>     8.8137     1.9981    10.6553 </r>
       <r>     8.9415     2.0848    10.9218 </r>
       <r>     9.0694     1.8968    11.1644 </r>
       <r>     9.1973     1.7789    11.3918 </r>
       <r>     9.3251     1.6322    11.6005 </r>
       <r>     9.4530     1.2826    11.7645 </r>
       <r>     9.5808     1.0665    11.9009 </r>
       <r>     9.7087     1.1328    12.0457 </r>
       <r>     9.8366     1.1460    12.1922 </r>
       <r>     9.9644     1.1125    12.3345 </r>
       <r>    10.0923     1.4744    12.5230 </r>
       <r>    10.2201     1.9022    12.7662 </r>
       <r>    10.3480     1.7888    12.9949 </r>
       <r>    10.4759     1.4238    13.1770 </r>
       <r>    10.6037     1.1631    13.3257 </r>
       <r>    10.7316     0.9529    13.4475 </r>
       <r>    10.8594     0.8336    13.5541 </r>
       <r>    10.9873     0.8860    13.6674 </r>
       <r>    11.1152     1.0788    13.8053 </r>
       <r>    11.2430     1.1625    13.9540 </r>
       <r>    11.3709     1.0446    14.0875 </r>
       <r>    11.4987     1.0636    14.2235 </r>
       <r>    11.6266     1.3081    14.3908 </r>
       <r>    11.7545     1.4559    14.5770 </r>
       <r>    11.8823     1.3157    14.7452 </r>
       <r>    12.0102     1.1203    14.8884 </r>
       <r>    12.1380     1.0980    15.0288 </r>
       <r>    12.2659     1.0783    15.1667 </r>
       <r>    12.3938     0.9617    15.2897 </r>
       <r>    12.5216     0.9079    15.4057 </r>
       <r>    12.6495     1.0175    15.5358 </r>
       <r>    12.7773     1.0907    15.6753 </r>
       <r>    12.9052     1.1591    15.8235 </r>
       <r>    13.0331     1.3753    15.9993 </r>
       <r>    13.1609     1.5679    16.1998 </r>
       <r>    13.2888     1.6559    16.4115 </r>
       <r>    13.4166     1.7019    16.6291 </r>
       <r>    13.5445     1.5314    16.8249 </r>
       <r>    13.6724     1.0721    16.9620 </r>
       <r>    13.8002     0.8206    17.0669 </r>
       <r>    13.9281     0.9220    17.1848 </r>
       <r>    14.0559     1.1133    17.3272 </r>
       <r>    14.1838     1.2204    17.4832 </r>
       <r>    14.3117     1.1407    17.6291 </r>
       <r>    14.4395     1.0110    17.7583 </r>
       <r>    14.5674     1.0286    17.8899 </r>
       <r>    14.6952     1.2963    18.0556 </r>
       <r>    14.8231     1.6223    18.2630 </r>
       <r>    14.9510     1.8270    18.4966 </r>
       <r>    15.0788     1.8500    18.7332 </r>
       <r>    15.2067     1.8162    18.9654 </r>
       <r>    15.3345     1.7627    19.1908 </r>
       <r>    15.4624     1.4734    19.3792 </r>
       <r>    15.5903     1.0672    19.5156 </r>
       <r>    15.7181     0.8723    19.6272 </r>
       <r>    15.8460     0.9038    19.7427 </r>
       <r>    15.9739     1.0365    19.8752 </r>
       <r>    16.1017     1.0918    20.0148 </r>
       <r>    16.2296     0.9796    20.1401 </r>
       <r>    16.3574     0.9901    20.2667 </r>
       <r>    16.4853     1.1809    20.4177 </r>
       <r>    16.6132     1.2926    20.5829 </r>
       <r>    16.7410     1.3210    20.7518 </r>
       <r>    16.8689     1.4566    20.9381 </r>
       <r>    16.9967     1.7053    21.1561 </r>
       <r>    17.1246     1.9176    21.4013 </r>
       <r>    17.2525     1.8417    21.6368 </r>
       <r>    17.3803     1.5290    21.8323 </r>
       <r>    17.5082     1.2653    21.9941 </r>
       <r>    17.6360     1.2726    22.1568 </r>
       <r>    17.7639     1.5103    22.3499 </r>
       <r>    17.8918     1.6461    22.5604 </r>
       <r>    18.0196     1.4168    22.7415 </r>
       <r>    18.1475     1.0821    22.8799 </r>
       <r>    18.2753     1.0901    23.0193 </r>
       <r>    18.4032     1.4390    23.2032 </r>
       <r>    18.5311     1.7654    23.4290 </r>
       <r>    18.6589     1.8880    23.6704 </r>
       <r>    18.7868     1.8424    23.9059 </r>
       <r>    18.9146     1.8493    24.1424 </r>
       <r>    19.0425     2.0564    24.4053 </r>
       <r>    19.1704     2.0932    24.6730 </r>
       <r>    19.2982     1.8177    24.9054 </r>
       <r>    19.4261     1.5544    25.1041 </r>
       <r>    19.5539     1.3288    25.2740 </r>
       <r>    19.6818     1.1782    25.4247 </r>
       <r>    19.8097     1.2530    25.5849 </r>
       <r>    19.9375     1.3694    25.7600 </r>
       <r>    20.0654     1.3228    25.9291 </r>
       <r>    20.1932     1.2621    26.0905 </r>
       <r>    20.3211     1.4825    26.2800 </r>
       <r>    20.4490     1.8201    26.5127 </r>
       <r>    20.5768     1.9144    26.7575 </r>
       <r>    20.7047     1.7723    26.9841 </r>
       <r>    20.8325     1.5049    27.1765 </r>
       <r>    20.9604     1.2333    27.3342 </r>
       <r>    21.0883     1.2421    27.4930 </r>
       <r>    21.2161     1.5869    27.6959 </r>
       <r>    21.3440     1.7022    27.9136 </r>
       <r>    21.4718     1.4189    28.0950 </r>
       <r>    21.5997     1.2501    28.2549 </r>
       <r>    21.7276     1.2735    28.4177 </r>
       <r>    21.8554     1.2793    28.5813 </r>
       <r>    21.9833     1.3597    28.7551 </r>
       <r>    22.1111     1.4947    28.9462 </r>
       <r>    22.2390     1.5441    29.1437 </r>
       <r>    22.3669     1.4867    29.3337 </r>
       <r>    22.4947     1.3962    29.5123 </r>
       <r>    22.6226     1.4431    29.6968 </r>
       <r>    22.7504     1.7065    29.9150 </r>
       <r>    22.8783     2.0122    30.1722 </r>
       <r>    23.0062     2.0265    30.4313 </r>
       <r>    23.1340     1.7366    30.6534 </r>
       <r>    23.2619     1.5826    30.8557 </r>
       <r>    23.3897     1.5795    31.0577 </r>
       <r>    23.5176     1.3639    31.2321 </r>
       <r>    23.6455     1.0712    31.3691 </r>
       <r>    23.7733     0.8799    31.4816 </r>
       <r>    23.9012     0.7448    31.5768 </r>
       <r>    24.0290     0.6614    31.6614 </r>
       <r>    24.1569     0.5255    31.7285 </r>
       <r>    24.2848     0.3276    31.7704 </r>
       <r>    24.4126     0.1867    31.7943 </r>
       <r>    24.5405     0.2029    31.8203 </r>
       <r>    24.6684     0.3148    31.8605 </r>
       <r>    24.7962     0.3202    31.9014 </r>
       <r>    24.9241     0.1871    31.9254 </r>
       <r>    25.0519     0.1048    31.9388 </r>
       <r>    25.1798     0.1033    31.9520 </r>
       <r>    25.3077     0.0746    31.9615 </r>
       <r>    25.4355     0.0277    31.9650 </r>
       <r>    25.5634     0.0131    31.9667 </r>
       <r>    25.6912     0.0252    31.9699 </r>
       <r>    25.8191     0.0325    31.9741 </r>
       <r>    25.9470     0.0198    31.9766 </r>
       <r>    26.0748     0.0056    31.9774 </r>
       <r>    26.2027     0.0011    31.9775 </r>
       <r>    26.3305     0.0034    31.9779 </r>
       <r>    26.4584     0.0131    31.9796 </r>
       <r>    26.5863     0.0239    31.9827 </r>
       <r>    26.7141     0.0215    31.9854 </r>
       <r>    26.8420     0.0162    31.9875 </r>
       <r>    26.9698     0.0254    31.9907 </r>
       <r>    27.0977     0.0328    31.9949 </r>
       <r>    27.2256     0.0208    31.9976 </r>
       <r>    27.3534     0.0062    31.9984 </r>
       <r>    27.4813     0.0008    31.9985 </r>
       <r>    27.6091     0.0001    31.9985 </r>
       <r>    27.7370     0.0000    31.9985 </r>
       <r>    27.8649     0.0002    31.9985 </r>
       <r>    27.9927     0.0011    31.9987 </r>
       <r>    28.1206     0.0031    31.9991 </r>
       <r>    28.2484     0.0041    31.9996 </r>
       <r>    28.3763     0.0025    31.9999 </r>
       <r>    28.5042     0.0007    32.0000 </r>
       <r>    28.6320     0.0001    32.0000 </r>
       <r>    28.7599     0.0000    32.0000 </r>
       <r>    28.8877     0.0000    32.0000 </r>
       <r>    29.0156     0.0000    32.0000 </r>
       <r>    29.1435     0.0000    32.0000 </r>
       <r>    29.2713     0.0000    32.0000 </r>
       <r>    29.3992     0.0000    32.0000 </r>
       <r>    29.5270     0.0000    32.0000 </r>
       <r>    29.6549     0.0000    32.0000 </r>
       <r>    29.7828     0.0000    32.0000 </r>
       <r>    29.9106     0.0000    32.0000 </r>
       <r>    30.0385     0.0000    32.0000 </r>
       <r>    30.1663     0.0000    32.0000 </r>
      </set>
     </set>
    </array>
   </total>
  </dos>
 </calculation>
 <structure name="finalpos" >
  <crystal>
   <varray name="basis" >
    <v>       0.00000000       2.74682114       2.74682114 </v>
    <v>       2.74682114       0.00000000       2.74682114 </v>
    <v>       2.74682114       2.74682114       0.00000000 </v>
   </varray>
   <i name="volume">     41.44967579 </i>
   <varray name="rec_basis" >
    <v>      -0.18202860       0.18202860       0.18202860 </v>
    <v>       0.18202860      -0.18202860       0.18202860 </v>
    <v>       0.18202860       0.18202860      -0.18202860 </v>
   </varray>
  </crystal>
  <varray name="positions" >
   <v>       0.75000000       0.75000000       0.75000000 </v>
   <v>       0.50000000       0.50000000       0.50000000 </v>
  </varray>
 </structure>
</modeling>
