datafile (written by JARVIS-FF) 

720 	 atoms 
1  atom types
0.0 20.249999838  xlo xhi
0.0 27.168225708  ylo yhi
0.0 47.091591227  zlo zhi
0E-9 0E-9 0E-9  xy xz yz


Atoms 

     1   1 0.000000 0E-9 24.225001257 14.942524140
     2   1 0.000000 0E-9 6.112850784 14.942524140
     3   1 0.000000 0E-9 15.168926021 14.942524140
     4   1 0.000000 4.049999968 24.225001257 14.942524140
     5   1 0.000000 4.049999968 6.112850784 14.942524140
     6   1 0.000000 4.049999968 15.168926021 14.942524140
     7   1 0.000000 8.099999935 24.225001257 14.942524140
     8   1 0.000000 8.099999935 6.112850784 14.942524140
     9   1 0.000000 8.099999935 15.168926021 14.942524140
    10   1 0.000000 12.149999903 24.225001257 14.942524140
    11   1 0.000000 12.149999903 6.112850784 14.942524140
    12   1 0.000000 12.149999903 15.168926021 14.942524140
    13   1 0.000000 16.199999870 24.225001257 14.942524140
    14   1 0.000000 16.199999870 6.112850784 14.942524140
    15   1 0.000000 16.199999870 15.168926021 14.942524140
    16   1 0.000000 0E-9 20.602571163 13.131309093
    17   1 0.000000 0E-9 2.490420690 13.131309093
    18   1 0.000000 0E-9 11.546495926 13.131309093
    19   1 0.000000 4.049999968 20.602571163 13.131309093
    20   1 0.000000 4.049999968 2.490420690 13.131309093
    21   1 0.000000 4.049999968 11.546495926 13.131309093
    22   1 0.000000 8.099999935 20.602571163 13.131309093
    23   1 0.000000 8.099999935 2.490420690 13.131309093
    24   1 0.000000 8.099999935 11.546495926 13.131309093
    25   1 0.000000 12.149999903 20.602571163 13.131309093
    26   1 0.000000 12.149999903 2.490420690 13.131309093
    27   1 0.000000 12.149999903 11.546495926 13.131309093
    28   1 0.000000 16.199999870 20.602571163 13.131309093
    29   1 0.000000 16.199999870 2.490420690 13.131309093
    30   1 0.000000 16.199999870 11.546495926 13.131309093
    31   1 0.000000 2.024999984 22.413786210 14.036916616
    32   1 0.000000 2.024999984 4.301635737 14.036916616
    33   1 0.000000 2.024999984 13.357710974 14.036916616
    34   1 0.000000 6.074999951 22.413786210 14.036916616
    35   1 0.000000 6.074999951 4.301635737 14.036916616
    36   1 0.000000 6.074999951 13.357710974 14.036916616
    37   1 0.000000 10.124999919 22.413786210 14.036916616
    38   1 0.000000 10.124999919 4.301635737 14.036916616
    39   1 0.000000 10.124999919 13.357710974 14.036916616
    40   1 0.000000 14.174999886 22.413786210 14.036916616
    41   1 0.000000 14.174999886 4.301635737 14.036916616
    42   1 0.000000 14.174999886 13.357710974 14.036916616
    43   1 0.000000 18.224999854 22.413786210 14.036916616
    44   1 0.000000 18.224999854 4.301635737 14.036916616
    45   1 0.000000 18.224999854 13.357710974 14.036916616
    46   1 0.000000 2.024999984 26.036216304 15.848131663
    47   1 0.000000 2.024999984 7.924065832 15.848131663
    48   1 0.000000 2.024999984 16.980141068 15.848131663
    49   1 0.000000 6.074999951 26.036216304 15.848131663
    50   1 0.000000 6.074999951 7.924065832 15.848131663
    51   1 0.000000 6.074999951 16.980141068 15.848131663
    52   1 0.000000 10.124999919 26.036216304 15.848131663
    53   1 0.000000 10.124999919 7.924065832 15.848131663
    54   1 0.000000 10.124999919 16.980141068 15.848131663
    55   1 0.000000 14.174999886 26.036216304 15.848131663
    56   1 0.000000 14.174999886 7.924065832 15.848131663
    57   1 0.000000 14.174999886 16.980141068 15.848131663
    58   1 0.000000 18.224999854 26.036216304 15.848131663
    59   1 0.000000 18.224999854 7.924065832 15.848131663
    60   1 0.000000 18.224999854 16.980141068 15.848131663
    61   1 0.000000 2.024999984 25.130608781 13.131309093
    62   1 0.000000 2.024999984 7.018458308 13.131309093
    63   1 0.000000 2.024999984 16.074533544 13.131309093
    64   1 0.000000 6.074999951 25.130608781 13.131309093
    65   1 0.000000 6.074999951 7.018458308 13.131309093
    66   1 0.000000 6.074999951 16.074533544 13.131309093
    67   1 0.000000 10.124999919 25.130608781 13.131309093
    68   1 0.000000 10.124999919 7.018458308 13.131309093
    69   1 0.000000 10.124999919 16.074533544 13.131309093
    70   1 0.000000 14.174999886 25.130608781 13.131309093
    71   1 0.000000 14.174999886 7.018458308 13.131309093
    72   1 0.000000 14.174999886 16.074533544 13.131309093
    73   1 0.000000 18.224999854 25.130608781 13.131309093
    74   1 0.000000 18.224999854 7.018458308 13.131309093
    75   1 0.000000 18.224999854 16.074533544 13.131309093
    76   1 0.000000 2.024999984 19.696963639 14.942524140
    77   1 0.000000 2.024999984 1.584813166 14.942524140
    78   1 0.000000 2.024999984 10.640888403 14.942524140
    79   1 0.000000 6.074999951 19.696963639 14.942524140
    80   1 0.000000 6.074999951 1.584813166 14.942524140
    81   1 0.000000 6.074999951 10.640888403 14.942524140
    82   1 0.000000 10.124999919 19.696963639 14.942524140
    83   1 0.000000 10.124999919 1.584813166 14.942524140
    84   1 0.000000 10.124999919 10.640888403 14.942524140
    85   1 0.000000 14.174999886 19.696963639 14.942524140
    86   1 0.000000 14.174999886 1.584813166 14.942524140
    87   1 0.000000 14.174999886 10.640888403 14.942524140
    88   1 0.000000 18.224999854 19.696963639 14.942524140
    89   1 0.000000 18.224999854 1.584813166 14.942524140
    90   1 0.000000 18.224999854 10.640888403 14.942524140
    91   1 0.000000 0E-9 21.508178686 15.848131663
    92   1 0.000000 0E-9 3.396028214 15.848131663
    93   1 0.000000 0E-9 12.452103450 15.848131663
    94   1 0.000000 4.049999968 21.508178686 15.848131663
    95   1 0.000000 4.049999968 3.396028214 15.848131663
    96   1 0.000000 4.049999968 12.452103450 15.848131663
    97   1 0.000000 8.099999935 21.508178686 15.848131663
    98   1 0.000000 8.099999935 3.396028214 15.848131663
    99   1 0.000000 8.099999935 12.452103450 15.848131663
   100   1 0.000000 12.149999903 21.508178686 15.848131663
   101   1 0.000000 12.149999903 3.396028214 15.848131663
   102   1 0.000000 12.149999903 12.452103450 15.848131663
   103   1 0.000000 16.199999870 21.508178686 15.848131663
   104   1 0.000000 16.199999870 3.396028214 15.848131663
   105   1 0.000000 16.199999870 12.452103450 15.848131663
   106   1 0.000000 0E-9 26.941823828 14.036916616
   107   1 0.000000 0E-9 8.829673355 14.036916616
   108   1 0.000000 0E-9 17.885748592 14.036916616
   109   1 0.000000 4.049999968 26.941823828 14.036916616
   110   1 0.000000 4.049999968 8.829673355 14.036916616
   111   1 0.000000 4.049999968 17.885748592 14.036916616
   112   1 0.000000 8.099999935 26.941823828 14.036916616
   113   1 0.000000 8.099999935 8.829673355 14.036916616
   114   1 0.000000 8.099999935 17.885748592 14.036916616
   115   1 0.000000 12.149999903 26.941823828 14.036916616
   116   1 0.000000 12.149999903 8.829673355 14.036916616
   117   1 0.000000 12.149999903 17.885748592 14.036916616
   118   1 0.000000 16.199999870 26.941823828 14.036916616
   119   1 0.000000 16.199999870 8.829673355 14.036916616
   120   1 0.000000 16.199999870 17.885748592 14.036916616
   121   1 0.000000 0E-9 22.413786210 18.564954234
   122   1 0.000000 0E-9 4.301635737 18.564954234
   123   1 0.000000 0E-9 13.357710974 18.564954234
   124   1 0.000000 4.049999968 22.413786210 18.564954234
   125   1 0.000000 4.049999968 4.301635737 18.564954234
   126   1 0.000000 4.049999968 13.357710974 18.564954234
   127   1 0.000000 8.099999935 22.413786210 18.564954234
   128   1 0.000000 8.099999935 4.301635737 18.564954234
   129   1 0.000000 8.099999935 13.357710974 18.564954234
   130   1 0.000000 12.149999903 22.413786210 18.564954234
   131   1 0.000000 12.149999903 4.301635737 18.564954234
   132   1 0.000000 12.149999903 13.357710974 18.564954234
   133   1 0.000000 16.199999870 22.413786210 18.564954234
   134   1 0.000000 16.199999870 4.301635737 18.564954234
   135   1 0.000000 16.199999870 13.357710974 18.564954234
   136   1 0.000000 0E-9 18.791356115 16.753739187
   137   1 0.000000 0E-9 0.679205643 16.753739187
   138   1 0.000000 0E-9 9.735280879 16.753739187
   139   1 0.000000 4.049999968 18.791356115 16.753739187
   140   1 0.000000 4.049999968 0.679205643 16.753739187
   141   1 0.000000 4.049999968 9.735280879 16.753739187
   142   1 0.000000 8.099999935 18.791356115 16.753739187
   143   1 0.000000 8.099999935 0.679205643 16.753739187
   144   1 0.000000 8.099999935 9.735280879 16.753739187
   145   1 0.000000 12.149999903 18.791356115 16.753739187
   146   1 0.000000 12.149999903 0.679205643 16.753739187
   147   1 0.000000 12.149999903 9.735280879 16.753739187
   148   1 0.000000 16.199999870 18.791356115 16.753739187
   149   1 0.000000 16.199999870 0.679205643 16.753739187
   150   1 0.000000 16.199999870 9.735280879 16.753739187
   151   1 0.000000 2.024999984 20.602571163 17.659346711
   152   1 0.000000 2.024999984 2.490420690 17.659346711
   153   1 0.000000 2.024999984 11.546495926 17.659346711
   154   1 0.000000 6.074999951 20.602571163 17.659346711
   155   1 0.000000 6.074999951 2.490420690 17.659346711
   156   1 0.000000 6.074999951 11.546495926 17.659346711
   157   1 0.000000 10.124999919 20.602571163 17.659346711
   158   1 0.000000 10.124999919 2.490420690 17.659346711
   159   1 0.000000 10.124999919 11.546495926 17.659346711
   160   1 0.000000 14.174999886 20.602571163 17.659346711
   161   1 0.000000 14.174999886 2.490420690 17.659346711
   162   1 0.000000 14.174999886 11.546495926 17.659346711
   163   1 0.000000 18.224999854 20.602571163 17.659346711
   164   1 0.000000 18.224999854 2.490420690 17.659346711
   165   1 0.000000 18.224999854 11.546495926 17.659346711
   166   1 0.000000 2.024999984 24.225001257 19.470561758
   167   1 0.000000 2.024999984 6.112850784 19.470561758
   168   1 0.000000 2.024999984 15.168926021 19.470561758
   169   1 0.000000 6.074999951 24.225001257 19.470561758
   170   1 0.000000 6.074999951 6.112850784 19.470561758
   171   1 0.000000 6.074999951 15.168926021 19.470561758
   172   1 0.000000 10.124999919 24.225001257 19.470561758
   173   1 0.000000 10.124999919 6.112850784 19.470561758
   174   1 0.000000 10.124999919 15.168926021 19.470561758
   175   1 0.000000 14.174999886 24.225001257 19.470561758
   176   1 0.000000 14.174999886 6.112850784 19.470561758
   177   1 0.000000 14.174999886 15.168926021 19.470561758
   178   1 0.000000 18.224999854 24.225001257 19.470561758
   179   1 0.000000 18.224999854 6.112850784 19.470561758
   180   1 0.000000 18.224999854 15.168926021 19.470561758
   181   1 0.000000 2.024999984 23.319393733 16.753739187
   182   1 0.000000 2.024999984 5.207243261 16.753739187
   183   1 0.000000 2.024999984 14.263318497 16.753739187
   184   1 0.000000 6.074999951 23.319393733 16.753739187
   185   1 0.000000 6.074999951 5.207243261 16.753739187
   186   1 0.000000 6.074999951 14.263318497 16.753739187
   187   1 0.000000 10.124999919 23.319393733 16.753739187
   188   1 0.000000 10.124999919 5.207243261 16.753739187
   189   1 0.000000 10.124999919 14.263318497 16.753739187
   190   1 0.000000 14.174999886 23.319393733 16.753739187
   191   1 0.000000 14.174999886 5.207243261 16.753739187
   192   1 0.000000 14.174999886 14.263318497 16.753739187
   193   1 0.000000 18.224999854 23.319393733 16.753739187
   194   1 0.000000 18.224999854 5.207243261 16.753739187
   195   1 0.000000 18.224999854 14.263318497 16.753739187
   196   1 0.000000 2.024999984 17.885748592 18.564954234
   197   1 0.000000 2.024999984 26.941823828 18.564954234
   198   1 0.000000 2.024999984 8.829673355 18.564954234
   199   1 0.000000 6.074999951 17.885748592 18.564954234
   200   1 0.000000 6.074999951 26.941823828 18.564954234
   201   1 0.000000 6.074999951 8.829673355 18.564954234
   202   1 0.000000 10.124999919 17.885748592 18.564954234
   203   1 0.000000 10.124999919 26.941823828 18.564954234
   204   1 0.000000 10.124999919 8.829673355 18.564954234
   205   1 0.000000 14.174999886 17.885748592 18.564954234
   206   1 0.000000 14.174999886 26.941823828 18.564954234
   207   1 0.000000 14.174999886 8.829673355 18.564954234
   208   1 0.000000 18.224999854 17.885748592 18.564954234
   209   1 0.000000 18.224999854 26.941823828 18.564954234
   210   1 0.000000 18.224999854 8.829673355 18.564954234
   211   1 0.000000 0E-9 19.696963639 19.470561758
   212   1 0.000000 0E-9 1.584813166 19.470561758
   213   1 0.000000 0E-9 10.640888403 19.470561758
   214   1 0.000000 4.049999968 19.696963639 19.470561758
   215   1 0.000000 4.049999968 1.584813166 19.470561758
   216   1 0.000000 4.049999968 10.640888403 19.470561758
   217   1 0.000000 8.099999935 19.696963639 19.470561758
   218   1 0.000000 8.099999935 1.584813166 19.470561758
   219   1 0.000000 8.099999935 10.640888403 19.470561758
   220   1 0.000000 12.149999903 19.696963639 19.470561758
   221   1 0.000000 12.149999903 1.584813166 19.470561758
   222   1 0.000000 12.149999903 10.640888403 19.470561758
   223   1 0.000000 16.199999870 19.696963639 19.470561758
   224   1 0.000000 16.199999870 1.584813166 19.470561758
   225   1 0.000000 16.199999870 10.640888403 19.470561758
   226   1 0.000000 0E-9 25.130608781 17.659346711
   227   1 0.000000 0E-9 7.018458308 17.659346711
   228   1 0.000000 0E-9 16.074533544 17.659346711
   229   1 0.000000 4.049999968 25.130608781 17.659346711
   230   1 0.000000 4.049999968 7.018458308 17.659346711
   231   1 0.000000 4.049999968 16.074533544 17.659346711
   232   1 0.000000 8.099999935 25.130608781 17.659346711
   233   1 0.000000 8.099999935 7.018458308 17.659346711
   234   1 0.000000 8.099999935 16.074533544 17.659346711
   235   1 0.000000 12.149999903 25.130608781 17.659346711
   236   1 0.000000 12.149999903 7.018458308 17.659346711
   237   1 0.000000 12.149999903 16.074533544 17.659346711
   238   1 0.000000 16.199999870 25.130608781 17.659346711
   239   1 0.000000 16.199999870 7.018458308 17.659346711
   240   1 0.000000 16.199999870 16.074533544 17.659346711
   241   1 0.000000 0E-9 20.602571163 22.187384329
   242   1 0.000000 0E-9 2.490420690 22.187384329
   243   1 0.000000 0E-9 11.546495926 22.187384329
   244   1 0.000000 4.049999968 20.602571163 22.187384329
   245   1 0.000000 4.049999968 2.490420690 22.187384329
   246   1 0.000000 4.049999968 11.546495926 22.187384329
   247   1 0.000000 8.099999935 20.602571163 22.187384329
   248   1 0.000000 8.099999935 2.490420690 22.187384329
   249   1 0.000000 8.099999935 11.546495926 22.187384329
   250   1 0.000000 12.149999903 20.602571163 22.187384329
   251   1 0.000000 12.149999903 2.490420690 22.187384329
   252   1 0.000000 12.149999903 11.546495926 22.187384329
   253   1 0.000000 16.199999870 20.602571163 22.187384329
   254   1 0.000000 16.199999870 2.490420690 22.187384329
   255   1 0.000000 16.199999870 11.546495926 22.187384329
   256   1 0.000000 0E-9 16.980141068 20.376169282
   257   1 0.000000 0E-9 26.036216304 20.376169282
   258   1 0.000000 0E-9 7.924065832 20.376169282
   259   1 0.000000 4.049999968 16.980141068 20.376169282
   260   1 0.000000 4.049999968 26.036216304 20.376169282
   261   1 0.000000 4.049999968 7.924065832 20.376169282
   262   1 0.000000 8.099999935 16.980141068 20.376169282
   263   1 0.000000 8.099999935 26.036216304 20.376169282
   264   1 0.000000 8.099999935 7.924065832 20.376169282
   265   1 0.000000 12.149999903 16.980141068 20.376169282
   266   1 0.000000 12.149999903 26.036216304 20.376169282
   267   1 0.000000 12.149999903 7.924065832 20.376169282
   268   1 0.000000 16.199999870 16.980141068 20.376169282
   269   1 0.000000 16.199999870 26.036216304 20.376169282
   270   1 0.000000 16.199999870 7.924065832 20.376169282
   271   1 0.000000 2.024999984 18.791356115 21.281776805
   272   1 0.000000 2.024999984 0.679205643 21.281776805
   273   1 0.000000 2.024999984 9.735280879 21.281776805
   274   1 0.000000 6.074999951 18.791356115 21.281776805
   275   1 0.000000 6.074999951 0.679205643 21.281776805
   276   1 0.000000 6.074999951 9.735280879 21.281776805
   277   1 0.000000 10.124999919 18.791356115 21.281776805
   278   1 0.000000 10.124999919 0.679205643 21.281776805
   279   1 0.000000 10.124999919 9.735280879 21.281776805
   280   1 0.000000 14.174999886 18.791356115 21.281776805
   281   1 0.000000 14.174999886 0.679205643 21.281776805
   282   1 0.000000 14.174999886 9.735280879 21.281776805
   283   1 0.000000 18.224999854 18.791356115 21.281776805
   284   1 0.000000 18.224999854 0.679205643 21.281776805
   285   1 0.000000 18.224999854 9.735280879 21.281776805
   286   1 0.000000 2.024999984 22.413786210 23.092991853
   287   1 0.000000 2.024999984 4.301635737 23.092991853
   288   1 0.000000 2.024999984 13.357710974 23.092991853
   289   1 0.000000 6.074999951 22.413786210 23.092991853
   290   1 0.000000 6.074999951 4.301635737 23.092991853
   291   1 0.000000 6.074999951 13.357710974 23.092991853
   292   1 0.000000 10.124999919 22.413786210 23.092991853
   293   1 0.000000 10.124999919 4.301635737 23.092991853
   294   1 0.000000 10.124999919 13.357710974 23.092991853
   295   1 0.000000 14.174999886 22.413786210 23.092991853
   296   1 0.000000 14.174999886 4.301635737 23.092991853
   297   1 0.000000 14.174999886 13.357710974 23.092991853
   298   1 0.000000 18.224999854 22.413786210 23.092991853
   299   1 0.000000 18.224999854 4.301635737 23.092991853
   300   1 0.000000 18.224999854 13.357710974 23.092991853
   301   1 0.000000 2.024999984 21.508178686 20.376169282
   302   1 0.000000 2.024999984 3.396028214 20.376169282
   303   1 0.000000 2.024999984 12.452103450 20.376169282
   304   1 0.000000 6.074999951 21.508178686 20.376169282
   305   1 0.000000 6.074999951 3.396028214 20.376169282
   306   1 0.000000 6.074999951 12.452103450 20.376169282
   307   1 0.000000 10.124999919 21.508178686 20.376169282
   308   1 0.000000 10.124999919 3.396028214 20.376169282
   309   1 0.000000 10.124999919 12.452103450 20.376169282
   310   1 0.000000 14.174999886 21.508178686 20.376169282
   311   1 0.000000 14.174999886 3.396028214 20.376169282
   312   1 0.000000 14.174999886 12.452103450 20.376169282
   313   1 0.000000 18.224999854 21.508178686 20.376169282
   314   1 0.000000 18.224999854 3.396028214 20.376169282
   315   1 0.000000 18.224999854 12.452103450 20.376169282
   316   1 0.000000 2.024999984 16.074533544 22.187384329
   317   1 0.000000 2.024999984 25.130608781 22.187384329
   318   1 0.000000 2.024999984 7.018458308 22.187384329
   319   1 0.000000 6.074999951 16.074533544 22.187384329
   320   1 0.000000 6.074999951 25.130608781 22.187384329
   321   1 0.000000 6.074999951 7.018458308 22.187384329
   322   1 0.000000 10.124999919 16.074533544 22.187384329
   323   1 0.000000 10.124999919 25.130608781 22.187384329
   324   1 0.000000 10.124999919 7.018458308 22.187384329
   325   1 0.000000 14.174999886 16.074533544 22.187384329
   326   1 0.000000 14.174999886 25.130608781 22.187384329
   327   1 0.000000 14.174999886 7.018458308 22.187384329
   328   1 0.000000 18.224999854 16.074533544 22.187384329
   329   1 0.000000 18.224999854 25.130608781 22.187384329
   330   1 0.000000 18.224999854 7.018458308 22.187384329
   331   1 0.000000 0E-9 17.885748592 23.092991853
   332   1 0.000000 0E-9 26.941823828 23.092991853
   333   1 0.000000 0E-9 8.829673355 23.092991853
   334   1 0.000000 4.049999968 17.885748592 23.092991853
   335   1 0.000000 4.049999968 26.941823828 23.092991853
   336   1 0.000000 4.049999968 8.829673355 23.092991853
   337   1 0.000000 8.099999935 17.885748592 23.092991853
   338   1 0.000000 8.099999935 26.941823828 23.092991853
   339   1 0.000000 8.099999935 8.829673355 23.092991853
   340   1 0.000000 12.149999903 17.885748592 23.092991853
   341   1 0.000000 12.149999903 26.941823828 23.092991853
   342   1 0.000000 12.149999903 8.829673355 23.092991853
   343   1 0.000000 16.199999870 17.885748592 23.092991853
   344   1 0.000000 16.199999870 26.941823828 23.092991853
   345   1 0.000000 16.199999870 8.829673355 23.092991853
   346   1 0.000000 0E-9 23.319393733 21.281776805
   347   1 0.000000 0E-9 5.207243261 21.281776805
   348   1 0.000000 0E-9 14.263318497 21.281776805
   349   1 0.000000 4.049999968 23.319393733 21.281776805
   350   1 0.000000 4.049999968 5.207243261 21.281776805
   351   1 0.000000 4.049999968 14.263318497 21.281776805
   352   1 0.000000 8.099999935 23.319393733 21.281776805
   353   1 0.000000 8.099999935 5.207243261 21.281776805
   354   1 0.000000 8.099999935 14.263318497 21.281776805
   355   1 0.000000 12.149999903 23.319393733 21.281776805
   356   1 0.000000 12.149999903 5.207243261 21.281776805
   357   1 0.000000 12.149999903 14.263318497 21.281776805
   358   1 0.000000 16.199999870 23.319393733 21.281776805
   359   1 0.000000 16.199999870 5.207243261 21.281776805
   360   1 0.000000 16.199999870 14.263318497 21.281776805
   361   1 0.000000 0E-9 18.791356115 25.809814423
   362   1 0.000000 0E-9 0.679205643 25.809814423
   363   1 0.000000 0E-9 9.735280879 25.809814423
   364   1 0.000000 4.049999968 18.791356115 25.809814423
   365   1 0.000000 4.049999968 0.679205643 25.809814423
   366   1 0.000000 4.049999968 9.735280879 25.809814423
   367   1 0.000000 8.099999935 18.791356115 25.809814423
   368   1 0.000000 8.099999935 0.679205643 25.809814423
   369   1 0.000000 8.099999935 9.735280879 25.809814423
   370   1 0.000000 12.149999903 18.791356115 25.809814423
   371   1 0.000000 12.149999903 0.679205643 25.809814423
   372   1 0.000000 12.149999903 9.735280879 25.809814423
   373   1 0.000000 16.199999870 18.791356115 25.809814423
   374   1 0.000000 16.199999870 0.679205643 25.809814423
   375   1 0.000000 16.199999870 9.735280879 25.809814423
   376   1 0.000000 0E-9 15.168926021 23.998599376
   377   1 0.000000 0E-9 24.225001257 23.998599376
   378   1 0.000000 0E-9 6.112850784 23.998599376
   379   1 0.000000 4.049999968 15.168926021 23.998599376
   380   1 0.000000 4.049999968 24.225001257 23.998599376
   381   1 0.000000 4.049999968 6.112850784 23.998599376
   382   1 0.000000 8.099999935 15.168926021 23.998599376
   383   1 0.000000 8.099999935 24.225001257 23.998599376
   384   1 0.000000 8.099999935 6.112850784 23.998599376
   385   1 0.000000 12.149999903 15.168926021 23.998599376
   386   1 0.000000 12.149999903 24.225001257 23.998599376
   387   1 0.000000 12.149999903 6.112850784 23.998599376
   388   1 0.000000 16.199999870 15.168926021 23.998599376
   389   1 0.000000 16.199999870 24.225001257 23.998599376
   390   1 0.000000 16.199999870 6.112850784 23.998599376
   391   1 0.000000 2.024999984 16.980141068 24.904206900
   392   1 0.000000 2.024999984 26.036216304 24.904206900
   393   1 0.000000 2.024999984 7.924065832 24.904206900
   394   1 0.000000 6.074999951 16.980141068 24.904206900
   395   1 0.000000 6.074999951 26.036216304 24.904206900
   396   1 0.000000 6.074999951 7.924065832 24.904206900
   397   1 0.000000 10.124999919 16.980141068 24.904206900
   398   1 0.000000 10.124999919 26.036216304 24.904206900
   399   1 0.000000 10.124999919 7.924065832 24.904206900
   400   1 0.000000 14.174999886 16.980141068 24.904206900
   401   1 0.000000 14.174999886 26.036216304 24.904206900
   402   1 0.000000 14.174999886 7.924065832 24.904206900
   403   1 0.000000 18.224999854 16.980141068 24.904206900
   404   1 0.000000 18.224999854 26.036216304 24.904206900
   405   1 0.000000 18.224999854 7.924065832 24.904206900
   406   1 0.000000 2.024999984 20.602571163 26.715421947
   407   1 0.000000 2.024999984 2.490420690 26.715421947
   408   1 0.000000 2.024999984 11.546495926 26.715421947
   409   1 0.000000 6.074999951 20.602571163 26.715421947
   410   1 0.000000 6.074999951 2.490420690 26.715421947
   411   1 0.000000 6.074999951 11.546495926 26.715421947
   412   1 0.000000 10.124999919 20.602571163 26.715421947
   413   1 0.000000 10.124999919 2.490420690 26.715421947
   414   1 0.000000 10.124999919 11.546495926 26.715421947
   415   1 0.000000 14.174999886 20.602571163 26.715421947
   416   1 0.000000 14.174999886 2.490420690 26.715421947
   417   1 0.000000 14.174999886 11.546495926 26.715421947
   418   1 0.000000 18.224999854 20.602571163 26.715421947
   419   1 0.000000 18.224999854 2.490420690 26.715421947
   420   1 0.000000 18.224999854 11.546495926 26.715421947
   421   1 0.000000 2.024999984 19.696963639 23.998599376
   422   1 0.000000 2.024999984 1.584813166 23.998599376
   423   1 0.000000 2.024999984 10.640888403 23.998599376
   424   1 0.000000 6.074999951 19.696963639 23.998599376
   425   1 0.000000 6.074999951 1.584813166 23.998599376
   426   1 0.000000 6.074999951 10.640888403 23.998599376
   427   1 0.000000 10.124999919 19.696963639 23.998599376
   428   1 0.000000 10.124999919 1.584813166 23.998599376
   429   1 0.000000 10.124999919 10.640888403 23.998599376
   430   1 0.000000 14.174999886 19.696963639 23.998599376
   431   1 0.000000 14.174999886 1.584813166 23.998599376
   432   1 0.000000 14.174999886 10.640888403 23.998599376
   433   1 0.000000 18.224999854 19.696963639 23.998599376
   434   1 0.000000 18.224999854 1.584813166 23.998599376
   435   1 0.000000 18.224999854 10.640888403 23.998599376
   436   1 0.000000 2.024999984 14.263318497 25.809814423
   437   1 0.000000 2.024999984 23.319393733 25.809814423
   438   1 0.000000 2.024999984 5.207243261 25.809814423
   439   1 0.000000 6.074999951 14.263318497 25.809814423
   440   1 0.000000 6.074999951 23.319393733 25.809814423
   441   1 0.000000 6.074999951 5.207243261 25.809814423
   442   1 0.000000 10.124999919 14.263318497 25.809814423
   443   1 0.000000 10.124999919 23.319393733 25.809814423
   444   1 0.000000 10.124999919 5.207243261 25.809814423
   445   1 0.000000 14.174999886 14.263318497 25.809814423
   446   1 0.000000 14.174999886 23.319393733 25.809814423
   447   1 0.000000 14.174999886 5.207243261 25.809814423
   448   1 0.000000 18.224999854 14.263318497 25.809814423
   449   1 0.000000 18.224999854 23.319393733 25.809814423
   450   1 0.000000 18.224999854 5.207243261 25.809814423
   451   1 0.000000 0E-9 16.074533544 26.715421947
   452   1 0.000000 0E-9 25.130608781 26.715421947
   453   1 0.000000 0E-9 7.018458308 26.715421947
   454   1 0.000000 4.049999968 16.074533544 26.715421947
   455   1 0.000000 4.049999968 25.130608781 26.715421947
   456   1 0.000000 4.049999968 7.018458308 26.715421947
   457   1 0.000000 8.099999935 16.074533544 26.715421947
   458   1 0.000000 8.099999935 25.130608781 26.715421947
   459   1 0.000000 8.099999935 7.018458308 26.715421947
   460   1 0.000000 12.149999903 16.074533544 26.715421947
   461   1 0.000000 12.149999903 25.130608781 26.715421947
   462   1 0.000000 12.149999903 7.018458308 26.715421947
   463   1 0.000000 16.199999870 16.074533544 26.715421947
   464   1 0.000000 16.199999870 25.130608781 26.715421947
   465   1 0.000000 16.199999870 7.018458308 26.715421947
   466   1 0.000000 0E-9 21.508178686 24.904206900
   467   1 0.000000 0E-9 3.396028214 24.904206900
   468   1 0.000000 0E-9 12.452103450 24.904206900
   469   1 0.000000 4.049999968 21.508178686 24.904206900
   470   1 0.000000 4.049999968 3.396028214 24.904206900
   471   1 0.000000 4.049999968 12.452103450 24.904206900
   472   1 0.000000 8.099999935 21.508178686 24.904206900
   473   1 0.000000 8.099999935 3.396028214 24.904206900
   474   1 0.000000 8.099999935 12.452103450 24.904206900
   475   1 0.000000 12.149999903 21.508178686 24.904206900
   476   1 0.000000 12.149999903 3.396028214 24.904206900
   477   1 0.000000 12.149999903 12.452103450 24.904206900
   478   1 0.000000 16.199999870 21.508178686 24.904206900
   479   1 0.000000 16.199999870 3.396028214 24.904206900
   480   1 0.000000 16.199999870 12.452103450 24.904206900
   481   1 0.000000 0E-9 16.980141068 29.432244518
   482   1 0.000000 0E-9 26.036216304 29.432244518
   483   1 0.000000 0E-9 7.924065832 29.432244518
   484   1 0.000000 4.049999968 16.980141068 29.432244518
   485   1 0.000000 4.049999968 26.036216304 29.432244518
   486   1 0.000000 4.049999968 7.924065832 29.432244518
   487   1 0.000000 8.099999935 16.980141068 29.432244518
   488   1 0.000000 8.099999935 26.036216304 29.432244518
   489   1 0.000000 8.099999935 7.924065832 29.432244518
   490   1 0.000000 12.149999903 16.980141068 29.432244518
   491   1 0.000000 12.149999903 26.036216304 29.432244518
   492   1 0.000000 12.149999903 7.924065832 29.432244518
   493   1 0.000000 16.199999870 16.980141068 29.432244518
   494   1 0.000000 16.199999870 26.036216304 29.432244518
   495   1 0.000000 16.199999870 7.924065832 29.432244518
   496   1 0.000000 0E-9 13.357710974 27.621029471
   497   1 0.000000 0E-9 22.413786210 27.621029471
   498   1 0.000000 0E-9 4.301635737 27.621029471
   499   1 0.000000 4.049999968 13.357710974 27.621029471
   500   1 0.000000 4.049999968 22.413786210 27.621029471
   501   1 0.000000 4.049999968 4.301635737 27.621029471
   502   1 0.000000 8.099999935 13.357710974 27.621029471
   503   1 0.000000 8.099999935 22.413786210 27.621029471
   504   1 0.000000 8.099999935 4.301635737 27.621029471
   505   1 0.000000 12.149999903 13.357710974 27.621029471
   506   1 0.000000 12.149999903 22.413786210 27.621029471
   507   1 0.000000 12.149999903 4.301635737 27.621029471
   508   1 0.000000 16.199999870 13.357710974 27.621029471
   509   1 0.000000 16.199999870 22.413786210 27.621029471
   510   1 0.000000 16.199999870 4.301635737 27.621029471
   511   1 0.000000 2.024999984 15.168926021 28.526636994
   512   1 0.000000 2.024999984 24.225001257 28.526636994
   513   1 0.000000 2.024999984 6.112850784 28.526636994
   514   1 0.000000 6.074999951 15.168926021 28.526636994
   515   1 0.000000 6.074999951 24.225001257 28.526636994
   516   1 0.000000 6.074999951 6.112850784 28.526636994
   517   1 0.000000 10.124999919 15.168926021 28.526636994
   518   1 0.000000 10.124999919 24.225001257 28.526636994
   519   1 0.000000 10.124999919 6.112850784 28.526636994