LAMMPS data file via write_data, version 13 Jan 2016, timestep = 1025

720 atoms
1 atom types

1.4140960694391974e-01 2.0108590231056048e+01 xlo xhi
1.8471405379284245e-01 2.6983511654207156e+01 ylo yhi
-6.7884030817179239e-02 4.7159475257817078e+01 zlo zhi
0.0000000000000000e+00 0.0000000000000000e+00 0.0000000000000000e+00 xy xz yz

Masses

1 26.982

Atoms # charge

1 1 0.0000000000000000e+00 2.0108590230957823e+01 2.4056247281618166e+01 1.4923496355032183e+01 -1 0 0
2 1 0.0000000000000000e+00 2.0108590230957823e+01 6.1903822146752923e+00 1.4923496355030100e+01 -1 0 0
3 1 0.0000000000000000e+00 2.0108590230957816e+01 1.5123314748146401e+01 1.4923496355025858e+01 -1 0 0
4 1 0.0000000000000000e+00 4.1348457316683076e+00 2.4056247281618422e+01 1.4923496355033192e+01 0 0 0
5 1 0.0000000000000000e+00 4.1348457316683076e+00 6.1903822146755285e+00 1.4923496355031116e+01 0 0 0
6 1 0.0000000000000000e+00 4.1348457316683076e+00 1.5123314748146660e+01 1.4923496355026867e+01 0 0 0
7 1 0.0000000000000000e+00 8.1282818564903643e+00 2.4056247281618006e+01 1.4923496355033203e+01 0 0 0
8 1 0.0000000000000000e+00 8.1282818564903714e+00 6.1903822146751351e+00 1.4923496355031125e+01 0 0 0
9 1 0.0000000000000000e+00 8.1282818564903749e+00 1.5123314748146237e+01 1.4923496355026883e+01 0 0 0
10 1 0.0000000000000000e+00 1.2121717981312202e+01 2.4056247281618230e+01 1.4923496355033537e+01 0 0 0
11 1 0.0000000000000000e+00 1.2121717981312214e+01 6.1903822146753411e+00 1.4923496355031460e+01 0 0 0
12 1 0.0000000000000000e+00 1.2121717981312205e+01 1.5123314748146452e+01 1.4923496355027218e+01 0 0 0
13 1 0.0000000000000000e+00 1.6115154106134398e+01 2.4056247281618404e+01 1.4923496355032436e+01 0 0 0
14 1 0.0000000000000000e+00 1.6115154106134391e+01 6.1903822146755223e+00 1.4923496355030350e+01 0 0 0
15 1 0.0000000000000000e+00 1.6115154106134387e+01 1.5123314748146624e+01 1.4923496355026122e+01 0 0 0
16 1 0.0000000000000000e+00 2.0108590230957930e+01 2.0470629110688098e+01 1.3252687621664078e+01 -1 0 0
17 1 0.0000000000000000e+00 2.0108590230957933e+01 2.6047640437422146e+00 1.3252687621666974e+01 -1 0 0
18 1 0.0000000000000000e+00 2.0108590230957937e+01 1.1537696577213325e+01 1.3252687621659783e+01 -1 0 0
19 1 0.0000000000000000e+00 4.1348457316692286e+00 2.0470629110688552e+01 1.3252687621663775e+01 0 0 0
20 1 0.0000000000000000e+00 4.1348457316692286e+00 2.6047640437426702e+00 1.3252687621666670e+01 0 0 0
21 1 0.0000000000000000e+00 4.1348457316692260e+00 1.1537696577213774e+01 1.3252687621659478e+01 0 0 0
22 1 0.0000000000000000e+00 8.1282818564899166e+00 2.0470629110685980e+01 1.3252687621663725e+01 0 0 0
23 1 0.0000000000000000e+00 8.1282818564899184e+00 2.6047640437400963e+00 1.3252687621666626e+01 0 0 0
24 1 0.0000000000000000e+00 8.1282818564899166e+00 1.1537696577211211e+01 1.3252687621659426e+01 0 0 0
25 1 0.0000000000000000e+00 1.2121717981312420e+01 2.0470629110687181e+01 1.3252687621663679e+01 0 0 0
26 1 0.0000000000000000e+00 1.2121717981312420e+01 2.6047640437413060e+00 1.3252687621666574e+01 0 0 0
27 1 0.0000000000000000e+00 1.2121717981312420e+01 1.1537696577212412e+01 1.3252687621659382e+01 0 0 0
28 1 0.0000000000000000e+00 1.6115154106133495e+01 2.0470629110688755e+01 1.3252687621664009e+01 0 0 0
29 1 0.0000000000000000e+00 1.6115154106133502e+01 2.6047640437428754e+00 1.3252687621666899e+01 0 0 0
30 1 0.0000000000000000e+00 1.6115154106133502e+01 1.1537696577213984e+01 1.3252687621659701e+01 0 0 0
31 1 0.0000000000000000e+00 2.1381276692573024e+00 2.2278188383154312e+01 1.4030116082587888e+01 0 0 0
32 1 0.0000000000000000e+00 2.1381276692573024e+00 4.4123233162093696e+00 1.4030116082588505e+01 0 0 0
33 1 0.0000000000000000e+00 2.1381276692573015e+00 1.3345255849681408e+01 1.4030116082581664e+01 0 0 0
34 1 0.0000000000000000e+00 6.1315637940799848e+00 2.2278188383153775e+01 1.4030116082588396e+01 0 0 0
35 1 0.0000000000000000e+00 6.1315637940799794e+00 4.4123233162088278e+00 1.4030116082589007e+01 0 0 0
36 1 0.0000000000000000e+00 6.1315637940799848e+00 1.3345255849680868e+01 1.4030116082582159e+01 0 0 0
37 1 0.0000000000000000e+00 1.0124999918900988e+01 2.2278188383152784e+01 1.4030116082588153e+01 0 0 0
38 1 0.0000000000000000e+00 1.0124999918900986e+01 4.4123233162078339e+00 1.4030116082588764e+01 0 0 0
39 1 0.0000000000000000e+00 1.0124999918900983e+01 1.3345255849679885e+01 1.4030116082581927e+01 0 0 0
40 1 0.0000000000000000e+00 1.4118436043722513e+01 2.2278188383154507e+01 1.4030116082588185e+01 0 0 0
41 1 0.0000000000000000e+00 1.4118436043722509e+01 4.4123233162095659e+00 1.4030116082588798e+01 0 0 0
42 1 0.0000000000000000e+00 1.4118436043722511e+01 1.3345255849681614e+01 1.4030116082581960e+01 0 0 0
43 1 0.0000000000000000e+00 1.8111872168545943e+01 2.2278188383153847e+01 1.4030116082588105e+01 0 0 0
44 1 0.0000000000000000e+00 1.8111872168545936e+01 4.4123233162088926e+00 1.4030116082588716e+01 0 0 0
45 1 0.0000000000000000e+00 1.8111872168545940e+01 1.3345255849680939e+01 1.4030116082581879e+01 0 0 0
46 1 0.0000000000000000e+00 2.1381276692567743e+00 2.5888577911134444e+01 1.5808546186881474e+01 0 0 0
47 1 0.0000000000000000e+00 2.1381276692567797e+00 8.0227128441924531e+00 1.5808546186876624e+01 0 0 0
48 1 0.0000000000000000e+00 2.1381276692567837e+00 1.6955645377662353e+01 1.5808546186875276e+01 0 0 0
49 1 0.0000000000000000e+00 6.1315637940790131e+00 2.5888577911134259e+01 1.5808546186881452e+01 0 0 0
50 1 0.0000000000000000e+00 6.1315637940790184e+00 8.0227128441922613e+00 1.5808546186876608e+01 0 0 0
51 1 0.0000000000000000e+00 6.1315637940790184e+00 1.6955645377662169e+01 1.5808546186875258e+01 0 0 0
52 1 0.0000000000000000e+00 1.0124999918901269e+01 2.5888577911134153e+01 1.5808546186881426e+01 0 0 0
53 1 0.0000000000000000e+00 1.0124999918901249e+01 8.0227128441921671e+00 1.5808546186876580e+01 0 0 0
54 1 0.0000000000000000e+00 1.0124999918901267e+01 1.6955645377662059e+01 1.5808546186875239e+01 0 0 0
55 1 0.0000000000000000e+00 1.4118436043723529e+01 2.5888577911134455e+01 1.5808546186881486e+01 0 0 0
56 1 0.0000000000000000e+00 1.4118436043723536e+01 8.0227128441924513e+00 1.5808546186876635e+01 0 0 0
57 1 0.0000000000000000e+00 1.4118436043723538e+01 1.6955645377662350e+01 1.5808546186875304e+01 0 0 0
58 1 0.0000000000000000e+00 1.8111872168546007e+01 2.5888577911134213e+01 1.5808546186881301e+01 0 0 0
59 1 0.0000000000000000e+00 1.8111872168546022e+01 8.0227128441922222e+00 1.5808546186876454e+01 0 0 0
60 1 0.0000000000000000e+00 1.8111872168546022e+01 1.6955645377662123e+01 1.5808546186875114e+01 0 0 0
61 1 0.0000000000000000e+00 2.1381276692580187e+00 2.4937095377424257e+01 1.3252687621667128e+01 0 0 0
62 1 0.0000000000000000e+00 2.1381276692580151e+00 7.0712303104770955e+00 1.3252687621663243e+01 0 0 0
63 1 0.0000000000000000e+00 2.1381276692580231e+00 1.6004162843951441e+01 1.3252687621660257e+01 0 0 0
64 1 0.0000000000000000e+00 6.1315637940790992e+00 2.4937095377422683e+01 1.3252687621666800e+01 0 0 0
65 1 0.0000000000000000e+00 6.1315637940791037e+00 7.0712303104755154e+00 1.3252687621662908e+01 0 0 0
66 1 0.0000000000000000e+00 6.1315637940791037e+00 1.6004162843949867e+01 1.3252687621659922e+01 0 0 0
67 1 0.0000000000000000e+00 1.0124999918901606e+01 2.4937095377421464e+01 1.3252687621666849e+01 0 0 0
68 1 0.0000000000000000e+00 1.0124999918901603e+01 7.0712303104743119e+00 1.3252687621662957e+01 0 0 0
69 1 0.0000000000000000e+00 1.0124999918901599e+01 1.6004162843948642e+01 1.3252687621659966e+01 0 0 0
70 1 0.0000000000000000e+00 1.4118436043722292e+01 2.4937095377424050e+01 1.3252687621666899e+01 0 0 0
71 1 0.0000000000000000e+00 1.4118436043722292e+01 7.0712303104768885e+00 1.3252687621663013e+01 0 0 0
72 1 0.0000000000000000e+00 1.4118436043722296e+01 1.6004162843951224e+01 1.3252687621660018e+01 0 0 0
73 1 0.0000000000000000e+00 1.8111872168545705e+01 2.4937095377423599e+01 1.3252687621667199e+01 0 0 0
74 1 0.0000000000000000e+00 1.8111872168545720e+01 7.0712303104764285e+00 1.3252687621663311e+01 0 0 0
75 1 0.0000000000000000e+00 1.8111872168545712e+01 1.6004162843950780e+01 1.3252687621660323e+01 0 0 0
76 1 0.0000000000000000e+00 2.1381276692571274e+00 1.9589781014882597e+01 1.4923496355029064e+01 0 0 0
77 1 0.0000000000000000e+00 2.1381276692571123e+00 1.7239159479397237e+00 1.4923496355033331e+01 0 0 0
78 1 0.0000000000000000e+00 2.1381276692571327e+00 1.0656848481411050e+01 1.4923496355026515e+01 0 0 0
79 1 0.0000000000000000e+00 6.1315637940793275e+00 1.9589781014882430e+01 1.4923496355030171e+01 0 0 0
80 1 0.0000000000000000e+00 6.1315637940793168e+00 1.7239159479395549e+00 1.4923496355034436e+01 0 0 0
81 1 0.0000000000000000e+00 6.1315637940793133e+00 1.0656848481410890e+01 1.4923496355027609e+01 0 0 0
82 1 0.0000000000000000e+00 1.0124999918901164e+01 1.9589781014882210e+01 1.4923496355029835e+01 0 0 0
83 1 0.0000000000000000e+00 1.0124999918901151e+01 1.7239159479393431e+00 1.4923496355034096e+01 0 0 0
84 1 0.0000000000000000e+00 1.0124999918901150e+01 1.0656848481410661e+01 1.4923496355027284e+01 0 0 0
85 1 0.0000000000000000e+00 1.4118436043723209e+01 1.9589781014882625e+01 1.4923496355029819e+01 0 0 0
86 1 0.0000000000000000e+00 1.4118436043723200e+01 1.7239159479397488e+00 1.4923496355034091e+01 0 0 0
87 1 0.0000000000000000e+00 1.4118436043723197e+01 1.0656848481411076e+01 1.4923496355027268e+01 0 0 0
88 1 0.0000000000000000e+00 1.8111872168545833e+01 1.9589781014882377e+01 1.4923496355028815e+01 0 0 0
89 1 0.0000000000000000e+00 1.8111872168545826e+01 1.7239159479395023e+00 1.4923496355033080e+01 0 0 0
90 1 0.0000000000000000e+00 1.8111872168545833e+01 1.0656848481410831e+01 1.4923496355026259e+01 0 0 0
91 1 0.0000000000000000e+00 2.0108590230957631e+01 2.1422111644397969e+01 1.5808546186878715e+01 -1 0 0
92 1 0.0000000000000000e+00 2.0108590230957635e+01 3.5562465774564274e+00 1.5808546186880145e+01 -1 0 0
93 1 0.0000000000000000e+00 2.0108590230957628e+01 1.2489179110927001e+01 1.5808546186873988e+01 -1 0 0
94 1 0.0000000000000000e+00 4.1348457316679852e+00 2.1422111644398200e+01 1.5808546186878912e+01 0 0 0
95 1 0.0000000000000000e+00 4.1348457316679834e+00 3.5562465774566814e+00 1.5808546186880335e+01 0 0 0
96 1 0.0000000000000000e+00 4.1348457316679834e+00 1.2489179110927232e+01 1.5808546186874191e+01 0 0 0
97 1 0.0000000000000000e+00 8.1282818564902506e+00 2.1422111644397905e+01 1.5808546186878857e+01 0 0 0
98 1 0.0000000000000000e+00 8.1282818564902595e+00 3.5562465774563750e+00 1.5808546186880278e+01 0 0 0
99 1 0.0000000000000000e+00 8.1282818564902559e+00 1.2489179110926942e+01 1.5808546186874125e+01 0 0 0
100 1 0.0000000000000000e+00 1.2121717981312500e+01 2.1422111644398004e+01 1.5808546186878878e+01 0 0 0
101 1 0.0000000000000000e+00 1.2121717981312511e+01 3.5562465774564807e+00 1.5808546186880283e+01 0 0 0
102 1 0.0000000000000000e+00 1.2121717981312511e+01 1.2489179110927036e+01 1.5808546186874139e+01 0 0 0
103 1 0.0000000000000000e+00 1.6115154106134739e+01 2.1422111644398193e+01 1.5808546186878910e+01 0 0 0
104 1 0.0000000000000000e+00 1.6115154106134746e+01 3.5562465774566530e+00 1.5808546186880317e+01 0 0 0
105 1 0.0000000000000000e+00 1.6115154106134746e+01 1.2489179110927235e+01 1.5808546186874173e+01 0 0 0
106 1 0.0000000000000000e+00 2.0108590230957713e+01 2.6744654649888702e+01 1.4030116082590871e+01 -1 0 0
107 1 0.0000000000000000e+00 2.0108590230957706e+01 8.8787895829445436e+00 1.4030116082583964e+01 -1 0 0
108 1 0.0000000000000000e+00 2.0108590230957706e+01 1.7811722116417602e+01 1.4030116082583882e+01 -1 0 0
109 1 0.0000000000000000e+00 4.1348457316690075e+00 2.6744654649889359e+01 1.4030116082590952e+01 0 0 0
110 1 0.0000000000000000e+00 4.1348457316690048e+00 8.8787895829452204e+00 1.4030116082584039e+01 0 0 0
111 1 0.0000000000000000e+00 4.1348457316690048e+00 1.7811722116418263e+01 1.4030116082583959e+01 0 0 0
112 1 0.0000000000000000e+00 8.1282818564905384e+00 2.6744654649887629e+01 1.4030116082590911e+01 0 0 0
113 1 0.0000000000000000e+00 8.1282818564905455e+00 8.8787895829434866e+00 1.4030116082584000e+01 0 0 0
114 1 0.0000000000000000e+00 8.1282818564905384e+00 1.7811722116416544e+01 1.4030116082583922e+01 0 0 0
115 1 0.0000000000000000e+00 1.2121717981311535e+01 2.6744654649888616e+01 1.4030116082591160e+01 0 0 0
116 1 0.0000000000000000e+00 1.2121717981311541e+01 8.8787895829444832e+00 1.4030116082584243e+01 0 0 0
117 1 0.0000000000000000e+00 1.2121717981311527e+01 1.7811722116417538e+01 1.4030116082584163e+01 0 0 0
118 1 0.0000000000000000e+00 1.6115154106134220e+01 2.6744654649889146e+01 1.4030116082590656e+01 0 0 0
119 1 0.0000000000000000e+00 1.6115154106134220e+01 8.8787895829450001e+00 1.4030116082583733e+01 0 0 0
120 1 0.0000000000000000e+00 1.6115154106134217e+01 1.7811722116418075e+01 1.4030116082583664e+01 0 0 0
121 1 0.0000000000000000e+00 2.0108590230957340e+01 2.2303864961844059e+01 1.8493997349857214e+01 -1 0 0
122 1 0.0000000000000000e+00 2.0108590230957333e+01 4.4379998949029726e+00 1.8493997349857089e+01 -1 0 0
123 1 0.0000000000000000e+00 2.0108590230957336e+01 1.3370932428372980e+01 1.8493997349854894e+01 -1 0 0
124 1 0.0000000000000000e+00 4.1348457316675367e+00 2.2303864961844550e+01 1.8493997349856944e+01 0 0 0
125 1 0.0000000000000000e+00 4.1348457316675375e+00 4.4379998949034523e+00 1.8493997349856826e+01 0 0 0
126 1 0.0000000000000000e+00 4.1348457316675411e+00 1.3370932428373454e+01 1.8493997349854624e+01 0 0 0
127 1 0.0000000000000000e+00 8.1282818564901600e+00 2.2303864961844955e+01 1.8493997349856379e+01 0 0 0
128 1 0.0000000000000000e+00 8.1282818564901635e+00 4.4379998949038617e+00 1.8493997349856254e+01 0 0 0
129 1 0.0000000000000000e+00 8.1282818564901547e+00 1.3370932428373864e+01 1.8493997349854066e+01 0 0 0
130 1 0.0000000000000000e+00 1.2121717981312724e+01 2.2303864961844805e+01 1.8493997349856585e+01 0 0 0
131 1 0.0000000000000000e+00 1.2121717981312733e+01 4.4379998949037258e+00 1.8493997349856471e+01 0 0 0
132 1 0.0000000000000000e+00 1.2121717981312729e+01 1.3370932428373711e+01 1.8493997349854283e+01 0 0 0
133 1 0.0000000000000000e+00 1.6115154106135311e+01 2.2303864961844265e+01 1.8493997349857189e+01 0 0 0
134 1 0.0000000000000000e+00 1.6115154106135318e+01 4.4379998949031796e+00 1.8493997349857082e+01 0 0 0
135 1 0.0000000000000000e+00 1.6115154106135311e+01 1.3370932428373177e+01 1.8493997349854883e+01 0 0 0
136 1 0.0000000000000000e+00 2.0108590230957443e+01 1.8733903718291696e+01 1.6666135090206538e+01 -1 0 0
137 1 0.0000000000000000e+00 2.0108590230957450e+01 8.6803865135058378e-01 1.6666135090210755e+01 -1 0 0
138 1 0.0000000000000000e+00 2.0108590230957436e+01 9.8009711848220853e+00 1.6666135090205614e+01 -1 0 0
139 1 0.0000000000000000e+00 4.1348457316676859e+00 1.8733903718291955e+01 1.6666135090207057e+01 0 0 0
140 1 0.0000000000000000e+00 4.1348457316676903e+00 8.6803865135083347e-01 1.6666135090211274e+01 0 0 0
141 1 0.0000000000000000e+00 4.1348457316676877e+00 9.8009711848223446e+00 1.6666135090206126e+01 0 0 0
142 1 0.0000000000000000e+00 8.1282818564902044e+00 1.8733903718292009e+01 1.6666135090206673e+01 0 0 0
143 1 0.0000000000000000e+00 8.1282818564902151e+00 8.6803865135089664e-01 1.6666135090210894e+01 0 0 0
144 1 0.0000000000000000e+00 8.1282818564902275e+00 9.8009711848223944e+00 1.6666135090205746e+01 0 0 0
145 1 0.0000000000000000e+00 1.2121717981312621e+01 1.8733903718292030e+01 1.6666135090206961e+01 0 0 0
146 1 0.0000000000000000e+00 1.2121717981312635e+01 8.6803865135091363e-01 1.6666135090211181e+01 0 0 0
147 1 0.0000000000000000e+00 1.2121717981312635e+01 9.8009711848224388e+00 1.6666135090206037e+01 0 0 0
148 1 0.0000000000000000e+00 1.6115154106135147e+01 1.8733903718291774e+01 1.6666135090206783e+01 0 0 0
149 1 0.0000000000000000e+00 1.6115154106135151e+01 8.6803865135066449e-01 1.6666135090211000e+01 0 0 0
150 1 0.0000000000000000e+00 1.6115154106135147e+01 9.8009711848221706e+00 1.6666135090205859e+01 0 0 0
151 1 0.0000000000000000e+00 2.1381276692563187e+00 2.0517171220429368e+01 1.7558528631666203e+01 0 0 0
152 1 0.0000000000000000e+00 2.1381276692563098e+00 2.6513061534887417e+00 1.7558528631667862e+01 0 0 0
153 1 0.0000000000000000e+00 2.1381276692563191e+00 1.1584238686959226e+01 1.7558528631663965e+01 0 0 0
154 1 0.0000000000000000e+00 6.1315637940787679e+00 2.0517171220429955e+01 1.7558528631666299e+01 0 0 0
155 1 0.0000000000000000e+00 6.1315637940787617e+00 2.6513061534893287e+00 1.7558528631667961e+01 0 0 0
156 1 0.0000000000000000e+00 6.1315637940787591e+00 1.1584238686959814e+01 1.7558528631664071e+01 0 0 0
157 1 0.0000000000000000e+00 1.0124999918901397e+01 2.0517171220430001e+01 1.7558528631665990e+01 0 0 0
158 1 0.0000000000000000e+00 1.0124999918901379e+01 2.6513061534893616e+00 1.7558528631667649e+01 0 0 0
159 1 0.0000000000000000e+00 1.0124999918901386e+01 1.1584238686959830e+01 1.7558528631663759e+01 0 0 0
160 1 0.0000000000000000e+00 1.4118436043723939e+01 2.0517171220429717e+01 1.7558528631666405e+01 0 0 0
161 1 0.0000000000000000e+00 1.4118436043723932e+01 2.6513061534890747e+00 1.7558528631668064e+01 0 0 0
162 1 0.0000000000000000e+00 1.4118436043723925e+01 1.1584238686959548e+01 1.7558528631664171e+01 0 0 0
163 1 0.0000000000000000e+00 1.8111872168546242e+01 2.0517171220429201e+01 1.7558528631666068e+01 0 0 0
164 1 0.0000000000000000e+00 1.8111872168546238e+01 2.6513061534885738e+00 1.7558528631667727e+01 0 0 0
165 1 0.0000000000000000e+00 1.8111872168546231e+01 1.1584238686959049e+01 1.7558528631663830e+01 0 0 0
166 1 0.0000000000000000e+00 2.1381276692563995e+00 2.4085949848581912e+01 1.9405045031460034e+01 0 0 0
167 1 0.0000000000000000e+00 2.1381276692563977e+00 6.2200847816397831e+00 1.9405045031459501e+01 0 0 0
168 1 0.0000000000000000e+00 2.1381276692563933e+00 1.5153017315110414e+01 1.9405045031458645e+01 0 0 0
169 1 0.0000000000000000e+00 6.1315637940789429e+00 2.4085949848582448e+01 1.9405045031459370e+01 0 0 0
170 1 0.0000000000000000e+00 6.1315637940789456e+00 6.2200847816403169e+00 1.9405045031458837e+01 0 0 0
171 1 0.0000000000000000e+00 6.1315637940789500e+00 1.5153017315110938e+01 1.9405045031457984e+01 0 0 0
172 1 0.0000000000000000e+00 1.0124999918901320e+01 2.4085949848582597e+01 1.9405045031459025e+01 0 0 0
173 1 0.0000000000000000e+00 1.0124999918901326e+01 6.2200847816404643e+00 1.9405045031458489e+01 0 0 0
174 1 0.0000000000000000e+00 1.0124999918901322e+01 1.5153017315111102e+01 1.9405045031457639e+01 0 0 0
175 1 0.0000000000000000e+00 1.4118436043723769e+01 2.4085949848582196e+01 1.9405045031459768e+01 0 0 0
176 1 0.0000000000000000e+00 1.4118436043723763e+01 6.2200847816400548e+00 1.9405045031459231e+01 0 0 0
177 1 0.0000000000000000e+00 1.4118436043723761e+01 1.5153017315110691e+01 1.9405045031458382e+01 0 0 0
178 1 0.0000000000000000e+00 1.8111872168546249e+01 2.4085949848581762e+01 1.9405045031460165e+01 0 0 0
179 1 0.0000000000000000e+00 1.8111872168546245e+01 6.2200847816396188e+00 1.9405045031459622e+01 0 0 0
180 1 0.0000000000000000e+00 1.8111872168546252e+01 1.5153017315110255e+01 1.9405045031458776e+01 0 0 0
181 1 0.0000000000000000e+00 2.1381276692563733e+00 2.3200369985027976e+01 1.6666135090209799e+01 0 0 0
182 1 0.0000000000000000e+00 2.1381276692563804e+00 5.3345049180872044e+00 1.6666135090208996e+01 0 0 0
183 1 0.0000000000000000e+00 2.1381276692563782e+00 1.4267437451556564e+01 1.6666135090204840e+01 0 0 0
184 1 0.0000000000000000e+00 6.1315637940788923e+00 2.3200369985028235e+01 1.6666135090209984e+01 0 0 0
185 1 0.0000000000000000e+00 6.1315637940788887e+00 5.3345049180874735e+00 1.6666135090209178e+01 0 0 0
186 1 0.0000000000000000e+00 6.1315637940788914e+00 1.4267437451556827e+01 1.6666135090205028e+01 0 0 0
187 1 0.0000000000000000e+00 1.0124999918901308e+01 2.3200369985028203e+01 1.6666135090209696e+01 0 0 0
188 1 0.0000000000000000e+00 1.0124999918901302e+01 5.3345049180874460e+00 1.6666135090208897e+01 0 0 0
189 1 0.0000000000000000e+00 1.0124999918901299e+01 1.4267437451556805e+01 1.6666135090204726e+01 0 0 0
190 1 0.0000000000000000e+00 1.4118436043723834e+01 2.3200369985028143e+01 1.6666135090210080e+01 0 0 0
191 1 0.0000000000000000e+00 1.4118436043723825e+01 5.3345049180873989e+00 1.6666135090209270e+01 0 0 0
192 1 0.0000000000000000e+00 1.4118436043723834e+01 1.4267437451556754e+01 1.6666135090205103e+01 0 0 0
193 1 0.0000000000000000e+00 1.8111872168546203e+01 2.3200369985027898e+01 1.6666135090209561e+01 0 0 0
194 1 0.0000000000000000e+00 1.8111872168546203e+01 5.3345049180871342e+00 1.6666135090208762e+01 0 0 0
195 1 0.0000000000000000e+00 1.8111872168546203e+01 1.4267437451556493e+01 1.6666135090204591e+01 0 0 0
196 1 0.0000000000000000e+00 2.1381276692562170e+00 1.7837398695108362e+01 1.8493997349855547e+01 0 0 0
197 1 0.0000000000000000e+00 2.1381276692562046e+00 2.6770331228580851e+01 1.8493997349857807e+01 0 0 0
198 1 0.0000000000000000e+00 2.1381276692562095e+00 8.9044661616385667e+00 1.8493997349855817e+01 0 0 0
199 1 0.0000000000000000e+00 6.1315637940787946e+00 1.7837398695108906e+01 1.8493997349854933e+01 0 0 0
200 1 0.0000000000000000e+00 6.1315637940787893e+00 2.6770331228581387e+01 1.8493997349857192e+01 0 0 0
201 1 0.0000000000000000e+00 6.1315637940787866e+00 8.9044661616391014e+00 1.8493997349855206e+01 0 0 0
202 1 0.0000000000000000e+00 1.0124999918901365e+01 1.7837398695109041e+01 1.8493997349854727e+01 0 0 0
203 1 0.0000000000000000e+00 1.0124999918901361e+01 2.6770331228581536e+01 1.8493997349856986e+01 0 0 0
204 1 0.0000000000000000e+00 1.0124999918901356e+01 8.9044661616392560e+00 1.8493997349854997e+01 0 0 0
205 1 0.0000000000000000e+00 1.4118436043723987e+01 1.7837398695108632e+01 1.8493997349855288e+01 0 0 0
206 1 0.0000000000000000e+00 1.4118436043723978e+01 2.6770331228581128e+01 1.8493997349857551e+01 0 0 0
207 1 0.0000000000000000e+00 1.4118436043723984e+01 8.9044661616388527e+00 1.8493997349855558e+01 0 0 0
208 1 0.0000000000000000e+00 1.8111872168546316e+01 1.7837398695108156e+01 1.8493997349855547e+01 0 0 0
209 1 0.0000000000000000e+00 1.8111872168546313e+01 2.6770331228580641e+01 1.8493997349857818e+01 0 0 0
210 1 0.0000000000000000e+00 1.8111872168546316e+01 8.9044661616383678e+00 1.8493997349855817e+01 0 0 0
211 1 0.0000000000000000e+00 2.0108590230957404e+01 1.9619483581845959e+01 1.9405045031459522e+01 -1 0 0
212 1 0.0000000000000000e+00 2.0108590230957404e+01 1.7536185149035981e+00 1.9405045031459977e+01 -1 0 0
213 1 0.0000000000000000e+00 2.0108590230957400e+01 1.0686551048374922e+01 1.9405045031459075e+01 -1 0 0
214 1 0.0000000000000000e+00 4.1348457316677552e+00 1.9619483581846378e+01 1.9405045031459125e+01 0 0 0
215 1 0.0000000000000000e+00 4.1348457316677552e+00 1.7536185149040378e+00 1.9405045031459579e+01 0 0 0
216 1 0.0000000000000000e+00 4.1348457316677534e+00 1.0686551048375357e+01 1.9405045031458677e+01 0 0 0
217 1 0.0000000000000000e+00 8.1282818564901955e+00 1.9619483581846790e+01 1.9405045031458389e+01 0 0 0
218 1 0.0000000000000000e+00 8.1282818564902062e+00 1.7536185149044408e+00 1.9405045031458833e+01 0 0 0
219 1 0.0000000000000000e+00 8.1282818564902062e+00 1.0686551048375762e+01 1.9405045031457938e+01 0 0 0
220 1 0.0000000000000000e+00 1.2121717981312571e+01 1.9619483581846652e+01 1.9405045031458730e+01 0 0 0
221 1 0.0000000000000000e+00 1.2121717981312576e+01 1.7536185149042938e+00 1.9405045031459178e+01 0 0 0
222 1 0.0000000000000000e+00 1.2121717981312573e+01 1.0686551048375620e+01 1.9405045031458275e+01 0 0 0
223 1 0.0000000000000000e+00 1.6115154106135115e+01 1.9619483581846101e+01 1.9405045031459398e+01 0 0 0
224 1 0.0000000000000000e+00 1.6115154106135122e+01 1.7536185149037593e+00 1.9405045031459846e+01 0 0 0
225 1 0.0000000000000000e+00 1.6115154106135122e+01 1.0686551048375081e+01 1.9405045031458940e+01 0 0 0
226 1 0.0000000000000000e+00 2.0108590230957411e+01 2.4983637487165737e+01 1.7558528631667890e+01 -1 0 0
227 1 0.0000000000000000e+00 2.0108590230957400e+01 7.1177724202246146e+00 1.7558528631665844e+01 -1 0 0
228 1 0.0000000000000000e+00 2.0108590230957404e+01 1.6050704953693632e+01 1.7558528631663901e+01 -1 0 0
229 1 0.0000000000000000e+00 4.1348457316675917e+00 2.4983637487166245e+01 1.7558528631668224e+01 0 0 0
230 1 0.0000000000000000e+00 4.1348457316675944e+00 7.1177724202251200e+00 1.7558528631666181e+01 0 0 0
231 1 0.0000000000000000e+00 4.1348457316675900e+00 1.6050704953694144e+01 1.7558528631664235e+01 0 0 0
232 1 0.0000000000000000e+00 8.1282818564901298e+00 2.4983637487166522e+01 1.7558528631667809e+01 0 0 0
233 1 0.0000000000000000e+00 8.1282818564901351e+00 7.1177724202253971e+00 1.7558528631665759e+01 0 0 0
234 1 0.0000000000000000e+00 8.1282818564901351e+00 1.6050704953694417e+01 1.7558528631663819e+01 0 0 0
235 1 0.0000000000000000e+00 1.2121717981312758e+01 2.4983637487166504e+01 1.7558528631668125e+01 0 0 0
236 1 0.0000000000000000e+00 1.2121717981312765e+01 7.1177724202253572e+00 1.7558528631666082e+01 0 0 0
237 1 0.0000000000000000e+00 1.2121717981312756e+01 1.6050704953694400e+01 1.7558528631664135e+01 0 0 0
238 1 0.0000000000000000e+00 1.6115154106135211e+01 2.4983637487165900e+01 1.7558528631668025e+01 0 0 0
239 1 0.0000000000000000e+00 1.6115154106135204e+01 7.1177724202247754e+00 1.7558528631665975e+01 0 0 0
240 1 0.0000000000000000e+00 1.6115154106135201e+01 1.6050704953693813e+01 1.7558528631664029e+01 0 0 0
241 1 0.0000000000000000e+00 2.0108590230957770e+01 2.0507981267010699e+01 2.2167631699089444e+01 -1 0 0
242 1 0.0000000000000000e+00 2.0108590230957770e+01 2.6421162000647902e+00 2.2167631699087611e+01 -1 0 0
243 1 0.0000000000000000e+00 2.0108590230957770e+01 1.1575048733536931e+01 2.2167631699090009e+01 -1 0 0
244 1 0.0000000000000000e+00 4.1348457316688565e+00 2.0507981267010866e+01 2.2167631699089046e+01 0 0 0
245 1 0.0000000000000000e+00 4.1348457316688574e+00 2.6421162000649723e+00 2.2167631699087202e+01 0 0 0
246 1 0.0000000000000000e+00 4.1348457316688458e+00 1.1575048733537121e+01 2.2167631699089601e+01 0 0 0
247 1 0.0000000000000000e+00 8.1282818564905153e+00 2.0507981267011022e+01 2.2167631699088549e+01 0 0 0
248 1 0.0000000000000000e+00 8.1282818564905206e+00 2.6421162000651197e+00 2.2167631699086712e+01 0 0 0
249 1 0.0000000000000000e+00 8.1282818564905224e+00 1.1575048733537262e+01 2.2167631699089114e+01 0 0 0
250 1 0.0000000000000000e+00 1.2121717981311706e+01 2.0507981267010965e+01 2.2167631699088744e+01 0 0 0
251 1 0.0000000000000000e+00 1.2121717981311702e+01 2.6421162000650700e+00 2.2167631699086915e+01 0 0 0
252 1 0.0000000000000000e+00 1.2121717981311704e+01 1.1575048733537212e+01 2.2167631699089316e+01 0 0 0
253 1 0.0000000000000000e+00 1.6115154106134167e+01 2.0507981267010756e+01 2.2167631699089295e+01 0 0 0
254 1 0.0000000000000000e+00 1.6115154106134174e+01 2.6421162000648524e+00 2.2167631699087462e+01 0 0 0
255 1 0.0000000000000000e+00 1.6115154106134174e+01 1.1575048733537011e+01 2.2167631699089853e+01 0 0 0
256 1 0.0000000000000000e+00 2.0108590230957525e+01 1.6935518846573256e+01 2.0325746755601170e+01 -1 0 0
257 1 0.0000000000000000e+00 2.0108590230957521e+01 2.5868451380044274e+01 2.0325746755601028e+01 -1 0 0
258 1 0.0000000000000000e+00 2.0108590230957525e+01 8.0025863131012187e+00 2.0325746755601205e+01 -1 0 0
259 1 0.0000000000000000e+00 4.1348457316681033e+00 1.6935518846573679e+01 2.0325746755600608e+01 0 0 0
260 1 0.0000000000000000e+00 4.1348457316681060e+00 2.5868451380044679e+01 2.0325746755600466e+01 0 0 0
261 1 0.0000000000000000e+00 4.1348457316681078e+00 8.0025863131016273e+00 2.0325746755600644e+01 0 0 0
262 1 0.0000000000000000e+00 8.1282818564902986e+00 1.6935518846574009e+01 2.0325746755599855e+01 0 0 0
263 1 0.0000000000000000e+00 8.1282818564902968e+00 2.5868451380045020e+01 2.0325746755599710e+01 0 0 0
264 1 0.0000000000000000e+00 8.1282818564902968e+00 8.0025863131019630e+00 2.0325746755599898e+01 0 0 0
265 1 0.0000000000000000e+00 1.2121717981312292e+01 1.6935518846573899e+01 2.0325746755600193e+01 0 0 0
266 1 0.0000000000000000e+00 1.2121717981312303e+01 2.5868451380044910e+01 2.0325746755600051e+01 0 0 0
267 1 0.0000000000000000e+00 1.2121717981312296e+01 8.0025863131018529e+00 2.0325746755600239e+01 0 0 0
268 1 0.0000000000000000e+00 1.6115154106134810e+01 1.6935518846573416e+01 2.0325746755600928e+01 0 0 0
269 1 0.0000000000000000e+00 1.6115154106134810e+01 2.5868451380044423e+01 2.0325746755600786e+01 0 0 0
270 1 0.0000000000000000e+00 1.6115154106134810e+01 8.0025863131013661e+00 2.0325746755600974e+01 0 0 0
271 1 0.0000000000000000e+00 2.1381276692570510e+00 1.8722989257711721e+01 2.1250428986438049e+01 0 0 0
272 1 0.0000000000000000e+00 2.1381276692570359e+00 8.5712419076718738e-01 2.1250428986436706e+01 0 0 0
273 1 0.0000000000000000e+00 2.1381276692570368e+00 9.7900567242383367e+00 2.1250428986438070e+01 0 0 0
274 1 0.0000000000000000e+00 6.1315637940795549e+00 1.8722989257712033e+01 2.1250428986437203e+01 0 0 0
275 1 0.0000000000000000e+00 6.1315637940795549e+00 8.5712419076748836e-01 2.1250428986435864e+01 0 0 0
276 1 0.0000000000000000e+00 6.1315637940795549e+00 9.7900567242386263e+00 2.1250428986437232e+01 0 0 0
277 1 0.0000000000000000e+00 1.0124999918901093e+01 1.8722989257712140e+01 2.1250428986436955e+01 0 0 0
278 1 0.0000000000000000e+00 1.0124999918901089e+01 8.5712419076760127e-01 2.1250428986435608e+01 0 0 0
279 1 0.0000000000000000e+00 1.0124999918901089e+01 9.7900567242387364e+00 2.1250428986436980e+01 0 0 0
280 1 0.0000000000000000e+00 1.4118436043723030e+01 1.8722989257711887e+01 2.1250428986437630e+01 0 0 0
281 1 0.0000000000000000e+00 1.4118436043723026e+01 8.5712419076733715e-01 2.1250428986436290e+01 0 0 0
282 1 0.0000000000000000e+00 1.4118436043723021e+01 9.7900567242384771e+00 2.1250428986437662e+01 0 0 0
283 1 0.0000000000000000e+00 1.8111872168545993e+01 1.8722989257711617e+01 2.1250428986438237e+01 0 0 0
284 1 0.0000000000000000e+00 1.8111872168545993e+01 8.5712419076707824e-01 2.1250428986436894e+01 0 0 0
285 1 0.0000000000000000e+00 1.8111872168545997e+01 9.7900567242382213e+00 2.1250428986438262e+01 0 0 0