LAMMPS (13 Jan 2016)
include /users/knc6/inelast.mod
# Compute elastic constant tensor for a crystal
#
# Written by Aidan Thompson (Sandia, athomps@sandia.gov)
#
#  This script uses the following three include files.
#
#   init.mod      (must be modified for different crystal structures)
# 	       	  Define units, deformation parameters and initial
#		  configuration of the atoms and simulation cell.
#
#
#   potential.mod    (must be modified for different pair styles)
# 		     Define pair style and other attributes
#		     not stored in restart file
#
#
#   displace.mod    (displace.mod should not need to be modified)
# 		    Perform positive and negative box displacements
# 		    in direction ${dir} and size ${up}.
# 		    It uses the resultant changes
#		    in stress to compute one
# 		    row of the elastic stiffness tensor
#
#		    Inputs variables:
#		    	   dir = the Voigt deformation component
#		    		    (1,2,3,4,5,6)
#		    Global constants:
#       	    	   up = the deformation magnitude (strain units)
#       		   cfac = conversion from LAMMPS pressure units to
#               	   output units for elastic constants
#
#
#  To run this on a different system, it should only be necessary to
#  modify the files init.mod and potential.mod. In order to calculate
#  the elastic constants correctly, care must be taken to specify
#  the correct units in init.mod (units, cfac and cunits). It is also
#  important to verify that the minimization of energy w.r.t atom
#  positions in the deformed cell is fully converged.
#  One indication of this is that the elastic constants are insensitive
#  to the choice of the variable ${up} in init.mod. Another is to check
#  the final max and two-norm forces reported in the log file. If you know
#  that minimization is not required, you can set maxiter = 0.0 in
#  init.mod.
#
#  There are two alternate versions of displace.mod provided.
#  They are displace_restart.mod and displace_reverse.mod.
#  The former resets the box using a restart file while
#  the latter reverses the deformation. Copy whichever
#  one you like best to displace.mod.
#

include init.mod
variable dump_file string "None"
variable up  equal 1.0e-6
variable cfac  equal 1.0e-4
variable cunits  string GPa
variable etol  equal 0
variable ftol  equal 1.0e-10
variable maxiter equal 1000
variable maxeval equal 10000
variable dmax equal 1.0e-2
variable data_file string "data"
units metal
atom_style charge
boundary p p p
atom_modify sort 0 0.0

read_data data
  triclinic box = (0 0 0) to (20.25 27.1682 47.0916) with tilt (0 0 0)
  1 by 1 by 1 MPI processor grid
  reading atoms ...
  720 atoms

### interactions
mass 1 26.98154
include potential.mod
pair_style eam/alloy
pair_coeff * * /users/knc6/Software/jarvis/jarvis/lammps/examples/Al03.eam.alloy  Al
neighbor 1.0 nsq
neigh_modify once no every 1 delay 0 check yes
min_style  cg
min_modify           dmax ${dmax} line quadratic
min_modify           dmax 0.01 line quadratic
thermo          1
thermo_style custom step temp press cpu pxx pyy pzz pxy pxz pyz ke pe etotal vol lx ly lz atoms
thermo_modify norm no
#fix 3 all nph aniso 0.0 0.0 1.0
#fix langevin all langevin 0.0 0.0 1.0 12233

#fix 3 all box/relax tri 0.0 vmax 0.001
fix            3 all box/relax aniso 0.0 vmax 0.001
#fix 3 all box/relax  aniso 0.0
#dump            2a all cfg 100 *.cfg mass type xs ys zs  vx vy vz fx fy fz
#dump_modify     2a element  Mo S

#fix 1a all qeq/comb 1 0.0001 file fq.out
#fix             2 all qeq/reax 1 0.0 10.0 1e-6 /scratch/lfs/kamal/JARVIS/All2/ReaxFF/param.qeq
minimize ${etol} ${ftol} ${maxiter} ${maxeval}
minimize 0 ${ftol} ${maxiter} ${maxeval}
minimize 0 1e-10 ${maxiter} ${maxeval}
minimize 0 1e-10 1000 ${maxeval}
minimize 0 1e-10 1000 10000
Neighbor list info ...
  1 neighbor list requests
  update every 1 steps, delay 0 steps, check yes
  max neighbors/atom: 2000, page size: 100000
  master list distance cutoff = 7.72488
  ghost atom cutoff = 7.72488
Memory usage per processor = 3.35553 Mbytes
Step Temp Press CPU Pxx Pyy Pzz Pxy Pxz Pyz KinEng PotEng TotEng Volume Lx Ly Lz Atoms 
       0            0   -12287.576            0   -13734.812   -13359.397    -9768.519 -7.4408069e-13 -6.9503315e-12    106.94145            0   -2356.0758   -2356.0758    25907.748        20.25    27.168226    47.091591      720 
       1            0   -11401.475 0.0025038719   -12801.466   -12449.345   -8953.6139 -5.2320351e-13 1.6548032e-12    114.47433            0   -2356.6007   -2356.6007    25838.276     20.22975      27.1418    47.058099      720 
       2            0   -10507.339 0.0050208569   -11858.226   -11529.251   -8134.5388 -2.6592648e-12 7.7543196e-12     121.8601            0   -2357.0841   -2357.0841    25769.242      20.2095     27.11538    47.025171      720 
       3            0    -9605.688 0.0075519085   -10905.479    -10599.45   -7312.1352 2.1541959e-13 -3.2248054e-12    129.07092            0   -2357.5259   -2357.5259    25700.688     20.18925    27.088967    46.992886      720 
       4            0   -8697.2255  0.010078907   -9943.7482   -9660.4271   -6487.5014 7.8285989e-12 -4.218769e-12     136.0651            0   -2357.9262   -2357.9262    25632.665       20.169    27.062563     46.96134      720 
       5            0   -7783.0217  0.012614012   -8973.9053   -8712.9708   -5662.1889 4.9043649e-12 8.651999e-12    142.81858            0   -2358.2848   -2358.2848    25565.242     20.14875    27.036172    46.930654      720 
       6            0   -6864.4418  0.015141964   -7997.0237   -7758.1076   -4838.1941 -2.3979966e-12 -2.9926997e-12    149.26354            0    -2358.602    -2358.602    25498.506      20.1285    27.009797    46.900989      720 
       7            0    -5943.255  0.017681837   -7014.5038    -6797.151   -4018.1102 -3.8502384e-12 -3.3632759e-12    155.34041            0   -2358.8779   -2358.8779    25432.573     20.10825    26.983445    46.872554      720 
       8            0   -5021.8222  0.020220995   -6028.2052    -5831.892   -3205.3693 -2.4892556e-13 -1.1718784e-11    160.97069            0   -2359.1128   -2359.1128    25367.604       20.088    26.957124    46.845642      720 
       9            0   -4103.7721  0.022757053   -5041.0339   -4865.0924     -2405.19 -7.4057457e-12 3.2020096e-12    166.03216            0   -2359.3075   -2359.3075    25303.834     20.06775    26.930847    46.820672      720 
      10            0   -3194.5924  0.025301933   -4057.3945   -3901.0021   -1625.3806 3.1588115e-12 -1.7628917e-11    170.39015            0   -2359.4627   -2359.4627    25241.617      20.0475    26.904634    46.798277      720 
      11            0   -2303.1956  0.027844906   -3084.4011   -2946.5971   -878.58861 5.0682775e-13 4.0307817e-12     173.7912            0   -2359.5801   -2359.5801    25181.529     20.02725    26.878521    46.779484      720 
      12            0   -1445.1761  0.030388832   -2134.5258   -2014.0579   -186.94462 3.6204349e-12 5.8408386e-12    175.86199            0   -2359.6619   -2359.6619     25124.61       20.007    26.852575    46.766129      720 
      13            0   -653.24927  0.032938957   -1233.9599   -1129.2606    403.47267 1.8622719e-13 -5.3846263e-12    175.84223            0   -2359.7125   -2359.7125    25073.029     19.98675     26.82695    46.762026      720 
      14            0   -14.341191  0.042606831   -452.32726   -361.60599    770.90967 1.4030948e-12 3.3180865e-12    171.96824            0   -2359.7405   -2359.7405    25032.612      19.9665    26.802098    46.777331      720 
      15            0    45.180785  0.045174837   -243.17816   -161.98167    540.70219 -3.5210237e-12 6.0411087e-12     163.2355            0   -2359.7574   -2359.7574    25030.801     19.95453    26.789266    46.824422      720 
      16            0   -15.389917  0.047737837   -167.48921   -106.07938    227.39883 -2.5777097e-12 1.9362046e-11    155.89045            0   -2359.7675   -2359.7675    25036.763     19.94534    26.781059    46.871514      720 
      17            0     110.5581  0.050307035    137.40382    144.36533    49.905163 6.2886116e-12 -1.4178578e-11    150.28211            0   -2359.7743   -2359.7743    25031.012    19.930268    26.768262    46.918605      720 
      18            0   -292.11235   0.05540204   -243.77824   -261.61425   -370.94457 4.1055578e-13 1.2954995e-13    148.24283            0   -2359.7777   -2359.7777    25057.988    19.934652     26.77735    46.942904      720 
      19            0   -681.43881  0.057971001   -463.86243    -687.8349   -892.61911 -4.6359762e-12 -3.9538468e-12    149.29375            0   -2359.8149   -2359.8149    25086.668    19.928285    26.789687    46.989996      720 
      20            0    472.32455  0.060557842    738.16839    482.12697    196.67828 -1.0958466e-11 -8.945278e-13    154.50791            0   -2359.8488   -2359.8488    25011.668    19.908035    26.763548    46.942969      720 
      21            0    832.75311  0.063133955    941.55561     828.8996    727.80411 -4.6645348e-12 5.5396703e-12    154.35099            0    -2359.887    -2359.887    24987.893    19.914251    26.756604    46.895878      720 
      22            0    59.380929  0.065711975    45.287607    30.525042    102.33014 -5.3137357e-12 1.1427593e-11    149.60612            0   -2359.9188   -2359.9188    25037.996    19.934501    26.775075     46.90979      720 
      23            0   -350.38955  0.070802927   -360.91281   -334.99973   -355.25612 -5.2870765e-12 7.3507017e-12    144.16949            0   -2359.9225   -2359.9225     25065.68    19.940182    26.780205    46.939285      720 
      24            0   -240.18953  0.073386908    -155.0682    -25.87553   -539.62487 4.153703e-12 -3.9366163e-12    132.83113            0   -2359.9483   -2359.9483    25061.622    19.931162     26.76114    46.986377      720 
      25            0    268.96271  0.078493834    344.74383    383.54264    78.601675 9.2229052e-12 6.5961819e-12    141.67001            0   -2359.9545   -2359.9545    25027.214    19.924674    26.758713    46.941401      720 
      26            0    163.78616  0.081071854    156.33887    55.382819    279.63678 8.1746655e-13 -7.2669862e-13    154.33963            0   -2359.9625   -2359.9625    25032.022     19.93281    26.779795    46.894309      720 
      27            0   -162.67343  0.086174011   -184.40687   -223.72424   -79.889185 -4.7418874e-12 3.0780945e-12    149.04544            0   -2359.9648   -2359.9648    25053.863    19.938532    26.782795    46.916502      720 
      28            0   -55.789714  0.089210033   -52.744001    162.84091   -277.46606 -1.3311162e-12 -3.5563005e-12    131.81025            0    -2359.974    -2359.974    25049.398    19.934459    26.756637    46.963593      720 
      29            0    405.78312  0.091827869    468.68152    418.81356    329.85426 5.6102743e-12 2.2170479e-12    147.92566            0   -2359.9888   -2359.9888    25018.473    19.923971    26.764509    46.916502      720 
      30            0   -25.150684  0.094409943    27.291018   -219.94519    117.20212 -4.0566145e-12 4.3800917e-12    158.16938            0   -2360.0062   -2360.0062    25045.836      19.9316    26.791677    46.902229      720 
      31            0   -114.93132  0.096994877    -216.9254    24.806964   -152.67553 -4.3441419e-12 -1.030928e-12    133.94449            0   -2360.0287   -2360.0287    25053.488    19.943296    26.764509    46.936639      720 
      32            0    594.92696   0.10210896    611.98594    687.13198    485.66297 1.0372111e-11 4.104545e-12    142.08868            0   -2360.0394   -2360.0394    25007.969     19.92446     26.75375    46.914511      720 
      33            0    1131.0003   0.10469794    1328.0131    1092.0915    972.89642 -6.3004246e-12 5.8302951e-12    154.82491            0   -2360.0507   -2360.0507    24974.596     19.90421    26.754087    46.898978      720 
      34            0    705.48439   0.10729694    1062.8829    463.06781    590.50243 1.1268443e-12 5.5616923e-12    165.83849            0   -2360.1071   -2360.1071    25003.889    19.899479    26.781255    46.917507      720 
      35            0   -68.491843   0.10987687    161.23486    -256.8591   -109.85129 2.0802179e-12 8.049751e-12    156.48998            0   -2360.1204   -2360.1204    25054.133    19.919729    26.793055    46.943312      720 
      36            0    26.541306   0.11245894    -52.57114    111.94566    20.249398 3.5466887e-12 -2.3443377e-12    136.29759            0   -2360.1268   -2360.1268    25047.148    19.939979    26.766519    46.929042      720 
      37            0   -618.63224     0.115031   -775.81396   -687.51581   -392.56694 -8.14639e-12 -6.9907067e-12    140.88044            0   -2360.1528   -2360.1528    25089.395    19.955697    26.793688    46.923543      720 
      38            0    97.764771   0.11761189     -14.8252   -95.235459    403.35497 -8.6524561e-12 -5.2199406e-12    153.22067            0   -2360.2063   -2360.2063    25043.035    19.942304    26.789025    46.876452      720 
      39            0   -21.267233   0.12019491   -48.200846   -68.039504     52.43865 2.0995959e-12 -2.3883652e-12    143.01747            0   -2360.2266   -2360.2266    25053.231     19.93756    26.779406    46.923543      720 
      40            0     387.6236     0.125314    467.06609     556.4394    139.36533 -1.0714319e-11 -2.1448071e-12    132.25341            0   -2360.2339   -2360.2339    25029.206    19.923367    26.752556    46.959025      720 
      41            0    84.261405   0.12790298    215.93248    376.11407   -339.26234 -4.2891816e-12 -1.3525456e-12    123.16873            0   -2360.2455   -2360.2455    25051.171    19.923703    26.748757    47.006116      720 
      42            0   -258.04876   0.13048196   -211.52028   -200.50582    -362.1202 7.4367073e-12 -5.5963761e-12    134.94542            0    -2360.255    -2360.255    25071.417    19.935539    26.775925    46.968469      720 
      43            0    135.01674     0.135602    146.91341    78.041417     180.0954 -3.0454737e-12 -7.5884647e-12    144.33457            0   -2360.2595   -2360.2595    25044.331    19.932595    26.777139    46.922531      720 
      44            0    39.424302   0.13818097   -88.152434   -179.50855    385.93389 7.2935461e-12 1.2969781e-12     153.3221            0   -2360.2665   -2360.2665    25048.708    19.944509    26.792709     46.87544      720 
      45            0   -261.21984   0.14075804   -391.75092   -295.19024   -96.718358 5.5166383e-12 4.5415097e-12    138.55177            0   -2360.2884   -2360.2884    25070.554    19.948777    26.783431    46.922531      720 
      46            0    319.99814   0.14587998    289.37324    381.54461    289.07658 -1.7954785e-11 -2.4731377e-12    136.55451            0   -2360.2965   -2360.2965    25033.958    19.932777     26.76302    46.927411      720 
      47            0    652.24982   0.14846802    831.15198    854.53012    271.06736 -7.7010675e-12 4.8396584e-12    131.12547            0   -2360.3044   -2360.3044    25015.765    19.912527     26.74468    46.973184      720 
      48            0    240.83856   0.15105486     518.4902    482.10482   -278.07933 -5.4579141e-12 -2.6430902e-12    127.58433            0   -2360.3217   -2360.3217    25044.692    19.911267    26.750483    47.020276      720 
      49            0   -307.97884   0.15618706   -178.76218   -213.05564    -532.1187 -7.7643965e-13 8.4234726e-12    131.71574            0   -2360.3308   -2360.3308    25078.586    19.930417     26.77434    46.996755      720 
      50            0    -93.11135   0.15876698   -65.416805   -100.11413   -113.80311 -1.5803691e-12 6.6020413e-12     138.3333            0    -2360.337    -2360.337    25062.676    19.934922    26.778141    46.949663      720 
      51            0    185.84218   0.16388988     204.5968    191.01623    161.91352 -7.6581123e-12 -4.0651868e-12    139.12391            0   -2360.3386   -2360.3386    25044.299     19.93146     26.77104    46.935833      720 
      52            0    133.97272   0.16646504   -116.74858    172.12906    346.53769 3.1495476e-12 2.5412321e-12    134.03021            0   -2360.3673   -2360.3673    25046.712     19.95171    26.768598    46.896992      720 
      53            0   -348.31521   0.16904902   -434.35055    -356.7234   -253.87169 -6.8190403e-12 -9.9515978e-12    135.08619            0   -2360.3757   -2360.3757    25080.083    19.947071    26.783602    46.944084      720 
      54            0   -223.08489   0.17164683   -53.728168   -266.00394   -349.52257 5.8003677e-12 7.9456469e-12     140.3701            0    -2360.386    -2360.386    25074.225    19.926821    26.784696    46.978895      720 
      55            0    124.59779   0.17677498    243.96558    108.62612    21.201684 -4.164127e-12 1.0581037e-12    140.17079            0   -2360.3887   -2360.3887    25050.947    19.925311     26.77469    46.956376      720 
      56            0    17.473191   0.17936087   -123.04846    53.382806    122.08523 1.497748e-12 -3.5303704e-12    133.75601            0   -2360.3941   -2360.3941    25056.248    19.945561    26.771754    46.923776      720 
      57            0   -451.30475   0.18193984   -356.12978   -540.84338   -456.94108 -5.0688064e-12 4.1044958e-12    140.65556            0   -2360.4147   -2360.4147    25089.526    19.935777    26.793577    46.970868      720 
      58            0    107.55085   0.18453097    371.69667   -8.5205342   -40.523578 6.9598321e-12 -6.7287621e-12    147.06275            0   -2360.4363   -2360.4363    25054.536    19.915527    26.784309    46.969301      720 
      59            0    20.267258   0.18711185    17.486144    73.578478   -30.262849 -1.1539787e-12 -2.4754257e-13    132.53647            0   -2360.4696   -2360.4696    25060.221    19.935777    26.770933    46.955689      720 
      60            0   -317.81055   0.18969584   -309.85403   -493.93556   -149.64205 -7.4141079e-12 8.4729179e-12    145.41385            0   -2360.4766   -2360.4766    25081.486    19.940594    26.798102    46.936548      720 
      61            0    196.88527   0.19228601    244.77266   -149.85361    495.73674 -4.820933e-12 1.915679e-12     160.1808            0   -2360.4905   -2360.4905    25047.207    19.930647    26.801723    46.889456      720 
      62            0   -43.268519   0.19486284   -100.56968   -88.934042    59.698167 -3.8519057e-12 -1.1682286e-12     137.1418            0   -2360.5474   -2360.5474    25066.201    19.941211    26.780942    46.936548      720 
      63            0    278.07011   0.19999099    317.64038    323.21497    193.35498 3.7534303e-13 3.0715432e-13    133.80345            0   -2360.5507   -2360.5507    25046.674    19.929282    26.766544    46.953298      720 
      64            0    86.023463   0.20257783    232.56221    230.92725   -205.41907 -2.233038e-12 2.3034043e-13    127.12533            0   -2360.5579   -2360.5579    25061.492    19.924096     26.76251     47.00039      720 
      65            0   -324.48858   0.20770001   -291.40035   -313.51129   -368.55408 -7.2709398e-12 1.2309158e-11    132.12907            0   -2360.5635   -2360.5635    25086.834    19.938702    26.782532    46.978303      720 
      66            0   -124.27383   0.21027994    -186.6227   -228.07666    41.877869 1.2284122e-11 2.0234184e-12     140.1766            0   -2360.5695   -2360.5695    25072.011    19.943007    26.787782    46.931212      720 
      67            0    160.50871   0.21540904    136.98791    122.61584     221.9224 8.9079672e-13 8.1338726e-12    137.84819            0   -2360.5715   -2360.5715    25054.027    19.935854    26.776068      46.9349      720 
      68            0    6.9324007   0.21799183    51.447975    124.11169   -154.76247 -2.1458567e-12 8.3316186e-12    127.14239            0   -2360.5764   -2360.5764    25066.183    19.932783    26.766331    46.981992      720 
      69            0   -356.04407   0.22057796   -343.91606   -463.70817   -260.50798 -8.019257e-12 8.252392e-12    139.16175            0   -2360.5897   -2360.5897    25088.925    19.941108    26.793499    46.957325      720 
      70            0    177.96954   0.22316003    183.60797   -43.118837    393.41949 -3.0590914e-12 3.3093656e-12    150.02441            0   -2360.6042   -2360.6042    25053.227    19.934098    26.791652    46.910233      720 
      71            0    102.60624   0.22574401   -131.67844    212.84407    226.65309 1.5618937e-12 7.7370519e-12    124.66884            0   -2360.6929   -2360.6929    25061.967    19.952066    26.764484    46.931928      720 
      72            0   -382.59561   0.22833395   -372.61125   -407.84517    -367.3304 -1.5629991e-12 6.842288e-12    132.28984            0   -2360.7018   -2360.7018    25095.811    19.941887    26.787429     46.97902      720 
      73            0   -336.61473   0.23092198   -52.496461   -481.27008   -476.07765 -1.4803238e-12 7.2371511e-12    142.62683            0   -2360.7092   -2360.7092    25094.892    19.921637    26.797652    47.007113      720 
      74            0    174.99023   0.23605895    417.04049      83.4444    24.485806 -2.6782451e-12 4.7018314e-12    141.89014            0   -2360.7147   -2360.7147    25061.003    19.917163    26.781824    46.981924      720 
      75            0    139.71342   0.23864293    104.46572    181.42142    133.25313 4.561204e-12 -4.9283338e-12    130.60905            0   -2360.7221   -2360.7221    25061.932    19.937413    26.770296    46.956158      720 
      76            0   -103.53319   0.24376488   -132.87431   -87.308468   -90.416786 2.3537588e-12 -3.516674e-12    130.81555            0   -2360.7234   -2360.7234    25077.964    19.940619    26.777759    46.965548      720 
      77            0   -58.739796   0.24635386    192.70902   -300.13738   -68.791034 9.6508626e-13 4.8568527e-12    149.93752            0   -2360.7404   -2360.7404     25076.56    19.920369    26.799963    46.971712      720 
      78            0    254.16192     0.248945    311.03111     242.9542    208.50046 1.1873312e-12 4.189602e-12    135.25432            0   -2360.7537   -2360.7537    25056.178    19.929363    26.772795    46.959958      720 
      79            0   -208.58305   0.25153589   -342.40601    -75.98181   -207.36132 6.4274718e-13 1.0693877e-11    121.19024            0   -2360.7622   -2360.7622    25086.538    19.949613     26.76988    46.974248      720 
      80            0   -364.22409   0.25411892    -750.7326   -35.357107   -306.58256 -1.1623203e-11 -9.1728909e-13    104.69418            0   -2360.7768   -2360.7768    25097.014    19.969863     26.75571    46.971074      720 
      81            0    704.33892   0.25670886    360.08946    1024.3361    728.59125 -1.1863979e-11 2.9134824e-12    112.23897            0   -2360.8014   -2360.8014    25027.982    19.951119    26.733987    46.923982      720 
      82            0    1228.7277   0.25929785    1070.8256    1335.4156    1279.9418 5.6311424e-12 -1.3799879e-11    131.47679            0   -2360.8392   -2360.8392    24996.091    19.930869     26.74174    46.898204      720 
      83            0    522.52526   0.26188087    439.48045    491.25319    636.84215 -5.1944621e-12 7.3280377e-12    136.69869            0   -2360.8888   -2360.8888    25043.074    19.936246    26.768908    46.926006      720 
      84            0   -37.468273   0.26700091   -122.27304   -73.361508     83.22973 -6.2570841e-12 8.3268948e-12     133.2571            0   -2360.8952   -2360.8952    25080.069    19.944584    26.781402    46.953766      720 
      85            0   -7.9692482   0.26959085    89.502864    43.486959   -156.89757 -2.2700582e-12 2.0456566e-12    128.77308            0   -2360.8997   -2360.8997    25080.696    19.930717    26.773854    47.000858      720 
      86            0    194.62194   0.27217889    213.95025    101.89644    268.01914 1.2588819e-12 -1.0159534e-12    139.06795            0    -2360.937    -2360.937    25067.124    19.934004    26.781785    46.953766      720 
      87            0   -348.40494   0.27729893   -384.10009   -404.99227   -256.12247 -2.0274286e-12 -1.125648e-12    132.69354            0   -2360.9431   -2360.9431    25103.301     19.94588     26.79033    46.978545      720 
      88            0   -782.72565   0.28241682   -884.49611   -738.60644   -725.07439 -1.5068328e-11 1.7705653e-12     122.5989            0   -2360.9475   -2360.9475    25133.162    19.956897    26.790938    47.007396      720 
      89            0   -633.84347   0.28500795   -817.78676   -313.32263   -770.42103 -6.3323918e-12 -3.3717449e-12    104.16335            0   -2360.9865   -2360.9865    25126.347     19.96012    26.763769    47.034759      720 
      90            0     78.33006   0.29014397   -22.247768    322.09243   -64.854483 -5.4175733e-12 9.7612735e-12    114.43399            0   -2360.9974   -2360.9974    25079.071     19.94379     26.75537    46.999451      720 
      91            0    6.5163463   0.29273105    33.773518    -43.71327    29.488791 -1.8161091e-13 9.9104818e-12    134.84464            0   -2361.0018   -2361.0018    25082.894    19.936378    26.782538    46.976391      720 
      92            0   -495.46776   0.29531503   -648.72305   -389.48173    -448.1985 -8.4840914e-12 -2.0694444e-12    119.81775            0     -2361.03     -2361.03    25117.412    19.956628    26.779551    46.998549      720 
      93            0    390.06478   0.29789996    229.94786    592.52256    347.72392 -2.5226788e-12 -1.7557219e-12    118.85536            0    -2361.062    -2361.062    25060.702    19.944013    26.752383    46.969747      720 
      94            0    813.13403   0.30049992    865.43735    853.36926    720.59548 1.4911363e-12 -1.9669081e-12    134.47775            0   -2361.1966   -2361.1966    25040.603    19.923763    26.758565    46.968921      720 
      95            0   -122.84276   0.30308604   -75.130291   -162.66387   -130.73411 -3.4199601e-12 -7.6018551e-12    134.03819            0    -2361.245    -2361.245    25103.685    19.938067    26.785734     47.00574      720 
      96            0    -225.5697   0.30567098   -425.35867   -169.01234   -82.338082 1.9409425e-12 -6.2541482e-12    127.46231            0   -2361.4083   -2361.4083     25117.84    19.958317    26.779771    46.994985      720 
      97            0    495.18639   0.30826283     432.2883    538.00639    515.26448 8.2144065e-12 -1.7625222e-12    134.28518            0   -2361.4347   -2361.4347    25072.818    19.938067    26.766028    46.982505      720 
      98            0     994.6714   0.31085587    1117.6847    993.78606    872.54344 -6.7247514e-12 -7.8735564e-12    141.96879            0   -2361.4593   -2361.4593    25043.648    19.917817    26.759898    46.986318      720 
      99            0    980.28791   0.31346202    1397.9211    868.47119    674.47146 -1.3824621e-11 -2.2908177e-12    152.16269            0   -2361.5298   -2361.5298    25051.173    19.897567    26.771066    47.028643      720 
     100            0    121.70057   0.31605983    428.35108    10.578055   -73.827419 2.3553448e-12 -1.4777223e-12    146.06249            0    -2361.555    -2361.555    25107.098    19.917817    26.789158    47.053911      720 
     101            0   -202.07855   0.32119489   -90.560834   -246.16847   -269.50634 5.4175711e-12 -8.6608799e-12    138.43196            0   -2361.5586   -2361.5586    25127.305    19.936513    26.789776    47.046535      720 
     102            0    19.020934   0.32632685   -45.276666    59.331196    43.008271 -1.9083906e-12 -1.1763899e-11    133.49211            0   -2361.5611   -2361.5611    25111.553    19.945896     26.77718    47.017028      720 
     103            0    36.246535   0.32891893    29.048519   -238.47689    318.16797 -2.5496388e-13 -3.6323636e-12    156.74838            0   -2361.5843   -2361.5843      25110.2    19.942566    26.804349    46.974685      720 
     104            0   -85.188669   0.33150983   -92.270269   -129.25523   -34.040506 -3.9503039e-12 3.1096148e-12    139.73043            0   -2361.6002   -2361.6002    25120.776    19.943798    26.787128    47.021777      720 
     105            0    120.01757   0.33664703    123.53779    114.25413    122.26079 -1.4065551e-11 -6.1182242e-12     138.5252            0   -2361.6012   -2361.6012     25107.57    19.939951    26.779431    47.019636      720 
     106            0    272.47214   0.33923984    285.34512    546.40633   -14.335043 -4.4327863e-12 -5.4552515e-12    120.10973            0   -2361.6072   -2361.6072    25100.476    19.936348    26.752263     47.06259      720 
     107            0   -341.77893   0.34437585   -345.70289   -6.0338054    -673.6001 -4.0684219e-12 -1.3194183e-11    112.08394            0   -2361.6154   -2361.6154    25142.569    19.946374     26.76004    47.104124      720 
     108            0   -586.86985   0.34696388   -521.47093   -498.97009   -740.16852 -3.6836575e-12 -5.7002963e-12    128.96387            0   -2361.6595   -2361.6595    25160.434    19.945965    26.787208    47.090753      720 
     109            0     240.8541   0.34956384    335.36309    276.56079    110.63841 -9.1830993e-13 -9.6890277e-12    138.50993            0   -2361.6741   -2361.6741    25105.433    19.932096    26.774023    47.043662      720 
     110            0    459.21677   0.35215592     475.5471    366.17039    535.93282 3.1354892e-12 1.0667642e-13    149.40376            0   -2361.6822   -2361.6822    25089.873     19.93509    26.780218     46.99657      720 
     111            0   -216.06578   0.35728502    -301.9264   -377.76377    31.492834 8.3101869e-13 -1.0578984e-11    149.54674            0   -2361.6923   -2361.6923    25133.838    19.952584    26.800522    47.002007      720 
     112            0   -781.82489   0.35987782   -1033.4108   -747.21272   -564.85116 -4.0177808e-12 -4.7069478e-12    132.19399            0   -2361.7198   -2361.7198    25174.295    19.972834    26.795555     47.03865      720 
     113            0   -119.22607   0.36247087   -364.83405    66.341473   -59.185618 -1.1218333e-12 -6.9436552e-13    126.97657            0    -2361.759    -2361.759     25132.92    19.962461    26.768387    47.033432      720 
     114            0    160.52817   0.36761284    63.991562    240.11826    177.47469 -1.6519461e-12 -1.8384713e-12    136.93637            0   -2361.7615   -2361.7615    25114.922    19.947814    26.771962    47.027978      720 
     115            0   -17.212981    0.3727529    36.489197   -76.402763   -11.725376 3.925122e-12 -5.3189241e-12    145.82936            0   -2361.7633   -2361.7633    25127.223     19.93984    26.788223    47.041257      720 
     116            0   -3.3660212   0.37534785    142.47719    103.20498   -255.78023 -5.3293525e-12 -6.5607004e-13    135.17375            0   -2361.7806   -2361.7806    25129.946    19.932614    26.774035    47.088349      720 
     117            0   -43.559214   0.37793684   -64.822699   -46.348757   -19.506185 -6.9197737e-12 -1.9470279e-12    142.42477            0   -2361.7931   -2361.7931    25130.693    19.945815    26.783896    47.041257      720 
     118            0    246.71486    0.3830719    245.86165    239.76833    254.51459 -1.7347006e-11 -7.4651684e-12      144.966            0   -2361.7949   -2361.7949    25111.724    19.940169    26.778082    47.029267      720 
     119            0    697.30654   0.38821888    749.70114    658.46101    683.75746 4.0412372e-12 -3.2098093e-12    151.03873            0   -2361.7992   -2361.7992    25083.024    19.930036    26.771404    47.011128      720 
     120            0    616.67086   0.39081502    859.49375    297.38443    693.13439 -1.4972611e-12 6.7193453e-13    174.16885            0   -2361.8948   -2361.8948    25095.026    19.919153    26.798572    47.011611      720 
     121            0   -72.449659     0.395962    69.771853   -312.74351    25.622679 6.1444823e-12 2.2014227e-12    163.31594            0   -2361.9049   -2361.9049    25140.497    19.936112    26.806422    47.042949      720 
     122            0     3.069963   0.40109396   -19.940191    42.630627   -13.480546 1.0602143e-12 2.5932322e-12    143.81434            0   -2361.9081   -2361.9081    25136.083    19.946304    26.780056    47.056943      720 
     123            0   -269.07799   0.40368605   -492.78986   -237.42519   -77.018929 -3.3566217e-12 -1.0283206e-12    148.47776            0   -2362.0433   -2362.0433    25162.962    19.966554    26.787076    47.047153      720 
     124            0    397.20188   0.40882301    317.02338    423.79114    450.79111 2.2363519e-12 -5.1531355e-12    154.35377            0   -2362.0532   -2362.0532    25120.671    19.946522    26.773694     47.03875      720 
     125            0    773.04084   0.41142797    900.89144    766.44873    651.78233 3.8734883e-12 -7.2710334e-12    160.11903            0   -2362.0583   -2362.0583    25098.743    19.926272    26.769262    47.053238      720 
     126            0    465.06191   0.41402292    806.09679    394.01906     195.0699 2.4788066e-12 -1.6786099e-12    163.49654            0   -2362.0804   -2362.0804    25122.468    19.915532    26.782212    47.100329      720 
     127            0   -97.674621   0.41916394    122.96346   -159.63836   -256.34897 -6.4819047e-13 2.6861101e-12    158.54725            0   -2362.0874   -2362.0874    25158.867    19.932297     26.79318    47.109606      720 
     128            0    4.0890687   0.42430902   -29.607547    26.922742    14.952011 4.9997297e-12 8.3923186e-12    153.22105            0   -2362.0907   -2362.0907    25150.156    19.949229    26.782882    47.071416      720 
     129            0    -24.68167   0.42690301    13.082957   -304.16911    217.04115 -6.8494471e-12 -1.2197373e-12    175.80062            0   -2362.1011   -2362.1011    25151.547    19.945468     26.81005    47.035183      720 
     130            0    209.17986     0.429497    225.07958    185.66757    216.79242 -1.4845727e-12 2.5350947e-13    159.63478            0   -2362.1202   -2362.1202    25139.143    19.943184    26.782882    47.065066      720 
     131            0   -248.82557   0.43464184   -273.24208   -194.83102    -278.4036 1.2306349e-13 -3.6419946e-12    150.62221            0   -2362.1248   -2362.1248    25170.479    19.952574     26.78596    47.096143      720 
     132            0   -511.07444    0.4397819   -564.52154   -366.27602   -602.42576 -1.3672015e-12   1.1612e-12    142.29779            0   -2362.1267   -2362.1267    25189.204    19.958319      26.7837    47.121588      720 
     133            0   -280.55918   0.44237995   -350.93417    123.07495   -613.81833 5.603232e-12 -2.3308394e-12     126.3074            0   -2362.1476   -2362.1476    25177.891    19.955726    26.756531    47.154375      720 
     134            0    206.99905   0.44753098    203.48515    430.81563   -13.303622 4.5432698e-12 -3.2828931e-14    143.19028            0   -2362.1542   -2362.1542    25144.345    19.944376    26.761875    47.108939      720 
     135            0   -4.1028057   0.45266604    21.442787   -33.237906  -0.51329799 1.5768126e-11 1.8410555e-12    160.20916            0   -2362.1579   -2362.1579     25156.66    19.946059    26.788314    47.081523      720 
     136            0   -13.655274   0.45526505   -266.13818    77.918238    147.25412 3.5912648e-13 -8.2763158e-13    152.18437            0   -2362.1626   -2362.1626    25156.103    19.966309    26.777311    47.052056      720 
     137            0    391.23759   0.45785785    343.56134     433.1562    396.99525 5.6066626e-12 -5.351769e-12    160.21948            0   -2362.1926   -2362.1926    25133.485    19.946059    26.773807    47.063637      720 
     138            0   -389.11189   0.46045685   -342.51485   -429.02219   -395.79862 6.3853129e-12 -4.8716473e-12    160.66799            0   -2362.2087   -2362.2087    25187.534    19.950853    26.798121    47.110729      720 
     139            0   -874.74716   0.46305394   -647.28219   -1011.6234   -965.33587 5.1125885e-13 -2.8885023e-12    165.27568            0   -2362.2216   -2362.2216     25224.22    19.945189    26.817968    47.157821      720 
     140            0   -569.23671     0.465657   -116.56891   -770.55698   -820.58424 1.571629e-12 4.9296559e-12    174.57155            0   -2362.2608   -2362.2608    25209.127    19.924939    26.817964    47.177508      720 
     141            0    143.63758   0.47081399     492.2659    31.448826    -92.80198 -2.3309351e-12 -7.0403597e-12    173.75233            0   -2362.2722   -2362.2722     25160.76    19.922276    26.794415    47.134677      720 
     142            0    41.515212   0.47341204    129.78986    30.139045   -35.383268 5.3170913e-12 -6.4117866e-12    165.89415            0   -2362.2779   -2362.2779     25165.68    19.942526    26.787098    47.108887      720 
     143            0   -91.443918   0.47855592   -69.940748   -96.446784   -107.94422 4.4821127e-12 -5.5001575e-12    164.49971            0   -2362.2785   -2362.2785    25173.974     19.94932    26.789212    47.104647      720 
     144            0     20.48002    0.4837029   -51.907668    36.475402    76.872327 1.3013834e-12 2.5656586e-12    164.18433            0   -2362.2792   -2362.2792    25165.737    19.954551    26.784711    47.084801      720 
     145            0    126.07124   0.48629785    249.70924    -184.8715    313.37599 1.0453344e-12 3.0686265e-12    191.65915            0   -2362.3233   -2362.3233    25162.865    19.940434    26.811879    47.065019      720 
     146            0   -333.39521   0.48889685   -329.82472   -395.70702   -274.65389 3.984574e-12 -2.5691272e-13    170.23548            0   -2362.3355   -2362.3355    25195.588    19.955277    26.799962    47.112111      720 
     147            0   -180.84638    0.4914999   -266.55184    30.066964   -306.05426 -7.6493682e-12 -9.6115723e-12    151.81547            0   -2362.3449   -2362.3449    25187.744    19.958966    26.772794    47.136521      720 
     148            0    99.690905   0.49664402    63.315088    234.19267    1.5649562 -3.3244273e-12 -3.2778268e-12    159.80025            0   -2362.3468   -2362.3468    25168.794     19.95155    26.773559    47.117219      720 
     149            0    5.9660971   0.50178695    27.293628   -33.993091    24.597754 -6.7061493e-12 -9.474194e-12    172.03563            0   -2362.3482   -2362.3482    25174.247    19.949207    26.790846    47.102551      720 
     150            0   -261.22903   0.50693703   -338.74605   -222.12441   -222.81661 -1.3222474e-12 -8.4181431e-12    164.34902            0   -2362.3501   -2362.3501     25192.19    19.960138    26.789483    47.112705      720 
     151            0   -58.401071   0.50954103   -347.01683    238.81595   -67.002329 -1.5366449e-12 -3.9537853e-12    147.69644            0   -2362.3592   -2362.3592    25179.849     19.97215    26.762315    47.109079      720 
     152            0    285.21002   0.51214004    215.07483    374.41213     266.1431 5.3312038e-12 -1.0387987e-11    166.21226            0   -2362.3677   -2362.3677    25157.973      19.9519    26.773638    47.095997      720 
     153            0   -89.784692   0.51473594    4.8678078   -214.90336   -59.318523 -2.7057758e-12 -5.7468351e-12    178.82203            0   -2362.3732   -2362.3732    25183.503    19.945911    26.800806    47.110142      720 
     154            0   -160.71221    0.5173409    237.90131   -550.69299   -169.34496 -3.6117518e-12 -1.2774189e-11    197.48782            0   -2362.3815   -2362.3815    25191.169    19.925661    26.826578    47.127056      720 
     155            0    625.25498   0.51994586    1069.2854    356.48719    449.99236 -4.3077863e-12 -4.2745143e-12     197.2794            0   -2362.4063   -2362.4063    25143.632    19.911531     26.79941    47.119224      720 
     156            0    354.42666   0.52254295     572.7724    362.71818    127.78939 -1.0660065e-12 -1.2324151e-11    178.10457            0   -2362.4562   -2362.4562    25166.369    19.931781    26.781025    47.146263      720 
     157            0   -64.489891   0.52769804    76.862127   -69.106263   -201.22554 -4.6218293e-12 -6.784199e-12    175.76242            0   -2362.4601   -2362.4601    25193.523    19.943421    26.790899      47.1522      720 
     158            0    1.9565878   0.53284788   -17.643822    6.9953513    16.518234 -5.8593773e-12 -2.0711961e-12    176.29999            0   -2362.4617   -2362.4617    25187.419    19.954306    26.788165    47.119869      720 
     159            0    133.29932   0.53545284    301.24759   -197.27892    295.92927 -7.099113e-12 -5.1808724e-12    203.21114            0   -2362.4781   -2362.4781    25180.381    19.940126    26.815333    47.092442      720 
     160            0   -496.24945   0.53805089   -472.53423   -613.81205   -402.40209 6.4146209e-12 -4.0474948e-12    183.20278            0   -2362.4942   -2362.4942    25225.185    19.959465    26.810207    47.139533      720 
     161            0   -417.86241   0.54066491   -524.35952   -245.31551    -483.9122 -2.5653115e-12 -6.5257267e-12     163.4767            0   -2362.5121   -2362.5121    25223.313    19.967439    26.783039    47.165008      720 
     162            0    29.798712   0.54581499   -26.264591    166.39069   -50.729965 -8.7588616e-13 1.0255353e-12    169.99662            0   -2362.5164   -2362.5164    25193.361    19.957399    26.776736    47.143794      720 
     163            0   -1.6058454   0.55096698    11.324884   -22.680309    6.5378885 3.4791214e-12 -2.854692e-12    181.54368            0   -2362.5174   -2362.5174    25194.867    19.953275    26.791288    47.130743      720 
     164            0     200.0358   0.55357003    7.8445484    177.34358    414.91926 -6.1154461e-12 3.3624082e-12     186.0236            0   -2362.5297   -2362.5297     25181.24    19.965854    26.786691    47.083652      720 
     165            0   -445.42701   0.55871797   -637.08218   -470.19151   -229.00735 5.9432946e-12 -2.3247197e-14    180.67215            0   -2362.5386   -2362.5386    25226.237    19.975433    26.800942    47.120103      720 
     166            0   -786.94626   0.56132102   -871.82156   -785.41734   -703.59987 2.8537856e-12 -6.842262e-12    175.81109            0   -2362.5506   -2362.5506    25253.512    19.972849      26.8066    47.167194      720 
     167            0   -133.10526   0.56392694   -68.322727   -85.586295   -245.40675 1.8992992e-12 4.0708717e-13    178.41478            0   -2362.5772   -2362.5772    25213.463    19.952599    26.789107    47.170968      720 
     168            0    45.402252   0.56907797    99.259604    81.256438   -44.309286 -1.7146115e-12 3.8908788e-13    180.99572            0   -2362.5779   -2362.5779    25201.216    19.950906    26.786265     47.15706      720 
     169            0   -1.6418611   0.57422686   -10.885433   -16.441954    22.401803 -9.4121171e-13 -7.1256398e-12    184.91186            0   -2362.5785   -2362.5785    25203.266    19.956404    26.791496    47.138698      720 
     170            0    91.619821   0.57683802   -180.31447    360.68882    94.485114 -6.29243e-12 4.051456e-12    165.70239            0   -2362.5865   -2362.5865    25198.464    19.973849    26.764327    47.136351      720 
     171            0   -501.32364   0.57943797   -666.69676   -392.74406    -444.5301 -1.8125905e-12 -1.7449274e-12    173.13016            0   -2362.6037   -2362.6037    25241.219    19.975596    26.791496    47.164325      720 
     172            0   -214.55497   0.58203602   -145.22194   -309.70582   -188.73716 1.1189082e-12 -2.7938825e-12    191.25351            0    -2362.629    -2362.629    25225.946    19.955346    26.804083    47.161463      720 
     173            0    19.161181   0.58718491    80.007777   -42.105749    19.581516 3.4528906e-13 -1.3262539e-12    190.91768            0   -2362.6302   -2362.6302    25210.389    19.952539    26.796062    47.153117      720 
     174            0   -2.1494885   0.59234095   -19.579194     20.71443   -7.5837016 -6.833206e-12 -3.8318207e-12    184.72141            0   -2362.6305   -2362.6305    25211.734    19.958356    26.788977    47.154355      720 
     175            0    145.30619   0.59493899   -4.4022235    77.060503    363.26029 4.2032091e-12 -3.2173651e-12    195.03271            0   -2362.6375   -2362.6375    25201.208    19.966598    26.793497    47.107263      720 
     176            0   -427.83801   0.60009789   -567.39997   -516.32382   -199.79023 2.0436349e-13 3.5360609e-12    191.11815            0   -2362.6445   -2362.6445    25241.507    19.974469    26.807833    47.138778      720 
     177            0    -707.6276    0.6026969   -729.30468   -769.11904   -624.45908 6.5277012e-12 -9.1535223e-13      185.834            0   -2362.6584   -2362.6584      25265.5    19.970259    26.812186     47.18587      720 
     178            0    82.213103   0.60529995    183.87757    86.364138   -23.602398 -1.100496e-12 1.1044088e-13    187.90288            0   -2362.6793   -2362.6793    25216.132    19.950009     26.78996    47.180583      720 
     179            0    104.02261   0.60790205   -64.319111    195.24805    181.13889 2.0717733e-12 4.9993688e-13    184.82681            0   -2362.7021   -2362.7021    25217.294    19.970259    26.781601    47.149625      720 
     180            0   -455.38173   0.61306095   -547.06672   -481.53581   -337.54265 6.3790638e-13 -1.2478624e-13    188.49657            0   -2362.7094   -2362.7094    25257.303    19.973416    26.804273    47.177027      720 
     181            0   -732.29709   0.61821604    -731.0071   -857.00546    -608.8787 5.7342966e-12 5.4448578e-12    193.20078            0   -2362.7118   -2362.7118    25278.555    19.971188    26.819392    47.195373      720 
     182            0   -453.24352   0.62082195    -215.4113   -726.16017   -418.15908 3.4947698e-12 -6.5991357e-13    206.81575            0    -2362.734    -2362.734    25265.763    19.950938    26.827457    47.205172      720 
     183            0    69.170005   0.62598395    263.35468   -106.10245     50.25779 7.8443072e-12 3.476873e-12    204.97478            0   -2362.7401   -2362.7401    25230.744    19.946498    26.807423    47.185474      720 
     184            0  -0.86597154   0.63113499    2.8119174    9.2188834   -14.628715 6.8881993e-12 1.1697763e-12    191.39334            0   -2362.7421   -2362.7421    25234.994    19.960986    26.792213    47.185941      720 
     185            0  -0.94105958   0.63629603   -25.057355   -25.434735    47.668912 -3.5080308e-12 7.1176112e-12    194.44391            0   -2362.7423   -2362.7423    25234.428    19.963179    26.795157    47.174517      720 
     186            0    440.36162   0.64144802    434.10263    435.33961    451.64263 4.8229766e-12 4.3218466e-12    195.98829            0   -2362.7466   -2362.7466     25207.17    19.955912    26.784268    47.159884      720 
     187            0    220.48984   0.64405298    191.66174    272.95496    196.85281 2.0567227e-12 -3.3945972e-12    180.05064            0   -2362.7997   -2362.7997    25239.667    19.963643    26.785478    47.200262      720 
     188            0   -4.9463843   0.64921403   -36.566456    26.461736   -4.7344324 -4.8153336e-13 -1.1947376e-11    179.38161            0   -2362.8008   -2362.8008    25254.683    19.967118    26.792117    47.208425      720 
     189            0    -0.440852   0.65436983    2.1863239   -5.4957657    1.9868859 -7.3842427e-12 -2.2303391e-12    181.99192            0   -2362.8009   -2362.8009    25254.441    19.964635    26.795297    47.208239      720 
     190            0    56.561761   0.65953684    81.963605    78.861715    8.8599626 -4.0093059e-12 -2.0774074e-12    179.73669            0    -2362.801    -2362.801    25251.251    19.962056    26.791768    47.214595      720 
     191            0   -43.281613   0.66469598  0.085568597    9.2398971   -139.17031 -2.3087912e-12 -6.2793178e-12    175.25214            0   -2362.8014   -2362.8014    25258.828    19.962059    26.791344    47.229499      720 
     192            0   -12.787321   0.66986084    57.237104   -45.315881   -50.283185 1.0025515e-11 1.7304587e-11    139.70716            0   -2362.8219   -2362.8219    25275.109    19.962514    26.800158    47.243324      720 
     193            0    27.276238   0.67502594    36.643768    29.648337    15.536609 4.1791679e-12 1.2226325e-11    138.04192            0   -2362.8221   -2362.8221    25272.029    19.966358    26.796094    47.235634      720 
     194            0   -1.1134335   0.68018389   -1.5989892     3.009623   -4.7509344 -1.5257937e-11 1.113664e-11    137.70997            0   -2362.8221   -2362.8221    25273.857    19.967489    26.796522    47.235622      720 
     195            0    0.3955192   0.68534493 -0.076707835   -2.3914736     3.654739 -9.4474201e-12 1.5887836e-11    138.28188            0   -2362.8221   -2362.8221    25273.685    19.967492    26.797095    47.234283      720 
     196            0   -102.86441   0.69051504   -68.223131   -134.04643   -106.32368 -6.156809e-12 -2.4184833e-12    131.28279            0   -2362.8225   -2362.8225    25280.212    19.966357     26.80204    47.240452      720 
     197            0    16.196893   0.69568396    123.60654   -42.641577   -32.374286 -6.6855937e-12 -2.8714322e-11    115.07045            0   -2362.8233   -2362.8233    25271.187    19.959175    26.802486    47.239793      720 
     198            0    3.4556813   0.70084095    2.7973966    21.537107    -13.96746 2.3012252e-12 -5.5468293e-11    92.093018            0   -2362.8242   -2362.8242    25270.012    19.966975    26.796118    47.230365      720 
     199            0   -11.465119    0.7059989    -13.33739   -8.3991887   -12.658779 3.1750665e-12 -5.2507873e-11    92.795101            0   -2362.8242   -2362.8242    25270.831     19.96733    26.797754    47.228172      720 
     200            0    1.0342195   0.71116185   0.35504525    -0.569591    3.3172043 7.0019116e-12 -5.0551202e-11    93.197714            0   -2362.8242   -2362.8242    25269.943    19.967081      26.7979    47.226843      720 
     201            0    15.565813     0.716326    48.037704    16.071009   -17.411275 5.2783984e-12 -5.2542669e-11    90.837554            0   -2362.8243   -2362.8243     25269.33     19.96439    26.797504    47.232761      720 
     202            0    -49.46395   0.72148991   -14.477969    -48.35282   -85.561059 -9.2835519e-12 -4.5985525e-11    87.697878            0   -2362.8244   -2362.8244    25273.723    19.965114    26.798864    47.236863      720 
     203            0   -5.8563243      0.72665   -27.862634    22.651089   -12.357427 2.1815002e-11 3.5785215e-12    63.003978            0   -2362.8254   -2362.8254    25269.761    19.968651    26.795558    47.226919      720 
     204            0     14.04792   0.73181987    10.180664    18.819945    13.143152 1.2679773e-11 4.0334258e-12    64.331843            0   -2362.8254   -2362.8254    25268.383    19.967105    26.797258    47.225004      720 
     205            0  -0.28049171   0.73697996  -0.70885992   -1.6473524    1.5147372 2.015724e-11 -7.9884559e-13    64.535408            0   -2362.8254   -2362.8254    25269.335    19.967073     26.79811    47.225356      720 
     206            0   -1.9176667   0.74214101    1.9200466   0.78247018   -8.4555169 8.5942574e-12 6.8344026e-12    64.000665            0   -2362.8254   -2362.8254    25269.539    19.966761    26.797803    47.227016      720 
     207            0    19.844055   0.74731398    24.830991     24.78973    9.9114445 2.2525284e-11 7.936377e-12    63.673176            0   -2362.8255   -2362.8255    25268.108     19.96636    26.797155    47.226432      720 
     208            0   -1.2618024   0.75247383   -26.270284    8.1659701    14.318907 2.0358121e-11 2.0430438e-11    53.477931            0   -2362.8258   -2362.8258    25269.488    19.968867    26.797417     47.22262      720 
     209            0    5.9017918   0.75763988    5.6536801    3.4511065    8.6005888 9.7037672e-12 1.3193164e-11    52.675526            0   -2362.8258   -2362.8258    25269.224    19.966958    26.798407    47.224897      720 
     210            0  -0.97866227   0.76280284  -0.81013167   -3.2327899    1.1069348 2.0969422e-11   1.5239e-11    52.531917            0   -2362.8258   -2362.8258      25269.7    19.967023    26.798539    47.225399      720 
     211            0   0.10053018   0.76797199   0.33608987    1.3025996    -1.337099 1.8883495e-11 1.1418626e-11    52.220672            0   -2362.8258   -2362.8258    25269.662     19.96699    26.798215    47.225979      720 
     212            0   -34.550299   0.77312994   -49.098734   -23.919703   -30.632458 1.8445819e-12 6.9960492e-12    49.824437            0   -2362.8258   -2362.8258    25272.049    19.968575    26.798144    47.226817      720 
     213            0    8.0930136   0.77828789   -28.770994    39.476824    13.573211 -9.6210784e-12 -7.8739212e-12    44.503631            0   -2362.8259   -2362.8259    25269.453    19.969645    26.795517    47.224064      720 
     214            0   0.69600344   0.78346086   -1.2660861   -4.0262552    7.3803516 -2.0941907e-11 -3.0303618e-11    42.592131            0   -2362.8261   -2362.8261    25270.385     19.96736    26.799071    47.224946      720 
     215            0   -1.2468322   0.78862691  -0.86493434   -1.4355318   -1.4400305 -2.4989759e-11 -3.6687317e-11    42.037277            0   -2362.8261   -2362.8261      25270.6    19.967197    26.798726     47.22634      720 
     216            0   0.93578291   0.79379392    1.3672672    1.1165073   0.32357426 -1.7651087e-11 -3.279312e-11    42.024673            0   -2362.8261   -2362.8261    25270.456    19.967162    26.798647    47.226296      720 
     217            0  -0.50380128   0.79895306   -8.2096787    5.5062078     1.192067 -1.7294302e-11 -3.4557698e-11    41.558599            0   -2362.8261   -2362.8261    25270.534    19.967775    26.798146    47.225874      720 
     218            0    14.679153   0.80412102    8.5864395    7.7725846    27.678434 -1.5493974e-11 -1.9937557e-11    41.774283            0   -2362.8261   -2362.8261     25269.66    19.967574    26.798936    47.223321      720 
     219            0   -5.8527493   0.80927896   -10.524612   -14.203536    7.1698998 -1.9894437e-11 -2.3341502e-11    41.352122            0   -2362.8261   -2362.8261    25271.133    19.967788    26.799499    47.224579      720 
     220            0 -0.0041801176   0.81444097   0.94104593  -0.92665486 -0.026931425 -1.8216434e-11 -1.5211523e-11    40.430117            0   -2362.8261   -2362.8261    25270.946    19.967279    26.798733    47.226781      720 
     221            0 -0.017852548   0.81960702  -0.45697366   0.50422006  -0.10080404 -1.2528033e-11 -1.6997182e-11    40.329415            0   -2362.8261   -2362.8261    25270.944    19.967377    26.798604    47.226774      720 
     222            0    4.9027387   0.82476592    1.5548922    1.9491646    11.204159 -1.8916315e-11 -8.1328068e-12     40.69524            0   -2362.8261   -2362.8261    25270.559    19.967533    26.798791    47.225354      720 
     223            0   -6.1981671   0.82992887   -11.106333    -10.84255    3.3543817 -2.0215725e-11 -8.2722437e-12    40.711317            0   -2362.8261   -2362.8261    25271.297    19.967807    26.799167    47.225422      720 
     224            0  -0.53702876   0.83508992  -0.71864508  -0.61788889  -0.27455231 -2.872968e-12 1.2944716e-11    40.129091            0   -2362.8261   -2362.8261    25271.124    19.967325    26.798634    47.227182      720 
     225            0   0.31097477   0.84026098    0.2311084   0.28652018   0.41529574 3.3439673e-12 1.359825e-11    40.131932            0   -2362.8261   -2362.8261    25271.068    19.967305    26.798611    47.227164      720 
     226            0   -0.2379389   0.84542203    1.0171719   0.28717684   -2.0181655 1.3432478e-12 9.3140349e-12    40.061551            0   -2362.8261   -2362.8261    25271.128    19.967211    26.798577    47.227558      720 
     227            0    5.3890941   0.85058594    7.8285847    4.3199106    4.0187869 -1.5597667e-12  9.97604e-12    40.353352            0   -2362.8262   -2362.8262    25270.768    19.967051    26.798576    47.227265      720 
     228            0  -0.42281768   0.85575485     1.162266    -1.562948    -0.867771 5.3985007e-12 3.9462087e-12    40.326371            0   -2362.8262   -2362.8262    25271.155    19.967197    26.798701    47.227422      720 
     229            0  0.017915961   0.86091495  0.017514444   0.11030059 -0.074067151 -6.0096707e-12 3.6956786e-12    40.254462            0   -2362.8262   -2362.8262    25271.119    19.967305    26.798579    47.227314      720 
     230            0  -0.56991636   0.86607695  -0.82807587   -1.0015856    0.1199124 7.9603869e-13 2.0651034e-12    40.292075            0   -2362.8262   -2362.8262    25271.151    19.967335    26.798637    47.227202      720 
     231            0   0.72164872    0.8712399   0.37367062 0.0086223341    1.7826532 -1.5826798e-12 6.1399023e-12    40.324274            0   -2362.8262   -2362.8262    25271.059    19.967324    26.798633    47.227062      720 
     232            0   -1.3858351   0.87641382   -7.5908155    3.8271673  -0.39385712 -1.5731183e-11 -1.2967876e-11    38.610177            0   -2362.8262   -2362.8262    25271.213    19.967747    26.798111    47.227271      720 
     233            0    3.8607276   0.88157701     2.440484    5.2725503    3.8691484 -2.284995e-11 -2.0965909e-11     38.57158            0   -2362.8262   -2362.8262    25270.884    19.967324    26.798334    47.227263      720 
     234            0 -0.057675848   0.88674092  -0.19675112  -0.14399204   0.16771562 -2.1892162e-11 -1.3509341e-11    38.560542            0   -2362.8262   -2362.8262    25271.152    19.967288     26.79855     47.22747      720 
     235            0   0.28462026   0.89194489   0.78581696   0.29104964  -0.22300583 -8.0186805e-13 -1.5565325e-11    38.535493            0   -2362.8262   -2362.8262    25271.138    19.967235    26.798536    47.227594      720 
     236            0   -1.0194719   0.89710689  -0.43337423  -0.93976526   -1.6852762 -2.1269168e-11 -1.7958656e-11    38.500872            0   -2362.8262   -2362.8262    25271.229    19.967246    26.798557    47.227698      720 
     237            0   0.65610568   0.90227199  -0.20962627    5.6278531   -3.4499098 -3.7449425e-12 -1.6352545e-11    37.441115            0   -2362.8262   -2362.8262    25271.169    19.967311    26.798058    47.228314      720 
     238            0   -3.3183393   0.90743303   -3.7619669   -2.4688627   -3.7241882 -1.2150015e-11 -8.2247999e-12     37.05929            0   -2362.8262   -2362.8262    25271.427    19.967349    26.798472    47.227974      720 
     239            0  0.028176723   0.91259694 -0.024625396   0.16449357 -0.055338006 -1.4783601e-11 -1.5842436e-11    37.055327            0   -2362.8262   -2362.8262    25271.201    19.967275     26.79846    47.227748      720 
     240            0  -0.71232828   0.91775894  -0.16502056   -2.1263296   0.15436534 -9.9748625e-12 -1.1965832e-11     37.15468            0   -2362.8262   -2362.8262    25271.244    19.967247    26.798612    47.227626      720 
     241            0    2.1511957   0.92292285    3.1233513   0.10230335    3.2279325 -1.8480479e-11 -9.7057061e-12    37.205417            0   -2362.8262   -2362.8262    25271.049    19.967178    26.798607    47.227435      720 
     242            0   -1.8665522   0.92809105     -6.61576   -2.2805417    3.2966449 1.6463199e-11 3.3784569e-11     35.43825            0   -2362.8262   -2362.8262    25271.318    19.967698    26.798473    47.226944      720 
     243            0    3.5906916   0.93324995    1.4475555    3.7480144     5.576505 6.1367297e-12 3.8697757e-11    35.215756            0   -2362.8262   -2362.8262     25270.99    19.967429    26.798306    47.227262      720 
     244            0  -0.15699249   0.93841505   -0.3043195 -0.0096947576  -0.15696321 1.651008e-11 4.0654749e-11    35.042178            0   -2362.8262   -2362.8262    25271.271    19.967335    26.798388    47.227865      720 
     245            0    1.3336847   0.94357896    2.3865563   0.94994914   0.66454864 2.4676786e-11 4.1226024e-11    35.048962            0   -2362.8262   -2362.8262     25271.18    19.967227    26.798405    47.227919      720 
     246            0   -1.2586106   0.94874501    1.2070814    -2.592761   -2.3901521 2.4680016e-11 4.4244773e-11    34.994627            0   -2362.8262   -2362.8262    25271.364    19.967162    26.798547    47.228167      720 
     247            0     6.869725   0.95390487     15.01962    5.6347059 -0.045150962 3.4645355e-11 8.6714653e-11    31.807196            0   -2362.8262   -2362.8262    25270.895    19.966656    26.798368    47.228804      720 
     248            0    -4.314353   0.95906401    1.6564201   -5.1915947   -9.4078844 5.0441795e-11 9.6219737e-11    30.420291            0   -2362.8262   -2362.8262    25271.637    19.966989    26.798565    47.229055      720 
     249            0   0.56908439   0.96423101   0.93094341     1.301399  -0.52508929 7.2397532e-11 1.0581188e-10    29.440793            0   -2362.8262   -2362.8262    25271.257    19.967344    26.798303    47.227968      720 
     250            0     -1.25802   0.96939182   -1.3514672   -1.1341003   -1.2884924 5.6444845e-11 1.0834798e-10    29.449716            0   -2362.8262   -2362.8262     25271.37    19.967407    26.798394     47.22787      720 
     251            0   0.49829362   0.97455788  -0.04927014  -0.40108953    1.9452405 7.0530849e-11 1.0602742e-10    29.505746            0   -2362.8262   -2362.8262    25271.235     19.96742    26.798445    47.227496      720 
     252            0    -14.94839   0.97972083   -20.894778   -17.028241   -6.9221527 6.9536396e-11 1.0106696e-10    25.416982            0   -2362.8262   -2362.8262    25272.179    19.968045    26.798921    47.226942      720 
     253            0    2.0844398   0.98488283   -4.3607097   0.92082507    9.6932039 7.0438015e-11 9.164298e-11    22.119198            0   -2362.8262   -2362.8262    25271.002    19.967839    26.798523    47.225934      720 
     254            0  -0.62438881   0.99004483   -0.8132016  -0.53318868  -0.52677615 6.2156996e-11 9.027706e-11    20.805397            0   -2362.8262   -2362.8262    25271.267    19.967404    26.798502    47.227494      720 
     255            0   0.43005041   0.99521089   0.43346085   0.52500403   0.33168636 6.6855413e-11 8.2076408e-11    20.801093            0   -2362.8262   -2362.8262    25271.197    19.967374     26.79848    47.227473      720 
     256            0  -0.85626742    1.0003738    2.5460885   -2.9901242   -2.1247666 5.539865e-11 8.0390079e-11    20.591727            0   -2362.8262   -2362.8262    25271.301    19.967143    26.798718    47.227793      720 
     257            0    8.2620633    1.0055358    12.564014    7.3369804    4.8851954 4.7988375e-11 6.2002396e-11    18.964159            0   -2362.8262   -2362.8262    25270.693    19.966924    26.798459    47.227631      720 
     258            0  -0.88417189     1.010699   0.84563821   0.25199558   -3.7501495 1.4409347e-11 1.7470747e-11    16.038842            0   -2362.8262   -2362.8262    25271.283    19.967207    26.798532    47.227935      720 
     259            0    1.0073769     1.015862    1.1486231    1.3532942   0.52021352 1.5361264e-11 1.2559453e-11    15.841725            0   -2362.8262   -2362.8262    25271.125    19.967299    26.798564    47.227367      720 
     260            0  -0.25710677    1.0210249  -0.36921729  -0.15534452  -0.24675849 1.4915905e-11 1.1817267e-11    15.823794            0   -2362.8262   -2362.8262    25271.205    19.967336    26.798612    47.227344      720 
     261            0   0.76936699     1.026181   0.59532503  -0.52963586    2.2424118 9.9606686e-12 9.8419445e-12     15.83457            0   -2362.8262   -2362.8262    25271.121     19.96733    26.798715    47.227019      720 
     262            0   -3.4508317    1.0313449   -4.0785248   -5.6070006  -0.66696958 1.1104182e-11  4.59648e-12    15.517868            0   -2362.8262   -2362.8262    25271.393    19.967421    26.798887    47.227008      720 
     263            0    1.2410619     1.036505  -0.65477866   -0.8220307    5.1999952 -2.5871908e-11 -5.8578689e-11    11.575224            0   -2362.8262   -2362.8262    25271.052    19.967388    26.798867    47.226487      720 
     264            0   -2.0557418    1.0416648   -2.8973247   -2.3079157  -0.96198493 -3.2525756e-11 -5.7630956e-11    10.895204            0   -2362.8262   -2362.8262    25271.306    19.967341    26.798793    47.227203      720 
     265            0   0.12306656    1.0468318  -0.11084726   0.41418806  0.065858874 -2.0104415e-11 -6.2655718e-11    10.764113            0   -2362.8262   -2362.8262     25271.17    19.967261    26.798702    47.227298      720 
     266            0  -0.60862921    1.0519969    1.0051768   -1.6844648   -1.1465996 -2.9662522e-11 -5.5252369e-11    10.750151            0   -2362.8262   -2362.8262     25271.23    19.967137    26.798843    47.227453      720 
     267            0    3.9075893     1.057163    6.5127337    2.5631454    2.6468887 -2.9782473e-11 -6.0792119e-11    10.546975            0   -2362.8262   -2362.8262    25270.934    19.966996    26.798777    47.227352      720 
     268            0   -1.5192454      1.06233    1.1644569   -2.3263775   -3.3958156 -4.6702083e-11 -9.5226088e-11    5.6602385            0   -2362.8263   -2362.8263    25271.344     19.96699    26.798911    47.227894      720 
     269            0    1.4747835     1.067498    2.8863863    1.3178243    0.2201399 -6.6247171e-11 -9.3773599e-11    5.4414787            0   -2362.8263   -2362.8263    25271.133    19.967037     26.79879    47.227602      720 
     270            0  -0.15345538    1.0726569  -0.21881308  0.031551033   -0.2731041 -5.8882373e-11 -9.5268749e-11     5.308517            0   -2362.8263   -2362.8263     25271.23    19.967168    26.798793    47.227471      720 
     271            0    0.9941803    1.0778151   0.61267635   0.77032428    1.5995403 -5.6029732e-11 -8.8724021e-11    5.3132468            0   -2362.8263   -2362.8263    25271.145    19.967176    26.798803    47.227272      720 
     272            0  -0.73318746    1.0829759   -1.5942747   -1.6563009    1.0510132 -5.5623232e-11 -9.4123341e-11    5.2710823            0   -2362.8263   -2362.8263     25271.25    19.967238      26.7989    47.227153      720 
     273            0    3.3242787     1.088136    2.9065544   0.61216731    6.4541143 -6.1708092e-11 -7.5105068e-11    3.6272362            0   -2362.8263   -2362.8263    25270.982    19.967133    26.798973    47.226773      720 
     274            0    -1.466705     1.093298   -1.9965472   -3.5447975    1.1412296 -5.3940283e-11 -7.1659395e-11    3.0266362            0   -2362.8263   -2362.8263    25271.318      19.9672     26.79902    47.227158      720 
     275            0   0.25081419    1.0984569    0.0697584    0.1792407   0.50344346 -5.7651314e-11 -6.7740617e-11    2.5848711            0   -2362.8263   -2362.8263    25271.228    19.967139    26.798808    47.227508      720 
     276            0  -0.58437587    1.1036248  -0.64724074  -0.54431047   -0.5615764 -5.9578576e-11 -6.5012737e-11    2.5543642            0   -2362.8263   -2362.8263    25271.287    19.967141    26.798817    47.227598      720 
     277            0   0.18072368     1.108784   0.76655521   0.62788383  -0.85226799 -5.1492387e-11 -6.567789e-11    2.4829776            0   -2362.8263   -2362.8263    25271.247     19.96708    26.798766    47.227757      720 
     278            0   -4.8524584    1.1139479   -1.7666053   -6.7314316   -6.0593383 -4.594221e-11 -3.8910073e-11    1.6849844            0   -2362.8263   -2362.8263    25271.599    19.966968    26.799071    47.228141      720 
     279            0    1.2269663    1.1191108    5.2032003   -1.0917488  -0.43055257 -3.291655e-11 -1.5495453e-11    1.0598024            0   -2362.8263   -2362.8263    25271.194    19.966814    26.798972    47.227924      720 
     280            0  -0.38599779    1.1242719  -0.23643648  -0.43006956  -0.49148732 -2.7127865e-11 2.8096568e-12   0.42558763            0   -2362.8263   -2362.8263    25271.281    19.967112    26.798791      47.2277      720 
     281            0   0.22345322    1.1294339   0.29289196   0.25165227   0.12581543 -1.8931258e-11 -1.8476655e-14   0.41994638            0   -2362.8263   -2362.8263    25271.239    19.967109    26.798772    47.227663      720 
     282            0  -0.19586723    1.1345909   -1.1164397  0.030252546   0.49858548 -2.3271331e-11 2.8111992e-12   0.36632604            0   -2362.8263   -2362.8263    25271.257    19.967188     26.79876     47.22753      720 
     283            0    2.9387265    1.1397579    1.9600909    2.8658937    3.9901948 -3.4429544e-13 1.7144274e-11   0.16489678            0   -2362.8263   -2362.8263    25271.036    19.967149    26.798717    47.227287      720 
     284            0  -0.42326735     1.144913   -1.2163403   -1.8355823    1.7821206 1.7684799e-12 4.3842353e-11  -0.60631593            0   -2362.8263   -2362.8263    25271.239    19.967186    26.798897    47.227262      720 
     285            0   0.81477848     1.150074   0.77397395   0.58841873    1.0819427 8.5515797e-12 5.1225123e-11  -0.93807917            0   -2362.8263   -2362.8263    25271.172    19.967107    26.798766    47.227553      720 
     286            0  -0.10337982    1.1552439  -0.12467774  -0.18457576 -0.00088596092 1.4681354e-11 5.0671354e-11   -0.9803246            0   -2362.8263   -2362.8263    25271.236    19.967118    26.798773    47.227634      720 
     287            0   0.29218856    1.1604018   0.41442467   0.75286379  -0.29072279 8.8448823e-12 4.4452346e-11   -1.0536867            0   -2362.8263   -2362.8263    25271.215    19.967099    26.798717    47.227737      720 
     288            0   -1.1108139    1.1655679  -0.92867539  -0.47835035   -1.9254159 9.0753114e-12 4.6857435e-11   -1.1419878            0   -2362.8263   -2362.8263    25271.311    19.967114    26.798732    47.227856      720 
     289            0   0.60558728    1.1707299    2.3472019     1.057512   -1.5879521 2.4821573e-11 6.5611741e-11   -2.0787056            0   -2362.8263   -2362.8263    25271.182    19.966972    26.798715    47.227981      720 
     290            0   -1.4711955     1.175894  -0.78579003   -1.5269588   -2.1008377 1.7352344e-11 6.6579486e-11   -2.3137403            0   -2362.8263   -2362.8263    25271.297    19.967082    26.798801    47.227784      720 
     291            0  0.061300226     1.181051   0.23649116 -0.072279872  0.019689391 1.9687525e-11 6.9380216e-11   -2.3804956            0   -2362.8263   -2362.8263    25271.183    19.967099    26.798774    47.227579      720 
     292            0  -0.39560765     1.186209  -0.82679878  -0.15658368  -0.20344048 2.7319802e-11 7.2248537e-11   -2.4264793            0   -2362.8263   -2362.8263    25271.209    19.967149    26.798749    47.227553      720 
     293            0   0.55312124    1.1913769    -0.176172    1.0616265   0.77390919 2.807005e-11 6.5014428e-11   -2.4597782            0   -2362.8263   -2362.8263    25271.143    19.967157    26.798705    47.227488      720 
     294            0   -1.6198108    1.1965358   -3.5737407   -1.9015291   0.61583748 3.3452789e-11 5.9523486e-11   -3.8733855            0   -2362.8263   -2362.8263    25271.213     19.96728    26.798834      47.2271      720 
     295            0    1.1453587    1.2017019 -0.065579681   0.94364763    2.5580082 3.2702195e-11 6.1208174e-11   -4.0906811            0   -2362.8263   -2362.8263    25271.027    19.967185    26.798773    47.227085      720 
     296            0  -0.11506756     1.206862   -0.1105369  -0.22642233 -0.0082434565 1.9685043e-11 5.8108361e-11   -4.2979022            0   -2362.8263   -2362.8263    25271.122    19.967111    26.798797    47.227395      720 
     297            0    0.3481906    1.2120318   0.43231155   0.38878215    0.2234781 3.6276539e-11 5.7825998e-11   -4.3171943            0   -2362.8263   -2362.8263    25271.093    19.967098    26.798774    47.227411      720 
     298            0  -0.28003255    1.2171929  -0.12184497   0.23363774   -0.9518904 2.9205548e-11 5.4941101e-11   -4.4059369            0   -2362.8263   -2362.8263     25271.14      19.9671    26.798747    47.227543      720 
     299            0    2.1303019     1.222358    2.7006826    3.2321079   0.45811515 2.3889687e-11 4.8711025e-11    -4.909276            0   -2362.8263   -2362.8263    25270.973    19.967034    26.798652    47.227555      720 
     300            0  -0.62639094    1.2275269  -0.13271201   0.24376011   -1.9902209 2.7525922e-11 3.8713249e-11   -5.3956711            0   -2362.8263   -2362.8263    25271.143     19.96708    26.798739     47.22761      720 
     301            0   0.35042962    1.2326849   0.59539398   0.41907604  0.036818833 1.2767789e-11 3.6627148e-11   -5.4855413            0   -2362.8263   -2362.8263    25271.061    19.967088     26.79879    47.227347      720 
     302            0  -0.15408292     1.237848 -0.036136481  -0.17930927  -0.24680301 2.2206099e-11 3.1411926e-11   -5.4917177            0   -2362.8263   -2362.8263    25271.093    19.967105    26.798809    47.227332      720 
     303            0   0.13151493     1.243016 -0.026782376  0.064227206   0.35709997 2.0980603e-11 3.0226252e-11   -5.4941617            0   -2362.8263   -2362.8263    25271.069    19.967122    26.798806    47.227254      720 
     304            0  -0.76336886     1.248183   -1.2599961  -0.76920511  -0.26090539 2.5247198e-11 3.120776e-11   -5.5376886            0   -2362.8263   -2362.8263    25271.126     19.96716     26.79882    47.227246      720 
     305            0   0.52436219     1.253341   -1.1483482     1.291628    1.4298067 2.2877753e-11 2.6322963e-11   -5.8642571            0   -2362.8263   -2362.8263     25271.03     19.96723    26.798727    47.227066      720 
     306            0    -1.079102     1.258502   -1.6751786  -0.89108792  -0.67103945 1.5190068e-11 1.2839454e-11   -6.2143679            0   -2362.8263   -2362.8263    25271.144    19.967178    26.798821    47.227237      720 
     307            0  0.065760973    1.2636709  -0.11934572   0.13962589   0.17700275 4.9260963e-12 1.4783843e-11    -6.255925            0   -2362.8263   -2362.8263     25271.07    19.967132    26.798809    47.227228      720 
     308            0  -0.17929607    1.2688329  -0.03763264  -0.27132196   -0.2289336 1.5187571e-11 1.4090073e-11    -6.256484            0   -2362.8263   -2362.8263    25271.089    19.967111    26.798829    47.227275      720 
     309            0   0.24393526    1.2740009   0.54432253   0.13124211  0.056241133 1.2716537e-11 1.1966358e-11   -6.2579697            0   -2362.8263   -2362.8263    25271.062    19.967094    26.798822    47.227279      720 
     310            0  -0.90130832    1.2791619 -0.095882725  -0.08312516   -2.5249171 1.1536011e-11 4.8220914e-12   -6.5746993            0   -2362.8263   -2362.8263    25271.164    19.967074     26.79877    47.227609      720 
     311            0    1.4462668    1.2843299    2.1891722    2.3273739  -0.17774563 -5.6449987e-12 -3.922695e-12   -6.7422228            0   -2362.8263   -2362.8263    25271.013     19.96705    26.798718    47.227476      720 
     312            0    -0.184472     1.289489  -0.14171259 -0.0026318857  -0.40907153 7.3201451e-12 -4.3569922e-12   -6.9036379            0   -2362.8263   -2362.8263    25271.118    19.967133    26.798815    47.227302      720 
     313            0   0.18096429    1.2946489   0.20614704   0.23567707   0.10106875 -3.0704971e-12 -3.7489132e-12   -6.8965456            0   -2362.8263   -2362.8263    25271.092     19.96713    26.798819    47.227255      720 
     314            0 -0.096750704     1.299813  -0.13557908  -0.23793534  0.083262306 1.4583436e-13 -2.7596347e-12    -6.889249            0   -2362.8263   -2362.8263    25271.108     19.96714    26.798842    47.227223      720 
     315            0   0.74216676    1.3049719   0.57136005   0.37566717    1.2794731 -3.7153752e-12 -5.6128758e-12   -6.9022671            0   -2362.8263   -2362.8263    25271.051     19.96714    26.798844     47.22711      720 
     316            0  -0.52339831     1.310137   -1.1406584   -1.2102792   0.78074269 -6.6104899e-12 -9.8063042e-12   -7.0161682            0   -2362.8263   -2362.8263    25271.138    19.967197      26.7989     47.22704      720 
     317            0   0.73163399    1.3153028   0.22127373   0.63356289    1.3400654 9.1654144e-12 -5.4932107e-12   -7.3029727            0   -2362.8263   -2362.8263    25271.078    19.967178    26.798825    47.227106      720 
     318            0  -0.22950977    1.3204679  -0.58727925  -0.22343596   0.12218592 -2.8949612e-12 -1.1792987e-11   -7.3678225            0   -2362.8263   -2362.8263    25271.149    19.967181    26.798838     47.22721      720 
     319            0   0.11861533    1.3256299   0.10200087   0.17720961  0.076635528 -2.5646917e-12 -1.0597177e-11   -7.3917635            0   -2362.8263   -2362.8263    25271.132    19.967151    26.798827    47.227267      720 
     320            0  -0.28262996    1.3307889  -0.15967833  -0.28937276  -0.39883879 -4.5825547e-12 -1.7251971e-11   -7.3997076            0   -2362.8263   -2362.8263    25271.161    19.967146    26.798841    47.227305      720 
     321            0   0.27360286     1.335959    1.0344543  0.013068737  -0.22671442 -8.8885188e-12 -6.9837655e-12    -7.422599            0   -2362.8263   -2362.8263    25271.132    19.967093    26.798854    47.227355      720 
     322            0   -1.5546925    1.3411229  -0.54190623   -2.1120916   -2.0100798 -1.0516117e-11 -8.5316938e-12   -7.6239206            0   -2362.8263   -2362.8263    25271.274    19.967109    26.798922    47.227464      720 
     323            0   0.26246427    1.3462908    1.1375705  -0.12828875    -0.221889 -1.8391414e-11 -1.288871e-11   -7.8736778            0   -2362.8263   -2362.8263    25271.174    19.967102    26.798872     47.22738      720 
     324            0  -0.35814673    1.3514528  -0.22716401  -0.39694875  -0.45032745 -1.8267711e-11 -1.28337e-11   -7.9430358            0   -2362.8263   -2362.8263    25271.214    19.967167    26.798853    47.227336      720 
     325            0  0.089205906     1.356617  0.071641392   0.14528576  0.050690569 -2.4749424e-11 -1.5653281e-11   -7.9518084            0   -2362.8263   -2362.8263    25271.184    19.967172    26.798835    47.227299      720 
     326            0  -0.34393497     1.361774  -0.83884789  -0.34403734   0.15108034 -1.7040501e-11 -1.3383493e-11   -7.9687232            0   -2362.8263   -2362.8263    25271.209    19.967215    26.798849    47.227222      720 
     327            0   0.74009566     1.366935  0.072422623   0.68233746    1.4655269 -1.9137823e-11 -1.2894668e-11   -7.9920783            0   -2362.8263   -2362.8263    25271.137    19.967214    26.798831     47.22712      720 
     328            0  -0.58585561    1.3721049  -0.99047184   -1.2860765   0.51898149 -1.3283552e-11 -1.1965716e-11   -8.2979713            0   -2362.8263   -2362.8263    25271.256    19.967228     26.79892    47.227152      720 
     329            0   0.52736796     1.377269   0.38945169   0.13651183    1.0561404 -2.5474516e-11 -2.0895047e-11   -8.3750941            0   -2362.8263   -2362.8263    25271.192    19.967193    26.798871    47.227201      720 
[...]
    1028            0 -0.0058623752  0.015331984 -0.011682781 -0.0059044704 1.2535251e-07   0.15769627 0.0058104095 5.1014247e-09            0   -2362.8263   -2362.8263    25271.191    19.967181    26.798798    47.227359      720 
    1029            0 -0.0058623834  0.020451069 -0.011682786 -0.0059044783 1.1414735e-07   0.15766589 0.0051100775 3.5212816e-10            0   -2362.8263   -2362.8263    25271.191    19.967181    26.798798    47.227359      720 
    1030            0 -0.005862411  0.025566101 -0.011682814 -0.005904491 7.1457142e-08   0.15764223 0.0044782708 -1.9006412e-08            0   -2362.8263   -2362.8263    25271.191    19.967181    26.798798    47.227359      720 
    1031            0 -0.0058623992   0.03067708 -0.011682781 -0.0059045109 9.4291702e-08   0.15760685 0.0036098068 8.817406e-09            0   -2362.8263   -2362.8263    25271.191    19.967181    26.798798    47.227359      720 
    1032            0 -0.005862522   0.03579402 -0.011682924 -0.0059045316 -1.106643e-07   0.15757959 0.0027388611 -1.1245876e-07            0   -2362.8263   -2362.8263    25271.191    19.967181    26.798798    47.227359      720 
    1033            0 -0.0058622944  0.040903091 -0.011682637 -0.0059045377 2.9105424e-07   0.15756035 0.0022708491 1.7513149e-07            0   -2362.8263   -2362.8263    25271.191    19.967181    26.798798    47.227359      720 
    1034            0 -0.0058633249  0.046013117 -0.011683857 -0.0059046207 -1.4971988e-06   0.15747971 0.00012358302 -9.7252142e-07            0   -2362.8263   -2362.8263    25271.191    19.967181    26.798798    47.227359      720 
    1035            0 -0.0058618632  0.051129103 -0.011682101 -0.0059045821 1.0930658e-06   0.15746985 -5.6017528e-08  8.10679e-07            0   -2362.8263   -2362.8263    25271.191    19.967181    26.798798    47.227359      720 
    1036            0 -0.0058630815  0.056240082 -0.011683548 -0.005904622 -1.074467e-06   0.15746956 3.2429367e-06 -6.7240395e-07            0   -2362.8263   -2362.8263    25271.191    19.967181    26.798798    47.227359      720 
    1037            0 -0.0058623531  0.061355114 -0.011682689 -0.0059045961 2.2571276e-07   0.15746954 6.3659186e-07 2.1494379e-07            0   -2362.8263   -2362.8263    25271.191    19.967181    26.798798    47.227359      720 
    1038            0 -0.0058625428  0.066466093  -0.01168291 -0.0059046023 -1.1601151e-07   0.15746954 2.2116169e-10 -1.9229804e-08            0   -2362.8263   -2362.8263    25271.191    19.967181    26.798798    47.227359      720 
    1039            0 -0.0058625459   0.07408905 -0.011682915 -0.0059046015 -1.2114256e-07   0.15746954 -4.6400248e-11 -2.360072e-08            0   -2362.8263   -2362.8263    25271.191    19.967181    26.798798    47.227359      720 
Loop time of 0.074106 on 1 procs for 14 steps with 720 atoms

97.2% CPU use with 1 MPI tasks x no OpenMP threads

Minimization stats:
  Stopping criterion = force tolerance
  Energy initial, next-to-last, final = 
        -2362.82627246     -2362.82627246     -2362.82627246
  Force two-norm initial, final = 2.1571e-05 2.22986e-11
  Force max component initial, final = 1.9851e-06 1.35475e-12
  Final line search alpha, max atom move = 1 1.35475e-12
  Iterations, force evaluations = 14 28

MPI task timing breakdown:
Section |  min time  |  avg time  |  max time  |%varavg| %total
---------------------------------------------------------------
Pair    | 0.072933   | 0.072933   | 0.072933   |   0.0 | 98.42
Neigh   | 0          | 0          | 0          |   0.0 |  0.00
Comm    | 0.00026464 | 0.00026464 | 0.00026464 |   0.0 |  0.36
Output  | 0.00036931 | 0.00036931 | 0.00036931 |   0.0 |  0.50
Modify  | 0          | 0          | 0          |   0.0 |  0.00
Other   |            | 0.0005391  |            |       |  0.73

Nlocal:    720 ave 720 max 720 min
Histogram: 1 0 0 0 0 0 0 0 0 0
Nghost:    1201 ave 1201 max 1201 min
Histogram: 1 0 0 0 0 0 0 0 0 0
Neighs:    41460 ave 41460 max 41460 min
Histogram: 1 0 0 0 0 0 0 0 0 0

Total # of neighbors = 41460
Ave neighs/atom = 57.5833
Neighbor list builds = 0
Dangerous builds = 0

# Obtain new stress tensor

variable tmp equal pxx
variable pxx1 equal ${tmp}
variable pxx1 equal -0.0116829151871563
variable tmp equal pyy
variable pyy1 equal ${tmp}
variable pyy1 equal -0.00590460148248228
variable tmp equal pzz
variable pzz1 equal ${tmp}
variable pzz1 equal -1.21142562686624e-07
variable tmp equal pxy
variable pxy1 equal ${tmp}
variable pxy1 equal 0.157469540060246
variable tmp equal pxz
variable pxz1 equal ${tmp}
variable pxz1 equal -4.64002481373557e-11
variable tmp equal pyz
variable pyz1 equal ${tmp}
variable pyz1 equal -2.36007197501628e-08

# Compute elastic constant from pressure tensor

variable C1neg equal ${d1}
variable C1neg equal -0.728564790238553
variable C2neg equal ${d2}
variable C2neg equal 0.0319073086481211
variable C3neg equal ${d3}
variable C3neg equal -0.19040802091383
variable C4neg equal ${d4}
variable C4neg equal -28.0113940351036
variable C5neg equal ${d5}
variable C5neg equal -1.77072240339031e-08
variable C6neg equal ${d6}
variable C6neg equal 15.7469540044409

# Reset box and simulation parameters

clear
box tilt large
read_restart restart.equil
  triclinic box = (0.14141 0.184714 -0.067884) to (20.1086 26.9835 47.1595) with tilt (0 0 0)
  1 by 1 by 1 MPI processor grid
  720 atoms
include potential.mod
pair_style eam/alloy
pair_coeff * * /users/knc6/Software/jarvis/jarvis/lammps/examples/Al03.eam.alloy  Al
neighbor 1.0 nsq
neigh_modify once no every 1 delay 0 check yes
min_style  cg
min_modify           dmax ${dmax} line quadratic
min_modify           dmax 0.01 line quadratic
thermo          1
thermo_style custom step temp press cpu pxx pyy pzz pxy pxz pyz ke pe etotal vol lx ly lz atoms
thermo_modify norm no

# Positive deformation

variable delta equal ${up}*${len0}
variable delta equal 1e-06*${len0}
variable delta equal 1e-06*26.7987976004143
if "${dir} == 1" then    "change_box all x delta 0 ${delta} remap units box"
if "${dir} == 2" then    "change_box all y delta 0 ${delta} remap units box"
if "${dir} == 3" then    "change_box all z delta 0 ${delta} remap units box"
if "${dir} == 4" then    "change_box all yz delta ${delta} remap units box"
if "${dir} == 5" then    "change_box all xz delta ${delta} remap units box"
if "${dir} == 6" then    "change_box all xy delta ${delta} remap units box"
change_box all xy delta ${delta} remap units box
change_box all xy delta 2.67987976004143e-05 remap units box
  triclinic box = (0.14141 0.184714 -0.067884) to (20.1086 26.9835 47.1595) with tilt (2.67988e-05 0 0)

# Relax atoms positions

minimize ${etol} ${ftol} ${maxiter} ${maxeval}
minimize 0 ${ftol} ${maxiter} ${maxeval}
minimize 0 1e-10 ${maxiter} ${maxeval}
minimize 0 1e-10 1000 ${maxeval}
minimize 0 1e-10 1000 10000
Neighbor list info ...
  1 neighbor list requests
  update every 1 steps, delay 0 steps, check yes
  max neighbors/atom: 2000, page size: 100000
  master list distance cutoff = 7.72488
  ghost atom cutoff = 7.72488
Memory usage per processor = 3.36242 Mbytes
Step Temp Press CPU Pxx Pyy Pzz Pxy Pxz Pyz KinEng PotEng TotEng Volume Lx Ly Lz Atoms 
    1025            0 -0.0058623408            0 -0.011682754 -0.0059044373 1.6941314e-07  -0.16355649 -0.0090325385 2.4261232e-08            0   -2362.8263   -2362.8263    25271.191    19.967181    26.798798    47.227359      720 
    1026            0 -0.0058623543 0.0051000118 -0.011682762 -0.0059044539 1.5278199e-07  -0.15818071 -0.0073451493 1.1138188e-08            0   -2362.8263   -2362.8263    25271.191    19.967181    26.798798    47.227359      720 
    1027            0 -0.0058623601  0.010209084 -0.011682761 -0.0059044652 1.4606103e-07  -0.15776293 -0.0066455352 1.3734067e-08            0   -2362.8263   -2362.8263    25271.191    19.967181    26.798798    47.227359      720 
    1028            0 -0.0058623752  0.015326023 -0.011682781 -0.0059044704 1.2535741e-07  -0.15769627 -0.0058104095 5.1015534e-09            0   -2362.8263   -2362.8263    25271.191    19.967181    26.798798    47.227359      720 
    1029            0 -0.0058623834  0.020433187 -0.011682786 -0.0059044783 1.1416967e-07  -0.15766589 -0.0051100775 3.5787277e-10            0   -2362.8263   -2362.8263    25271.191    19.967181    26.798798    47.227359      720 
    1030            0 -0.0058624111   0.02554512 -0.011682814 -0.005904491 7.139937e-08  -0.15764223 -0.0044782708 -1.90429e-08            0   -2362.8263   -2362.8263    25271.191    19.967181    26.798798    47.227359      720 
    1031            0 -0.005862399  0.030652046 -0.011682781 -0.0059045109 9.4613313e-08  -0.15760685 -0.0036098068 9.002626e-09            0   -2362.8263   -2362.8263    25271.191    19.967181    26.798798    47.227359      720 
    1032            0 -0.0058625224  0.035768032 -0.011682924 -0.0059045316 -1.1124411e-07  -0.15757959 -0.0027388612 -1.1283396e-07            0   -2362.8263   -2362.8263    25271.191    19.967181    26.798798    47.227359      720 
    1033            0 -0.0058622935  0.040877104 -0.011682635 -0.0059045377 2.9259965e-07  -0.15756035 -0.0022708492 1.7619577e-07            0   -2362.8263   -2362.8263    25271.191    19.967181    26.798798    47.227359      720 
    1034            0 -0.0058633288  0.045984983 -0.011683862 -0.0059046208 -1.5040423e-06  -0.15747971 -0.00012358283 -9.7721867e-07            0   -2362.8263   -2362.8263    25271.191    19.967181    26.798798    47.227359      720 
    1035            0 -0.0058618598  0.051101208 -0.011682096 -0.005904582  1.09913e-06  -0.15746985 5.5959022e-08 8.1480984e-07            0   -2362.8263   -2362.8263    25271.191    19.967181    26.798798    47.227359      720 
    1036            0 -0.0058630842   0.05621314 -0.011683551 -0.005904622 -1.0791612e-06  -0.15746956 -3.2431307e-06 -6.7563753e-07            0   -2362.8263   -2362.8263    25271.191    19.967181    26.798798    47.227359      720 
    1037            0 -0.0058623519  0.061325073 -0.011682688 -0.005904596 2.2781341e-07  -0.15746954 -6.3586026e-07 2.1636251e-07            0   -2362.8263   -2362.8263    25271.191    19.967181    26.798798    47.227359      720 
    1038            0 -0.0058625428  0.066431046  -0.01168291 -0.0059046023 -1.1601273e-07  -0.15746954 -2.6263328e-10 -1.9238565e-08            0   -2362.8263   -2362.8263    25271.191    19.967181    26.798798    47.227359      720 
    1039            0 -0.0058625459  0.074043989 -0.011682915 -0.0059046015 -1.2114364e-07  -0.15746954 8.0864114e-12 -2.3606187e-08            0   -2362.8263   -2362.8263    25271.191    19.967181    26.798798    47.227359      720 
Loop time of 0.0740621 on 1 procs for 14 steps with 720 atoms

97.2% CPU use with 1 MPI tasks x no OpenMP threads

Minimization stats:
  Stopping criterion = force tolerance
  Energy initial, next-to-last, final = 
        -2362.82627246     -2362.82627246     -2362.82627246
  Force two-norm initial, final = 2.1571e-05 2.23054e-11
  Force max component initial, final = 1.9851e-06 1.35358e-12
  Final line search alpha, max atom move = 1 1.35358e-12
  Iterations, force evaluations = 14 28

MPI task timing breakdown:
Section |  min time  |  avg time  |  max time  |%varavg| %total
---------------------------------------------------------------
Pair    | 0.072906   | 0.072906   | 0.072906   |   0.0 | 98.44
Neigh   | 0          | 0          | 0          |   0.0 |  0.00
Comm    | 0.00026321 | 0.00026321 | 0.00026321 |   0.0 |  0.36
Output  | 0.00036049 | 0.00036049 | 0.00036049 |   0.0 |  0.49
Modify  | 0          | 0          | 0          |   0.0 |  0.00
Other   |            | 0.0005326  |            |       |  0.72

Nlocal:    720 ave 720 max 720 min
Histogram: 1 0 0 0 0 0 0 0 0 0
Nghost:    1201 ave 1201 max 1201 min
Histogram: 1 0 0 0 0 0 0 0 0 0
Neighs:    41460 ave 41460 max 41460 min
Histogram: 1 0 0 0 0 0 0 0 0 0

Total # of neighbors = 41460
Ave neighs/atom = 57.5833
Neighbor list builds = 0
Dangerous builds = 0

# Obtain new stress tensor

variable tmp equal pe
variable e1 equal ${tmp}
variable e1 equal -2362.82627245627
variable tmp equal press
variable p1 equal ${tmp}
variable p1 equal -0.00586254592848676
variable tmp equal pxx
variable pxx1 equal ${tmp}
variable pxx1 equal -0.0116829151814809
variable tmp equal pyy
variable pyy1 equal ${tmp}
variable pyy1 equal -0.00590460146033802
variable tmp equal pzz
variable pzz1 equal ${tmp}
variable pzz1 equal -1.21143641373394e-07
variable tmp equal pxy
variable pxy1 equal ${tmp}
variable pxy1 equal -0.157469540066376
variable tmp equal pxz
variable pxz1 equal ${tmp}
variable pxz1 equal 8.08641144866795e-12
variable tmp equal pyz
variable pyz1 equal ${tmp}
variable pyz1 equal -2.36061866744835e-08

# Compute elastic constant from pressure tensor

variable C1pos equal ${d1}
variable C1pos equal 0.728564789671013
variable C2pos equal ${d2}
variable C2pos equal -0.031907310862547
variable C3pos equal ${d3}
variable C3pos equal 0.190408021021698
variable C4pos equal ${d4}
variable C4pos equal 28.0113940356503
variable C5pos equal ${d5}
variable C5pos equal 1.22585580753007e-08
variable C6pos equal ${d6}
variable C6pos equal 15.7469540082213

# Combine positive and negative

variable C1${dir} equal 0.5*(${C1neg}+${C1pos})
variable C16 equal 0.5*(${C1neg}+${C1pos})
variable C16 equal 0.5*(-0.728564790238553+${C1pos})
variable C16 equal 0.5*(-0.728564790238553+0.728564789671013)
variable C2${dir} equal 0.5*(${C2neg}+${C2pos})
variable C26 equal 0.5*(${C2neg}+${C2pos})
variable C26 equal 0.5*(0.0319073086481211+${C2pos})
variable C26 equal 0.5*(0.0319073086481211+-0.031907310862547)
variable C3${dir} equal 0.5*(${C3neg}+${C3pos})
variable C36 equal 0.5*(${C3neg}+${C3pos})
variable C36 equal 0.5*(-0.19040802091383+${C3pos})
variable C36 equal 0.5*(-0.19040802091383+0.190408021021698)
variable C4${dir} equal 0.5*(${C4neg}+${C4pos})
variable C46 equal 0.5*(${C4neg}+${C4pos})
variable C46 equal 0.5*(-28.0113940351036+${C4pos})
variable C46 equal 0.5*(-28.0113940351036+28.0113940356503)
variable C5${dir} equal 0.5*(${C5neg}+${C5pos})
variable C56 equal 0.5*(${C5neg}+${C5pos})
variable C56 equal 0.5*(-1.77072240339031e-08+${C5pos})
variable C56 equal 0.5*(-1.77072240339031e-08+1.22585580753007e-08)
variable C6${dir} equal 0.5*(${C6neg}+${C6pos})
variable C66 equal 0.5*(${C6neg}+${C6pos})
variable C66 equal 0.5*(15.7469540044409+${C6pos})
variable C66 equal 0.5*(15.7469540044409+15.7469540082213)

# Delete dir to make sure it is not reused

variable dir delete

# Output final values

variable C11all equal ${C11}
variable C11all equal 40.572877690225
variable C22all equal ${C22}
variable C22all equal 45.021462502373
variable C33all equal ${C33}
variable C33all equal -3.10209705006725e-08

variable C12all equal 0.5*(${C12}+${C21})
variable C12all equal 0.5*(15.0627156978461+${C21})
variable C12all equal 0.5*(15.0627156978461+15.0555322243885)
variable C13all equal 0.5*(${C13}+${C31})
variable C13all equal 0.5*(-7.87455170014884e-07+${C31})
variable C13all equal 0.5*(-7.87455170014884e-07+-0.00313600241339801)
variable C23all equal 0.5*(${C23}+${C32})
variable C23all equal 0.5*(-7.21154989998668e-07+${C32})
variable C23all equal 0.5*(-7.21154989998668e-07+1.58600803004671e-07)

variable C44all equal ${C44}
variable C44all equal -4.3450043563098e-10
variable C55all equal ${C55}
variable C55all equal 2.993333792106e-10
variable C66all equal ${C66}
variable C66all equal 15.7469540063311

variable C14all equal 0.5*(${C14}+${C41})
variable C14all equal 0.5*(6.5845660035535e-08+${C41})
variable C14all equal 0.5*(6.5845660035535e-08+0.0652860422818495)
variable C15all equal 0.5*(${C15}+${C51})
variable C15all equal 0.5*(-3.12720016548695e-10+${C51})
variable C15all equal 0.5*(-3.12720016548695e-10+1.736754700348e-10)
variable C16all equal 0.5*(${C16}+${C61})
variable C16all equal 0.5*(-2.83770007492024e-10+${C61})
variable C16all equal 0.5*(-2.83770007492024e-10+2.2325531212378e-10)

variable C24all equal 0.5*(${C24}+${C42})
variable C24all equal 0.5*(-2.10379325949611e-07+${C42})
variable C24all equal 0.5*(-2.10379325949611e-07+-1.43812499686646e-08)
variable C25all equal 0.5*(${C25}+${C52})
variable C25all equal 0.5*(-1.71285447631009e-10+${C52})
variable C25all equal 0.5*(-1.71285447631009e-10+-1.2336453144055e-10)
variable C26all equal 0.5*(${C26}+${C62})
variable C26all equal 0.5*(-1.10721294979688e-09+${C62})
variable C26all equal 0.5*(-1.10721294979688e-09+4.5160384591508e-10)

variable C34all equal 0.5*(${C34}+${C43})
variable C34all equal 0.5*(-1.44620265499218e-07+${C43})
variable C34all equal 0.5*(-1.44620265499218e-07+2.901646000808e-06)
variable C35all equal 0.5*(${C35}+${C53})
variable C35all equal 0.5*(6.50205028707163e-11+${C53})
variable C35all equal 0.5*(6.50205028707163e-11+-1.808506730254e-10)
variable C36all equal 0.5*(${C36}+${C63})
variable C36all equal 0.5*(5.39339961580509e-11+${C63})
variable C36all equal 0.5*(5.39339961580509e-11+-3.58484125856615e-10)

variable C45all equal 0.5*(${C45}+${C54})
variable C45all equal 0.5*(-3.62399887876563e-10+${C54})
variable C45all equal 0.5*(-3.62399887876563e-10+1.50524535935851e-10)
variable C46all equal 0.5*(${C46}+${C64})
variable C46all equal 0.5*(2.73351119517429e-10+${C64})
variable C46all equal 0.5*(2.73351119517429e-10+-5.8425384026509e-10)
variable C56all equal 0.5*(${C56}+${C65})
variable C56all equal 0.5*(-2.7243329793012e-09+${C65})
variable C56all equal 0.5*(-2.7243329793012e-09+-5.88103150722665e-10)

# For Stillinger-Weber silicon, the analytical results
# are known to be (E. R. Cowley, 1988):
#               C11 = 151.4 GPa
#               C12 = 76.4 GPa
#               C44 = 56.4 GPa

print "Elastic Constant C11all = ${C11all} ${cunits}"
Elastic Constant C11all = 40.572877690225 GPa
print "Elastic Constant C22all = ${C22all} ${cunits}"
Elastic Constant C22all = 45.021462502373 GPa
print "Elastic Constant C33all = ${C33all} ${cunits}"
Elastic Constant C33all = -3.10209705006725e-08 GPa

print "Elastic Constant C12all = ${C12all} ${cunits}"
Elastic Constant C12all = 15.0591239611173 GPa
print "Elastic Constant C13all = ${C13all} ${cunits}"
Elastic Constant C13all = -0.00156839493428401 GPa
print "Elastic Constant C23all = ${C23all} ${cunits}"
Elastic Constant C23all = -2.81277093496999e-07 GPa

print "Elastic Constant C44all = ${C44all} ${cunits}"
Elastic Constant C44all = -4.3450043563098e-10 GPa
print "Elastic Constant C55all = ${C55all} ${cunits}"
Elastic Constant C55all = 2.993333792106e-10 GPa
print "Elastic Constant C66all = ${C66all} ${cunits}"
Elastic Constant C66all = 15.7469540063311 GPa

print "Elastic Constant C14all = ${C14all} ${cunits}"
Elastic Constant C14all = 0.0326430540637548 GPa
print "Elastic Constant C15all = ${C15all} ${cunits}"
Elastic Constant C15all = -6.95222732569475e-11 GPa
print "Elastic Constant C16all = ${C16all} ${cunits}"
Elastic Constant C16all = -3.0257347684122e-11 GPa

print "Elastic Constant C24all = ${C24all} ${cunits}"
Elastic Constant C24all = -1.12380287959138e-07 GPa
print "Elastic Constant C25all = ${C25all} ${cunits}"
Elastic Constant C25all = -1.47324989535779e-10 GPa
print "Elastic Constant C26all = ${C26all} ${cunits}"
Elastic Constant C26all = -3.278045519409e-10 GPa

print "Elastic Constant C34all = ${C34all} ${cunits}"
Elastic Constant C34all = 1.37851286765439e-06 GPa
print "Elastic Constant C35all = ${C35all} ${cunits}"
Elastic Constant C35all = -5.79150850773419e-11 GPa
print "Elastic Constant C36all = ${C36all} ${cunits}"
Elastic Constant C36all = -1.52275064849282e-10 GPa

print "Elastic Constant C45all = ${C45all} ${cunits}"
Elastic Constant C45all = -1.05937675970356e-10 GPa
print "Elastic Constant C46all = ${C46all} ${cunits}"
Elastic Constant C46all = -1.5545136037383e-10 GPa
print "Elastic Constant C56all = ${C56all} ${cunits}"
Elastic Constant C56all = -1.65621806501193e-09 GPa

Total wall time: 0:00:06
