   2   2   0   0
  0.2072484E+02  0.3884592E-09  0.3884592E-09  0.3884592E-09  0.5000000E-15
   1.0000000000000000E-004
  CAR 
 unknown system                          
     30.25001467     -8.11245972  301      5.94154961      1.00000000
     -8.112  0.0000E+00  0.0000E+00
     -7.985  0.0000E+00  0.0000E+00
     -7.857  0.0000E+00  0.0000E+00
     -7.729  0.0000E+00  0.0000E+00
     -7.601  0.0000E+00  0.0000E+00
     -7.473  0.0000E+00  0.0000E+00
     -7.345  0.0000E+00  0.0000E+00
     -7.217  0.1608E-14  0.2056E-15
     -7.089  0.1418E-11  0.1815E-12
     -6.962  0.5554E-09  0.7120E-10
     -6.834  0.9781E-07  0.1258E-07
     -6.706  0.7777E-05  0.1007E-05
     -6.578  0.2807E-03  0.3690E-04
     -6.450  0.4626E-02  0.6285E-03
     -6.322  0.3506E-01  0.5112E-02
     -6.194  0.1230E+00  0.2084E-01
     -6.066  0.2005E+00  0.4648E-01
     -5.939  0.1524E+00  0.6597E-01
     -5.811  0.5388E-01  0.7286E-01
     -5.683  0.8830E-02  0.7399E-01
     -5.555  0.6667E-03  0.7407E-01
     -5.427  0.3336E-04  0.7408E-01
     -5.299  0.5247E-03  0.7414E-01
     -5.171  0.1212E-01  0.7569E-01
     -5.043  0.1284E+00  0.9212E-01
     -4.916  0.6282E+00  0.1725E+00
     -4.788  0.1426E+01  0.3549E+00
     -4.660  0.1516E+01  0.5488E+00
     -4.532  0.8351E+00  0.6555E+00
     -4.404  0.6299E+00  0.7361E+00
     -4.276  0.1078E+01  0.8740E+00
     -4.148  0.1139E+01  0.1020E+01
     -4.020  0.5688E+00  0.1092E+01
     -3.893  0.1321E+00  0.1109E+01
     -3.765  0.1417E-01  0.1111E+01
     -3.637  0.7026E-03  0.1111E+01
     -3.509  0.3233E-03  0.1111E+01
     -3.381  0.8707E-02  0.1112E+01
     -3.253  0.1128E+00  0.1127E+01
     -3.125  0.6732E+00  0.1213E+01
     -2.997  0.1863E+01  0.1451E+01
     -2.870  0.2398E+01  0.1758E+01
     -2.742  0.1439E+01  0.1942E+01
     -2.614  0.4014E+00  0.1993E+01
     -2.486  0.5180E-01  0.2000E+01
     -2.358  0.3073E-02  0.2000E+01
     -2.230  0.8326E-04  0.2000E+01
     -2.102  0.1024E-05  0.2000E+01
     -1.974  0.6269E-08  0.2000E+01
     -1.847  0.1451E-06  0.2000E+01
     -1.719  0.1614E-04  0.2000E+01
     -1.591  0.8131E-03  0.2000E+01
     -1.463  0.1866E-01  0.2002E+01
     -1.335  0.1963E+00  0.2028E+01
     -1.207  0.9531E+00  0.2149E+01
     -1.079  0.2148E+01  0.2424E+01
     -0.951  0.2254E+01  0.2712E+01
     -0.824  0.1102E+01  0.2853E+01
     -0.696  0.2503E+00  0.2885E+01
     -0.568  0.2625E-01  0.2889E+01
     -0.440  0.1263E-02  0.2889E+01
     -0.312  0.3192E-04  0.2889E+01
     -0.184  0.2513E-03  0.2889E+01
     -0.056  0.6810E-02  0.2890E+01
      0.072  0.8467E-01  0.2901E+01
      0.199  0.4878E+00  0.2963E+01
      0.327  0.1337E+01  0.3134E+01
      0.455  0.1910E+01  0.3378E+01
      0.583  0.1827E+01  0.3612E+01
      0.711  0.1447E+01  0.3797E+01
      0.839  0.7697E+00  0.3895E+01
      0.967  0.2498E+00  0.3927E+01
      1.095  0.3516E+00  0.3972E+01
      1.222  0.1280E+01  0.4136E+01
      1.350  0.2346E+01  0.4436E+01
      1.478  0.2005E+01  0.4692E+01
      1.606  0.7978E+00  0.4794E+01
      1.734  0.1472E+00  0.4813E+01
      1.862  0.1253E-01  0.4815E+01
      1.990  0.4886E-03  0.4815E+01
      2.118  0.8668E-05  0.4815E+01
      2.245  0.6959E-07  0.4815E+01
      2.373  0.4040E-08  0.4815E+01
      2.501  0.7230E-06  0.4815E+01
      2.629  0.6226E-04  0.4815E+01
      2.757  0.2432E-02  0.4815E+01
      2.885  0.4339E-01  0.4821E+01
      3.013  0.3563E+00  0.4866E+01
      3.141  0.1367E+01  0.5041E+01
      3.268  0.2580E+01  0.5371E+01
      3.396  0.2935E+01  0.5746E+01
      3.524  0.2920E+01  0.6120E+01
      3.652  0.2362E+01  0.6422E+01
      3.780  0.1075E+01  0.6559E+01
      3.908  0.2363E+00  0.6589E+01
      4.036  0.2449E-01  0.6592E+01
      4.164  0.1117E-01  0.6594E+01
      4.291  0.1350E+00  0.6611E+01
      4.419  0.8371E+00  0.6718E+01
      4.547  0.2405E+01  0.7026E+01
      4.675  0.3215E+01  0.7437E+01
      4.803  0.2003E+01  0.7693E+01
      4.931  0.5802E+00  0.7767E+01
      5.059  0.7812E-01  0.7777E+01
      5.187  0.1189E-01  0.7779E+01
      5.314  0.6623E-01  0.7787E+01
      5.442  0.2846E+00  0.7824E+01
      5.570  0.5690E+00  0.7896E+01
      5.698  0.5300E+00  0.7964E+01
      5.826  0.2302E+00  0.7994E+01
      5.954  0.5367E-01  0.8000E+01
      6.082  0.8724E-01  0.8012E+01
      6.210  0.4299E+00  0.8067E+01
      6.337  0.1033E+01  0.8199E+01
      6.465  0.1156E+01  0.8346E+01
      6.593  0.6030E+00  0.8424E+01
      6.721  0.1506E+00  0.8443E+01
      6.849  0.9138E-01  0.8455E+01
      6.977  0.5771E+00  0.8528E+01
      7.105  0.2117E+01  0.8799E+01
      7.233  0.3785E+01  0.9283E+01
      7.360  0.3415E+01  0.9720E+01
      7.488  0.1954E+01  0.9970E+01
      7.616  0.1417E+01  0.1015E+02
      7.744  0.1119E+01  0.1029E+02
      7.872  0.5377E+00  0.1036E+02
      8.000  0.3358E+00  0.1041E+02
      8.128  0.5430E+00  0.1047E+02
      8.256  0.5688E+00  0.1055E+02
      8.383  0.2974E+00  0.1059E+02
      8.511  0.1452E+00  0.1060E+02
      8.639  0.1956E+00  0.1063E+02
      8.767  0.3125E+00  0.1067E+02
      8.895  0.8866E+00  0.1078E+02
      9.023  0.2368E+01  0.1109E+02
      9.151  0.3226E+01  0.1150E+02
      9.279  0.2063E+01  0.1176E+02
      9.406  0.6137E+00  0.1184E+02
      9.534  0.8453E-01  0.1185E+02
      9.662  0.5355E-02  0.1185E+02
      9.790  0.1550E-03  0.1185E+02
      9.918  0.2037E-05  0.1185E+02
     10.046  0.1209E-07  0.1185E+02
     10.174  0.3227E-10  0.1185E+02
     10.302  0.3334E-11  0.1185E+02
     10.429  0.1582E-08  0.1185E+02
     10.557  0.3411E-06  0.1185E+02
     10.685  0.3316E-04  0.1185E+02
     10.813  0.1461E-02  0.1185E+02
     10.941  0.2937E-01  0.1186E+02
     11.069  0.2709E+00  0.1189E+02
     11.197  0.1154E+01  0.1204E+02
     11.325  0.2285E+01  0.1233E+02
     11.452  0.2109E+01  0.1260E+02
     11.580  0.9349E+00  0.1272E+02
     11.708  0.4549E+00  0.1278E+02
     11.836  0.1180E+01  0.1293E+02
     11.964  0.2292E+01  0.1322E+02
     12.092  0.2122E+01  0.1349E+02
     12.220  0.1118E+01  0.1364E+02
     12.348  0.1253E+01  0.1380E+02
     12.475  0.2700E+01  0.1414E+02
     12.603  0.4156E+01  0.1467E+02
     12.731  0.4994E+01  0.1531E+02
     12.859  0.4548E+01  0.1589E+02
     12.987  0.3052E+01  0.1628E+02
     13.115  0.2952E+01  0.1666E+02
     13.243  0.4446E+01  0.1723E+02
     13.371  0.5323E+01  0.1791E+02
     13.498  0.4986E+01  0.1855E+02
     13.626  0.3382E+01  0.1898E+02
     13.754  0.1321E+01  0.1915E+02
     13.882  0.2580E+00  0.1918E+02
     14.010  0.2654E-01  0.1919E+02
     14.138  0.4384E-01  0.1919E+02
     14.266  0.3096E+00  0.1923E+02
     14.394  0.1036E+01  0.1936E+02
     14.521  0.1613E+01  0.1957E+02
     14.649  0.1176E+01  0.1972E+02
     14.777  0.4752E+00  0.1978E+02
     14.905  0.4860E+00  0.1984E+02
     15.033  0.1064E+01  0.1998E+02
     15.161  0.1402E+01  0.2016E+02
     15.289  0.1404E+01  0.2034E+02
     15.417  0.1361E+01  0.2051E+02
     15.544  0.8794E+00  0.2062E+02
     15.672  0.2866E+00  0.2066E+02
     15.800  0.4389E-01  0.2067E+02
     15.928  0.3101E-02  0.2067E+02
     16.056  0.1086E-03  0.2067E+02
     16.184  0.3699E-03  0.2067E+02
     16.312  0.7388E-02  0.2067E+02
     16.440  0.6802E-01  0.2068E+02
     16.567  0.2893E+00  0.2071E+02
     16.695  0.5717E+00  0.2079E+02
     16.823  0.5262E+00  0.2085E+02
     16.951  0.2256E+00  0.2088E+02
     17.079  0.4486E-01  0.2089E+02
     17.207  0.4117E-02  0.2089E+02
     17.335  0.1732E-03  0.2089E+02
     17.463  0.3318E-05  0.2089E+02
     17.590  0.5789E-07  0.2089E+02
     17.718  0.3727E-05  0.2089E+02
     17.846  0.2158E-03  0.2089E+02
     17.974  0.5685E-02  0.2089E+02
     18.102  0.6858E-01  0.2090E+02
     18.230  0.3815E+00  0.2095E+02
     18.358  0.9874E+00  0.2107E+02
     18.486  0.1243E+01  0.2123E+02
     18.613  0.1173E+01  0.2138E+02
     18.741  0.2181E+01  0.2166E+02
     18.869  0.3789E+01  0.2215E+02
     18.997  0.3405E+01  0.2258E+02
     19.125  0.1483E+01  0.2277E+02
     19.253  0.3131E+00  0.2281E+02
     19.381  0.7372E-01  0.2282E+02
     19.509  0.3620E+00  0.2287E+02
     19.636  0.1485E+01  0.2306E+02
     19.764  0.3273E+01  0.2348E+02
     19.892  0.4477E+01  0.2405E+02
     20.020  0.4203E+01  0.2459E+02
     20.148  0.3168E+01  0.2499E+02
     20.276  0.2941E+01  0.2537E+02
     20.404  0.2810E+01  0.2573E+02
     20.532  0.2191E+01  0.2601E+02
     20.659  0.1836E+01  0.2624E+02
     20.787  0.2468E+01  0.2656E+02
     20.915  0.3744E+01  0.2703E+02
     21.043  0.4032E+01  0.2755E+02
     21.171  0.2788E+01  0.2791E+02
     21.299  0.1264E+01  0.2807E+02
     21.427  0.9883E+00  0.2820E+02
     21.555  0.1824E+01  0.2843E+02
     21.682  0.2791E+01  0.2879E+02
     21.810  0.3755E+01  0.2927E+02
     21.938  0.4318E+01  0.2982E+02
     22.066  0.3241E+01  0.3023E+02
     22.194  0.1342E+01  0.3040E+02
     22.322  0.2944E+00  0.3044E+02
     22.450  0.1380E+00  0.3046E+02
     22.578  0.6698E+00  0.3054E+02
     22.705  0.2005E+01  0.3080E+02
     22.833  0.3152E+01  0.3120E+02
     22.961  0.2981E+01  0.3159E+02
     23.089  0.1841E+01  0.3182E+02
     23.217  0.6791E+00  0.3191E+02
     23.345  0.1304E+00  0.3192E+02
     23.473  0.1203E-01  0.3193E+02
     23.601  0.5155E-03  0.3193E+02
     23.728  0.1010E-04  0.3193E+02
     23.856  0.8967E-07  0.3193E+02
     23.984  0.3588E-09  0.3193E+02
     24.112  0.6447E-12  0.3193E+02
     24.240  0.5145E-15  0.3193E+02
     24.368  0.0000E+00  0.3193E+02
     24.496  0.0000E+00  0.3193E+02
     24.624  0.0000E+00  0.3193E+02
     24.751  0.0000E+00  0.3193E+02
     24.879  0.0000E+00  0.3193E+02
     25.007  0.0000E+00  0.3193E+02
     25.135  0.0000E+00  0.3193E+02
     25.263  0.0000E+00  0.3193E+02
     25.391  0.0000E+00  0.3193E+02
     25.519  0.0000E+00  0.3193E+02
     25.647  0.0000E+00  0.3193E+02
     25.774  0.0000E+00  0.3193E+02
     25.902  0.0000E+00  0.3193E+02
     26.030  0.0000E+00  0.3193E+02
     26.158  0.0000E+00  0.3193E+02
     26.286  0.0000E+00  0.3193E+02
     26.414  0.0000E+00  0.3193E+02
     26.542  0.0000E+00  0.3193E+02
     26.670  0.0000E+00  0.3193E+02
     26.797  0.0000E+00  0.3193E+02
     26.925  0.0000E+00  0.3193E+02
     27.053  0.0000E+00  0.3193E+02
     27.181  0.1177E-13  0.3193E+02
     27.309  0.8208E-11  0.3193E+02
     27.437  0.2568E-08  0.3193E+02
     27.565  0.3617E-06  0.3193E+02
     27.693  0.2303E-04  0.3193E+02
     27.820  0.6666E-03  0.3193E+02
     27.948  0.8830E-02  0.3193E+02
     28.076  0.5388E-01  0.3193E+02
     28.204  0.1524E+00  0.3195E+02
     28.332  0.2005E+00  0.3198E+02
     28.460  0.1230E+00  0.3199E+02
     28.588  0.3506E-01  0.3200E+02
     28.716  0.4626E-02  0.3200E+02
     28.843  0.2807E-03  0.3200E+02
     28.971  0.7777E-05  0.3200E+02
     29.099  0.9781E-07  0.3200E+02
     29.227  0.5554E-09  0.3200E+02
     29.355  0.1418E-11  0.3200E+02
     29.483  0.1608E-14  0.3200E+02
     29.611  0.0000E+00  0.3200E+02
     29.739  0.0000E+00  0.3200E+02
     29.866  0.0000E+00  0.3200E+02
     29.994  0.0000E+00  0.3200E+02
     30.122  0.0000E+00  0.3200E+02
     30.250  0.0000E+00  0.3200E+02
