    2    2    1    1
  0.2072484E+02  0.3884592E-09  0.3884592E-09  0.3884592E-09  0.5000000E-15
   1.0000000000000000E-004
  CAR 
 unknown system                          
      8      4     16

  0.3742002E-15  0.3742002E-15  0.3742002E-15  0.3703704E-01
    1       -6.112460   1.000000
    2        5.558267   0.996638
    3        5.558267   0.996638
    4        5.558267   0.996638
    5        8.137929   0.000000
    6        8.137929   0.000000
    7        8.137929   0.000000
    8        8.646041   0.000000
    9       13.263372   0.000000
   10       13.263372   0.000000
   11       13.391213   0.000000
   12       16.681389   0.000000
   13       16.681389   0.000000
   14       16.681389   0.000000
   15       20.781047   0.000000
   16       28.250015   0.000000

  0.3333333E+00  0.3608225E-15  0.3608225E-15  0.2962963E+00
    1       -4.778400   1.000000
    2        0.362670   1.000000
    3        4.595783   1.000000
    4        4.595783   1.000000
    5        7.256103   0.000000
    6        9.075875   0.000000
    7        9.075875   0.000000
    8       13.297805   0.000000
    9       13.487805   0.000000
   10       13.487805   0.000000
   11       14.467592   0.000000
   12       18.889605   0.000000
   13       19.933753   0.000000
   14       19.933753   0.000000
   15       21.966074   0.000000
   16       22.951139   0.000000

  0.3333333E+00  0.3333333E+00  0.3742002E-15  0.2222222E+00
    1       -4.264383   1.000000
    2        0.628950   1.000000
    3        3.235285   1.000000
    4        3.235285   1.000000
    5        6.356274   0.001681
    6        7.610775   0.000000
    7       12.684165   0.000000
    8       12.684165   0.000000
    9       15.053582   0.000000
   10       15.359693   0.000000
   11       18.388284   0.000000
   12       18.826190   0.000000
   13       18.826190   0.000000
   14       20.514936   0.000000
   15       21.526613   0.000000
   16       21.679395   0.000000

 -0.3333333E+00  0.3333333E+00  0.3885781E-15  0.4444444E+00
    1       -2.955122   1.000000
    2       -1.071236   1.000000
    3        1.323990   1.000000
    4        3.528234   1.000000
    5        7.177129   0.000000
    6       11.310954   0.000000
    7       11.949377   0.000000
    8       12.476717   0.000000
    9       12.806518   0.000000
   10       13.177564   0.000000
   11       19.732540   0.000000
   12       20.266955   0.000000
   13       20.857698   0.000000
   14       21.039936   0.000000
   15       21.864727   0.000000
   16       22.750904   0.000000
