       N       E                     dE             d eps       ncg     rms          rms(c)
DAV:   1     0.979970811180E+01    0.97997E+01   -0.47518E+03   128   0.592E+02
DAV:   2    -0.774620462016E+01   -0.17546E+02   -0.16547E+02   192   0.488E+01
DAV:   3    -0.787320109706E+01   -0.12700E+00   -0.12700E+00   144   0.552E+00
DAV:   4    -0.787363731061E+01   -0.43621E-03   -0.43621E-03   256   0.378E-01
DAV:   5    -0.787363731791E+01   -0.73018E-08   -0.72424E-08   128   0.172E-03    0.393E+00
DAV:   6    -0.779269077857E+01    0.80947E-01   -0.10796E-01   208   0.969E-01    0.242E+00
DAV:   7    -0.777070387473E+01    0.21987E-01   -0.25663E-01   176   0.147E+00    0.210E-01
DAV:   8    -0.775279891854E+01    0.17905E-01   -0.59709E-03   128   0.281E-01    0.113E-01
DAV:   9    -0.775337431608E+01   -0.57540E-03   -0.74670E-04   160   0.104E-01    0.559E-02
DAV:  10    -0.775362528372E+01   -0.25097E-03   -0.25066E-05   192   0.239E-02    0.404E-03
DAV:  11    -0.775336501619E+01    0.26027E-03   -0.12852E-06   192   0.408E-03    0.127E-03
DAV:  12    -0.775335861862E+01    0.63976E-05   -0.51716E-08   176   0.134E-03    0.318E-04
DAV:  13    -0.775334393718E+01    0.14681E-04   -0.64335E-09   160   0.344E-04    0.170E-04
DAV:  14    -0.775334761949E+01   -0.36823E-05   -0.34880E-10   112   0.102E-04    0.314E-05
DAV:  15    -0.775334776937E+01   -0.14988E-06   -0.92423E-12    80   0.172E-05    0.909E-06
DAV:  16    -0.775334778902E+01   -0.19651E-07   -0.26087E-12    64   0.634E-06
   1 F= -.77533478E+01 E0= -.77530184E+01  d E =-.775335E+01
