 vasp.5.4.1 24Jun15 (build Feb  9 2019 14:16:27) complex                         
 executed on           IFC91_ompi date 2020.09.26  22:25:53
 running on   16 total cores
 distrk:  each k-point on   16 cores,    1 groups
 distr:  one band on NCORES_PER_BAND=   1 cores,   16 groups


--------------------------------------------------------------------------------------------------------


 INCAR:
 POTCAR:    PAW_PBE Si 05Jan2001                  

 ----------------------------------------------------------------------------- 
|                                                                             |
|           W    W    AA    RRRRR   N    N  II  N    N   GGGG   !!!           |
|           W    W   A  A   R    R  NN   N  II  NN   N  G    G  !!!           |
|           W    W  A    A  R    R  N N  N  II  N N  N  G       !!!           |
|           W WW W  AAAAAA  RRRRR   N  N N  II  N  N N  G  GGG   !            |
|           WW  WW  A    A  R   R   N   NN  II  N   NN  G    G                |
|           W    W  A    A  R    R  N    N  II  N    N   GGGG   !!!           |
|                                                                             |
|      For optimal performance we recommend to set                            |
|        NCORE= 4 - approx SQRT( number of cores)                             |
|      NCORE specifies how many cores store one orbital (NPAR=cpu/NCORE).     |
|      This setting can  greatly improve the performance of VASP for DFT.     |
|      The default, NPAR=number of cores might be grossly inefficient         |
|      on modern multi-core architectures or massively parallel machines.     |
|      Do your own testing !!!!                                               |
|      Unfortunately you need to use the default for GW and RPA calculations. |
|      (for HF NCORE is supported but not extensively tested yet)             |
|                                                                             |
 ----------------------------------------------------------------------------- 


 ----------------------------------------------------------------------------- 
|                                                                             |
|  ADVICE TO THIS USER RUNNING 'VASP/VAMP'   (HEAR YOUR MASTER'S VOICE ...):  |
|                                                                             |
|      You have switched on vdW-DFT.                                          |
|      This routine was written and supplied by Jiri Klimes.                  |
|      We recommed that you carefully read and cite the following             |
|      publication                                                            |
|      J. Klimes, D.R. Bowler, A. Michelides                                  |
|        J. Phys.: Cond Matt. 22 022201 (2010)                                |
|      J. Klimes, D.R. Bowler, A. Michelides                                  |
|        Phys. Rev. B. 83, 195131 (2011)                                      |
|      and references therein.                                                |
|                                                                             |
 ----------------------------------------------------------------------------- 

 POTCAR:    PAW_PBE Si 05Jan2001                  
   VRHFIN =Si: s2p2                                                             
   LEXCH  = PE                                                                  
   EATOM  =   103.0669 eV,    7.5752 Ry                                         
                                                                                
   TITEL  = PAW_PBE Si 05Jan2001                                                
   LULTRA =        F    use ultrasoft PP ?                                      
   IUNSCR =        1    unscreen: 0-lin 1-nonlin 2-no                           
   RPACOR =    1.500    partial core radius                                     
   POMASS =   28.085; ZVAL   =    4.000    mass and valenz                      
   RCORE  =    1.900    outmost cutoff radius                                   
   RWIGS  =    2.480; RWIGS  =    1.312    wigner-seitz radius (au A)           
   ENMAX  =  245.345; ENMIN  =  184.009 eV                                      
   ICORE  =        2    local potential                                         
   LCOR   =        T    correct aug charges                                     
   LPAW   =        T    paw PP                                                  
   EAUG   =  322.069                                                            
   DEXC   =    0.000                                                            
   RMAX   =    1.950    core radius for proj-oper                               
   RAUG   =    1.300    factor for augmentation sphere                          
   RDEP   =    1.993    radius for radial grids                                 
   RDEPT  =    1.837    core radius for aug-charge                              
                                                                                
   Atomic configuration                                                         
    6 entries                                                                   
     n  l   j            E        occ.                                          
     1  0  0.50     -1785.8828   2.0000                                         
     2  0  0.50      -139.4969   2.0000                                         
     2  1  1.50       -95.5546   6.0000                                         
     3  0  0.50       -10.8127   2.0000                                         
     3  1  0.50        -4.0811   2.0000                                         
     3  2  1.50        -4.0817   0.0000                                         
   Description                                                                  
     l       E           TYP  RCUT    TYP  RCUT                                 
     0    -10.8127223     23  1.900                                             
     0     -7.6451159     23  1.900                                             
     1     -4.0811372     23  1.900                                             
     1      2.4879257     23  1.900                                             
     2     -4.0817478      7  1.900                                             
  local pseudopotential read in
  partial core-charges read in
  partial kinetic energy density read in
  atomic valenz-charges read in
  non local Contribution for L=           0  read in
    real space projection operators read in
  non local Contribution for L=           0  read in
    real space projection operators read in
  non local Contribution for L=           1  read in
    real space projection operators read in
  non local Contribution for L=           1  read in
    real space projection operators read in
    PAW grid and wavefunctions read in

   number of l-projection  operators is LMAX  =           4
   number of lm-projection operators is LMMAX =           8


 ----------------------------------------------------------------------------- 
|                                                                             |
|  ADVICE TO THIS USER RUNNING 'VASP/VAMP'   (HEAR YOUR MASTER'S VOICE ...):  |
|                                                                             |
|      You enforced a specific xc-type in the INCAR file,                     |
|      a different type was found on the POTCAR file                          |
|          I HOPE YOU KNOW, WHAT YOU ARE  DOING                               |
|                                                                             |
 ----------------------------------------------------------------------------- 

  PAW_PBE Si 05Jan2001                  :
 energy of atom  1       EATOM= -103.0669
 kinetic energy error for atom=    0.0002 (will be added to EATOM!!)


 POSCAR: bulk@JVASP-1002                         
  positions in direct lattice
  No initial velocities read in
 exchange correlation table for  LEXCH =       42
   RHO(1)=    0.500       N(1)  =     2000
   RHO(2)=  100.500       N(2)  =     4000



--------------------------------------------------------------------------------------------------------


 ion  position               nearest neighbor table
   1  0.750  0.750  0.750-   2 2.38   2 2.38   2 2.38   2 2.38
   2  0.500  0.500  0.500-   1 2.38   1 2.38   1 2.38   1 2.38

  LATTYP: Found a face centered cubic cell.
 ALAT       =     5.4936422752
  
  Lattice vectors:
  
 A1 = (   0.0000000000,   2.7468211376,   2.7468211376)
 A2 = (   2.7468211376,   0.0000000000,   2.7468211376)
 A3 = (   2.7468211376,   2.7468211376,   0.0000000000)


Analysis of symmetry for initial positions (statically):
=====================================================================
 Subroutine PRICEL returns:
 Original cell was already a primitive cell.
 

 Routine SETGRP: Setting up the symmetry group for a 
 face centered cubic supercell.


 Subroutine GETGRP returns: Found 48 space group operations
 (whereof 24 operations were pure point group operations)
 out of a pool of 48 trial point group operations.


The static configuration has the point symmetry T_d .
 The point group associated with its full space group is O_h .


Analysis of symmetry for dynamics (positions and initial velocities):
=====================================================================
 Subroutine PRICEL returns:
 Original cell was already a primitive cell.
 

 Routine SETGRP: Setting up the symmetry group for a 
 face centered cubic supercell.


 Subroutine GETGRP returns: Found 48 space group operations
 (whereof 24 operations were pure point group operations)
 out of a pool of 48 trial point group operations.


The dynamic configuration has the point symmetry T_d .
 The point group associated with its full space group is O_h .


 KPOINTS: Automatic kpoint scheme                 

Automatic generation of k-mesh.
Space group operators:
 irot       det(A)        alpha          n_x          n_y          n_z        tau_x        tau_y        tau_z
    1     1.000000     0.000000     1.000000     0.000000     0.000000     0.000000     0.000000     0.000000
    2     1.000000   120.000000    -0.577350    -0.577350    -0.577350     0.000000     0.000000     0.000000
    3     1.000000   120.000000     0.577350     0.577350     0.577350     0.000000     0.000000     0.000000
    4    -1.000000    90.000000     0.000000     0.000000    -1.000000     0.000000     0.000000     0.000000
    5    -1.000000   180.000000     0.000000     0.707107     0.707107     0.000000     0.000000     0.000000
    6    -1.000000    90.000000     0.000000     1.000000     0.000000     0.000000     0.000000     0.000000
    7     1.000000   180.000000     0.000000     0.000000     1.000000     0.000000     0.000000     0.000000
    8     1.000000   120.000000    -0.577350     0.577350     0.577350     0.000000     0.000000     0.000000
    9     1.000000   120.000000    -0.577350     0.577350    -0.577350     0.000000     0.000000     0.000000
   10    -1.000000    90.000000     0.000000     0.000000     1.000000     0.000000     0.000000     0.000000
   11    -1.000000    90.000000    -1.000000     0.000000     0.000000     0.000000     0.000000     0.000000
   12    -1.000000   180.000000     0.707107     0.000000     0.707107     0.000000     0.000000     0.000000
   13     1.000000   120.000000     0.577350    -0.577350     0.577350     0.000000     0.000000     0.000000
   14     1.000000   120.000000    -0.577350    -0.577350     0.577350     0.000000     0.000000     0.000000
   15     1.000000   180.000000     1.000000     0.000000     0.000000     0.000000     0.000000     0.000000
   16    -1.000000    90.000000     0.000000    -1.000000     0.000000     0.000000     0.000000     0.000000
   17    -1.000000   180.000000     0.707107     0.707107     0.000000     0.000000     0.000000     0.000000
   18    -1.000000    90.000000     1.000000     0.000000     0.000000     0.000000     0.000000     0.000000
   19     1.000000   120.000000     0.577350    -0.577350    -0.577350     0.000000     0.000000     0.000000
   20     1.000000   180.000000     0.000000     1.000000     0.000000     0.000000     0.000000     0.000000
   21     1.000000   120.000000     0.577350     0.577350    -0.577350     0.000000     0.000000     0.000000
   22    -1.000000   180.000000     0.000000    -0.707107     0.707107     0.000000     0.000000     0.000000
   23    -1.000000   180.000000     0.707107    -0.707107     0.000000     0.000000     0.000000     0.000000
   24    -1.000000   180.000000     0.707107     0.000000    -0.707107     0.000000     0.000000     0.000000
   25    -1.000000     0.000000     1.000000     0.000000     0.000000     0.250000     0.250000     0.250000
   26    -1.000000   120.000000    -0.577350    -0.577350    -0.577350     0.250000     0.250000     0.250000
   27    -1.000000   120.000000     0.577350     0.577350     0.577350     0.250000     0.250000     0.250000
   28     1.000000    90.000000     0.000000     0.000000    -1.000000     0.250000     0.250000     0.250000
   29     1.000000   180.000000     0.000000     0.707107     0.707107     0.250000     0.250000     0.250000
   30     1.000000    90.000000     0.000000     1.000000     0.000000     0.250000     0.250000     0.250000
   31    -1.000000   180.000000     0.000000     0.000000     1.000000     0.250000     0.250000     0.250000
   32    -1.000000   120.000000    -0.577350     0.577350     0.577350     0.250000     0.250000     0.250000
   33    -1.000000   120.000000    -0.577350     0.577350    -0.577350     0.250000     0.250000     0.250000
   34     1.000000    90.000000     0.000000     0.000000     1.000000     0.250000     0.250000     0.250000
   35     1.000000    90.000000    -1.000000     0.000000     0.000000     0.250000     0.250000     0.250000
   36     1.000000   180.000000     0.707107     0.000000     0.707107     0.250000     0.250000     0.250000
   37    -1.000000   120.000000     0.577350    -0.577350     0.577350     0.250000     0.250000     0.250000
   38    -1.000000   120.000000    -0.577350    -0.577350     0.577350     0.250000     0.250000     0.250000
   39    -1.000000   180.000000     1.000000     0.000000     0.000000     0.250000     0.250000     0.250000
   40     1.000000    90.000000     0.000000    -1.000000     0.000000     0.250000     0.250000     0.250000
   41     1.000000   180.000000     0.707107     0.707107     0.000000     0.250000     0.250000     0.250000
   42     1.000000    90.000000     1.000000     0.000000     0.000000     0.250000     0.250000     0.250000
   43    -1.000000   120.000000     0.577350    -0.577350    -0.577350     0.250000     0.250000     0.250000
   44    -1.000000   180.000000     0.000000     1.000000     0.000000     0.250000     0.250000     0.250000
   45    -1.000000   120.000000     0.577350     0.577350    -0.577350     0.250000     0.250000     0.250000
   46     1.000000   180.000000     0.000000    -0.707107     0.707107     0.250000     0.250000     0.250000
   47     1.000000   180.000000     0.707107    -0.707107     0.000000     0.250000     0.250000     0.250000
   48     1.000000   180.000000     0.707107     0.000000    -0.707107     0.250000     0.250000     0.250000
 
 Subroutine IBZKPT returns following result:
 ===========================================
 
 Found      4 irreducible k-points:
 
 Following reciprocal coordinates:
            Coordinates               Weight
  0.000000  0.000000  0.000000      1.000000
  0.333333  0.000000  0.000000      8.000000
  0.333333  0.333333  0.000000      6.000000
 -0.333333  0.333333  0.000000     12.000000
 
 Following cartesian coordinates:
            Coordinates               Weight
  0.000000  0.000000  0.000000      1.000000
 -0.060676  0.060676  0.060676      8.000000
  0.000000  0.000000  0.121352      6.000000
  0.121352 -0.121352  0.000000     12.000000
 


--------------------------------------------------------------------------------------------------------




 Dimension of arrays:
   k-points           NKPTS =        4   k-points in BZ     NKDIM =        4   number of bands    NBANDS=     16
   number of dos      NEDOS =    301   number of ions     NIONS =      2
   non local maximal  LDIM  =      4   non local SUM 2l+1 LMDIM =      8
   total plane-waves  NPLWV =  46656
   max r-space proj   IRMAX =      1   max aug-charges    IRDMAX=  37830
   dimension x,y,z NGX =    36 NGY =   36 NGZ =   36
   dimension x,y,z NGXF=    72 NGYF=   72 NGZF=   72
   support grid    NGXF=    72 NGYF=   72 NGZF=   72
   ions per type =               2
 NGX,Y,Z   is equivalent  to a cutoff of  15.41, 15.41, 15.41 a.u.
 NGXF,Y,Z  is equivalent  to a cutoff of  30.81, 30.81, 30.81 a.u.


 I would recommend the setting:
   dimension x,y,z NGX =    36 NGY =   36 NGZ =   36
 SYSTEM =  unknown system                          
 POSCAR =  bulk@JVASP-1002                         

 Startparameter for this run:
   NWRITE =      2    write-flag & timer
   PREC   = accura    normal or accurate (medium, high low for compatibility)
   ISTART =      0    job   : 0-new  1-cont  2-samecut
   ICHARG =      2    charge: 1-file 2-atom 10-const
   ISPIN  =      1    spin polarized calculation?
   LNONCOLLINEAR =      F non collinear calculations
   LSORBIT =      F    spin-orbit coupling
   INIWAV =      1    electr: 0-lowe 1-rand  2-diag
   LASPH  =      F    aspherical Exc in radial PAW
   METAGGA=      F    non-selfconsistent MetaGGA calc.

 Electronic Relaxation 1
   ENCUT  =  800.0 eV  58.80 Ry    7.67 a.u.   8.96  8.96  8.96*2*pi/ulx,y,z
   ENINI  =  800.0     initial cutoff
   ENAUG  =  322.1 eV  augmentation charge cutoff
   NELM   =    400;   NELMIN=  2; NELMDL= -5     # of ELM steps 
   EDIFF  = 0.1E-06   stopping-criterion for ELM
   LREAL  =      F    real-space projection
   NLSPLINE    = F    spline interpolate recip. space projectors
   LCOMPAT=      F    compatible to vasp.4.4
   GGA_COMPAT  = T    GGA compatible to vasp.4.4-vasp.4.6
   LMAXPAW     = -100 max onsite density
   LMAXMIX     =    2 max onsite mixed and CHGCAR
   VOSKOWN=      0    Vosko Wilk Nusair interpolation
   ROPT   =    0.00000
 Ionic relaxation
   EDIFFG = 0.1E-05   stopping-criterion for IOM
   NSW    =      1    number of steps for IOM
   NBLOCK =      1;   KBLOCK =      1    inner block; outer block 
   IBRION =      2    ionic relax: 0-MD 1-quasi-New 2-CG
   NFREE  =      1    steps in history (QN), initial steepest desc. (CG)
   ISIF   =      2    stress and relaxation
   IWAVPR =     11    prediction:  0-non 1-charg 2-wave 3-comb
   ISYM   =      2    0-nonsym 1-usesym 2-fastsym
   LCORR  =      T    Harris-Foulkes like correction to forces

   POTIM  = 0.5000    time-step for ionic-motion
   TEIN   =    0.0    initial temperature
   TEBEG  =    0.0;   TEEND  =   0.0 temperature during run
   SMASS  =  -3.00    Nose mass-parameter (am)
   estimated Nose-frequenzy (Omega)   =  0.10E-29 period in steps =****** mass=  -0.345E-27a.u.
   SCALEE = 1.0000    scale energy and forces
   NPACO  =    256;   APACO  = 16.0  distance and # of slots for P.C.
   PSTRESS=    0.0 pullay stress

  Mass of Ions in am
   POMASS =  28.09
  Ionic Valenz
   ZVAL   =   4.00
  Atomic Wigner-Seitz radii
   RWIGS  =  -1.00
  virtual crystal weights 
   VCA    =   1.00
   NELECT =       8.0000    total number of electrons
   NUPDOWN=      -1.0000    fix difference up-down

 DOS related values:
   EMIN   =  10.00;   EMAX   =-10.00  energy-range for DOS
   EFERMI =   0.00
   ISMEAR =     0;   SIGMA  =   0.20  broadening in eV -4-tet -1-fermi 0-gaus

 Electronic relaxation 2 (details)
   IALGO  =     38    algorithm
   LDIAG  =      T    sub-space diagonalisation (order eigenvalues)
   LSUBROT=      F    optimize rotation matrix (better conditioning)
   TURBO    =      0    0=normal 1=particle mesh
   IRESTART =      0    0=no restart 2=restart with 2 vectors
   NREBOOT  =      0    no. of reboots
   NMIN     =      0    reboot dimension
   EREF     =   0.00    reference energy to select bands
   IMIX   =      4    mixing-type and parameters
     AMIX     =   0.40;   BMIX     =  1.00
     AMIX_MAG =   1.60;   BMIX_MAG =  1.00
     AMIN     =   0.10
     WC   =   100.;   INIMIX=   1;  MIXPRE=   1;  MAXMIX= -45

 Intra band minimization:
   WEIMIN = 0.0010     energy-eigenvalue tresh-hold
   EBREAK =  0.16E-08  absolut break condition
   DEPER  =   0.30     relativ break condition  

   TIME   =   0.40     timestep for ELM

  volume/ion in A,a.u.               =      20.72       139.86
  Fermi-wavevector in a.u.,A,eV,Ry     =   0.946087  1.787845 12.178313  0.895081
  Thomas-Fermi vector in A             =   2.074051

 Write flags
   LWAVE  =      F    write WAVECAR
   LCHARG =      F    write CHGCAR
   LVTOT  =      F    write LOCPOT, total local potential
   LVHAR  =      F    write LOCPOT, Hartree potential only
   LELF   =      F    write electronic localiz. function (ELF)
   LORBIT =      0    0 simple, 1 ext, 2 COOP (PROOUT)


 Dipole corrections
   LMONO  =      F    monopole corrections only (constant potential shift)
   LDIPOL =      F    correct potential (dipole corrections)
   IDIPOL =      0    1-x, 2-y, 3-z, 4-all directions 
   EPSILON=  1.0000000 bulk dielectric constant

 Exchange correlation treatment:
   GGA     =    BO    GGA type
   LEXCH   =    42    internal setting for exchange type
   VOSKOWN=      0    Vosko Wilk Nusair interpolation
   LHFCALC =     F    Hartree Fock is set to
   LHFONE  =     F    Hartree Fock one center treatment
   AEXX    =    0.0000 exact exchange contribution

 vdW DFT:
   LUSE_VDW   =     T    switch on vdW DFT
   Zab_VDW    =-.8491    correlation parameter
   PARAM1     =0.1833
   PARAM2     =0.2200
   PARAM3     =0.0000

 Linear response parameters
   LEPSILON=     F    determine dielectric tensor
   LRPA    =     F    only Hartree local field effects (RPA)
   LNABLA  =     F    use nabla operator in PAW spheres
   LVEL    =     F    velocity operator in full k-point grid
   LINTERFAST=   F  fast interpolation
   KINTER  =     0    interpolate to denser k-point grid
   CSHIFT  =0.1000    complex shift for real part using Kramers Kronig
   OMEGAMAX=  -1.0    maximum frequency
   DEG_THRESHOLD= 0.2000000E-02 threshold for treating states as degnerate
   RTIME   =    0.100 relaxation time in fs

 Orbital magnetization related:
   ORBITALMAG=     F  switch on orbital magnetization
   LCHIMAG   =     F  perturbation theory with respect to B field
   DQ        =  0.001000  dq finite difference perturbation B field



--------------------------------------------------------------------------------------------------------


 conjugate gradient relaxation of ions
 charge density and potential will be updated during run
 non-spin polarized calculation
 Variant of blocked Davidson
 Davidson routine will perform the subspace rotation
 perform sub-space diagonalisation
    after iterative eigenvector-optimisation
 modified Broyden-mixing scheme, WC =      100.0
 initial mixing is a Kerker type mixing with AMIX =  0.4000 and BMIX =      1.0000
 Hartree-type preconditioning will be used
 using additional bands           12
 reciprocal scheme for non local part
 use partial core corrections
 calculate Harris-corrections to forces   (improved forces if not selfconsistent)
 use gradient corrections 
 use of overlap-Matrix (Vanderbilt PP)
 Gauss-broadening in eV      SIGMA  =   0.20


--------------------------------------------------------------------------------------------------------


  energy-cutoff  :      800.00
  volume of cell :       41.45
      direct lattice vectors                 reciprocal lattice vectors
     0.000000000  2.746821138  2.746821138    -0.182028598  0.182028598  0.182028598
     2.746821138  0.000000000  2.746821138     0.182028598 -0.182028598  0.182028598
     2.746821138  2.746821138  0.000000000     0.182028598  0.182028598 -0.182028598

  length of vectors
     3.884591706  3.884591706  3.884591706     0.315282780  0.315282780  0.315282780



 k-points in units of 2pi/SCALE and weight: Automatic kpoint scheme                 
   0.00000000  0.00000000  0.00000000       0.037
  -0.06067620  0.06067620  0.06067620       0.296
   0.00000000  0.00000000  0.12135240       0.222
   0.12135240 -0.12135240  0.00000000       0.444

 k-points in reciprocal lattice and weights: Automatic kpoint scheme                 
   0.00000000  0.00000000  0.00000000       0.037
   0.33333333  0.00000000  0.00000000       0.296
   0.33333333  0.33333333  0.00000000       0.222
  -0.33333333  0.33333333  0.00000000       0.444

 position of ions in fractional coordinates (direct lattice) 
   0.75000000  0.75000000  0.75000000
   0.50000000  0.50000000  0.50000000

 position of ions in cartesian coordinates  (Angst):
   4.12023171  4.12023171  4.12023171
   2.74682114  2.74682114  2.74682114



--------------------------------------------------------------------------------------------------------


 k-point  1 :   0.0000 0.0000 0.0000  plane waves:    2109
 k-point  2 :   0.3333 0.0000 0.0000  plane waves:    2138
 k-point  3 :   0.3333 0.3333 0.0000  plane waves:    2129
 k-point  4 :  -0.3333 0.3333 0.0000  plane waves:    2121

 maximum and minimum number of plane-waves per node :      2138     2109

 maximum number of plane-waves:      2138
 maximum index in each direction: 
   IXMAX=    9   IYMAX=    8   IZMAX=    8
   IXMIN=   -9   IYMIN=   -9   IZMIN=   -8

 WARNING: aliasing errors must be expected set NGX to  38 to avoid them
 NGY is ok and might be reduce to  36
 NGZ is ok and might be reduce to  34
 aliasing errors are usually negligible using standard VASP settings
 and one can safely disregard these warnings

 serial   3D FFT for wavefunctions
 parallel 3D FFT for charge:
    minimum data exchange during FFTs selected (reduces bandwidth)


 total amount of memory used by VASP on root node    34986. kBytes
========================================================================

   base      :      30000. kBytes
   nonl-proj :        617. kBytes
   fftplans  :       1071. kBytes
   grid      :       3154. kBytes
   one-center:          6. kBytes
   wavefun   :        138. kBytes

     INWAV:  cpu time    0.0000: real time    0.0000
 Broyden mixing: mesh for mixing (old mesh)
   NGX = 17   NGY = 17   NGZ = 17
  (NGX  = 72   NGY  = 72   NGZ  = 72)
  gives a total of   4913 points

 initial charge density was supplied:
 charge density of overlapping atoms calculated
 number of electron       8.0000000 magnetization 
 keeping initial charge density in first step


--------------------------------------------------------------------------------------------------------


 Maximum index for augmentation-charges         2591 (set IRDMAX)


--------------------------------------------------------------------------------------------------------


 First call to EWALD:  gamma=   0.512
 Maximum number of real-space cells 3x 3x 3
 Maximum number of reciprocal cells 3x 3x 3

 FEWALD executed in parallel
    FEWALD:  cpu time    0.0040: real time    0.0009


----------------------------------------- Iteration    1(   1)  ---------------------------------------


vdW kernel read from vdw_kernel.bindat
  0.0000  0.2424  0.5071  0.7962  1.1119  1.4567  1.8333  2.2446  2.6937  3.1842
  3.7199  4.3049  4.9438  5.6415  6.4036  7.2358  8.1446  9.1372 10.2212 11.4050
 12.6979 14.1099 15.6519 17.3360 19.1751 21.1837 23.3773 25.7729 28.3892 31.2465
 34.3669 37.7748 41.4965 45.5611 50.0000

    POTLOK:  cpu time    3.9920: real time    3.9921
    SETDIJ:  cpu time    0.0040: real time    0.0033
     EDDAV:  cpu time    0.0800: real time    0.0810
       DOS:  cpu time    0.0000: real time    0.0004
    --------------------------------------------
      LOOP:  cpu time    4.0760: real time    4.0786

 eigenvalue-minimisations  :   128
 total energy-change (2. order) : 0.9799708E+01  (-0.4751823E+03)
 number of electron       8.0000000 magnetization 
 augmentation part        8.0000000 magnetization 

 Free energy of the ion-electron system (eV)
  ---------------------------------------------------
  alpha Z        PSCENC =         3.24857844
  Ewald energy   TEWEN  =      -225.91568183
  -Hartree energ DENC   =       -11.53197166
  -exchange      EXHF   =         0.00000000
  -V(xc)+E(xc)   XCENC  =       -20.29573788
  PAW double counting   =       189.40224250     -152.61488262
  entropy T*S    EENTRO =        -0.04675578
  eigenvalues    EBANDS =        18.95926933
  atomic energy  EATOM  =       208.59464762
  Solvation  Ediel_sol  =         0.00000000
  ---------------------------------------------------
  free energy    TOTEN  =         9.79970811 eV

  energy without entropy =        9.84646389  energy(sigma->0) =        9.82308600


--------------------------------------------------------------------------------------------------------




----------------------------------------- Iteration    1(   2)  ---------------------------------------


     EDDAV:  cpu time    0.1280: real time    0.1284
       DOS:  cpu time    0.0040: real time    0.0003
    --------------------------------------------
      LOOP:  cpu time    0.1320: real time    0.2248

 eigenvalue-minimisations  :   192
 total energy-change (2. order) :-0.1754591E+02  (-0.1654654E+02)
 number of electron       8.0000000 magnetization 
 augmentation part        8.0000000 magnetization 

 Free energy of the ion-electron system (eV)
  ---------------------------------------------------
  alpha Z        PSCENC =         3.24857844
  Ewald energy   TEWEN  =      -225.91568183
  -Hartree energ DENC   =       -11.53197166
  -exchange      EXHF   =         0.00000000
  -V(xc)+E(xc)   XCENC  =       -20.29573788
  PAW double counting   =       189.40224250     -152.61488262
  entropy T*S    EENTRO =        -0.00002890
  eigenvalues    EBANDS =         1.36662971
  atomic energy  EATOM  =       208.59464762
  Solvation  Ediel_sol  =         0.00000000
  ---------------------------------------------------
  free energy    TOTEN  =        -7.74620462 eV

  energy without entropy =       -7.74617572  energy(sigma->0) =       -7.74619017


--------------------------------------------------------------------------------------------------------




----------------------------------------- Iteration    1(   3)  ---------------------------------------


     EDDAV:  cpu time    0.0880: real time    0.0915
       DOS:  cpu time    0.0000: real time    0.0003
    --------------------------------------------
      LOOP:  cpu time    0.0920: real time    0.0991

 eigenvalue-minimisations  :   144
 total energy-change (2. order) :-0.1269965E+00  (-0.1269961E+00)
 number of electron       8.0000000 magnetization 
 augmentation part        8.0000000 magnetization 

 Free energy of the ion-electron system (eV)
  ---------------------------------------------------
  alpha Z        PSCENC =         3.24857844
  Ewald energy   TEWEN  =      -225.91568183
  -Hartree energ DENC   =       -11.53197166
  -exchange      EXHF   =         0.00000000
  -V(xc)+E(xc)   XCENC  =       -20.29573788
  PAW double counting   =       189.40224250     -152.61488262
  entropy T*S    EENTRO =        -0.00001827
  eigenvalues    EBANDS =         1.23962261
  atomic energy  EATOM  =       208.59464762
  Solvation  Ediel_sol  =         0.00000000
  ---------------------------------------------------
  free energy    TOTEN  =        -7.87320110 eV

  energy without entropy =       -7.87318283  energy(sigma->0) =       -7.87319196


--------------------------------------------------------------------------------------------------------




----------------------------------------- Iteration    1(   4)  ---------------------------------------


     EDDAV:  cpu time    0.1920: real time    0.1947
       DOS:  cpu time    0.0000: real time    0.0003
    --------------------------------------------
      LOOP:  cpu time    0.1920: real time    0.2023

 eigenvalue-minimisations  :   256
 total energy-change (2. order) :-0.4362136E-03  (-0.4362134E-03)
 number of electron       8.0000000 magnetization 
 augmentation part        8.0000000 magnetization 

 Free energy of the ion-electron system (eV)
  ---------------------------------------------------
  alpha Z        PSCENC =         3.24857844
  Ewald energy   TEWEN  =      -225.91568183
  -Hartree energ DENC   =       -11.53197166
  -exchange      EXHF   =         0.00000000
  -V(xc)+E(xc)   XCENC  =       -20.29573788
  PAW double counting   =       189.40224250     -152.61488262
  entropy T*S    EENTRO =        -0.00001829
  eigenvalues    EBANDS =         1.23918641
  atomic energy  EATOM  =       208.59464762
  Solvation  Ediel_sol  =         0.00000000
  ---------------------------------------------------
  free energy    TOTEN  =        -7.87363731 eV

  energy without entropy =       -7.87361902  energy(sigma->0) =       -7.87362816


--------------------------------------------------------------------------------------------------------




----------------------------------------- Iteration    1(   5)  ---------------------------------------


     EDDAV:  cpu time    0.0760: real time    0.0795
       DOS:  cpu time    0.0000: real time    0.0003
    CHARGE:  cpu time    0.0400: real time    0.0372
    MIXING:  cpu time    0.0000: real time    0.0008
    --------------------------------------------
      LOOP:  cpu time    0.1200: real time    0.1431

 eigenvalue-minimisations  :   128
 total energy-change (2. order) :-0.7301850E-08  (-0.7242383E-08)
 number of electron       8.0000000 magnetization 
 augmentation part       -0.4719846 magnetization 

 Broyden mixing:
  rms(total) = 0.39322E+00    rms(broyden)= 0.39322E+00
  rms(prec ) = 0.99137E+00
  weight for this iteration     100.00

 Free energy of the ion-electron system (eV)
  ---------------------------------------------------
  alpha Z        PSCENC =         3.24857844
  Ewald energy   TEWEN  =      -225.91568183
  -Hartree energ DENC   =       -11.53197166
  -exchange      EXHF   =         0.00000000
  -V(xc)+E(xc)   XCENC  =       -20.29573788
  PAW double counting   =       189.40224250     -152.61488262
  entropy T*S    EENTRO =        -0.00001829
  eigenvalues    EBANDS =         1.23918641
  atomic energy  EATOM  =       208.59464762
  Solvation  Ediel_sol  =         0.00000000
  ---------------------------------------------------
  free energy    TOTEN  =        -7.87363732 eV

  energy without entropy =       -7.87361903  energy(sigma->0) =       -7.87362817


--------------------------------------------------------------------------------------------------------




----------------------------------------- Iteration    1(   6)  ---------------------------------------


    POTLOK:  cpu time    3.4280: real time    3.4282
    SETDIJ:  cpu time    0.0040: real time    0.0031
     EDDAV:  cpu time    0.1400: real time    0.1404
       DOS:  cpu time    0.0000: real time    0.0004
    CHARGE:  cpu time    0.0320: real time    0.0316
    MIXING:  cpu time    0.0040: real time    0.0011
    --------------------------------------------
      LOOP:  cpu time    3.6080: real time    3.6151

 eigenvalue-minimisations  :   208
 total energy-change (2. order) : 0.8094654E-01  (-0.1079619E-01)
 number of electron       8.0000000 magnetization 
 augmentation part       -0.4639312 magnetization 

 Broyden mixing:
  rms(total) = 0.24177E+00    rms(broyden)= 0.24177E+00
  rms(prec ) = 0.60087E+00
  weight for this iteration     100.00

 eigenvalues of (default mixing * dielectric matrix)
  average eigenvalue GAMMA=   2.5770
  2.5770

 Free energy of the ion-electron system (eV)
  ---------------------------------------------------
  alpha Z        PSCENC =         3.24857844
  Ewald energy   TEWEN  =      -225.91568183
  -Hartree energ DENC   =       -13.30856854
  -exchange      EXHF   =         0.00000000
  -V(xc)+E(xc)   XCENC  =       -20.03037013
  PAW double counting   =       306.42862991     -269.78009610
  entropy T*S    EENTRO =        -0.00009698
  eigenvalues    EBANDS =         2.97026683
  atomic energy  EATOM  =       208.59464762
  Solvation  Ediel_sol  =         0.00000000
  ---------------------------------------------------
  free energy    TOTEN  =        -7.79269078 eV

  energy without entropy =       -7.79259380  energy(sigma->0) =       -7.79264229


--------------------------------------------------------------------------------------------------------




----------------------------------------- Iteration    1(   7)  ---------------------------------------


    POTLOK:  cpu time    3.4400: real time    3.4416
    SETDIJ:  cpu time    0.0040: real time    0.0033
     EDDAV:  cpu time    0.0960: real time    0.0960
       DOS:  cpu time    0.0000: real time    0.0004
    CHARGE:  cpu time    0.0320: real time    0.0298
    MIXING:  cpu time    0.0000: real time    0.0008
    --------------------------------------------
      LOOP:  cpu time    3.5720: real time    3.6416

 eigenvalue-minimisations  :   176
 total energy-change (2. order) : 0.2198690E-01  (-0.2566275E-01)
 number of electron       8.0000000 magnetization 
 augmentation part       -0.4529773 magnetization 

 Broyden mixing:
  rms(total) = 0.21034E-01    rms(broyden)= 0.21034E-01
  rms(prec ) = 0.54024E-01
  weight for this iteration     100.00

 eigenvalues of (default mixing * dielectric matrix)
  average eigenvalue GAMMA=   2.1966
  2.1966  2.1966

 Free energy of the ion-electron system (eV)
  ---------------------------------------------------
  alpha Z        PSCENC =         3.24857844
  Ewald energy   TEWEN  =      -225.91568183
  -Hartree energ DENC   =       -16.39635210
  -exchange      EXHF   =         0.00000000
  -V(xc)+E(xc)   XCENC  =       -19.54135848
  PAW double counting   =       553.43436700     -516.96606142
  entropy T*S    EENTRO =        -0.00090756
  eigenvalues    EBANDS =         5.77206445
  atomic energy  EATOM  =       208.59464762
  Solvation  Ediel_sol  =         0.00000000
  ---------------------------------------------------
  free energy    TOTEN  =        -7.77070387 eV

  energy without entropy =       -7.76979632  energy(sigma->0) =       -7.77025010


--------------------------------------------------------------------------------------------------------




----------------------------------------- Iteration    1(   8)  ---------------------------------------


    POTLOK:  cpu time    3.4400: real time    3.4372
    SETDIJ:  cpu time    0.0000: real time    0.0025
     EDDAV:  cpu time    0.0800: real time    0.0797
       DOS:  cpu time    0.0000: real time    0.0004
    CHARGE:  cpu time    0.0320: real time    0.0314
    MIXING:  cpu time    0.0000: real time    0.0009
    --------------------------------------------
      LOOP:  cpu time    3.5520: real time    3.8692

 eigenvalue-minimisations  :   128
 total energy-change (2. order) : 0.1790496E-01  (-0.5970853E-03)
 number of electron       8.0000000 magnetization 
 augmentation part       -0.4544904 magnetization 

 Broyden mixing:
  rms(total) = 0.11264E-01    rms(broyden)= 0.11264E-01
  rms(prec ) = 0.27596E-01
  weight for this iteration     100.00

 eigenvalues of (default mixing * dielectric matrix)
  average eigenvalue GAMMA=   2.1626
  3.1095  1.6891  1.6891

 Free energy of the ion-electron system (eV)
  ---------------------------------------------------
  alpha Z        PSCENC =         3.24857844
  Ewald energy   TEWEN  =      -225.91568183
  -Hartree energ DENC   =       -16.13707702
  -exchange      EXHF   =         0.00000000
  -V(xc)+E(xc)   XCENC  =       -19.56046007
  PAW double counting   =       530.79951042     -494.25980860
  entropy T*S    EENTRO =        -0.00061855
  eigenvalues    EBANDS =         5.47811067
  atomic energy  EATOM  =       208.59464762
  Solvation  Ediel_sol  =         0.00000000
  ---------------------------------------------------
  free energy    TOTEN  =        -7.75279892 eV

  energy without entropy =       -7.75218037  energy(sigma->0) =       -7.75248964


--------------------------------------------------------------------------------------------------------




----------------------------------------- Iteration    1(   9)  ---------------------------------------


    POTLOK:  cpu time    3.4800: real time    3.4776
    SETDIJ:  cpu time    0.0040: real time    0.0031
     EDDAV:  cpu time    0.1080: real time    0.1071
       DOS:  cpu time    0.0000: real time    0.0004
    CHARGE:  cpu time    0.0320: real time    0.0315
    MIXING:  cpu time    0.0000: real time    0.0009
    --------------------------------------------
      LOOP:  cpu time    3.6240: real time    3.6768

 eigenvalue-minimisations  :   160
 total energy-change (2. order) :-0.5753975E-03  (-0.7467021E-04)
 number of electron       8.0000000 magnetization 
 augmentation part       -0.4540992 magnetization 

 Broyden mixing:
  rms(total) = 0.55946E-02    rms(broyden)= 0.55946E-02
  rms(prec ) = 0.77022E-02
  weight for this iteration     100.00

 eigenvalues of (default mixing * dielectric matrix)
  average eigenvalue GAMMA=   2.1710
  0.9361  2.9902  2.3788  2.3788

 Free energy of the ion-electron system (eV)
  ---------------------------------------------------
  alpha Z        PSCENC =         3.24857844
  Ewald energy   TEWEN  =      -225.91568183
  -Hartree energ DENC   =       -16.31334476
  -exchange      EXHF   =         0.00000000
  -V(xc)+E(xc)   XCENC  =       -19.53022766
  PAW double counting   =       541.94613959     -505.41191702
  entropy T*S    EENTRO =        -0.00067492
  eigenvalues    EBANDS =         5.62910622
  atomic energy  EATOM  =       208.59464762
  Solvation  Ediel_sol  =         0.00000000
  ---------------------------------------------------
  free energy    TOTEN  =        -7.75337432 eV

  energy without entropy =       -7.75269940  energy(sigma->0) =       -7.75303686


--------------------------------------------------------------------------------------------------------




----------------------------------------- Iteration    1(  10)  ---------------------------------------


    POTLOK:  cpu time    3.4760: real time    3.4740
    SETDIJ:  cpu time    0.0040: real time    0.0033
     EDDAV:  cpu time    0.1080: real time    0.1088
       DOS:  cpu time    0.0000: real time    0.0004
    CHARGE:  cpu time    0.0320: real time    0.0305
    MIXING:  cpu time    0.0000: real time    0.0011
    --------------------------------------------
      LOOP:  cpu time    3.6200: real time    3.7025

 eigenvalue-minimisations  :   192
 total energy-change (2. order) :-0.2509676E-03  (-0.2506614E-05)
 number of electron       8.0000000 magnetization 
 augmentation part       -0.4541365 magnetization 

 Broyden mixing:
  rms(total) = 0.40445E-03    rms(broyden)= 0.40445E-03
  rms(prec ) = 0.97112E-03
  weight for this iteration     100.00

 eigenvalues of (default mixing * dielectric matrix)
  average eigenvalue GAMMA=   1.9068
  2.9253  2.5372  2.2732  0.9731  0.8252

 Free energy of the ion-electron system (eV)
  ---------------------------------------------------
  alpha Z        PSCENC =         3.24857844
  Ewald energy   TEWEN  =      -225.91568183
  -Hartree energ DENC   =       -16.29124349
  -exchange      EXHF   =         0.00000000
  -V(xc)+E(xc)   XCENC  =       -19.53470077
  PAW double counting   =       534.27402086     -497.73993509
  entropy T*S    EENTRO =        -0.00066279
  eigenvalues    EBANDS =         5.61135177
  atomic energy  EATOM  =       208.59464762
  Solvation  Ediel_sol  =         0.00000000
  ---------------------------------------------------
  free energy    TOTEN  =        -7.75362528 eV

  energy without entropy =       -7.75296249  energy(sigma->0) =       -7.75329389


--------------------------------------------------------------------------------------------------------




----------------------------------------- Iteration    1(  11)  ---------------------------------------


    POTLOK:  cpu time    3.4680: real time    3.4658
    SETDIJ:  cpu time    0.0040: real time    0.0033
     EDDAV:  cpu time    0.1120: real time    0.1118
       DOS:  cpu time    0.0000: real time    0.0004
    CHARGE:  cpu time    0.0280: real time    0.0306
    MIXING:  cpu time    0.0040: real time    0.0010
    --------------------------------------------
      LOOP:  cpu time    3.6160: real time    3.6727

 eigenvalue-minimisations  :   192
 total energy-change (2. order) : 0.2602675E-03  (-0.1285164E-06)
 number of electron       8.0000000 magnetization 
 augmentation part       -0.4541651 magnetization 

 Broyden mixing:
  rms(total) = 0.12711E-03    rms(broyden)= 0.12711E-03
  rms(prec ) = 0.16823E-03
  weight for this iteration     100.00

 eigenvalues of (default mixing * dielectric matrix)
  average eigenvalue GAMMA=   1.9718
  2.9490  2.5543  2.2443  2.1369  1.0004  0.9458

 Free energy of the ion-electron system (eV)
  ---------------------------------------------------
  alpha Z        PSCENC =         3.24857844
  Ewald energy   TEWEN  =      -225.91568183
  -Hartree energ DENC   =       -16.28745259
  -exchange      EXHF   =         0.00000000
  -V(xc)+E(xc)   XCENC  =       -19.53500602
  PAW double counting   =       534.16540755     -497.63033801
  entropy T*S    EENTRO =        -0.00065914
  eigenvalues    EBANDS =         5.60713896
  atomic energy  EATOM  =       208.59464762
  Solvation  Ediel_sol  =         0.00000000
  ---------------------------------------------------
  free energy    TOTEN  =        -7.75336502 eV

  energy without entropy =       -7.75270588  energy(sigma->0) =       -7.75303545


--------------------------------------------------------------------------------------------------------




----------------------------------------- Iteration    1(  12)  ---------------------------------------


    POTLOK:  cpu time    3.4600: real time    3.4604
    SETDIJ:  cpu time    0.0040: real time    0.0032
     EDDAV:  cpu time    0.1000: real time    0.0991
       DOS:  cpu time    0.0000: real time    0.0004
    CHARGE:  cpu time    0.0320: real time    0.0309
    MIXING:  cpu time    0.0000: real time    0.0011
    --------------------------------------------
      LOOP:  cpu time    3.5960: real time    4.0146

 eigenvalue-minimisations  :   176
 total energy-change (2. order) : 0.6397570E-05  (-0.5171558E-08)
 number of electron       8.0000000 magnetization 
 augmentation part       -0.4541642 magnetization 

 Broyden mixing:
  rms(total) = 0.31754E-04    rms(broyden)= 0.31754E-04
  rms(prec ) = 0.71268E-04
  weight for this iteration     100.00

 eigenvalues of (default mixing * dielectric matrix)
  average eigenvalue GAMMA=   1.9587
  2.9659  2.6843  2.6843  2.2493  0.9778  0.9892  1.1597

 Free energy of the ion-electron system (eV)
  ---------------------------------------------------
  alpha Z        PSCENC =         3.24857844
  Ewald energy   TEWEN  =      -225.91568183
  -Hartree energ DENC   =       -16.28792219
  -exchange      EXHF   =         0.00000000
  -V(xc)+E(xc)   XCENC  =       -19.53496331
  PAW double counting   =       534.35313316     -497.81805127
  entropy T*S    EENTRO =        -0.00065907
  eigenvalues    EBANDS =         5.60755984
  atomic energy  EATOM  =       208.59464762
  Solvation  Ediel_sol  =         0.00000000
  ---------------------------------------------------
  free energy    TOTEN  =        -7.75335862 eV

  energy without entropy =       -7.75269955  energy(sigma->0) =       -7.75302908


--------------------------------------------------------------------------------------------------------




----------------------------------------- Iteration    1(  13)  ---------------------------------------


    POTLOK:  cpu time    3.5000: real time    3.4990
    SETDIJ:  cpu time    0.0040: real time    0.0031
     EDDAV:  cpu time    0.0960: real time    0.0981
       DOS:  cpu time    0.0000: real time    0.0003
    CHARGE:  cpu time    0.0320: real time    0.0320
    MIXING:  cpu time    0.0040: real time    0.0012
    --------------------------------------------
      LOOP:  cpu time    3.6360: real time    3.6523

 eigenvalue-minimisations  :   160
 total energy-change (2. order) : 0.1468144E-04  (-0.6433544E-09)
 number of electron       8.0000000 magnetization 
 augmentation part       -0.4541656 magnetization 

 Broyden mixing:
  rms(total) = 0.17009E-04    rms(broyden)= 0.17009E-04
  rms(prec ) = 0.19053E-04
  weight for this iteration     100.00

 eigenvalues of (default mixing * dielectric matrix)
  average eigenvalue GAMMA=   1.9757
  3.0603  2.7936  2.5174  2.2477  2.2477  0.9907  0.9907  0.9576

 Free energy of the ion-electron system (eV)
  ---------------------------------------------------
  alpha Z        PSCENC =         3.24857844
  Ewald energy   TEWEN  =      -225.91568183
  -Hartree energ DENC   =       -16.28758364
  -exchange      EXHF   =         0.00000000
  -V(xc)+E(xc)   XCENC  =       -19.53501609
  PAW double counting   =       534.38048659     -497.84534851
  entropy T*S    EENTRO =        -0.00065881
  eigenvalues    EBANDS =         5.60723230
  atomic energy  EATOM  =       208.59464762
  Solvation  Ediel_sol  =         0.00000000
  ---------------------------------------------------
  free energy    TOTEN  =        -7.75334394 eV

  energy without entropy =       -7.75268513  energy(sigma->0) =       -7.75301453


--------------------------------------------------------------------------------------------------------




----------------------------------------- Iteration    1(  14)  ---------------------------------------


    POTLOK:  cpu time    3.4640: real time    3.4652
    SETDIJ:  cpu time    0.0040: real time    0.0027
     EDDAV:  cpu time    0.0680: real time    0.0676
       DOS:  cpu time    0.0000: real time    0.0004
    CHARGE:  cpu time    0.0320: real time    0.0306
    MIXING:  cpu time    0.0000: real time    0.0011
    --------------------------------------------
      LOOP:  cpu time    3.5680: real time    3.6548

 eigenvalue-minimisations  :   112
 total energy-change (2. order) :-0.3682308E-05  (-0.3488017E-10)
 number of electron       8.0000000 magnetization 
 augmentation part       -0.4541654 magnetization 

 Broyden mixing:
  rms(total) = 0.31379E-05    rms(broyden)= 0.31379E-05
  rms(prec ) = 0.34180E-05
  weight for this iteration     100.00

 eigenvalues of (default mixing * dielectric matrix)
  average eigenvalue GAMMA=   1.8683
  3.0151  2.8365  2.5001  2.5001  2.2244  1.0093  0.9831  0.9398  0.8059

 Free energy of the ion-electron system (eV)
  ---------------------------------------------------
  alpha Z        PSCENC =         3.24857844
  Ewald energy   TEWEN  =      -225.91568183
  -Hartree energ DENC   =       -16.28762595
  -exchange      EXHF   =         0.00000000
  -V(xc)+E(xc)   XCENC  =       -19.53501396
  PAW double counting   =       534.35513355     -497.82000869
  entropy T*S    EENTRO =        -0.00065883
  eigenvalues    EBANDS =         5.60728204
  atomic energy  EATOM  =       208.59464762
  Solvation  Ediel_sol  =         0.00000000
  ---------------------------------------------------
  free energy    TOTEN  =        -7.75334762 eV

  energy without entropy =       -7.75268879  energy(sigma->0) =       -7.75301820


--------------------------------------------------------------------------------------------------------




----------------------------------------- Iteration    1(  15)  ---------------------------------------


    POTLOK:  cpu time    3.4600: real time    3.4608
    SETDIJ:  cpu time    0.0040: real time    0.0031
     EDDAV:  cpu time    0.0600: real time    0.0575
       DOS:  cpu time    0.0000: real time    0.0004
    CHARGE:  cpu time    0.0280: real time    0.0311
    MIXING:  cpu time    0.0040: real time    0.0012
    --------------------------------------------
      LOOP:  cpu time    3.5560: real time    3.6054

 eigenvalue-minimisations  :    80
 total energy-change (2. order) :-0.1498780E-06  (-0.9242283E-12)
 number of electron       8.0000000 magnetization 
 augmentation part       -0.4541654 magnetization 

 Broyden mixing:
  rms(total) = 0.90865E-06    rms(broyden)= 0.90865E-06
  rms(prec ) = 0.10111E-05
  weight for this iteration     100.00

 eigenvalues of (default mixing * dielectric matrix)
  average eigenvalue GAMMA=   1.8790
  3.0686  2.8425  2.6756  2.4113  2.2400  1.4766  0.9868  0.9868  0.9570  1.1452

 Free energy of the ion-electron system (eV)
  ---------------------------------------------------
  alpha Z        PSCENC =         3.24857844
  Ewald energy   TEWEN  =      -225.91568183
  -Hartree energ DENC   =       -16.28762450
  -exchange      EXHF   =         0.00000000
  -V(xc)+E(xc)   XCENC  =       -19.53501432
  PAW double counting   =       534.35269272     -497.81756855
  entropy T*S    EENTRO =        -0.00065884
  eigenvalues    EBANDS =         5.60728150
  atomic energy  EATOM  =       208.59464762
  Solvation  Ediel_sol  =         0.00000000
  ---------------------------------------------------
  free energy    TOTEN  =        -7.75334777 eV

  energy without entropy =       -7.75268893  energy(sigma->0) =       -7.75301835


--------------------------------------------------------------------------------------------------------




----------------------------------------- Iteration    1(  16)  ---------------------------------------


    POTLOK:  cpu time    3.4720: real time    3.4695
    SETDIJ:  cpu time    0.0000: real time    0.0033
     EDDAV:  cpu time    0.0480: real time    0.0470
       DOS:  cpu time    0.0000: real time    0.0003
    --------------------------------------------
      LOOP:  cpu time    3.5200: real time    3.9610

 eigenvalue-minimisations  :    64
 total energy-change (2. order) :-0.1965111E-07  (-0.2608661E-12)
 number of electron       8.0000000 magnetization 
 augmentation part       -0.4541654 magnetization 

 Free energy of the ion-electron system (eV)
  ---------------------------------------------------
  alpha Z        PSCENC =         3.24857844
  Ewald energy   TEWEN  =      -225.91568183
  -Hartree energ DENC   =       -16.28762571
  -exchange      EXHF   =         0.00000000
  -V(xc)+E(xc)   XCENC  =       -19.53501433
  PAW double counting   =       534.35171915     -497.81659520
  entropy T*S    EENTRO =        -0.00065884
  eigenvalues    EBANDS =         5.60728291
  atomic energy  EATOM  =       208.59464762
  Solvation  Ediel_sol  =         0.00000000
  ---------------------------------------------------
  free energy    TOTEN  =        -7.75334779 eV

  energy without entropy =       -7.75268895  energy(sigma->0) =       -7.75301837


--------------------------------------------------------------------------------------------------------




 average (electrostatic) potential at core
  the test charge radii are     0.9892
  (the norm of the test charge is              1.0000)
       1 -83.7672       2 -83.7672



 E-fermi :   5.9415     XC(G=0):  -9.2147     alpha+bet :-11.5728


 k-point     1 :       0.0000    0.0000    0.0000
  band No.  band energies     occupation 
      1      -6.1125      2.00000
      2       5.5583      1.99328
      3       5.5583      1.99328
      4       5.5583      1.99328
      5       8.1379      0.00000
      6       8.1379      0.00000
      7       8.1379      0.00000
      8       8.6460      0.00000
      9      13.2634      0.00000
     10      13.2634      0.00000
     11      13.3912      0.00000
     12      16.6814      0.00000
     13      16.6814      0.00000
     14      16.6814      0.00000
     15      20.7810      0.00000
     16      28.2500      0.00000

 k-point     2 :       0.3333    0.0000    0.0000
  band No.  band energies     occupation 
      1      -4.7784      2.00000
      2       0.3627      2.00000
      3       4.5958      2.00000
      4       4.5958      2.00000
      5       7.2561      0.00000
      6       9.0759      0.00000
      7       9.0759      0.00000
      8      13.2978      0.00000
      9      13.4878      0.00000
     10      13.4878      0.00000
     11      14.4676      0.00000
     12      18.8896      0.00000
     13      19.9338      0.00000
     14      19.9338      0.00000
     15      21.9661      0.00000
     16      22.9511      0.00000

 k-point     3 :       0.3333    0.3333    0.0000
  band No.  band energies     occupation 
      1      -4.2644      2.00000
      2       0.6289      2.00000
      3       3.2353      2.00000
      4       3.2353      2.00000
      5       6.3563      0.00336
      6       7.6108      0.00000
      7      12.6842      0.00000
      8      12.6842      0.00000
      9      15.0536      0.00000
     10      15.3597      0.00000
     11      18.3883      0.00000
     12      18.8262      0.00000
     13      18.8262      0.00000
     14      20.5149      0.00000
     15      21.5266      0.00000
     16      21.6794      0.00000

 k-point     4 :      -0.3333    0.3333    0.0000
  band No.  band energies     occupation 
      1      -2.9551      2.00000
      2      -1.0712      2.00000
      3       1.3240      2.00000
      4       3.5282      2.00000
      5       7.1771      0.00000
      6      11.3110      0.00000
      7      11.9494      0.00000
      8      12.4767      0.00000
      9      12.8065      0.00000
     10      13.1776      0.00000
     11      19.7325      0.00000
     12      20.2670      0.00000
     13      20.8577      0.00000
     14      21.0399      0.00000
     15      21.8647      0.00000
     16      22.7509      0.00000


--------------------------------------------------------------------------------------------------------


 soft charge-density along one line, spin component           1
         0         1         2         3         4         5         6         7         8         9
 total charge-density along one line

 pseudopotential strength for first ion, spin component:           1
 18.532  25.850  -0.000  -0.000  -0.000  -0.000  -0.000  -0.000
 25.850  36.064  -0.000  -0.000  -0.000  -0.000  -0.000  -0.000
 -0.000  -0.000   4.199   0.000   0.000   7.817   0.000   0.000
 -0.000  -0.000   0.000   4.199   0.000   0.000   7.817   0.000
 -0.000  -0.000   0.000   0.000   4.199   0.000   0.000   7.817
 -0.000  -0.000   7.817   0.000   0.000  14.563   0.000   0.000
 -0.000  -0.000   0.000   7.817   0.000   0.000  14.563   0.000
 -0.000  -0.000   0.000   0.000   7.817   0.000   0.000  14.563
 total augmentation occupancy for first ion, spin component:           1
  3.178  -0.883   0.000   0.000   0.000  -0.000  -0.000  -0.000
 -0.883   0.373   0.000  -0.000   0.000  -0.000   0.000   0.000
 -0.000  -0.000   2.261  -0.000  -0.000  -0.394  -0.000  -0.000
 -0.000   0.000  -0.000   2.261   0.000  -0.000  -0.394   0.000
  0.000  -0.000  -0.000  -0.000   2.261  -0.000  -0.000  -0.394
  0.000  -0.000  -0.394   0.000  -0.000   0.082   0.000  -0.000
  0.000  -0.000   0.000  -0.394   0.000   0.000   0.082   0.000
 -0.000   0.000   0.000   0.000  -0.394  -0.000   0.000   0.082


------------------------ aborting loop because EDIFF is reached ----------------------------------------


    CHARGE:  cpu time    0.0360: real time    0.0363
    FORLOC:  cpu time    0.0000: real time    0.0010
    FORNL :  cpu time    0.0200: real time    0.0193
    STRESS:  cpu time    0.1520: real time    0.1529
    FORCOR:  cpu time    3.4760: real time    3.4736
    FORHAR:  cpu time    0.0080: real time    0.0082
    MIXING:  cpu time    0.0000: real time    0.0012
    OFIELD:  cpu time    0.0000: real time    0.0000

  FORCE on cell =-STRESS in cart. coord.  units (eV):
  Direction    XX          YY          ZZ          XY          YZ          ZX
  --------------------------------------------------------------------------------------
  Alpha Z     3.24858     3.24858     3.24858
  Ewald     -75.30526   -75.30526   -75.30526     0.00000    -0.00000    -0.00000
  Hartree     5.42921     5.42921     5.42921     0.00000     0.00000     0.00000
  E(xc)     -25.42094   -25.42094   -25.42094     0.00000     0.00000     0.00000
  Local     -30.12248   -30.12248   -30.12248     0.00000     0.00000     0.00000
  n-local    78.76928    78.76928    72.78766     2.89244    -1.22746     1.22746
  augment   -11.63030   -11.63030   -11.63030    -0.00000    -0.00000    -0.00000
  Kinetic    59.15532    59.15532    53.99890     4.52007    -1.73039     1.73039
  Fock        0.00000     0.00000     0.00000     0.00000     0.00000     0.00000
  -------------------------------------------------------------------------------------
  Total       0.41072     0.41072     0.41072     0.00000     0.00000     0.00000
  in kB      15.87562    15.87562    15.87562     0.00000     0.00000     0.00000
  external pressure =       15.88 kB  Pullay stress =        0.00 kB


 VOLUME and BASIS-vectors are now :
 -----------------------------------------------------------------------------
  energy-cutoff  :      800.00
  volume of cell :       41.45
      direct lattice vectors                 reciprocal lattice vectors
     0.000000000  2.746821138  2.746821138    -0.182028598  0.182028598  0.182028598
     2.746821138  0.000000000  2.746821138     0.182028598 -0.182028598  0.182028598
     2.746821138  2.746821138  0.000000000     0.182028598  0.182028598 -0.182028598

  length of vectors
     3.884591706  3.884591706  3.884591706     0.315282780  0.315282780  0.315282780


 FORCES acting on ions
    electron-ion (+dipol)            ewald-force                    non-local-force                 convergence-correction
 -----------------------------------------------------------------------------------------------
   0.799E-09 0.799E-09 0.137E-08   -.313E-14 -.268E-14 -.153E-14   0.000E+00 0.139E-16 0.139E-16   -.391E-12 -.388E-12 -.391E-12
   -.799E-09 -.799E-09 -.137E-08   0.307E-14 0.301E-14 0.222E-14   0.278E-16 0.000E+00 0.130E-17   0.392E-12 0.393E-12 0.390E-12
 -----------------------------------------------------------------------------------------------
   0.369E-12 0.875E-13 0.251E-12   -.615E-16 0.330E-15 0.690E-15   0.278E-16 0.139E-16 0.152E-16   0.130E-14 0.469E-14 -.744E-15


 POSITION                                       TOTAL-FORCE (eV/Angst)
 -----------------------------------------------------------------------------------
      4.12023      4.12023      4.12023         0.000000      0.000000      0.000000
      2.74682      2.74682      2.74682        -0.000000     -0.000000     -0.000000
 -----------------------------------------------------------------------------------
    total drift:                                0.000000      0.000000      0.000000


--------------------------------------------------------------------------------------------------------



  FREE ENERGIE OF THE ION-ELECTRON SYSTEM (eV)
  ---------------------------------------------------
  free  energy   TOTEN  =        -7.75334779 eV

  energy  without entropy=       -7.75268895  energy(sigma->0) =       -7.75301837



--------------------------------------------------------------------------------------------------------


    POTLOK:  cpu time    3.4640: real time    3.4617


--------------------------------------------------------------------------------------------------------




--------------------------------------------------------------------------------------------------------


  
 reached required accuracy - stopping structural energy minimisation
     LOOP+:  cpu time   51.2440: real time   53.3539
    4ORBIT:  cpu time    0.0000: real time    0.0000

 total amount of memory used by VASP on root node    34986. kBytes
========================================================================

   base      :      30000. kBytes
   nonl-proj :        617. kBytes
   fftplans  :       1071. kBytes
   grid      :       3154. kBytes
   one-center:          6. kBytes
   wavefun   :        138. kBytes

  
  
 General timing and accounting informations for this job:
 ========================================================
  
                  Total CPU time used (sec):       51.932
                            User time (sec):       51.492
                          System time (sec):        0.440
                         Elapsed time (sec):       55.193
  
                   Maximum memory used (kb):      125612.
                   Average memory used (kb):           0.
  
                          Minor page faults:       236547
                          Major page faults:            6
                 Voluntary context switches:          259
