    2    2    1    1
  0.2044415E+02  0.3866974E-09  0.3866975E-09  0.3866975E-09  0.5000000E-15
  1.000000000000000E-004
  CAR 
 unknown system                          
    8   56    8
 
  0.0000000E+00  0.0000000E+00  0.0000000E+00  0.7513148E-03
   1       -6.147031
   2        5.593748
   3        5.593748
   4        5.593749
   5        8.216347
   6        8.216350
   7        8.216351
   8        8.821669
 
  0.9090909E-01  0.3469447E-17  0.0000000E+00  0.6010518E-02
   1       -6.040935
   2        4.631504
   3        5.434569
   4        5.434571
   5        8.209687
   6        8.453651
   7        8.453654
   8        9.617812
 
  0.1818182E+00  0.6938894E-17  0.0000000E+00  0.6010518E-02
   1       -5.726831
   2        2.988700
   3        5.106416
   4        5.106418
   5        7.891894
   6        8.916322
   7        8.916325
   8       11.194237
 
  0.2727273E+00  0.1387779E-16  0.0000000E+00  0.6010518E-02
   1       -5.221394
   2        1.362069
   3        4.791561
   4        4.791563
   5        7.546262
   6        9.170508
   7        9.170511
   8       12.754331
 
  0.3636364E+00  0.1387779E-16  0.0000000E+00  0.6010518E-02
   1       -4.575866
   2       -0.063972
   3        4.564863
   4        4.564866
   5        7.287392
   6        9.123199
   7        9.123201
   8       13.503517
 
  0.4545455E+00  0.2775558E-16  0.0000000E+00  0.6010518E-02
   1       -3.982151
   2       -1.055400
   3        4.448886
   4        4.448889
   5        7.152521
   6        9.022392
   7        9.022395
   8       13.396467
 
  0.9090909E-01  0.9090909E-01  0.0000000E+00  0.4507889E-02
   1       -6.005362
   2        4.794230
   3        5.124182
   4        5.124182
   5        7.903332
   6        8.859737
   7        8.859737
   8        9.553562
 
  0.1818182E+00  0.9090909E-01  0.0000000E+00  0.1803156E-01
   1       -5.759815
   2        3.470387
   3        4.740468
   4        4.912260
   5        7.930530
   6        8.896919
   7        9.437910
   8       10.517531
 
  0.2727273E+00  0.9090909E-01  0.0000000E+00  0.1803156E-01
   1       -5.315590
   2        1.883802
   3        4.429073
   4        4.550059
   5        8.031570
   6        8.907900
   7        9.791070
   8       10.975399
 
  0.3636364E+00  0.9090909E-01  0.0000000E+00  0.1803156E-01
   1       -4.707013
   2        0.406696
   3        4.177653
   4        4.245248
   5        7.871245
   6        8.960625
   7        9.737597
   8       11.735985
 
  0.4545455E+00  0.9090909E-01  0.0000000E+00  0.1803156E-01
   1       -4.054073
   2       -0.759472
   3        3.886849
   4        4.203878
   5        7.730198
   6        8.926413
   7        9.513213
   8       12.966092
 
 -0.4545455E+00  0.9090909E-01  0.0000000E+00  0.1803156E-01
   1       -3.792637
   2       -1.150049
   3        3.714317
   4        4.301106
   5        7.702712
   6        8.981861
   7        9.334818
   8       13.695978
 
 -0.3636364E+00  0.9090909E-01  0.0000000E+00  0.1803156E-01
   1       -4.261886
   2       -0.420264
   3        3.680967
   4        4.521273
   5        7.801890
   6        9.166492
   7        9.258122
   8       13.352107
 
 -0.2727273E+00  0.9090909E-01  0.0000000E+00  0.1803156E-01
   1       -4.925534
   2        0.879347
   3        3.802143
   4        4.835803
   5        8.016893
   6        9.187165
   7        9.366742
   8       12.285912
 
 -0.1818182E+00  0.9090909E-01  0.0000000E+00  0.1803156E-01
   1       -5.485497
   2        2.397595
   3        4.095230
   4        5.188789
   5        8.313263
   6        8.903800
   7        9.231211
   8       11.395771
 
 -0.9090909E-01  0.9090909E-01  0.0000000E+00  0.9015778E-02
   1       -5.865195
   2        3.837443
   3        4.646818
   4        5.454470
   5        8.508392
   6        8.552789
   7        8.648407
   8       10.496323
 
  0.1818182E+00  0.1818182E+00  0.0000000E+00  0.4507889E-02
   1       -5.583009
   2        3.313516
   3        4.319998
   4        4.319998
   5        7.268204
   6        9.737479
   7       10.176050
   8       10.176050
 
  0.2727273E+00  0.1818182E+00  0.0000000E+00  0.1803156E-01
   1       -5.203523
   2        2.180652
   3        3.911568
   4        3.985097
   5        7.315296
   6        9.344018
   7       10.459529
   8       10.753471
 
  0.3636364E+00  0.1818182E+00  0.0000000E+00  0.1803156E-01
   1       -4.644234
   2        0.839264
   3        3.391936
   4        3.792043
   5        7.547896
   6        9.696688
   7       10.259073
   8       10.844647
 
  0.4545455E+00  0.1818182E+00  0.0000000E+00  0.1803156E-01
   1       -3.979750
   2       -0.370245
   3        2.925677
   4        3.759117
   5        7.589260
   6       10.033671
   7       10.605413
   8       10.888734
 
 -0.4545455E+00  0.1818182E+00  0.0000000E+00  0.1803156E-01
   1       -3.510855
   2       -1.061195
   3        2.598082
   4        3.885493
   5        7.686268
   6        9.907683
   7       10.324952
   8       12.490744
 
 -0.3636364E+00  0.1818182E+00  0.0000000E+00  0.1803156E-01
   1       -3.787875
   2       -0.660801
   3        2.450462
   4        4.155107
   5        7.930521
   6        9.899011
   7       10.106789
   8       13.292910
 
 -0.2727273E+00  0.1818182E+00  0.0000000E+00  0.1803156E-01
   1       -4.443324
   2        0.429172
   3        2.534749
   4        4.530475
   5        8.286464
   6        9.865180
   7        9.946064
   8       11.921684
 
 -0.1818182E+00  0.1818182E+00  0.0000000E+00  0.9015778E-02
   1       -5.046798
   2        1.595454
   3        3.011065
   4        4.930728
   5        8.602517
   6        9.380171
   7        9.632086
   8       11.260494
 
  0.2727273E+00  0.2727273E+00  0.0000000E+00  0.4507889E-02
   1       -4.888478
   2        1.719123
   3        3.616697
   4        3.616697
   5        6.688512
   6        8.474276
   7       11.711092
   8       11.711092
 
  0.3636364E+00  0.2727273E+00  0.0000000E+00  0.1803156E-01
   1       -4.385219
   2        0.782836
   3        3.096466
   4        3.390046
   5        6.816747
   6        8.186364
   7       11.991986
   8       12.178279
 
  0.4545455E+00  0.2727273E+00  0.0000000E+00  0.1803156E-01
   1       -3.739854
   2       -0.224367
   3        2.390071
   4        3.329350
   5        7.018295
   6        8.914673
   7       11.833316
   8       12.058765
 
 -0.4545455E+00  0.2727273E+00  0.0000000E+00  0.1803156E-01
   1       -3.141441
   2       -1.006164
   3        1.831255
   4        3.438359
   5        7.151845
   6       10.362054
   7       11.671291
   8       11.744578
 
 -0.3636364E+00  0.2727273E+00  0.0000000E+00  0.1803156E-01
   1       -3.197036
   2       -0.928051
   3        1.554455
   4        3.705217
   5        7.435275
   6       11.383112
   7       11.403002
   8       12.304904
 
 -0.2727273E+00  0.2727273E+00  0.0000000E+00  0.9015778E-02
   1       -3.816421
   2       -0.185450
   3        1.713372
   4        4.095944
   5        7.868649
   6       10.814594
   7       11.105829
   8       11.982684
 
  0.3636364E+00  0.3636364E+00  0.0000000E+00  0.4507889E-02
   1       -3.937493
   2        0.131515
   3        3.121560
   4        3.121560
   5        6.339620
   6        7.355750
   7       13.347900
   8       13.347900
 
  0.4545455E+00  0.3636364E+00  0.0000000E+00  0.1803156E-01
   1       -3.328232
   2       -0.667764
   3        2.605928
   4        3.018481
   5        6.545615
   6        7.361269
   7       13.671146
   8       13.685520
 
 -0.4545455E+00  0.3636364E+00  0.0000000E+00  0.1803156E-01
   1       -2.669683
   2       -1.370423
   3        1.852631
   4        3.089438
   5        6.716162
   6        8.515515
   7       13.419447
   8       13.540285
 
 -0.3636364E+00  0.3636364E+00  0.0000000E+00  0.9015778E-02
   1       -2.610162
   2       -1.399279
   3        1.381591
   4        3.327385
   5        6.988591
   6       10.206611
   7       12.760330
   8       13.243281
 
  0.4545455E+00  0.4545455E+00  0.0000000E+00  0.4507889E-02
   1       -2.755598
   2       -1.381413
   3        2.868231
   4        2.868231
   5        6.303154
   6        6.630049
   7       15.022758
   8       15.022758
 
 -0.4545455E+00  0.4545455E+00  0.0000000E+00  0.9015778E-02
   1       -2.124209
   2       -2.012588
   3        2.444116
   4        2.892664
   5        6.483804
   6        7.051023
   7       14.971863
   8       15.202704
 
  0.2727273E+00  0.1818182E+00  0.9090909E-01  0.1803156E-01
   1       -5.447782
   2        2.620015
   3        3.832281
   4        4.800774
   5        7.987752
   6        9.212183
   7        9.973926
   8       10.409507
 
  0.3636364E+00  0.1818182E+00  0.9090909E-01  0.3606311E-01
   1       -4.945181
   2        1.328355
   3        3.280686
   4        4.492265
   5        8.288502
   6        9.174673
   7       10.316506
   8       10.512078
 
  0.4545455E+00  0.1818182E+00  0.9090909E-01  0.3606311E-01
   1       -4.301181
   2        0.015174
   3        3.025172
   4        4.159522
   5        8.314640
   6        8.992159
   7       10.407181
   8       11.347437
 
 -0.4545455E+00  0.1818182E+00  0.9090909E-01  0.3606311E-01
   1       -3.702737
   2       -0.942172
   3        2.925333
   4        3.955664
   5        8.284503
   6        8.801954
   7       10.343727
   8       12.792055
 
  0.3636364E+00  0.2727273E+00  0.9090909E-01  0.1803156E-01
   1       -4.763220
   2        1.346386
   3        3.134128
   4        3.827107
   5        7.436876
   6        8.962093
   7       10.572847
   8       11.596482
 
  0.4545455E+00  0.2727273E+00  0.9090909E-01  0.3606311E-01
   1       -4.158449
   2        0.288787
   3        2.571822
   4        3.524296
   5        7.793915
   6        9.361204
   7       10.267598
   8       11.986319
 
 -0.4545455E+00  0.2727273E+00  0.9090909E-01  0.3606311E-01
   1       -3.501423
   2       -0.696013
   3        2.193083
   4        3.373780
   5        7.927687
   6        9.882660
   7       10.701373
   8       11.947657
 
 -0.3636364E+00  0.2727273E+00  0.9090909E-01  0.3606311E-01
   1       -3.242607
   2       -1.035229
   3        1.968750
   4        3.460545
   5        8.136137
   6        9.625446
   7       11.836763
   8       12.354040
 
 -0.2727273E+00  0.2727273E+00  0.9090909E-01  0.3606311E-01
   1       -3.735580
   2       -0.364279
   3        1.961789
   4        3.746996
   5        8.488625
   6        9.439662
   7       11.154835
   8       11.759275
 
 -0.1818182E+00  0.2727273E+00  0.9090909E-01  0.1803156E-01
   1       -4.396002
   2        0.596152
   3        2.333715
   4        4.148202
   5        8.913741
   6        9.027028
   7       10.286493
   8       11.309130
 
  0.4545455E+00  0.3636364E+00  0.9090909E-01  0.1803156E-01
   1       -3.830936
   2       -0.002922
   3        2.669368
   4        3.049895
   5        7.087896
   6        7.942397
   7       11.933524
   8       13.314182
 
 -0.4545455E+00  0.3636364E+00  0.9090909E-01  0.3606311E-01
   1       -3.165188
   2       -0.809713
   3        2.045940
   4        2.877262
   5        7.431477
   6        8.732515
   7       11.593043
   8       13.680247
 
 -0.3636364E+00  0.3636364E+00  0.9090909E-01  0.3606311E-01
   1       -2.708858
   2       -1.296137
   3        1.539305
   4        2.990111
   5        7.643312
   6       10.271305
   7       11.303452
   8       12.885618
 
 -0.2727273E+00  0.3636364E+00  0.9090909E-01  0.1803156E-01
   1       -3.086826
   2       -0.903070
   3        1.437922
   4        3.304364
   5        8.007204
   6       10.677680
   7       11.412763
   8       12.288986
 
 -0.4545455E+00  0.4545455E+00  0.9090909E-01  0.1803156E-01
   1       -2.684554
   2       -1.379952
   3        2.482155
   4        2.600844
   5        7.023418
   6        7.295176
   7       13.449414
   8       14.856464
 
 -0.3636364E+00  0.4545455E+00  0.9090909E-01  0.1803156E-01
   1       -2.192697
   2       -1.817320
   3        1.844354
   4        2.671445
   5        7.302446
   6        8.525974
   7       13.007710
   8       13.235585
 
 -0.4545455E+00  0.3636364E+00  0.1818182E+00  0.1803156E-01
   1       -3.528225
   2       -0.388126
   3        1.934921
   4        3.075602
   5        8.712897
   6        9.360658
   7        9.908038
   8       13.212809
 
 -0.3636364E+00  0.3636364E+00  0.1818182E+00  0.3606311E-01
   1       -2.908459
   2       -1.074290
   3        1.661022
   4        2.765309
   5        9.083692
   6        9.432992
   7       10.689958
   8       12.530668
 
 -0.3636364E+00  0.4545455E+00  0.1818182E+00  0.1803156E-01
   1       -2.504707
   2       -1.424480
   3        1.887636
   4        2.261113
   5        8.634811
   6        8.844429
   7       11.194659
   8       12.764061
 
 -0.2727273E+00  0.4545455E+00  0.1818182E+00  0.1803156E-01
   1       -2.310754
   2       -1.585437
   3        1.616992
   4        2.296548
   5        8.979926
   6       10.236414
   7       10.976962
   8       10.979045
