       N       E                     dE             d eps       ncg     rms          rms(c)
DAV:   1     0.901949020282E+01    0.90195E+01   -0.33550E+03   896   0.837E+02
DAV:   2    -0.816706585498E+01   -0.17187E+02   -0.16714E+02  1312   0.802E+01
DAV:   3    -0.841338833992E+01   -0.24632E+00   -0.24632E+00  1224   0.122E+01
DAV:   4    -0.841455487019E+01   -0.11665E-02   -0.11665E-02  1384   0.874E-01
DAV:   5    -0.841455618489E+01   -0.13147E-05   -0.13149E-05  1272   0.248E-02    0.374E+00
DAV:   6    -0.836123610035E+01    0.53320E-01   -0.88844E-02  1080   0.176E+00    0.229E+00
DAV:   7    -0.835590258911E+01    0.53335E-02   -0.20264E-01  1120   0.263E+00    0.186E-01
DAV:   8    -0.833910438615E+01    0.16798E-01   -0.62824E-03  1104   0.550E-01    0.991E-02
DAV:   9    -0.834077192669E+01   -0.16675E-02   -0.57431E-04  1208   0.160E-01    0.734E-02
DAV:  10    -0.834010126192E+01    0.67066E-03   -0.38304E-05  1216   0.542E-02    0.306E-02
DAV:  11    -0.834007397535E+01    0.27287E-04   -0.80655E-07  1192   0.821E-03    0.312E-03
DAV:  12    -0.834007289972E+01    0.10756E-05   -0.73731E-08  1176   0.270E-03    0.923E-04
DAV:  13    -0.834006994001E+01    0.29597E-05   -0.20852E-09   632   0.418E-04    0.573E-05
DAV:  14    -0.834006971606E+01    0.22395E-06   -0.27254E-10   616   0.176E-04    0.221E-05
DAV:  15    -0.834006933017E+01    0.38589E-06   -0.29437E-11   600   0.470E-05    0.106E-05
DAV:  16    -0.834006938988E+01   -0.59716E-07   -0.66738E-12   560   0.218E-05
   1 F= -.83400694E+01 E0= -.83400467E+01  d E =-.834007E+01
