datafile (written by JARVIS-FF) 

960 	 atoms 
1  atom types
0.0 28.637824408  xlo xhi
0.0 25.774041967  ylo yhi
0.0 48.599999609  zlo zhi
8.591347322 0E-9 0E-9  xy xz yz


Atoms 

     1   1 0.000000 22.552286722 20.881746965 13.837499889
     2   1 0.000000 16.824721840 3.699052319 13.837499889
     3   1 0.000000 19.688504281 12.290399642 13.837499889
     4   1 0.000000 28.279851603 20.881746965 13.837499889
     5   1 0.000000 22.552286722 3.699052319 13.837499889
     6   1 0.000000 25.416069163 12.290399642 13.837499889
     7   1 0.000000 34.007416485 20.881746965 13.837499889
     8   1 0.000000 28.279851603 3.699052319 13.837499889
     9   1 0.000000 31.143634044 12.290399642 13.837499889
    10   1 0.000000 11.097156958 20.881746965 13.837499889
    11   1 0.000000 5.369592077 3.699052319 13.837499889
    12   1 0.000000 8.233374517 12.290399642 13.837499889
    13   1 0.000000 16.824721840 20.881746965 13.837499889
    14   1 0.000000 11.097156958 3.699052319 13.837499889
    15   1 0.000000 13.960939399 12.290399642 13.837499889
    16   1 0.000000 22.552286722 24.700123552 15.187499878
    17   1 0.000000 16.824721840 7.517428907 15.187499878
    18   1 0.000000 19.688504281 16.108776230 15.187499878
    19   1 0.000000 28.279851603 24.700123552 15.187499878
    20   1 0.000000 22.552286722 7.517428907 15.187499878
    21   1 0.000000 25.416069163 16.108776230 15.187499878
    22   1 0.000000 34.007416485 24.700123552 15.187499878
    23   1 0.000000 28.279851603 7.517428907 15.187499878
    24   1 0.000000 31.143634044 16.108776230 15.187499878
    25   1 0.000000 11.097156958 24.700123552 15.187499878
    26   1 0.000000 5.369592077 7.517428907 15.187499878
    27   1 0.000000 8.233374517 16.108776230 15.187499878
    28   1 0.000000 16.824721840 24.700123552 15.187499878
    29   1 0.000000 11.097156958 7.517428907 15.187499878
    30   1 0.000000 13.960939399 16.108776230 15.187499878
    31   1 0.000000 23.984177942 22.313638185 15.862499873
    32   1 0.000000 18.256613060 5.130943540 15.862499873
    33   1 0.000000 21.120395501 13.722290862 15.862499873
    34   1 0.000000 29.711742824 22.313638185 15.862499873
    35   1 0.000000 23.984177942 5.130943540 15.862499873
    36   1 0.000000 26.847960383 13.722290862 15.862499873
    37   1 0.000000 35.439307705 22.313638185 15.862499873
    38   1 0.000000 29.711742824 5.130943540 15.862499873
    39   1 0.000000 32.575525265 13.722290862 15.862499873
    40   1 0.000000 12.529048179 22.313638185 15.862499873
    41   1 0.000000 6.801483297 5.130943540 15.862499873
    42   1 0.000000 9.665265738 13.722290862 15.862499873
    43   1 0.000000 18.256613060 22.313638185 15.862499873
    44   1 0.000000 12.529048179 5.130943540 15.862499873
    45   1 0.000000 15.392830620 13.722290862 15.862499873
    46   1 0.000000 18.256613060 1.312566952 14.512499884
    47   1 0.000000 21.120395501 9.903914275 14.512499884
    48   1 0.000000 23.984177942 18.495261597 14.512499884
    49   1 0.000000 23.984177942 1.312566952 14.512499884
    50   1 0.000000 26.847960383 9.903914275 14.512499884
    51   1 0.000000 29.711742824 18.495261597 14.512499884
    52   1 0.000000 1.073918415 1.312566952 14.512499884
    53   1 0.000000 3.937700856 9.903914275 14.512499884
    54   1 0.000000 6.801483297 18.495261597 14.512499884
    55   1 0.000000 6.801483297 1.312566952 14.512499884
    56   1 0.000000 9.665265738 9.903914275 14.512499884
    57   1 0.000000 12.529048179 18.495261597 14.512499884
    58   1 0.000000 12.529048179 1.312566952 14.512499884
    59   1 0.000000 15.392830620 9.903914275 14.512499884
    60   1 0.000000 18.256613060 18.495261597 14.512499884
    61   1 0.000000 21.120395501 22.313638185 15.862499873
    62   1 0.000000 15.392830620 5.130943540 15.862499873
    63   1 0.000000 18.256613060 13.722290862 15.862499873
    64   1 0.000000 26.847960383 22.313638185 15.862499873
    65   1 0.000000 21.120395501 5.130943540 15.862499873
    66   1 0.000000 23.984177942 13.722290862 15.862499873
    67   1 0.000000 32.575525265 22.313638185 15.862499873
    68   1 0.000000 26.847960383 5.130943540 15.862499873
    69   1 0.000000 29.711742824 13.722290862 15.862499873
    70   1 0.000000 9.665265738 22.313638185 15.862499873
    71   1 0.000000 3.937700856 5.130943540 15.862499873
    72   1 0.000000 6.801483297 13.722290862 15.862499873
    73   1 0.000000 15.392830620 22.313638185 15.862499873
    74   1 0.000000 9.665265738 5.130943540 15.862499873
    75   1 0.000000 12.529048179 13.722290862 15.862499873
    76   1 0.000000 15.392830620 1.312566952 14.512499884
    77   1 0.000000 18.256613060 9.903914275 14.512499884
    78   1 0.000000 21.120395501 18.495261597 14.512499884
    79   1 0.000000 21.120395501 1.312566952 14.512499884
    80   1 0.000000 23.984177942 9.903914275 14.512499884
    81   1 0.000000 26.847960383 18.495261597 14.512499884
    82   1 0.000000 26.847960383 1.312566952 14.512499884
    83   1 0.000000 29.711742824 9.903914275 14.512499884
    84   1 0.000000 32.575525265 18.495261597 14.512499884
    85   1 0.000000 3.937700856 1.312566952 14.512499884
    86   1 0.000000 6.801483297 9.903914275 14.512499884
    87   1 0.000000 9.665265738 18.495261597 14.512499884
    88   1 0.000000 9.665265738 1.312566952 14.512499884
    89   1 0.000000 12.529048179 9.903914275 14.512499884
    90   1 0.000000 15.392830620 18.495261597 14.512499884
    91   1 0.000000 25.416069163 20.881746965 13.837499889
    92   1 0.000000 19.688504281 3.699052319 13.837499889
    93   1 0.000000 22.552286722 12.290399642 13.837499889
    94   1 0.000000 31.143634044 20.881746965 13.837499889
    95   1 0.000000 25.416069163 3.699052319 13.837499889
    96   1 0.000000 28.279851603 12.290399642 13.837499889
    97   1 0.000000 8.233374517 20.881746965 13.837499889
    98   1 0.000000 2.505809636 3.699052319 13.837499889
    99   1 0.000000 5.369592077 12.290399642 13.837499889
   100   1 0.000000 13.960939399 20.881746965 13.837499889
   101   1 0.000000 8.233374517 3.699052319 13.837499889
   102   1 0.000000 11.097156958 12.290399642 13.837499889
   103   1 0.000000 19.688504281 20.881746965 13.837499889
   104   1 0.000000 13.960939399 3.699052319 13.837499889
   105   1 0.000000 16.824721840 12.290399642 13.837499889
   106   1 0.000000 25.416069163 24.700123552 15.187499878
   107   1 0.000000 19.688504281 7.517428907 15.187499878
   108   1 0.000000 22.552286722 16.108776230 15.187499878
   109   1 0.000000 31.143634044 24.700123552 15.187499878
   110   1 0.000000 25.416069163 7.517428907 15.187499878
   111   1 0.000000 28.279851603 16.108776230 15.187499878
   112   1 0.000000 8.233374517 24.700123552 15.187499878
   113   1 0.000000 2.505809636 7.517428907 15.187499878
   114   1 0.000000 5.369592077 16.108776230 15.187499878
   115   1 0.000000 13.960939399 24.700123552 15.187499878
   116   1 0.000000 8.233374517 7.517428907 15.187499878
   117   1 0.000000 11.097156958 16.108776230 15.187499878
   118   1 0.000000 19.688504281 24.700123552 15.187499878
   119   1 0.000000 13.960939399 7.517428907 15.187499878
   120   1 0.000000 16.824721840 16.108776230 15.187499878
   121   1 0.000000 19.688504281 19.927152818 16.537499867
   122   1 0.000000 13.960939399 2.744458172 16.537499867
   123   1 0.000000 16.824721840 11.335805495 16.537499867
   124   1 0.000000 25.416069163 19.927152818 16.537499867
   125   1 0.000000 19.688504281 2.744458172 16.537499867
   126   1 0.000000 22.552286722 11.335805495 16.537499867
   127   1 0.000000 31.143634044 19.927152818 16.537499867
   128   1 0.000000 25.416069163 2.744458172 16.537499867
   129   1 0.000000 28.279851603 11.335805495 16.537499867
   130   1 0.000000 8.233374517 19.927152818 16.537499867
   131   1 0.000000 2.505809636 2.744458172 16.537499867
   132   1 0.000000 5.369592077 11.335805495 16.537499867
   133   1 0.000000 13.960939399 19.927152818 16.537499867
   134   1 0.000000 8.233374517 2.744458172 16.537499867
   135   1 0.000000 11.097156958 11.335805495 16.537499867
   136   1 0.000000 19.688504281 23.745529405 17.887499857
   137   1 0.000000 13.960939399 6.562834760 17.887499857
   138   1 0.000000 16.824721840 15.154182083 17.887499857
   139   1 0.000000 25.416069163 23.745529405 17.887499857
   140   1 0.000000 19.688504281 6.562834760 17.887499857
   141   1 0.000000 22.552286722 15.154182083 17.887499857
   142   1 0.000000 31.143634044 23.745529405 17.887499857
   143   1 0.000000 25.416069163 6.562834760 17.887499857
   144   1 0.000000 28.279851603 15.154182083 17.887499857
   145   1 0.000000 8.233374517 23.745529405 17.887499857
   146   1 0.000000 2.505809636 6.562834760 17.887499857
   147   1 0.000000 5.369592077 15.154182083 17.887499857
   148   1 0.000000 13.960939399 23.745529405 17.887499857
   149   1 0.000000 8.233374517 6.562834760 17.887499857
   150   1 0.000000 11.097156958 15.154182083 17.887499857
   151   1 0.000000 21.120395501 21.359044038 18.562499851
   152   1 0.000000 15.392830620 4.176349393 18.562499851
   153   1 0.000000 18.256613060 12.767696715 18.562499851
   154   1 0.000000 26.847960383 21.359044038 18.562499851
   155   1 0.000000 21.120395501 4.176349393 18.562499851
   156   1 0.000000 23.984177942 12.767696715 18.562499851
   157   1 0.000000 32.575525265 21.359044038 18.562499851
   158   1 0.000000 26.847960383 4.176349393 18.562499851
   159   1 0.000000 29.711742824 12.767696715 18.562499851
   160   1 0.000000 9.665265738 21.359044038 18.562499851
   161   1 0.000000 3.937700856 4.176349393 18.562499851
   162   1 0.000000 6.801483297 12.767696715 18.562499851
   163   1 0.000000 15.392830620 21.359044038 18.562499851
   164   1 0.000000 9.665265738 4.176349393 18.562499851
   165   1 0.000000 12.529048179 12.767696715 18.562499851
   166   1 0.000000 15.392830620 0.357972805 17.212499862
   167   1 0.000000 18.256613060 8.949320128 17.212499862
   168   1 0.000000 21.120395501 17.540667450 17.212499862
   169   1 0.000000 21.120395501 0.357972805 17.212499862
   170   1 0.000000 23.984177942 8.949320128 17.212499862
   171   1 0.000000 26.847960383 17.540667450 17.212499862
   172   1 0.000000 26.847960383 0.357972805 17.212499862
   173   1 0.000000 29.711742824 8.949320128 17.212499862
   174   1 0.000000 32.575525265 17.540667450 17.212499862
   175   1 0.000000 3.937700856 0.357972805 17.212499862
   176   1 0.000000 6.801483297 8.949320128 17.212499862
   177   1 0.000000 9.665265738 17.540667450 17.212499862
   178   1 0.000000 9.665265738 0.357972805 17.212499862
   179   1 0.000000 12.529048179 8.949320128 17.212499862
   180   1 0.000000 15.392830620 17.540667450 17.212499862
   181   1 0.000000 18.256613060 21.359044038 18.562499851
   182   1 0.000000 12.529048179 4.176349393 18.562499851
   183   1 0.000000 15.392830620 12.767696715 18.562499851
   184   1 0.000000 23.984177942 21.359044038 18.562499851
   185   1 0.000000 18.256613060 4.176349393 18.562499851
   186   1 0.000000 21.120395501 12.767696715 18.562499851
   187   1 0.000000 29.711742824 21.359044038 18.562499851
   188   1 0.000000 23.984177942 4.176349393 18.562499851
   189   1 0.000000 26.847960383 12.767696715 18.562499851
   190   1 0.000000 35.439307705 21.359044038 18.562499851
   191   1 0.000000 29.711742824 4.176349393 18.562499851
   192   1 0.000000 32.575525265 12.767696715 18.562499851
   193   1 0.000000 12.529048179 21.359044038 18.562499851
   194   1 0.000000 6.801483297 4.176349393 18.562499851
   195   1 0.000000 9.665265738 12.767696715 18.562499851
   196   1 0.000000 12.529048179 0.357972805 17.212499862
   197   1 0.000000 15.392830620 8.949320128 17.212499862
   198   1 0.000000 18.256613060 17.540667450 17.212499862
   199   1 0.000000 18.256613060 0.357972805 17.212499862
   200   1 0.000000 21.120395501 8.949320128 17.212499862
   201   1 0.000000 23.984177942 17.540667450 17.212499862
   202   1 0.000000 23.984177942 0.357972805 17.212499862
   203   1 0.000000 26.847960383 8.949320128 17.212499862
   204   1 0.000000 29.711742824 17.540667450 17.212499862
   205   1 0.000000 1.073918415 0.357972805 17.212499862
   206   1 0.000000 3.937700856 8.949320128 17.212499862
   207   1 0.000000 6.801483297 17.540667450 17.212499862
   208   1 0.000000 6.801483297 0.357972805 17.212499862
   209   1 0.000000 9.665265738 8.949320128 17.212499862
   210   1 0.000000 12.529048179 17.540667450 17.212499862
   211   1 0.000000 22.552286722 19.927152818 16.537499867
   212   1 0.000000 16.824721840 2.744458172 16.537499867
   213   1 0.000000 19.688504281 11.335805495 16.537499867
   214   1 0.000000 28.279851603 19.927152818 16.537499867
   215   1 0.000000 22.552286722 2.744458172 16.537499867
   216   1 0.000000 25.416069163 11.335805495 16.537499867
   217   1 0.000000 34.007416485 19.927152818 16.537499867
   218   1 0.000000 28.279851603 2.744458172 16.537499867
   219   1 0.000000 31.143634044 11.335805495 16.537499867
   220   1 0.000000 11.097156958 19.927152818 16.537499867
   221   1 0.000000 5.369592077 2.744458172 16.537499867
   222   1 0.000000 8.233374517 11.335805495 16.537499867
   223   1 0.000000 16.824721840 19.927152818 16.537499867
   224   1 0.000000 11.097156958 2.744458172 16.537499867
   225   1 0.000000 13.960939399 11.335805495 16.537499867
   226   1 0.000000 22.552286722 23.745529405 17.887499857
   227   1 0.000000 16.824721840 6.562834760 17.887499857
   228   1 0.000000 19.688504281 15.154182083 17.887499857
   229   1 0.000000 28.279851603 23.745529405 17.887499857
   230   1 0.000000 22.552286722 6.562834760 17.887499857
   231   1 0.000000 25.416069163 15.154182083 17.887499857
   232   1 0.000000 34.007416485 23.745529405 17.887499857
   233   1 0.000000 28.279851603 6.562834760 17.887499857
   234   1 0.000000 31.143634044 15.154182083 17.887499857
   235   1 0.000000 11.097156958 23.745529405 17.887499857
   236   1 0.000000 5.369592077 6.562834760 17.887499857
   237   1 0.000000 8.233374517 15.154182083 17.887499857
   238   1 0.000000 16.824721840 23.745529405 17.887499857
   239   1 0.000000 11.097156958 6.562834760 17.887499857
   240   1 0.000000 13.960939399 15.154182083 17.887499857
   241   1 0.000000 16.824721840 18.972558671 19.237499846
   242   1 0.000000 11.097156958 1.789864026 19.237499846
   243   1 0.000000 13.960939399 10.381211348 19.237499846
   244   1 0.000000 22.552286722 18.972558671 19.237499846
   245   1 0.000000 16.824721840 1.789864026 19.237499846
   246   1 0.000000 19.688504281 10.381211348 19.237499846
   247   1 0.000000 28.279851603 18.972558671 19.237499846
   248   1 0.000000 22.552286722 1.789864026 19.237499846
   249   1 0.000000 25.416069163 10.381211348 19.237499846
   250   1 0.000000 34.007416485 18.972558671 19.237499846
   251   1 0.000000 28.279851603 1.789864026 19.237499846
   252   1 0.000000 31.143634044 10.381211348 19.237499846
   253   1 0.000000 11.097156958 18.972558671 19.237499846
   254   1 0.000000 5.369592077 1.789864026 19.237499846
   255   1 0.000000 8.233374517 10.381211348 19.237499846
   256   1 0.000000 16.824721840 22.790935258 20.587499835
   257   1 0.000000 11.097156958 5.608240613 20.587499835
   258   1 0.000000 13.960939399 14.199587936 20.587499835
   259   1 0.000000 22.552286722 22.790935258 20.587499835
   260   1 0.000000 16.824721840 5.608240613 20.587499835
   261   1 0.000000 19.688504281 14.199587936 20.587499835
   262   1 0.000000 28.279851603 22.790935258 20.587499835
   263   1 0.000000 22.552286722 5.608240613 20.587499835
   264   1 0.000000 25.416069163 14.199587936 20.587499835
   265   1 0.000000 34.007416485 22.790935258 20.587499835
   266   1 0.000000 28.279851603 5.608240613 20.587499835
   267   1 0.000000 31.143634044 14.199587936 20.587499835
   268   1 0.000000 11.097156958 22.790935258 20.587499835
   269   1 0.000000 5.369592077 5.608240613 20.587499835
   270   1 0.000000 8.233374517 14.199587936 20.587499835
   271   1 0.000000 18.256613060 20.404449891 21.262499830
   272   1 0.000000 12.529048179 3.221755246 21.262499830
   273   1 0.000000 15.392830620 11.813102568 21.262499830
   274   1 0.000000 23.984177942 20.404449891 21.262499830
   275   1 0.000000 18.256613060 3.221755246 21.262499830
   276   1 0.000000 21.120395501 11.813102568 21.262499830
   277   1 0.000000 29.711742824 20.404449891 21.262499830
   278   1 0.000000 23.984177942 3.221755246 21.262499830
   279   1 0.000000 26.847960383 11.813102568 21.262499830
   280   1 0.000000 6.801483297 20.404449891 21.262499830
   281   1 0.000000 1.073918415 3.221755246 21.262499830
   282   1 0.000000 3.937700856 11.813102568 21.262499830
   283   1 0.000000 12.529048179 20.404449891 21.262499830
   284   1 0.000000 6.801483297 3.221755246 21.262499830
   285   1 0.000000 9.665265738 11.813102568 21.262499830
   286   1 0.000000 21.120395501 25.177420626 19.912499840
   287   1 0.000000 15.392830620 7.994725981 19.912499840
   288   1 0.000000 18.256613060 16.586073303 19.912499840
   289   1 0.000000 26.847960383 25.177420626 19.912499840
   290   1 0.000000 21.120395501 7.994725981 19.912499840
   291   1 0.000000 23.984177942 16.586073303 19.912499840
   292   1 0.000000 32.575525265 25.177420626 19.912499840
   293   1 0.000000 26.847960383 7.994725981 19.912499840
   294   1 0.000000 29.711742824 16.586073303 19.912499840
   295   1 0.000000 9.665265738 25.177420626 19.912499840
   296   1 0.000000 3.937700856 7.994725981 19.912499840
   297   1 0.000000 6.801483297 16.586073303 19.912499840
   298   1 0.000000 15.392830620 25.177420626 19.912499840
   299   1 0.000000 9.665265738 7.994725981 19.912499840
   300   1 0.000000 12.529048179 16.586073303 19.912499840
   301   1 0.000000 15.392830620 20.404449891 21.262499830
   302   1 0.000000 9.665265738 3.221755246 21.262499830
   303   1 0.000000 12.529048179 11.813102568 21.262499830
   304   1 0.000000 21.120395501 20.404449891 21.262499830
   305   1 0.000000 15.392830620 3.221755246 21.262499830
   306   1 0.000000 18.256613060 11.813102568 21.262499830
   307   1 0.000000 26.847960383 20.404449891 21.262499830
   308   1 0.000000 21.120395501 3.221755246 21.262499830
   309   1 0.000000 23.984177942 11.813102568 21.262499830
   310   1 0.000000 32.575525265 20.404449891 21.262499830
   311   1 0.000000 26.847960383 3.221755246 21.262499830
   312   1 0.000000 29.711742824 11.813102568 21.262499830
   313   1 0.000000 9.665265738 20.404449891 21.262499830
   314   1 0.000000 3.937700856 3.221755246 21.262499830
   315   1 0.000000 6.801483297 11.813102568 21.262499830
   316   1 0.000000 18.256613060 25.177420626 19.912499840
   317   1 0.000000 12.529048179 7.994725981 19.912499840
   318   1 0.000000 15.392830620 16.586073303 19.912499840
   319   1 0.000000 23.984177942 25.177420626 19.912499840
   320   1 0.000000 18.256613060 7.994725981 19.912499840
   321   1 0.000000 21.120395501 16.586073303 19.912499840
   322   1 0.000000 29.711742824 25.177420626 19.912499840
   323   1 0.000000 23.984177942 7.994725981 19.912499840
   324   1 0.000000 26.847960383 16.586073303 19.912499840
   325   1 0.000000 35.439307705 25.177420626 19.912499840
   326   1 0.000000 29.711742824 7.994725981 19.912499840
   327   1 0.000000 32.575525265 16.586073303 19.912499840
   328   1 0.000000 12.529048179 25.177420626 19.912499840
   329   1 0.000000 6.801483297 7.994725981 19.912499840
   330   1 0.000000 9.665265738 16.586073303 19.912499840
   331   1 0.000000 19.688504281 18.972558671 19.237499846
   332   1 0.000000 13.960939399 1.789864026 19.237499846
   333   1 0.000000 16.824721840 10.381211348 19.237499846
   334   1 0.000000 25.416069163 18.972558671 19.237499846
   335   1 0.000000 19.688504281 1.789864026 19.237499846
   336   1 0.000000 22.552286722 10.381211348 19.237499846
   337   1 0.000000 31.143634044 18.972558671 19.237499846
   338   1 0.000000 25.416069163 1.789864026 19.237499846
   339   1 0.000000 28.279851603 10.381211348 19.237499846
   340   1 0.000000 8.233374517 18.972558671 19.237499846
   341   1 0.000000 2.505809636 1.789864026 19.237499846
   342   1 0.000000 5.369592077 10.381211348 19.237499846
   343   1 0.000000 13.960939399 18.972558671 19.237499846
   344   1 0.000000 8.233374517 1.789864026 19.237499846
   345   1 0.000000 11.097156958 10.381211348 19.237499846
   346   1 0.000000 19.688504281 22.790935258 20.587499835
   347   1 0.000000 13.960939399 5.608240613 20.587499835
   348   1 0.000000 16.824721840 14.199587936 20.587499835
   349   1 0.000000 25.416069163 22.790935258 20.587499835
   350   1 0.000000 19.688504281 5.608240613 20.587499835
   351   1 0.000000 22.552286722 14.199587936 20.587499835
   352   1 0.000000 31.143634044 22.790935258 20.587499835
   353   1 0.000000 25.416069163 5.608240613 20.587499835
   354   1 0.000000 28.279851603 14.199587936 20.587499835
   355   1 0.000000 8.233374517 22.790935258 20.587499835
   356   1 0.000000 2.505809636 5.608240613 20.587499835
   357   1 0.000000 5.369592077 14.199587936 20.587499835
   358   1 0.000000 13.960939399 22.790935258 20.587499835
   359   1 0.000000 8.233374517 5.608240613 20.587499835
   360   1 0.000000 11.097156958 14.199587936 20.587499835
   361   1 0.000000 13.960939399 18.017964524 21.937499824
   362   1 0.000000 8.233374517 0.835269879 21.937499824
   363   1 0.000000 11.097156958 9.426617201 21.937499824
   364   1 0.000000 19.688504281 18.017964524 21.937499824
   365   1 0.000000 13.960939399 0.835269879 21.937499824
   366   1 0.000000 16.824721840 9.426617201 21.937499824
   367   1 0.000000 25.416069163 18.017964524 21.937499824
   368   1 0.000000 19.688504281 0.835269879 21.937499824
   369   1 0.000000 22.552286722 9.426617201 21.937499824
   370   1 0.000000 31.143634044 18.017964524 21.937499824
   371   1 0.000000 25.416069163 0.835269879 21.937499824
   372   1 0.000000 28.279851603 9.426617201 21.937499824
   373   1 0.000000 8.233374517 18.017964524 21.937499824
   374   1 0.000000 2.505809636 0.835269879 21.937499824
   375   1 0.000000 5.369592077 9.426617201 21.937499824
   376   1 0.000000 13.960939399 21.836341111 23.287499813
   377   1 0.000000 8.233374517 4.653646466 23.287499813
   378   1 0.000000 11.097156958 13.244993789 23.287499813
   379   1 0.000000 19.688504281 21.836341111 23.287499813
   380   1 0.000000 13.960939399 4.653646466 23.287499813
   381   1 0.000000 16.824721840 13.244993789 23.287499813
   382   1 0.000000 25.416069163 21.836341111 23.287499813
   383   1 0.000000 19.688504281 4.653646466 23.287499813
   384   1 0.000000 22.552286722 13.244993789 23.287499813
   385   1 0.000000 31.143634044 21.836341111 23.287499813
   386   1 0.000000 25.416069163 4.653646466 23.287499813
   387   1 0.000000 28.279851603 13.244993789 23.287499813
   388   1 0.000000 8.233374517 21.836341111 23.287499813
   389   1 0.000000 2.505809636 4.653646466 23.287499813
   390   1 0.000000 5.369592077 13.244993789 23.287499813
   391   1 0.000000 15.392830620 19.449855744 23.962499808
   392   1 0.000000 9.665265738 2.267161099 23.962499808
   393   1 0.000000 12.529048179 10.858508422 23.962499808
   394   1 0.000000 21.120395501 19.449855744 23.962499808
   395   1 0.000000 15.392830620 2.267161099 23.962499808
   396   1 0.000000 18.256613060 10.858508422 23.962499808
   397   1 0.000000 26.847960383 19.449855744 23.962499808
   398   1 0.000000 21.120395501 2.267161099 23.962499808
   399   1 0.000000 23.984177942 10.858508422 23.962499808
   400   1 0.000000 32.575525265 19.449855744 23.962499808
   401   1 0.000000 26.847960383 2.267161099 23.962499808
   402   1 0.000000 29.711742824 10.858508422 23.962499808
   403   1 0.000000 9.665265738 19.449855744 23.962499808
   404   1 0.000000 3.937700856 2.267161099 23.962499808
   405   1 0.000000 6.801483297 10.858508422 23.962499808
   406   1 0.000000 18.256613060 24.222826479 22.612499819
   407   1 0.000000 12.529048179 7.040131834 22.612499819
   408   1 0.000000 15.392830620 15.631479156 22.612499819
   409   1 0.000000 23.984177942 24.222826479 22.612499819
   410   1 0.000000 18.256613060 7.040131834 22.612499819
   411   1 0.000000 21.120395501 15.631479156 22.612499819
   412   1 0.000000 29.711742824 24.222826479 22.612499819
   413   1 0.000000 23.984177942 7.040131834 22.612499819
   414   1 0.000000 26.847960383 15.631479156 22.612499819
   415   1 0.000000 35.439307705 24.222826479 22.612499819
   416   1 0.000000 29.711742824 7.040131834 22.612499819
   417   1 0.000000 32.575525265 15.631479156 22.612499819
   418   1 0.000000 12.529048179 24.222826479 22.612499819
   419   1 0.000000 6.801483297 7.040131834 22.612499819
   420   1 0.000000 9.665265738 15.631479156 22.612499819
   421   1 0.000000 12.529048179 19.449855744 23.962499808
   422   1 0.000000 6.801483297 2.267161099 23.962499808
   423   1 0.000000 9.665265738 10.858508422 23.962499808
   424   1 0.000000 18.256613060 19.449855744 23.962499808
   425   1 0.000000 12.529048179 2.267161099 23.962499808
   426   1 0.000000 15.392830620 10.858508422 23.962499808
   427   1 0.000000 23.984177942 19.449855744 23.962499808
   428   1 0.000000 18.256613060 2.267161099 23.962499808
   429   1 0.000000 21.120395501 10.858508422 23.962499808
   430   1 0.000000 29.711742824 19.449855744 23.962499808
   431   1 0.000000 23.984177942 2.267161099 23.962499808
   432   1 0.000000 26.847960383 10.858508422 23.962499808
   433   1 0.000000 6.801483297 19.449855744 23.962499808
   434   1 0.000000 1.073918415 2.267161099 23.962499808
   435   1 0.000000 3.937700856 10.858508422 23.962499808
   436   1 0.000000 15.392830620 24.222826479 22.612499819
   437   1 0.000000 9.665265738 7.040131834 22.612499819
   438   1 0.000000 12.529048179 15.631479156 22.612499819
   439   1 0.000000 21.120395501 24.222826479 22.612499819
   440   1 0.000000 15.392830620 7.040131834 22.612499819
   441   1 0.000000 18.256613060 15.631479156 22.612499819
   442   1 0.000000 26.847960383 24.222826479 22.612499819
   443   1 0.000000 21.120395501 7.040131834 22.612499819
   444   1 0.000000 23.984177942 15.631479156 22.612499819
   445   1 0.000000 32.575525265 24.222826479 22.612499819
   446   1 0.000000 26.847960383 7.040131834 22.612499819
   447   1 0.000000 29.711742824 15.631479156 22.612499819
   448   1 0.000000 9.665265738 24.222826479 22.612499819
   449   1 0.000000 3.937700856 7.040131834 22.612499819
   450   1 0.000000 6.801483297 15.631479156 22.612499819
   451   1 0.000000 16.824721840 18.017964524 21.937499824
   452   1 0.000000 11.097156958 0.835269879 21.937499824
   453   1 0.000000 13.960939399 9.426617201 21.937499824
   454   1 0.000000 22.552286722 18.017964524 21.937499824
   455   1 0.000000 16.824721840 0.835269879 21.937499824
   456   1 0.000000 19.688504281 9.426617201 21.937499824
   457   1 0.000000 28.279851603 18.017964524 21.937499824
   458   1 0.000000 22.552286722 0.835269879 21.937499824
   459   1 0.000000 25.416069163 9.426617201 21.937499824
   460   1 0.000000 34.007416485 18.017964524 21.937499824
   461   1 0.000000 28.279851603 0.835269879 21.937499824
   462   1 0.000000 31.143634044 9.426617201 21.937499824
   463   1 0.000000 11.097156958 18.017964524 21.937499824
   464   1 0.000000 5.369592077 0.835269879 21.937499824
   465   1 0.000000 8.233374517 9.426617201 21.937499824
   466   1 0.000000 16.824721840 21.836341111 23.287499813
   467   1 0.000000 11.097156958 4.653646466 23.287499813
   468   1 0.000000 13.960939399 13.244993789 23.287499813
   469   1 0.000000 22.552286722 21.836341111 23.287499813
   470   1 0.000000 16.824721840 4.653646466 23.287499813
   471   1 0.000000 19.688504281 13.244993789 23.287499813
   472   1 0.000000 28.279851603 21.836341111 23.287499813
   473   1 0.000000 22.552286722 4.653646466 23.287499813
   474   1 0.000000 25.416069163 13.244993789 23.287499813
   475   1 0.000000 34.007416485 21.836341111 23.287499813
   476   1 0.000000 28.279851603 4.653646466 23.287499813
   477   1 0.000000 31.143634044 13.244993789 23.287499813
   478   1 0.000000 11.097156958 21.836341111 23.287499813
   479   1 0.000000 5.369592077 4.653646466 23.287499813
   480   1 0.000000 8.233374517 13.244993789 23.287499813
   481   1 0.000000 11.097156958 17.063370377 24.637499802
   482   1 0.000000 13.960939399 25.654717699 24.637499802
   483   1 0.000000 8.233374517 8.472023054 24.637499802
   484   1 0.000000 16.824721840 17.063370377 24.637499802
   485   1 0.000000 19.688504281 25.654717699 24.637499802
   486   1 0.000000 13.960939399 8.472023054 24.637499802
   487   1 0.000000 22.552286722 17.063370377 24.637499802
   488   1 0.000000 25.416069163 25.654717699 24.637499802
   489   1 0.000000 19.688504281 8.472023054 24.637499802
   490   1 0.000000 28.279851603 17.063370377 24.637499802
   491   1 0.000000 31.143634044 25.654717699 24.637499802
   492   1 0.000000 25.416069163 8.472023054 24.637499802
   493   1 0.000000 34.007416485 17.063370377 24.637499802
   494   1 0.000000 36.871198926 25.654717699 24.637499802
   495   1 0.000000 31.143634044 8.472023054 24.637499802
   496   1 0.000000 11.097156958 20.881746965 25.987499792
   497   1 0.000000 5.369592077 3.699052319 25.987499792
   498   1 0.000000 8.233374517 12.290399642 25.987499792
   499   1 0.000000 16.824721840 20.881746965 25.987499792
   500   1 0.000000 11.097156958 3.699052319 25.987499792
   501   1 0.000000 13.960939399 12.290399642 25.987499792
   502   1 0.000000 22.552286722 20.881746965 25.987499792
   503   1 0.000000 16.824721840 3.699052319 25.987499792
   504   1 0.000000 19.688504281 12.290399642 25.987499792
   505   1 0.000000 28.279851603 20.881746965 25.987499792
   506   1 0.000000 22.552286722 3.699052319 25.987499792
   507   1 0.000000 25.416069163 12.290399642 25.987499792
   508   1 0.000000 34.007416485 20.881746965 25.987499792
   509   1 0.000000 28.279851603 3.699052319 25.987499792
   510   1 0.000000 31.143634044 12.290399642 25.987499792