LAMMPS data file via write_data, version 13 Jan 2016, timestep = 280

960 atoms
1 atom types

1.7668312792574917e-01 2.8461141280074237e+01 xlo xhi
1.7066997076866369e-01 2.5603371996231353e+01 ylo yhi
-3.8763051735240639e-02 4.8638762660735239e+01 zlo zhi
8.4775673414919783e+00 0.0000000000000000e+00 0.0000000000000000e+00 xy xz yz

Masses

1 26.982

Atoms # charge

1 1 0.0000000000000000e+00 2.2444364492572365e+01 2.0856025640960567e+01 1.3997131177070873e+01 0 0 0
2 1 0.0000000000000000e+00 1.6792652931577045e+01 3.9008909573183437e+00 1.3997131177070493e+01 0 0 0
3 1 0.0000000000000000e+00 1.9618508712074703e+01 1.2378458299139542e+01 1.3997131177070703e+01 0 0 0
4 1 0.0000000000000000e+00 2.8101256123002088e+01 2.0856025640960578e+01 1.3997131177070749e+01 0 0 0
5 1 0.0000000000000000e+00 2.2449544562006768e+01 3.9008909573183574e+00 1.3997131177070358e+01 0 0 0
6 1 0.0000000000000000e+00 2.5275400342504419e+01 1.2378458299139579e+01 1.3997131177070596e+01 0 0 0
7 1 0.0000000000000000e+00 3.3758147753431743e+01 2.0856025640960361e+01 1.3997131177070726e+01 0 0 0
8 1 0.0000000000000000e+00 2.8106436192436451e+01 3.9008909573181119e+00 1.3997131177070317e+01 0 0 0
9 1 0.0000000000000000e+00 3.0932291972934102e+01 1.2378458299139375e+01 1.3997131177070578e+01 0 0 0
10 1 0.0000000000000000e+00 1.1130581231712918e+01 2.0856025640960226e+01 1.3997131177070852e+01 0 0 0
11 1 0.0000000000000000e+00 5.4788696707176072e+00 3.9008909573179564e+00 1.3997131177070427e+01 0 0 0
12 1 0.0000000000000000e+00 8.3047254512152708e+00 1.2378458299139222e+01 1.3997131177070703e+01 0 0 0
13 1 0.0000000000000000e+00 1.6787472862142629e+01 2.0856025640960350e+01 1.3997131177070919e+01 0 0 0
14 1 0.0000000000000000e+00 1.1135761301147316e+01 3.9008909573181034e+00 1.3997131177070541e+01 0 0 0
15 1 0.0000000000000000e+00 1.3961617081644965e+01 1.2378458299139327e+01 1.3997131177070770e+01 0 0 0
16 1 0.0000000000000000e+00 2.2443147062619971e+01 2.4495051527990281e+01 1.5110166767928622e+01 0 0 0
17 1 0.0000000000000000e+00 1.6791435501625038e+01 7.5399168443487685e+00 1.5110166767928563e+01 0 0 0
18 1 0.0000000000000000e+00 1.9617291282122906e+01 1.6017484186169774e+01 1.5110166767928780e+01 0 0 0
19 1 0.0000000000000000e+00 2.8100038693049690e+01 2.4495051527990345e+01 1.5110166767928625e+01 0 0 0
20 1 0.0000000000000000e+00 2.2448327132054757e+01 7.5399168443488209e+00 1.5110166767928554e+01 0 0 0
21 1 0.0000000000000000e+00 2.5274182912552632e+01 1.6017484186169817e+01 1.5110166767928785e+01 0 0 0
22 1 0.0000000000000000e+00 3.3756930323479317e+01 2.4495051527990253e+01 1.5110166767928563e+01 0 0 0
23 1 0.0000000000000000e+00 2.8105218762484416e+01 7.5399168443487534e+00 1.5110166767928503e+01 0 0 0
24 1 0.0000000000000000e+00 3.0931074542982287e+01 1.6017484186169732e+01 1.5110166767928741e+01 0 0 0
25 1 0.0000000000000000e+00 1.1129363801760478e+01 2.4495051527990114e+01 1.5110166767928527e+01 0 0 0
26 1 0.0000000000000000e+00 5.4776522407655648e+00 7.5399168443486415e+00 1.5110166767928479e+01 0 0 0
27 1 0.0000000000000000e+00 8.3035080212634327e+00 1.6017484186169629e+01 1.5110166767928725e+01 0 0 0
28 1 0.0000000000000000e+00 1.6786255432190213e+01 2.4495051527990153e+01 1.5110166767928554e+01 0 0 0
29 1 0.0000000000000000e+00 1.1134543871195282e+01 7.5399168443486415e+00 1.5110166767928517e+01 0 0 0
30 1 0.0000000000000000e+00 1.3960399651693148e+01 1.6017484186169650e+01 1.5110166767928739e+01 0 0 0
31 1 0.0000000000000000e+00 2.3858145813261356e+01 2.2200920821898617e+01 1.5895742908435832e+01 0 0 0
32 1 0.0000000000000000e+00 1.8206434252266298e+01 5.2457861382568201e+00 1.5895742908435398e+01 0 0 0
33 1 0.0000000000000000e+00 2.1032290032764006e+01 1.3723353480077892e+01 1.5895742908435652e+01 0 0 0
34 1 0.0000000000000000e+00 2.9515037443691053e+01 2.2200920821898869e+01 1.5895742908435864e+01 0 0 0
35 1 0.0000000000000000e+00 2.3863325882696017e+01 5.2457861382570687e+00 1.5895742908435397e+01 0 0 0
36 1 0.0000000000000000e+00 2.6689181663193708e+01 1.3723353480078138e+01 1.5895742908435695e+01 0 0 0
37 1 0.0000000000000000e+00 3.5171929074120676e+01 2.2200920821898478e+01 1.5895742908435757e+01 0 0 0
38 1 0.0000000000000000e+00 2.9520217513125623e+01 5.2457861382566842e+00 1.5895742908435258e+01 0 0 0
39 1 0.0000000000000000e+00 3.2346073293623334e+01 1.3723353480077769e+01 1.5895742908435595e+01 0 0 0
40 1 0.0000000000000000e+00 1.2544362552401818e+01 2.2200920821897995e+01 1.5895742908435652e+01 0 0 0
41 1 0.0000000000000000e+00 6.8926509914067813e+00 5.2457861382561974e+00 1.5895742908435160e+01 0 0 0
42 1 0.0000000000000000e+00 9.7185067719044866e+00 1.3723353480077281e+01 1.5895742908435485e+01 0 0 0
43 1 0.0000000000000000e+00 1.8201254182831562e+01 2.2200920821898084e+01 1.5895742908435707e+01 0 0 0
44 1 0.0000000000000000e+00 1.2549542621836503e+01 5.2457861382562854e+00 1.5895742908435244e+01 0 0 0
45 1 0.0000000000000000e+00 1.5375398402334213e+01 1.3723353480077362e+01 1.5895742908435516e+01 0 0 0
46 1 0.0000000000000000e+00 1.8207415121668863e+01 1.5061111683987132e+00 1.4548117736438009e+01 0 0 0
47 1 0.0000000000000000e+00 2.1033270902166308e+01 9.9836785102198551e+00 1.4548117736438096e+01 0 0 0
48 1 0.0000000000000000e+00 2.3859126682664108e+01 1.8461245852040889e+01 1.4548117736438263e+01 0 0 0
49 1 0.0000000000000000e+00 2.3864306752098521e+01 1.5061111683987112e+00 1.4548117736437979e+01 0 0 0
50 1 0.0000000000000000e+00 2.6690162532595977e+01 9.9836785102198782e+00 1.4548117736438087e+01 0 0 0
51 1 0.0000000000000000e+00 2.9516018313093749e+01 1.8461245852040893e+01 1.4548117736438266e+01 0 0 0
52 1 0.0000000000000000e+00 1.2367402303796451e+00 1.5061111683983452e+00 1.4548117736437893e+01 0 0 0
53 1 0.0000000000000000e+00 4.0625960108771153e+00 9.9836785102195424e+00 1.4548117736438019e+01 0 0 0
54 1 0.0000000000000000e+00 6.8884517913748891e+00 1.8461245852040545e+01 1.4548117736438192e+01 0 0 0
55 1 0.0000000000000000e+00 6.8936318608093599e+00 1.5061111683980972e+00 1.4548117736437860e+01 0 0 0
56 1 0.0000000000000000e+00 9.7194876413067917e+00 9.9836785102192973e+00 1.4548117736437984e+01 0 0 0
57 1 0.0000000000000000e+00 1.2545343421804585e+01 1.8461245852040324e+01 1.4548117736438138e+01 0 0 0
58 1 0.0000000000000000e+00 1.2550523491239128e+01 1.5061111683983315e+00 1.4548117736437927e+01 0 0 0
59 1 0.0000000000000000e+00 1.5376379271736576e+01 9.9836785102194820e+00 1.4548117736438030e+01 0 0 0
60 1 0.0000000000000000e+00 1.8202235052234357e+01 1.8461245852040520e+01 1.4548117736438192e+01 0 0 0
61 1 0.0000000000000000e+00 2.1029699998046645e+01 2.2200920821898375e+01 1.5895742908435786e+01 0 0 0
62 1 0.0000000000000000e+00 1.5377988437051322e+01 5.2457861382565119e+00 1.5895742908435301e+01 0 0 0
63 1 0.0000000000000000e+00 1.8203844217549129e+01 1.3723353480077611e+01 1.5895742908435547e+01 0 0 0
64 1 0.0000000000000000e+00 2.6686591628476389e+01 2.2200920821898855e+01 1.5895742908435881e+01 0 0 0
65 1 0.0000000000000000e+00 2.1034880067481119e+01 5.2457861382570066e+00 1.5895742908435386e+01 0 0 0
66 1 0.0000000000000000e+00 2.3860735847978908e+01 1.3723353480078092e+01 1.5895742908435647e+01 0 0 0
67 1 0.0000000000000000e+00 3.2343483258906041e+01 2.2200920821898762e+01 1.5895742908435844e+01 0 0 0
68 1 0.0000000000000000e+00 2.6691771697910770e+01 5.2457861382569106e+00 1.5895742908435309e+01 0 0 0
69 1 0.0000000000000000e+00 2.9517627478408546e+01 1.3723353480078002e+01 1.5895742908435617e+01 0 0 0
70 1 0.0000000000000000e+00 9.7159167371871646e+00 2.2200920821898222e+01 1.5895742908435709e+01 0 0 0
71 1 0.0000000000000000e+00 4.0642051761918960e+00 5.2457861382563733e+00 1.5895742908435166e+01 0 0 0
72 1 0.0000000000000000e+00 6.8900609566896875e+00 1.3723353480077472e+01 1.5895742908435492e+01 0 0 0
73 1 0.0000000000000000e+00 1.5372808367616852e+01 2.2200920821897988e+01 1.5895742908435690e+01 0 0 0
74 1 0.0000000000000000e+00 9.7210968066215475e+00 5.2457861382561335e+00 1.5895742908435158e+01 0 0 0
75 1 0.0000000000000000e+00 1.2546952587119337e+01 1.3723353480077224e+01 1.5895742908435441e+01 0 0 0
76 1 0.0000000000000000e+00 1.5378969306454056e+01 1.5061111683985500e+00 1.4548117736437979e+01 0 0 0
77 1 0.0000000000000000e+00 1.8204825086951438e+01 9.9836785102196917e+00 1.4548117736438051e+01 0 0 0
78 1 0.0000000000000000e+00 2.1030680867449252e+01 1.8461245852040719e+01 1.4548117736438215e+01 0 0 0
79 1 0.0000000000000000e+00 2.1035860936883743e+01 1.5061111683987918e+00 1.4548117736438018e+01 0 0 0
80 1 0.0000000000000000e+00 2.3861716717381146e+01 9.9836785102199403e+00 1.4548117736438087e+01 0 0 0
81 1 0.0000000000000000e+00 2.6687572497878946e+01 1.8461245852040943e+01 1.4548117736438259e+01 0 0 0
82 1 0.0000000000000000e+00 2.6692752567313356e+01 1.5061111683985564e+00 1.4548117736437950e+01 0 0 0
83 1 0.0000000000000000e+00 2.9518608347810762e+01 9.9836785102197485e+00 1.4548117736438035e+01 0 0 0
84 1 0.0000000000000000e+00 3.2344464128308566e+01 1.8461245852040733e+01 1.4548117736438220e+01 0 0 0
85 1 0.0000000000000000e+00 4.0651860455945394e+00 1.5061111683981849e+00 1.4548117736437863e+01 0 0 0
86 1 0.0000000000000000e+00 6.8910418260919410e+00 9.9836785102193790e+00 1.4548117736437971e+01 0 0 0
87 1 0.0000000000000000e+00 9.7168976065897361e+00 1.8461245852040381e+01 1.4548117736438144e+01 0 0 0
88 1 0.0000000000000000e+00 9.7220776760242842e+00 1.5061111683981703e+00 1.4548117736437888e+01 0 0 0
89 1 0.0000000000000000e+00 1.2547933456521672e+01 9.9836785102193453e+00 1.4548117736437973e+01 0 0 0
90 1 0.0000000000000000e+00 1.5373789237019487e+01 1.8461245852040364e+01 1.4548117736438144e+01 0 0 0
91 1 0.0000000000000000e+00 2.5272810307787211e+01 2.0856025640960599e+01 1.3997131177070743e+01 0 0 0
92 1 0.0000000000000000e+00 1.9621098746791933e+01 3.9008909573184019e+00 1.3997131177070436e+01 0 0 0
93 1 0.0000000000000000e+00 2.2446954527289595e+01 1.2378458299139584e+01 1.3997131177070639e+01 0 0 0
94 1 0.0000000000000000e+00 3.0929701938216894e+01 2.0856025640960468e+01 1.3997131177070649e+01 0 0 0
95 1 0.0000000000000000e+00 2.5277990377221631e+01 3.9008909573182646e+00 1.3997131177070331e+01 0 0 0
96 1 0.0000000000000000e+00 2.8103846157719310e+01 1.2378458299139485e+01 1.3997131177070557e+01 0 0 0
97 1 0.0000000000000000e+00 8.3021354164980821e+00 2.0856025640960254e+01 1.3997131177070717e+01 0 0 0
98 1 0.0000000000000000e+00 2.6504238555028103e+00 3.9008909573180115e+00 1.3997131177070363e+01 0 0 0
99 1 0.0000000000000000e+00 5.4762796360004664e+00 1.2378458299139265e+01 1.3997131177070623e+01 0 0 0
100 1 0.0000000000000000e+00 1.3959027046927748e+01 2.0856025640960258e+01 1.3997131177070832e+01 0 0 0
101 1 0.0000000000000000e+00 8.3073154859324791e+00 3.9008909573180137e+00 1.3997131177070518e+01 0 0 0
102 1 0.0000000000000000e+00 1.1133171266430137e+01 1.2378458299139240e+01 1.3997131177070763e+01 0 0 0
103 1 0.0000000000000000e+00 1.9615918677357470e+01 2.0856025640960471e+01 1.3997131177070846e+01 0 0 0
104 1 0.0000000000000000e+00 1.3964207116362195e+01 3.9008909573182540e+00 1.3997131177070552e+01 0 0 0
105 1 0.0000000000000000e+00 1.6790062896859855e+01 1.2378458299139435e+01 1.3997131177070754e+01 0 0 0
106 1 0.0000000000000000e+00 2.5271592877834863e+01 2.4495051527990384e+01 1.5110166767928606e+01 0 0 0
107 1 0.0000000000000000e+00 1.9619881316839926e+01 7.5399168443487925e+00 1.5110166767928575e+01 0 0 0
108 1 0.0000000000000000e+00 2.2445737097337783e+01 1.6017484186169817e+01 1.5110166767928767e+01 0 0 0
109 1 0.0000000000000000e+00 3.0928484508264528e+01 2.4495051527990373e+01 1.5110166767928565e+01 0 0 0
110 1 0.0000000000000000e+00 2.5276772947269595e+01 7.5399168443487854e+00 1.5110166767928543e+01 0 0 0
111 1 0.0000000000000000e+00 2.8102628727767460e+01 1.6017484186169792e+01 1.5110166767928746e+01 0 0 0
112 1 0.0000000000000000e+00 8.3009179865456719e+00 2.4495051527990221e+01 1.5110166767928511e+01 0 0 0
113 1 0.0000000000000000e+00 2.6492064255507488e+00 7.5399168443486682e+00 1.5110166767928487e+01 0 0 0
114 1 0.0000000000000000e+00 5.4750622060485918e+00 1.6017484186169678e+01 1.5110166767928709e+01 0 0 0
115 1 0.0000000000000000e+00 1.3957809616975348e+01 2.4495051527990164e+01 1.5110166767928508e+01 0 0 0
116 1 0.0000000000000000e+00 8.3060980559804154e+00 7.5399168443486078e+00 1.5110166767928506e+01 0 0 0
117 1 0.0000000000000000e+00 1.1131953836478274e+01 1.6017484186169614e+01 1.5110166767928709e+01 0 0 0
118 1 0.0000000000000000e+00 1.9614701247405108e+01 2.4495051527990263e+01 1.5110166767928559e+01 0 0 0
119 1 0.0000000000000000e+00 1.3962989686410161e+01 7.5399168443486824e+00 1.5110166767928554e+01 0 0 0
120 1 0.0000000000000000e+00 1.6788845466908022e+01 1.6017484186169717e+01 1.5110166767928741e+01 0 0 0
121 1 0.0000000000000000e+00 1.9616212704709355e+01 1.9831416309061936e+01 1.6526426447764482e+01 0 0 0
122 1 0.0000000000000000e+00 1.3964501143714207e+01 2.8762816254200483e+00 1.6526426447764106e+01 0 0 0
123 1 0.0000000000000000e+00 1.6790356924211661e+01 1.1353848967241090e+01 1.6526426447764251e+01 0 0 0
124 1 0.0000000000000000e+00 2.5273104335139116e+01 1.9831416309061826e+01 1.6526426447764436e+01 0 0 0
125 1 0.0000000000000000e+00 1.9621392774143967e+01 2.8762816254199439e+00 1.6526426447764059e+01 0 0 0
126 1 0.0000000000000000e+00 2.2447248554641423e+01 1.1353848967240982e+01 1.6526426447764202e+01 0 0 0
127 1 0.0000000000000000e+00 3.0929995965568796e+01 1.9831416309061709e+01 1.6526426447764404e+01 0 0 0
128 1 0.0000000000000000e+00 2.5278284404573657e+01 2.8762816254198231e+00 1.6526426447763985e+01 0 0 0
129 1 0.0000000000000000e+00 2.8104140185071120e+01 1.1353848967240868e+01 1.6526426447764166e+01 0 0 0
130 1 0.0000000000000000e+00 8.3024294438499346e+00 1.9831416309061748e+01 1.6526426447764422e+01 0 0 0
131 1 0.0000000000000000e+00 2.6507178828547837e+00 2.8762816254198538e+00 1.6526426447764003e+01 0 0 0
132 1 0.0000000000000000e+00 5.4765736633522364e+00 1.1353848967240914e+01 1.6526426447764202e+01 0 0 0
133 1 0.0000000000000000e+00 1.3959321074279611e+01 1.9831416309061893e+01 1.6526426447764479e+01 0 0 0
134 1 0.0000000000000000e+00 8.3076095132844436e+00 2.8762816254199874e+00 1.6526426447764063e+01 0 0 0
135 1 0.0000000000000000e+00 1.1133465293781910e+01 1.1353848967241060e+01 1.6526426447764241e+01 0 0 0
136 1 0.0000000000000000e+00 1.9615034994910360e+01 2.3646243974426053e+01 1.7822385380011912e+01 0 0 0
137 1 0.0000000000000000e+00 1.3963323433915232e+01 6.6911092907841594e+00 1.7822385380011557e+01 0 0 0
138 1 0.0000000000000000e+00 1.6789179214413053e+01 1.5168676632605187e+01 1.7822385380011855e+01 0 0 0
139 1 0.0000000000000000e+00 2.5271926625340136e+01 2.3646243974425964e+01 1.7822385380011795e+01 0 0 0
140 1 0.0000000000000000e+00 1.9620215064345018e+01 6.6911092907840857e+00 1.7822385380011422e+01 0 0 0
141 1 0.0000000000000000e+00 2.2446070844842833e+01 1.5168676632605097e+01 1.7822385380011728e+01 0 0 0
142 1 0.0000000000000000e+00 3.0928818255769833e+01 2.3646243974425847e+01 1.7822385380011703e+01 0 0 0
143 1 0.0000000000000000e+00 2.5277106694774730e+01 6.6911092907839471e+00 1.7822385380011305e+01 0 0 0
144 1 0.0000000000000000e+00 2.8102962475272530e+01 1.5168676632604971e+01 1.7822385380011653e+01 0 0 0
145 1 0.0000000000000000e+00 8.3012517340509504e+00 2.3646243974425836e+01 1.7822385380011774e+01 0 0 0
146 1 0.0000000000000000e+00 2.6495401730558523e+00 6.6911092907839462e+00 1.7822385380011365e+01 0 0 0
147 1 0.0000000000000000e+00 5.4753959535536438e+00 1.5168676632604980e+01 1.7822385380011738e+01 0 0 0
148 1 0.0000000000000000e+00 1.3958143364480609e+01 2.3646243974425964e+01 1.7822385380011898e+01 0 0 0
149 1 0.0000000000000000e+00 8.3064318034854807e+00 6.6911092907840617e+00 1.7822385380011518e+01 0 0 0
150 1 0.0000000000000000e+00 1.1132287583983297e+01 1.5168676632605104e+01 1.7822385380011848e+01 0 0 0
151 1 0.0000000000000000e+00 2.1030028659686081e+01 2.1272542533384303e+01 1.8494413583442487e+01 0 0 0
152 1 0.0000000000000000e+00 1.5378317098690893e+01 4.3174078497423878e+00 1.8494413583442054e+01 0 0 0
153 1 0.0000000000000000e+00 1.8204172879188537e+01 1.2794975191563408e+01 1.8494413583442284e+01 0 0 0
154 1 0.0000000000000000e+00 2.6686920290115836e+01 2.1272542533384701e+01 1.8494413583442530e+01 0 0 0
155 1 0.0000000000000000e+00 2.1035208729120669e+01 4.3174078497427981e+00 1.8494413583442096e+01 0 0 0
156 1 0.0000000000000000e+00 2.3861064509618316e+01 1.2794975191563813e+01 1.8494413583442341e+01 0 0 0
157 1 0.0000000000000000e+00 3.2343811920545505e+01 2.1272542533384591e+01 1.8494413583442448e+01 0 0 0
158 1 0.0000000000000000e+00 2.6692100359550349e+01 4.3174078497426809e+00 1.8494413583441982e+01 0 0 0
159 1 0.0000000000000000e+00 2.9517956140047982e+01 1.2794975191563699e+01 1.8494413583442267e+01 0 0 0
160 1 0.0000000000000000e+00 9.7162453988266240e+00 2.1272542533384115e+01 1.8494413583442356e+01 0 0 0
161 1 0.0000000000000000e+00 4.0645338378314575e+00 4.3174078497421950e+00 1.8494413583441872e+01 0 0 0
162 1 0.0000000000000000e+00 6.8903896183290954e+00 1.2794975191563225e+01 1.8494413583442164e+01 0 0 0
163 1 0.0000000000000000e+00 1.5373137029256295e+01 2.1272542533383941e+01 1.8494413583442380e+01 0 0 0
164 1 0.0000000000000000e+00 9.7214254682611188e+00 4.3174078497420325e+00 1.8494413583441926e+01 0 0 0
165 1 0.0000000000000000e+00 1.2547281248758750e+01 1.2794975191563051e+01 1.8494413583442185e+01 0 0 0
166 1 0.0000000000000000e+00 1.5379455674101294e+01 5.2549524664272285e-01 1.7114440496963113e+01 0 0 0
167 1 0.0000000000000000e+00 1.8205311454598462e+01 9.0030625884636706e+00 1.7114440496963145e+01 0 0 0
168 1 0.0000000000000000e+00 2.1031167235096255e+01 1.7480629930284660e+01 1.7114440496963372e+01 0 0 0
169 1 0.0000000000000000e+00 2.1036347304531045e+01 5.2549524664309843e-01 1.7114440496963073e+01 0 0 0
170 1 0.0000000000000000e+00 2.3862203085028209e+01 9.0030625884640472e+00 1.7114440496963095e+01 0 0 0
171 1 0.0000000000000000e+00 2.6688058865525996e+01 1.7480629930285037e+01 1.7114440496963343e+01 0 0 0
172 1 0.0000000000000000e+00 2.6693238934960675e+01 5.2549524664285385e-01 1.7114440496963020e+01 0 0 0
173 1 0.0000000000000000e+00 2.9519094715457840e+01 9.0030625884638109e+00 1.7114440496963070e+01 0 0 0
174 1 0.0000000000000000e+00 3.2344950495955622e+01 1.7480629930284795e+01 1.7114440496963308e+01 0 0 0
175 1 0.0000000000000000e+00 4.0656724132418116e+00 5.2549524664230529e-01 1.7114440496963013e+01 0 0 0
176 1 0.0000000000000000e+00 6.8915281937389761e+00 9.0030625884632745e+00 1.7114440496963081e+01 0 0 0
177 1 0.0000000000000000e+00 9.7173839742367587e+00 1.7480629930284266e+01 1.7114440496963308e+01 0 0 0
178 1 0.0000000000000000e+00 9.7225640436715146e+00 5.2549524664222480e-01 1.7114440496963073e+01 0 0 0
179 1 0.0000000000000000e+00 1.2548419824168674e+01 9.0030625884631910e+00 1.7114440496963134e+01 0 0 0
180 1 0.0000000000000000e+00 1.5374275604666472e+01 1.7480629930284181e+01 1.7114440496963351e+01 0 0 0
181 1 0.0000000000000000e+00 1.8201582844471211e+01 2.1272542533384033e+01 1.8494413583442434e+01 0 0 0
182 1 0.0000000000000000e+00 1.2549871283476028e+01 4.3174078497421879e+00 1.8494413583441982e+01 0 0 0
183 1 0.0000000000000000e+00 1.5375727063973631e+01 1.2794975191563202e+01 1.8494413583442196e+01 0 0 0
184 1 0.0000000000000000e+00 2.3858474474901008e+01 2.1272542533384510e+01 1.8494413583442526e+01 0 0 0
185 1 0.0000000000000000e+00 1.8206762913905848e+01 4.3174078497426631e+00 1.8494413583442082e+01 0 0 0
186 1 0.0000000000000000e+00 2.1032618694403439e+01 1.2794975191563678e+01 1.8494413583442277e+01 0 0 0
187 1 0.0000000000000000e+00 2.9515366105330735e+01 2.1272542533384691e+01 1.8494413583442501e+01 0 0 0
188 1 0.0000000000000000e+00 2.3863654544335571e+01 4.3174078497428487e+00 1.8494413583442036e+01 0 0 0
189 1 0.0000000000000000e+00 2.6689510324833154e+01 1.2794975191563848e+01 1.8494413583442267e+01 0 0 0
190 1 0.0000000000000000e+00 3.5172257735760347e+01 2.1272542533384325e+01 1.8494413583442398e+01 0 0 0
191 1 0.0000000000000000e+00 2.9520546174765158e+01 4.3174078497424695e+00 1.8494413583441911e+01 0 0 0
192 1 0.0000000000000000e+00 3.2346401955262778e+01 1.2794975191563493e+01 1.8494413583442174e+01 0 0 0
193 1 0.0000000000000000e+00 1.2544691214041467e+01 2.1272542533383916e+01 1.8494413583442348e+01 0 0 0
194 1 0.0000000000000000e+00 6.8929796530462983e+00 4.3174078497420725e+00 1.8494413583441879e+01 0 0 0
195 1 0.0000000000000000e+00 9.7188354335438980e+00 1.2794975191563095e+01 1.8494413583442125e+01 0 0 0
196 1 0.0000000000000000e+00 1.2551009858886379e+01 5.2549524664239478e-01 1.7114440496963105e+01 0 0 0
197 1 0.0000000000000000e+00 1.5376865639383567e+01 9.0030625884634254e+00 1.7114440496963109e+01 0 0 0
198 1 0.0000000000000000e+00 1.8202721419881449e+01 1.7480629930284419e+01 1.7114440496963351e+01 0 0 0
199 1 0.0000000000000000e+00 1.8207901489316164e+01 5.2549524664294534e-01 1.7114440496963109e+01 0 0 0
200 1 0.0000000000000000e+00 2.1033757269813353e+01 9.0030625884639566e+00 1.7114440496963095e+01 0 0 0
201 1 0.0000000000000000e+00 2.3859613050311243e+01 1.7480629930284955e+01 1.7114440496963343e+01 0 0 0
202 1 0.0000000000000000e+00 2.3864793119745848e+01 5.2549524664300939e-01 1.7114440496963045e+01 0 0 0
203 1 0.0000000000000000e+00 2.6690648900243051e+01 9.0030625884640330e+00 1.7114440496963041e+01 0 0 0
204 1 0.0000000000000000e+00 2.9516504680740926e+01 1.7480629930285033e+01 1.7114440496963304e+01 0 0 0
205 1 0.0000000000000000e+00 1.2372265980269577e+00 5.2549524664252467e-01 1.7114440496963006e+01 0 0 0
206 1 0.0000000000000000e+00 4.0630823785241645e+00 9.0030625884635533e+00 1.7114440496963031e+01 0 0 0
207 1 0.0000000000000000e+00 6.8889381590220431e+00 1.7480629930284564e+01 1.7114440496963297e+01 0 0 0
208 1 0.0000000000000000e+00 6.8941182284566160e+00 5.2549524664215486e-01 1.7114440496963049e+01 0 0 0
209 1 0.0000000000000000e+00 9.7199740089538036e+00 9.0030625884631821e+00 1.7114440496963063e+01 0 0 0
210 1 0.0000000000000000e+00 1.2545829789451684e+01 1.7480629930284177e+01 1.7114440496963319e+01 0 0 0
211 1 0.0000000000000000e+00 2.2444658519924310e+01 1.9831416309061972e+01 1.6526426447764390e+01 0 0 0
212 1 0.0000000000000000e+00 1.6792946958929058e+01 2.8762816254199701e+00 1.6526426447764077e+01 0 0 0
213 1 0.0000000000000000e+00 1.9618802739426588e+01 1.1353848967241056e+01 1.6526426447764237e+01 0 0 0
214 1 0.0000000000000000e+00 2.8101550150354026e+01 1.9831416309061837e+01 1.6526426447764344e+01 0 0 0
215 1 0.0000000000000000e+00 2.2449838589358777e+01 2.8762816254198422e+00 1.6526426447763995e+01 0 0 0
216 1 0.0000000000000000e+00 2.5275694369856311e+01 1.1353848967240932e+01 1.6526426447764180e+01 0 0 0
217 1 0.0000000000000000e+00 3.3758441780783649e+01 1.9831416309061787e+01 1.6526426447764333e+01 0 0 0
218 1 0.0000000000000000e+00 2.8106730219788425e+01 2.8762816254197814e+00 1.6526426447763964e+01 0 0 0
219 1 0.0000000000000000e+00 3.0932586000285962e+01 1.1353848967240880e+01 1.6526426447764180e+01 0 0 0
220 1 0.0000000000000000e+00 1.1130875259064803e+01 1.9831416309061904e+01 1.6526426447764376e+01 0 0 0
221 1 0.0000000000000000e+00 5.4791636980695619e+00 2.8762816254198853e+00 1.6526426447764017e+01 0 0 0
222 1 0.0000000000000000e+00 8.3050194785670985e+00 1.1353848967240994e+01 1.6526426447764230e+01 0 0 0
223 1 0.0000000000000000e+00 1.6787766889494534e+01 1.9831416309062000e+01 1.6526426447764418e+01 0 0 0
224 1 0.0000000000000000e+00 1.1136055328499287e+01 2.8762816254200061e+00 1.6526426447764081e+01 0 0 0
225 1 0.0000000000000000e+00 1.3961911108996816e+01 1.1353848967241095e+01 1.6526426447764269e+01 0 0 0
226 1 0.0000000000000000e+00 2.2443480810125184e+01 2.3646243974425992e+01 1.7822385380011784e+01 0 0 0
227 1 0.0000000000000000e+00 1.6791769249130208e+01 6.6911092907841621e+00 1.7822385380011532e+01 0 0 0
228 1 0.0000000000000000e+00 1.9617625029628023e+01 1.5168676632605177e+01 1.7822385380011774e+01 0 0 0
229 1 0.0000000000000000e+00 2.8100372440554935e+01 2.3646243974425875e+01 1.7822385380011657e+01 0 0 0
230 1 0.0000000000000000e+00 2.2448660879559966e+01 6.6911092907840306e+00 1.7822385380011372e+01 0 0 0
231 1 0.0000000000000000e+00 2.5274516660057767e+01 1.5168676632605044e+01 1.7822385380011639e+01 0 0 0
232 1 0.0000000000000000e+00 3.3757264070984540e+01 2.3646243974425783e+01 1.7822385380011639e+01 0 0 0
233 1 0.0000000000000000e+00 2.8105552509989618e+01 6.6911092907839391e+00 1.7822385380011351e+01 0 0 0
234 1 0.0000000000000000e+00 3.0931408290487415e+01 1.5168676632604971e+01 1.7822385380011646e+01 0 0 0
235 1 0.0000000000000000e+00 1.1129697549265687e+01 2.3646243974425865e+01 1.7822385380011763e+01 0 0 0
236 1 0.0000000000000000e+00 5.4779859882707225e+00 6.6911092907840226e+00 1.7822385380011490e+01 0 0 0
237 1 0.0000000000000000e+00 8.3038417687685389e+00 1.5168676632605047e+01 1.7822385380011774e+01 0 0 0
238 1 0.0000000000000000e+00 1.6786589179695394e+01 2.3646243974425982e+01 1.7822385380011859e+01 0 0 0
239 1 0.0000000000000000e+00 1.1134877618700429e+01 6.6911092907841478e+00 1.7822385380011589e+01 0 0 0
240 1 0.0000000000000000e+00 1.3960733399198245e+01 1.5168676632605173e+01 1.7822385380011848e+01 0 0 0
241 1 0.0000000000000000e+00 1.6788086977333268e+01 1.8895941142163402e+01 1.9167911083238860e+01 0 0 0
242 1 0.0000000000000000e+00 1.1136375416338133e+01 1.9408064585214890e+00 1.9167911083238490e+01 0 0 0
243 1 0.0000000000000000e+00 1.3962231196835461e+01 1.0418373800342483e+01 1.9167911083238550e+01 0 0 0
244 1 0.0000000000000000e+00 2.2444978607763058e+01 1.8895941142163448e+01 1.9167911083238824e+01 0 0 0
245 1 0.0000000000000000e+00 1.6793267046767934e+01 1.9408064585215337e+00 1.9167911083238476e+01 0 0 0
246 1 0.0000000000000000e+00 1.9619122827265247e+01 1.0418373800342527e+01 1.9167911083238511e+01 0 0 0
247 1 0.0000000000000000e+00 2.8101870238192785e+01 1.8895941142163423e+01 1.9167911083238778e+01 0 0 0
248 1 0.0000000000000000e+00 2.2450158677197649e+01 1.9408064585215037e+00 1.9167911083238405e+01 0 0 0
249 1 0.0000000000000000e+00 2.5276014457694988e+01 1.0418373800342504e+01 1.9167911083238462e+01 0 0 0
250 1 0.0000000000000000e+00 3.3758761868622400e+01 1.8895941142163359e+01 1.9167911083238774e+01 0 0 0
251 1 0.0000000000000000e+00 2.8107050307627276e+01 1.9408064585214357e+00 1.9167911083238383e+01 0 0 0
252 1 0.0000000000000000e+00 3.0932906088124611e+01 1.0418373800342437e+01 1.9167911083238462e+01 0 0 0
253 1 0.0000000000000000e+00 1.1131195346903541e+01 1.8895941142163345e+01 1.9167911083238828e+01 0 0 0
254 1 0.0000000000000000e+00 5.4794837859084060e+00 1.9408064585214253e+00 1.9167911083238437e+01 0 0 0
255 1 0.0000000000000000e+00 8.3053395664057312e+00 1.0418373800342430e+01 1.9167911083238522e+01 0 0 0
256 1 0.0000000000000000e+00 1.6786921533219644e+01 2.2670797500343948e+01 2.0535754979934790e+01 0 0 0
257 1 0.0000000000000000e+00 1.1135209972224537e+01 5.7156628167020722e+00 2.0535754979934371e+01 0 0 0
258 1 0.0000000000000000e+00 1.3961065752722263e+01 1.4193230158523063e+01 2.0535754979934648e+01 0 0 0
259 1 0.0000000000000000e+00 2.2443813163649438e+01 2.2670797500344001e+01 2.0535754979934765e+01 0 0 0
260 1 0.0000000000000000e+00 1.6792101602654334e+01 5.7156628167021211e+00 2.0535754979934353e+01 0 0 0
261 1 0.0000000000000000e+00 1.9617957383152060e+01 1.4193230158523113e+01 2.0535754979934616e+01 0 0 0
262 1 0.0000000000000000e+00 2.8100704794079196e+01 2.2670797500344033e+01 2.0535754979934723e+01 0 0 0
263 1 0.0000000000000000e+00 2.2448993233084089e+01 5.7156628167021486e+00 2.0535754979934286e+01 0 0 0
264 1 0.0000000000000000e+00 2.5274849013581800e+01 1.4193230158523132e+01 2.0535754979934559e+01 0 0 0
265 1 0.0000000000000000e+00 3.3757596424508826e+01 2.2670797500343991e+01 2.0535754979934723e+01 0 0 0
266 1 0.0000000000000000e+00 2.8105884863513722e+01 5.7156628167020944e+00 2.0535754979934268e+01 0 0 0
267 1 0.0000000000000000e+00 3.0931740644011448e+01 1.4193230158523091e+01 2.0535754979934566e+01 0 0 0
268 1 0.0000000000000000e+00 1.1130029902789948e+01 2.2670797500343944e+01 2.0535754979934762e+01 0 0 0
269 1 0.0000000000000000e+00 5.4783183417948402e+00 5.7156628167020473e+00 2.0535754979934321e+01 0 0 0
270 1 0.0000000000000000e+00 8.3041741222925598e+00 1.4193230158523058e+01 2.0535754979934623e+01 0 0 0
271 1 0.0000000000000000e+00 1.8201872988312267e+01 2.0309245191707856e+01 2.1219561099366551e+01 0 0 0
272 1 0.0000000000000000e+00 1.2550161427317191e+01 3.3541105080659870e+00 2.1219561099366199e+01 0 0 0
273 1 0.0000000000000000e+00 1.5376017207814661e+01 1.1831677849886928e+01 2.1219561099366306e+01 0 0 0
274 1 0.0000000000000000e+00 2.3858764618742068e+01 2.0309245191708239e+01 2.1219561099366615e+01 0 0 0
275 1 0.0000000000000000e+00 1.8207053057746993e+01 3.3541105080663738e+00 2.1219561099366260e+01 0 0 0
276 1 0.0000000000000000e+00 2.1032908838244470e+01 1.1831677849887315e+01 2.1219561099366363e+01 0 0 0
277 1 0.0000000000000000e+00 2.9515656249171794e+01 2.0309245191708303e+01 2.1219561099366608e+01 0 0 0
278 1 0.0000000000000000e+00 2.3863944688176719e+01 3.3541105080664320e+00 2.1219561099366249e+01 0 0 0
279 1 0.0000000000000000e+00 2.6689800468674193e+01 1.1831677849887367e+01 2.1219561099366366e+01 0 0 0
280 1 0.0000000000000000e+00 3.5172547879601396e+01 2.0309245191707948e+01 2.1219561099366548e+01 -1 0 0
281 1 0.0000000000000000e+00 2.9520836318606314e+01 3.3541105080660705e+00 2.1219561099366153e+01 -1 0 0
282 1 0.0000000000000000e+00 3.2346692099103805e+01 1.1831677849887015e+01 2.1219561099366295e+01 -1 0 0
283 1 0.0000000000000000e+00 1.2544981357882520e+01 2.0309245191707671e+01 2.1219561099366519e+01 0 0 0
284 1 0.0000000000000000e+00 6.8932697968874370e+00 3.3541105080658000e+00 2.1219561099366143e+01 0 0 0
285 1 0.0000000000000000e+00 9.7191255773849221e+00 1.1831677849886747e+01 2.1219561099366278e+01 0 0 0