LAMMPS (13 Jan 2016)
include /users/knc6/inelast.mod
# Compute elastic constant tensor for a crystal
#
# Written by Aidan Thompson (Sandia, athomps@sandia.gov)
#
#  This script uses the following three include files.
#
#   init.mod      (must be modified for different crystal structures)
# 	       	  Define units, deformation parameters and initial
#		  configuration of the atoms and simulation cell.
#
#
#   potential.mod    (must be modified for different pair styles)
# 		     Define pair style and other attributes
#		     not stored in restart file
#
#
#   displace.mod    (displace.mod should not need to be modified)
# 		    Perform positive and negative box displacements
# 		    in direction ${dir} and size ${up}.
# 		    It uses the resultant changes
#		    in stress to compute one
# 		    row of the elastic stiffness tensor
#
#		    Inputs variables:
#		    	   dir = the Voigt deformation component
#		    		    (1,2,3,4,5,6)
#		    Global constants:
#       	    	   up = the deformation magnitude (strain units)
#       		   cfac = conversion from LAMMPS pressure units to
#               	   output units for elastic constants
#
#
#  To run this on a different system, it should only be necessary to
#  modify the files init.mod and potential.mod. In order to calculate
#  the elastic constants correctly, care must be taken to specify
#  the correct units in init.mod (units, cfac and cunits). It is also
#  important to verify that the minimization of energy w.r.t atom
#  positions in the deformed cell is fully converged.
#  One indication of this is that the elastic constants are insensitive
#  to the choice of the variable ${up} in init.mod. Another is to check
#  the final max and two-norm forces reported in the log file. If you know
#  that minimization is not required, you can set maxiter = 0.0 in
#  init.mod.
#
#  There are two alternate versions of displace.mod provided.
#  They are displace_restart.mod and displace_reverse.mod.
#  The former resets the box using a restart file while
#  the latter reverses the deformation. Copy whichever
#  one you like best to displace.mod.
#

include init.mod
variable dump_file string "None"
variable up  equal 1.0e-6
variable cfac  equal 1.0e-4
variable cunits  string GPa
variable etol  equal 0
variable ftol  equal 1.0e-10
variable maxiter equal 1000
variable maxeval equal 10000
variable dmax equal 1.0e-2
variable data_file string "data"
units metal
atom_style charge
boundary p p p
atom_modify sort 0 0.0

read_data data
  triclinic box = (0 0 0) to (28.6378 25.774 48.6) with tilt (8.59135 0 0)
  1 by 1 by 1 MPI processor grid
  reading atoms ...
  960 atoms

### interactions
mass 1 26.98154
include potential.mod
pair_style eam/alloy
pair_coeff * * /users/knc6/Software/jarvis/jarvis/lammps/examples/Al03.eam.alloy  Al
neighbor 1.0 nsq
neigh_modify once no every 1 delay 0 check yes
min_style  cg
min_modify           dmax ${dmax} line quadratic
min_modify           dmax 0.01 line quadratic
thermo          1
thermo_style custom step temp press cpu pxx pyy pzz pxy pxz pyz ke pe etotal vol lx ly lz atoms
thermo_modify norm no
#fix 3 all nph aniso 0.0 0.0 1.0
#fix langevin all langevin 0.0 0.0 1.0 12233

#fix 3 all box/relax tri 0.0 vmax 0.001
fix            3 all box/relax aniso 0.0 vmax 0.001
#fix 3 all box/relax  aniso 0.0
#dump            2a all cfg 100 *.cfg mass type xs ys zs  vx vy vz fx fy fz
#dump_modify     2a element  Mo S

#fix 1a all qeq/comb 1 0.0001 file fq.out
#fix             2 all qeq/reax 1 0.0 10.0 1e-6 /scratch/lfs/kamal/JARVIS/All2/ReaxFF/param.qeq
minimize ${etol} ${ftol} ${maxiter} ${maxeval}
minimize 0 ${ftol} ${maxiter} ${maxeval}
minimize 0 1e-10 ${maxiter} ${maxeval}
minimize 0 1e-10 1000 ${maxeval}
minimize 0 1e-10 1000 10000
Neighbor list info ...
  1 neighbor list requests
  update every 1 steps, delay 0 steps, check yes
  max neighbors/atom: 2000, page size: 100000
  master list distance cutoff = 7.72488
  ghost atom cutoff = 7.72488
Memory usage per processor = 3.38271 Mbytes
Step Temp Press CPU Pxx Pyy Pzz Pxy Pxz Pyz KinEng PotEng TotEng Volume Lx Ly Lz Atoms 
       0            0   -10790.851            0   -11383.784   -11450.464    -9538.304 2.1779147e-06 -1.1247744e-07   -299.95547            0   -3151.6212   -3151.6212    35872.267    28.637824    25.774042         48.6      960 
       1            0   -9885.7933 0.0033290386   -10447.372   -10512.016   -8697.9915    0.2540745 0.0020626312   -305.36836            0   -3152.2797   -3152.2797    35770.944    28.609353    25.748268    48.559516      960 
       2            0   -8969.9026 0.0066568851   -9498.9056   -9561.3794    -7849.423   0.53126369 0.0048319237   -310.87549            0   -3152.8782   -3152.8782    35670.028    28.580892    25.722494    48.519309      960 
       3            0    -8043.346 0.0099859238   -8538.4435   -8598.6224   -6992.9722   0.83522955 0.0084643528   -316.49778            0   -3153.4162   -3153.4162    35569.552    28.552441     25.69672    48.479424      960 
       4            0   -7106.3907  0.013320923    -7566.119   -7623.8866   -6129.1663    1.1703766  0.012906937   -322.25048            0   -3153.8933   -3153.8933    35469.559    28.524005    25.670946     48.43992      960 
       5            0   -6159.7224  0.016660929   -6582.4442   -6637.6809   -5259.0421    1.5432911   0.01876307   -328.17622            0   -3154.3094   -3154.3094     35370.11    28.495584    25.645172    48.400876      960 
       6            0   -5204.2756  0.019993067    -5588.131   -5640.7133   -4383.9825    1.9630441  0.026006756   -334.29529            0    -3154.664    -3154.664     35271.29    28.467186    25.619398    48.362405      960 
       7            0   -4241.2066  0.023334026   -4583.9878   -4633.7914   -3505.8405    2.4438189  0.035081005   -340.67853            0   -3154.9572   -3154.9572    35173.229    28.438816    25.593624    48.324675      960 
       8            0   -3272.5498  0.026679993     -3571.53   -3618.3936   -2627.7259    3.0082075  0.046112799   -347.44196            0   -3155.1889   -3155.1889    35076.133    28.410488     25.56785    48.287955      960 
       9            0   -2302.1846  0.041113853   -2553.7599   -2597.4581   -1755.3357     3.697851  0.060249048   -354.67887            0   -3155.3595   -3155.3595    34980.367    28.382222    25.542076    48.252717      960 
      10            0    -1338.031  0.044460058   -1536.7865   -1576.9181   -900.38848    4.6028671  0.079493287   -362.78263            0     -3155.47     -3155.47    34886.687    28.354069    25.516302    48.219935      960 
      11            0   -401.19836  0.047806978   -537.02799   -572.59644   -93.970663    5.9697974   0.10832148   -372.53308            0   -3155.5229   -3155.5229    34797.154    28.326162    25.490528    48.192246      960 
      12            0    112.93967  0.054463863    40.838123    11.466954    286.51394    8.0999058   0.14839554   -382.89207            0   -3155.5314   -3155.5314     34749.09    28.308693    25.473762    48.187072      960 
      13            0    10.451722   0.05781889    61.385323    54.440702   -84.470858    15.167718   0.25370656   -405.27885            0   -3155.5386   -3155.5386    34761.337     28.30138    25.463643    48.235672      960 
      14            0   -463.27409  0.061182976   -619.99397   -496.68305   -273.14527    33.621238   0.57889177   -385.04471            0   -3155.5673   -3155.5673     34805.36    28.330018    25.480028    48.216909      960 
      15            0     188.3994  0.064555883   -44.676723    125.50872    484.36621    39.349319   0.74347088   -375.21283            0   -3155.6092   -3155.6092    34743.232    28.320519    25.468749    48.168309      960 
      16            0    27.066123  0.067914963    19.214657   -17.422969    79.406683    7.8730714   0.13894125   -383.48911            0   -3155.6625   -3155.6625    34761.889    28.305082    25.470624    48.216909      960 
      17            0   -325.39755  0.071661949   -307.41018   -215.90842   -452.87406    31.582073   0.50355451   -402.52054            0   -3155.6732   -3155.6732     34797.72    28.312038    25.464947    48.265509      960 
      18            0    231.13649  0.075095892    295.00564    508.79169   -110.38786    53.922941   0.84039476   -422.79789            0   -3155.6957   -3155.6957    34747.202    28.295592    25.439172    48.272309      960 
      19            0   -150.62139  0.078477859   -199.98461   -86.706114   -165.17346    32.999021   0.55976433   -383.12982            0   -3155.8302   -3155.8302    34784.369    28.312801    25.464947     48.24569      960 
      20            0    604.72786  0.085162878    631.76249    558.01825    624.40284   0.65101112  0.012481184   -370.18735            0   -3155.8482   -3155.8482    34712.825    28.287622    25.458533    48.201455      960 
      21            0    974.39642  0.091871023    1054.6938    835.08451    1033.4109   -24.568273  -0.48371232   -359.13971            0   -3155.8528   -3155.8528    34678.175    28.273833    25.458621    48.176657      960 
      22            0    823.02626  0.095257044    1003.6361    414.78748    1050.6552   -88.072048   -1.8332279    -326.1029            0   -3155.9231   -3155.9231     34693.09    28.267286    25.484395    48.159785      960 
      23            0    -44.24401  0.098643064    59.793147    -356.7713    164.24612   -58.258375   -1.1093425   -335.47463            0   -3155.9491   -3155.9491    34775.752     28.29475    25.494593    48.208385      960 
      24            0    33.293358   0.10201001    42.458587     4.560161    52.861326    6.7244234   0.11910487   -365.15678            0   -3155.9581   -3155.9581    34770.174    28.302436    25.468819     48.23633      960 
      25            0   -463.13094   0.10871887    -506.8374    -389.0399   -493.51553    33.586449   0.55322513   -374.83647            0   -3155.9661   -3155.9661    34818.769     28.31932    25.470451    48.271851      960 
      26            0   -336.43694   0.11212897    -451.8877    9.3353135   -566.75843    92.837968    1.4220708   -401.50882            0   -3156.0073   -3156.0073    34809.968    28.323646    25.444677    48.301156      960 
      27            0    181.72997   0.11885405    127.70343    400.81073     16.67576    60.307702    1.0101145   -387.92912            0   -3156.0168   -3156.0168    34759.673    28.305315    25.444685     48.26259      960 
      28            0    50.345811     0.122226    68.206494   -2.9362181    85.767157    0.7053796  0.012735834   -357.77559            0   -3156.0246   -3156.0246     34770.41    28.300907    25.470459    48.236156      960 
      29            0   -308.30859   0.12892985   -333.33977   -277.69801   -313.88797    22.572198   0.38443439   -366.01102            0   -3156.0289   -3156.0289    34805.413    28.313551    25.470831    48.262448      960 
      30            0   -186.10841   0.13233209   -288.40467    117.82219   -387.74275     83.05777    1.3168074   -393.95375            0   -3156.0513   -3156.0513    34796.444    28.318537    25.445057    48.290381      960 
      31            0    287.72428   0.13904405    259.61234    427.12214    176.43835     41.79398   0.72742201   -376.10592            0   -3156.0602   -3156.0602    34750.346    28.300009    25.449161    48.250197      960 
      32            0    167.87058   0.14241791    218.47779    32.114421    253.01953   -19.350279  -0.35964349   -345.72861            0   -3156.0695   -3156.0695    34760.141    28.294718    25.474935    48.223981      960 
      33            0   -127.03978   0.14911008   -109.17758     -205.715   -66.226769   -3.8490788 -0.068619945   -351.47414            0   -3156.0724   -3156.0724    34788.638    28.304823    25.476272    48.243755      960 
      34            0   -12.912185   0.15250587   -77.559121    183.99049   -145.16792    57.884807   0.96662668    -380.5605            0     -3156.08     -3156.08    34779.872    28.310523    25.450498    48.270723      960 
      35            0    382.00979   0.15588188    438.69668    282.60891    424.72378   -14.227038  -0.26686592   -346.74255            0   -3156.1126   -3156.1126    34741.543    28.289131    25.467316    48.222123      960 
      36            0   -244.71185   0.15926695   -171.69458     -492.649   -69.791962   -42.607176  -0.79497764   -328.71588            0   -3156.1365   -3156.1365    34800.995    28.301784     25.49309    48.234232      960 
      37            0   -939.93508   0.16264796   -980.26861   -1082.7324    -756.8042   -6.7961242  -0.11887167   -320.65025            0   -3156.3431   -3156.3431    34875.507    28.327825    25.498495    48.282832      960 
      38            0   -146.73277   0.16602588   -184.87338   -185.08861   -70.236312    10.336141   0.18822799   -326.50225            0   -3156.4453   -3156.4453    34802.501    28.308802    25.472721    48.262922      960 
      39            0    98.188378   0.17273688    85.020649    83.061504    126.48298    10.393953   0.19070111   -329.91004            0   -3156.4472   -3156.4472    34779.517    28.300939    25.465634    48.257875      960 
      40            0    24.068558   0.17612195    152.72529    138.56342   -219.08304    11.707107   0.19727846   -350.78993            0   -3156.4615   -3156.4615    34789.687    28.291197    25.456216    48.306475      960 
      41            0   -345.87209   0.17950296   -459.95245    -400.6873   -176.97652     19.11657   0.35086923   -318.49488            0   -3156.4838   -3156.4838    34822.274    28.319835    25.478206     48.26114      960 
      42            0     46.85229   0.18288493   -167.80115   -89.452518    397.81053    19.589474    0.3912608   -302.76285            0   -3156.5013   -3156.5013    34783.692    28.318515    25.476819     48.21254      960 
      43            0    228.12101   0.18626595    263.57991    199.10871    221.67441 -0.031907992 -0.00080459335    -323.8915            0   -3156.5294   -3156.5294    34770.238    28.293307    25.463986     48.26114      960 
      44            0   -235.45347   0.19296598   -179.09915   -236.99096    -290.2703    2.0906924  0.036331591   -328.36183            0   -3156.5361   -3156.5361    34815.331    28.302655    25.471332    48.293836      960 
      45            0   -704.20066   0.19635701    -626.5617   -592.93094   -893.10935    19.257996   0.30517021   -342.11889            0   -3156.5446   -3156.5446      34862.7    28.312485    25.471499    48.342436      960 
      46            0   -462.79301   0.19976091   -345.27802   -108.61965   -934.48136    55.977247   0.81833374   -369.66212            0   -3156.5977   -3156.5977    34844.214    28.304268    25.445725    48.379782      960 
      47            0    67.873618    0.2031579    157.33535    328.29359   -282.00809    43.152861    0.7028018   -355.55753            0   -3156.6125   -3156.6125    34791.973    28.293611    25.442704    48.331182      960 
      48            0   -140.82814   0.20654798   -156.99098    -133.9788   -131.51463    14.315566   0.25768367   -319.80682            0   -3156.6218   -3156.6218    34808.635    28.306306    25.468478    48.283729      960 
      49            0    103.76132   0.21324587    81.107031    58.733871    171.44306     5.802613   0.10907029    -312.6967            0   -3156.6239   -3156.6239    34784.727    28.300756    25.467767    48.261374      960 
      50            0    70.143147    0.2166369    83.677441   -270.30274    397.05474   -52.591855   -1.0812106   -276.01314            0   -3156.6541   -3156.6541    34786.912    28.296786    25.493541    48.222376      960 
      51            0   -158.09999   0.22002602   -143.21268   -283.44954   -47.637754   -14.245388  -0.26782362   -300.95672            0   -3156.6769   -3156.6769    34811.313    28.303158        25.48    48.270976      960 
      52            0    192.00728   0.22676897    208.62836    186.41691    180.97658    6.4925978    0.1206935   -314.65788            0   -3156.6814   -3156.6814    34779.063    28.295281      25.4625    48.272837      960 
      53            0    283.50033     0.230165    262.96346    560.21405    27.323487    62.603765    1.0713376   -346.65721            0   -3156.6877   -3156.6877    34773.203    28.297663    25.436726    48.309542      960 
      54            0   -277.94163   0.23692894   -336.01801    43.591147   -541.39804    76.807824    1.2317766   -350.59366            0   -3156.6971   -3156.6971    34827.571     28.31443    25.444463    48.341718      960 
      55            0   -413.53476   0.24032688   -459.49767   -362.92874   -418.17787    26.523463   0.46467255   -315.40126            0   -3156.7362   -3156.7362    34839.304    28.315122    25.470237    48.307889      960 
      56            0    130.09571   0.24704504    117.46656    153.50896    119.31161    16.001935   0.29607124   -312.30496            0   -3156.7452   -3156.7452    34787.281    28.299139    25.461212    48.280103      960 
      57            0    570.85157   0.25044799    733.87437    259.85585    718.82449   -71.310781   -1.4761825   -275.75183            0   -3156.7644   -3156.7644    34744.952    28.271961    25.480327    48.231503      960 
      58            0    82.965127   0.25385094    302.45136   -410.18141    356.62544   -111.85827   -2.3336961   -254.88793            0   -3156.7963   -3156.7963    34791.464    28.277593    25.506101    48.237656      960 
      59            0   -137.20033   0.25724387   -91.590563   -274.21806   -45.792375   -21.584132  -0.40832351   -290.63048            0   -3156.8121   -3156.8121    34814.384    28.299423    25.480327    48.280987      960 
      60            0    119.80909   0.26396108    143.96279      69.3008    146.16369   -3.1216183 -0.059600927   -299.64913            0   -3156.8144   -3156.8144    34790.431    28.295586    25.467582    48.278458      960 
      61            0   -22.261875   0.27072501   -120.45641    215.41766   -161.74687     67.39043    1.1658672   -329.30491            0   -3156.8195   -3156.8195    34806.062    28.310865    25.446056     48.31492      960 
      62            0   -578.75047   0.27411103   -572.47992   -510.38429    -653.3872    21.105089   0.35986986   -305.76439            0   -3156.9221   -3156.9221    34863.076    28.313881     25.47183    48.339945      960 
      63            0    382.76441   0.27749586    450.13728     394.1891    303.96686   0.46625702 0.0082199345   -296.79683            0   -3156.9649   -3156.9649    34772.138    28.285369    25.456591    48.291345      960 
      64            0    879.84231    0.2808969    954.38059    717.24112    967.90521   -32.603635  -0.68375249   -268.90688            0   -3157.0214   -3157.0214     34726.33    28.271853    25.460833    48.242745      960 
      65            0     198.6036    0.2842989    220.32018   -101.81341    477.30403   -48.627948   -1.0214802    -245.8596            0   -3157.1102   -3157.1102    34792.275    28.291363    25.486607    48.252181      960 
      66            0   -191.48126   0.29103398   -189.34048   -338.62461   -46.478678   -17.806025  -0.34619274   -264.14712            0   -3157.1167   -3157.1167    34830.981    28.303089    25.481734    48.295079      960 
      67            0    16.797816   0.29775906    18.760609    83.670602   -52.037763    20.241994   0.36997856   -289.64145            0   -3157.1211   -3157.1211    34813.145    28.299237    25.459168     48.31971      960 
      68            0   -3.9294004   0.30117702   -328.74854    211.99438    104.96595    97.032379    1.8384169   -282.17618            0   -3157.2704   -3157.2704    34820.121    28.327875    25.446487    48.304595      960 
      69            0    19.130055   0.30457401    8.8286968    30.928167      17.6333    11.740426   0.22189718   -269.47883            0   -3157.2894   -3157.2894    34819.212    28.299237     25.46342    48.320062      960 
      70            0    -446.4873   0.31131101   -399.67344   -529.46377   -410.32469    -13.53364  -0.25092322    -260.3283            0   -3157.2963   -3157.2963    34864.191    28.304878     25.48121    48.339066      960 
      71            0   -328.63839   0.31473994   0.59256736   -690.86408   -295.64364   -106.78338   -2.0717942   -232.94809            0    -3157.358    -3157.358    34855.664    28.276241    25.502519    48.335767      960 
      72            0    217.36367   0.31814504    417.54432    21.980447    212.56625   -58.069777   -1.1514923   -246.18929            0   -3157.3695   -3157.3695    34803.739     28.27522    25.476745    48.314331      960 
      73            0    80.841509   0.32154608   -1.4056318    153.47385    90.456306    33.411497   0.63602347   -266.99647            0   -3157.3774   -3157.3774    34817.038    28.303858     25.45674    48.321833      960 
      74            0   -132.86667   0.32828498    -170.4821   -108.24753   -119.87038    18.134291   0.34007014    -263.3481            0    -3157.379    -3157.379    34837.556     28.30487    25.465267     48.33239      960 
      75            0   -22.526748   0.33170104    231.34112   -216.45293   -82.468433   -65.783347   -1.2613516   -248.09039            0   -3157.3854   -3157.3854     34827.93    28.276232    25.481614    48.336944      960 
      76            0    527.65792   0.33509588    547.16059    500.86212    534.95104  -0.65097259 -0.014250637   -254.93319            0   -3157.4122   -3157.4122    34776.115    28.283919     25.45584     48.30077      960 
      77            0    115.51087   0.33851004   -80.273353     205.4301    221.37585    53.839173    1.0529624   -259.16119            0   -3157.4428   -3157.4428    34815.814    28.312557    25.454349    48.309826      960 
      78            0   -136.34033   0.34524608   -211.45636   -111.30222   -86.262419    23.812064   0.45181883    -256.7369            0   -3157.4457   -3157.4457    34840.487    28.307883    25.465125    48.331582      960 
      79            0    26.081703        0.352    141.98079   -20.398418   -43.337262   -18.547514  -0.35234461    -255.6049            0   -3157.4483   -3157.4483    34826.038    28.287322    25.467871    48.341442      960 
      80            0    340.28793   0.35540104    247.69397    155.26487    617.90495    -12.48608  -0.27219634   -205.16454            0     -3157.75     -3157.75    34807.139    28.295567    25.472242    48.292842      960 
      81            0    -269.2929   0.35879898   -336.49976    -388.5435   -82.835435    -3.973464 -0.081829595    -214.2806            0   -3157.7706   -3157.7706    34867.359    28.308152    25.479326    48.341442      960 
      82            0   -350.70354   0.36219501   -325.12749   -304.22888   -422.75426      11.4263   0.20844918   -237.23409            0     -3157.79     -3157.79    34878.773    28.302871    25.466819    48.390042      960 
      83            0    165.57887   0.36894608    219.09566    253.74112    23.899829    14.056659   0.26458674   -241.86795            0   -3157.7981   -3157.7981    34830.039    28.288446    25.452567    48.374143      960 
      84            0    649.84431   0.37235403    631.71324    657.57928    660.24041     10.12207   0.20751101   -225.73002            0   -3157.8108   -3157.8108    34783.435     28.28262    25.449314    48.325543      960 
      85            0    183.10953   0.37575293    7.6814282  -0.77930743    542.42646   0.36380341 0.0056978093   -193.69864            0    -3157.858    -3157.858    34826.911    28.305873    25.475088    48.297284      960 
      86            0    -167.8077   0.37914801   -245.20151   -265.15202    6.9304429    1.1658906  0.021333291    -208.9089            0   -3157.8648   -3157.8648    34862.407     28.30628    25.475051    48.345884      960 
      87            0    47.185203   0.38588405    70.694268    50.766505    20.094837    3.4781845  0.065563768   -224.95558            0   -3157.8681   -3157.8681     34843.74    28.293052     25.46199    48.367387      960 
      88            0   -162.10248   0.39263892    -99.00373   -59.090047   -328.21365    15.392129   0.27978782   -239.26344            0   -3157.8707   -3157.8707    34865.564    28.295091    25.457847    48.402069      960 
      89            0    187.29892   0.39605403    294.81114    508.61722   -241.53159    47.319173    0.8199092   -266.39843            0   -3157.8832   -3157.8832    34835.827    28.284052    25.432073    48.428691      960 
      90            0   -387.80151   0.39947891   -463.16254   -134.81791   -565.42408    63.720087     1.124603   -245.87996            0   -3157.9557   -3157.9557    34892.342     28.31269    25.449378    48.425243      960 
      91            0    147.48328   0.40290189    70.810673    272.13618    99.502975    40.389015   0.78470293   -226.64737            0   -3157.9873   -3157.9873    34840.612    28.299323    25.449192    48.376643      960 
      92            0   -29.210235   0.40630603    -36.08849   -164.87985    113.33764   -16.887849  -0.34917362   -196.46709            0   -3158.0079   -3158.0079     34856.67    28.296111    25.474966    48.355461      960 
      93            0    20.062261   0.40973186    320.50234   -299.43184    39.116282   -96.968353   -1.9989229    -181.2471            0   -3158.0763   -3158.0763    34857.068    28.267473    25.489418    48.377559      960 
      94            0   -45.556644   0.41314292    23.733313   -49.884902   -110.51834   -5.2250119  -0.10489014   -206.49521            0   -3158.1368   -3158.1368    34867.337    28.290044    25.463644    48.402144      960 
      95            0    114.96723   0.41989589    113.93349     122.0333    108.93489    7.4694608    0.1463489   -204.33135            0   -3158.1379   -3158.1379    34851.384    28.292322    25.459336     48.38429      960 
      96            0   -42.676471   0.42666197   -202.70831   -36.170991    110.84989    32.050946   0.65143692   -197.70844            0   -3158.1402   -3158.1402    34865.236    28.309665    25.462596    48.367675      960 
      97            0    71.094402   0.43007803   -7.9483296   -263.93852    485.17006   -41.899272  -0.95952338   -141.24986            0   -3158.3903   -3158.3903    34866.705    28.297011     25.48837    48.342409      960 
      98            0   -58.127727   0.43349099   -79.078782   -206.12419    110.81979   -17.136137  -0.36595356   -166.01694            0   -3158.4099   -3158.4099    34882.241    28.296017    25.475012    48.391009      960 
      99            0    122.12849   0.44025302    125.90336    89.252836    151.22927  -0.49801273 -0.015100331   -180.72605            0    -3158.412    -3158.412    34866.365     28.29023     25.46144    48.404667      960 
     100            0   -25.924468   0.44702196    -17.19331    20.963631   -81.543725    13.213884    0.2559911   -191.29305            0   -3158.4132   -3158.4132    34881.585      28.2937     25.45769    48.426989      960 
     101            0     77.26581   0.45046401   -228.28048     395.9885    64.089411     110.7927    2.1709277   -206.12344            0   -3158.4967   -3158.4967    34877.119     28.31922    25.431916    48.426183      960 
     102            0   -156.72347   0.45387506   -236.31972   -84.503028   -149.34768    31.670924   0.62355757   -184.96563            0   -3158.5167   -3158.5167    34900.038    28.304015     25.45769    48.434952      960 
     103            0    169.22818   0.46065092    215.46156    142.31668    149.90631   -5.8584579  -0.12478704   -176.79876            0   -3158.5208   -3158.5208    34869.031    28.285014    25.459425    48.421128      960 
     104            0    302.48481   0.46745491    489.26329     140.9535    277.23765   -51.725568   -1.0917391   -165.28822            0   -3158.5225   -3158.5225    34856.567    28.269214    25.468127    48.414324      960 
     105            0   -124.87762   0.47090101    205.22189   -484.16931   -95.685448    -108.3835   -2.2736299   -147.61101            0   -3158.5303   -3158.5303    34897.912    28.265933    25.493901    48.428367      960 
     106            0   -281.06474   0.47431993   -231.73415   -416.12584   -195.33423   -25.112972  -0.51826821   -162.06776            0   -3158.5678   -3158.5678    34914.522     28.29457    25.477752    48.433059      960 
     107            0    115.35717   0.48107886    139.09382    59.607978    147.36971   -7.4277851  -0.15902171   -169.43636            0   -3158.5728   -3158.5728    34876.981    28.287806    25.462727    48.421107      960 
     108            0    222.90543   0.48787904    124.90627    410.99084    132.81919    55.075398    1.0906432   -194.04588            0   -3158.5761   -3158.5761    34868.474    28.296897    25.439704     48.43754      960 
     109            0   -127.30495   0.49470186   -277.15979    133.37445   -238.12951    76.500761    1.4511977   -201.70871            0     -3158.58     -3158.58    34902.871    28.309995    25.440642    48.461102      960 
     110            0   -247.51784     0.498106   -209.83862   -260.40257   -272.31235    -1.413238 -0.032985961   -175.05078            0   -3158.5993   -3158.5993    34914.436    28.295249    25.466416    48.453336      960 
     111            0    106.02669   0.50487494    161.93717     77.06708    79.075813   -7.4963939  -0.15829346   -172.55365            0   -3158.6031   -3158.6031    34880.448    28.285265    25.460473    48.434556      960 
     112            0    446.83931   0.51164198    363.82126    399.76599    576.93067     10.27939   0.21865783   -162.65735            0   -3158.6085   -3158.6085    34846.926    28.288954    25.454912    48.392269      960 
     113            0    149.51111   0.51505899   -189.52336    59.017311    579.03939    42.389328   0.95704601   -146.50212            0   -3158.6288   -3158.6288    34874.242    28.317592    25.464548    48.362918      960 
     114            0   -166.46933   0.51847792    -340.2905   -227.73066    68.613181    22.488379    0.4717292   -157.45346            0   -3158.6405   -3158.6405    34906.799    28.311055    25.468612    48.411518      960 
     115            0    119.25337   0.52523398    94.152645    105.19554    158.41192    7.7270197    0.1552216   -168.65974            0   -3158.6449   -3158.6449    34881.263    28.291754     25.45869    48.427973      960 
     116            0    9.5079933   0.53201294     77.02092    20.901836   -69.398776   -1.8335161 -0.041807103    -176.1969            0   -3158.6461   -3158.6461    34893.128    28.286536    25.458782    48.453205      960 
     117            0   -200.98966   0.53878808   -232.37954   -192.00688   -178.58255    13.200882    0.2598041   -172.10614            0    -3158.648    -3158.648    34912.622    28.299959    25.463306    48.448671      960 
     118            0    40.124154   0.54557991    -227.4766    58.730933    289.11813    51.162085    1.0944979   -162.13443            0   -3158.6536   -3158.6536    34887.734    28.314549     25.45741    48.400394      960 
     119            0     415.8406   0.54899001    372.26931    358.69329    516.55921    2.6196681  0.051411415   -159.43081            0   -3158.6846   -3158.6846    34855.074    28.285911    25.455993    48.406735      960 
     120            0   -234.65167   0.55240893   -170.12824   -325.61087    -208.2159   -19.261101  -0.39633271   -161.24423            0    -3158.704    -3158.704    34919.526    28.291737    25.472239    48.455335      960 
     121            0   -409.24444   0.55584097    -200.1548   -427.05113   -600.52739    -28.04914  -0.53485735   -176.30651            0   -3158.7257   -3158.7257    34940.697    28.283665    25.469412    48.503935      960 
     122            0    382.18843   0.55925703     602.3014    473.90201    70.361887   -10.954365  -0.22031037    -186.8056            0   -3158.7488   -3158.7488    34867.208    28.264671    25.443638    48.483508      960 
     123            0    983.83576   0.56268907    938.24778    1231.2179    782.04158     57.62152    1.1967718   -189.78756            0   -3158.7873   -3158.7873    34812.964    28.273695    25.417864    48.441701      960 
     124            0     514.4182   0.56612706    260.90351    781.01505    501.33604    93.915909    1.9516041   -182.64975            0   -3158.8485   -3158.8485    34859.118    28.302333    25.425396    48.442489      960 
     125            0   -64.705983   0.57293606   -253.03441    98.957942   -40.041479    65.793306    1.3225986   -174.30088            0   -3158.8592   -3158.8592    34914.393    28.309944    25.445939    48.467097      960 
     126            0    1.6218707   0.57971907    26.738563   -12.095602   -9.7773486   0.88439301  0.012005726   -161.05964            0   -3158.8624   -3158.8624    34908.209     28.28913    25.459752    48.467855      960 
     127            0    8.5901697     0.583143   -95.798776   -181.52077    303.09006   -10.779235  -0.24623704   -132.96257            0   -3158.8779   -3158.8779    34905.742    28.299067    25.474558    48.419255      960 
     128            0    29.330753   0.58656001    26.742133    22.664668    38.585459    6.5920555   0.12985912   -159.46739            0   -3158.9024   -3158.9024    34908.145    28.290694    25.458298    48.467855      960 
     129            0   -84.921783   0.59333491   -88.142578   -88.751946   -77.870825    7.3356265   0.14352327   -160.17886            0   -3158.9028   -3158.9028    34919.256    28.293453    25.460403    48.474547      960 
     130            0    -47.22097   0.59676003    49.378427    139.04519   -330.08653    26.167483   0.48701263   -188.34963            0   -3158.9165   -3158.9165    34920.131    28.284867     25.44326    48.523147      960 
     131            0    198.23617   0.60017896    206.55157    251.13826    137.01869    15.617899   0.31459895   -166.01324            0   -3158.9346   -3158.9346    34895.024    28.285926    25.449505    48.474547      960 
     132            0   -195.19552   0.60695601   -241.12762   -241.59378   -102.86516    6.6154561   0.13044316   -152.34363            0   -3158.9402   -3158.9402    34931.798    28.299322    25.466038    48.471172      960 
     133            0   -400.38772    0.6137259   -488.46155   -555.63371    -157.0679    -6.143353  -0.13802574   -137.45495            0   -3158.9426   -3158.9426    34950.706    28.307218    25.479578    48.458117      960 
     134            0   -81.984725   0.61715508   -199.71336   -410.63641     364.3956   -33.000148  -0.77175937   -113.31169            0   -3158.9606   -3158.9606    34919.349    28.301197    25.487696    48.409517      960 
     135            0    244.24863   0.62057185    232.00276    137.06735    363.67578   -9.8256232  -0.22151656   -143.78484            0   -3158.9734   -3158.9734    34891.567    28.285586    25.461922    48.446689      960 
     136            0   -67.401647     0.627352   -53.128721   -71.042499   -78.033722    5.0875886   0.09684063   -159.00916            0   -3158.9776   -3158.9776    34923.178    28.291169    25.459475    48.485672      960 
     137            0   -9.4833189   0.63414407    17.396778    92.759525   -138.60626    22.115768   0.43133231    -172.7753            0   -3158.9786   -3158.9786    34919.049    28.289248    25.449221    48.502767      960 
     138            0    475.17279   0.64094305    373.23609    564.93208     487.3502    39.306803    0.8316016   -163.47729            0   -3158.9874   -3158.9874    34872.002    28.288735    25.440263    48.455354      960 
     139            0    202.64235   0.64437294   -160.90942    137.54013    631.29633      52.3572    1.1989068   -133.49401            0   -3159.0179   -3159.0179    34896.673    28.316642    25.458705    48.406754      960 
     140            0     -192.341   0.64779305   -387.44638   -259.04645    69.469819    26.523961   0.56616035   -141.30973            0   -3159.0303   -3159.0303    34936.756    28.311523    25.466987    48.455354      960 
     141            0    107.12245   0.65457296    123.07973    90.697078    107.59053    2.7011412  0.048649352   -155.59689            0   -3159.0367   -3159.0367    34910.636    28.286552    25.456519    48.481799      960 
     142            0    1.2666901   0.66134906    86.049819    6.8417677   -89.091516   -3.7967946 -0.084784023   -161.81979            0   -3159.0375   -3159.0375    34921.916     28.28325    25.456805    48.502582      960 
     143            0   -188.86617   0.66814804   -233.89686   -159.66569   -173.03596    20.667061   0.41211745   -159.67652            0   -3159.0394   -3159.0394    34939.433    28.298976    25.458664    48.496403      960 
     144            0    36.044788   0.67495704   -180.89491    101.66135    187.36792     53.53974    1.1317891     -155.958            0   -3159.0427   -3159.0427    34916.691    28.308603    25.450872    48.463188      960 
     145            0    328.12736   0.67837501    355.55653    253.00738    375.81818   -9.7144367  -0.21860486   -147.52397            0   -3159.0576   -3159.0576    34890.629    28.279965    25.456798     48.46477      960 
     146            0   -256.79601   0.68518591   -97.156948   -411.38671   -261.84436   -43.429042  -0.89987542   -145.31491            0   -3159.0689   -3159.0689    34948.556    28.281907    25.475574    48.506123      960 
     147            0   -585.43745   0.68863487   -275.72305    -725.2535    -755.3358   -63.104755   -1.2187598   -155.05661            0   -3159.0821   -3159.0821    34984.375    28.276661    25.480885    48.554723      960 
     148            0    94.174823   0.69207692    466.06043    87.718432   -271.25439   -49.412343  -0.96330445   -171.95896            0   -3159.1217   -3159.1217    34923.233    28.256026    25.455111    48.554375      960 
     149            0    31.523413   0.69549704    87.684026    83.624208   -76.737996    9.7166547   0.18688845    -164.9146            0   -3159.1436   -3159.1436    34927.566    28.284664    25.451305    48.518487      960 
     150            0   -75.341273     0.702281   -72.528384   -66.601124   -86.894309    10.263206    0.2013314   -157.39039            0   -3159.1443   -3159.1443    34936.872    28.291532      25.4572    48.508396      960 
     151            0     19.44131   0.70905495   -7.9969292    1.5979852    64.722874    10.030943   0.20134139   -152.33612            0   -3159.1448   -3159.1448     34927.11    28.291758    25.457525    48.493834      960 
     152            0    76.615984   0.71250796    353.84609   -158.59445    34.596317   -75.488581   -1.6123104   -138.11313            0   -3159.1715   -3159.1715    34924.865    28.263121    25.474663    48.507196      960 
     153            0   -241.77097   0.71592689    -202.3106   -294.04819   -228.95413   -5.7100929  -0.12753435   -151.99276            0   -3159.1882   -3159.1882    34956.317    28.291758    25.465432    48.519318      960 
     154            0    138.98703   0.71936607   -24.084493    295.46099     145.5846    62.742107    1.2912963   -168.16423            0   -3159.1985   -3159.1985    34920.608    28.301182    25.439658    48.502705      960 
     155            0    332.03655   0.72283292   -96.577473    742.03261    350.65452    149.90292    3.0837291   -188.27221            0   -3159.2104   -3159.2104    34904.436    28.320629    25.413883    48.496087      960 
     156            0   -195.94964   0.72630095   -803.60283    340.90361   -125.14969    201.79554    3.9667128   -198.53041            0   -3159.2472   -3159.2472    34959.269    28.349267    25.413153    48.524601      960 
     157            0   -81.683722   0.72975087   -406.87877    226.83443   -65.006831    116.56072    2.3341892    -181.6988            0   -3159.2934   -3159.2934    34950.702    28.320629    25.430116    48.529371      960 
     158            0    137.56331   0.73318386    71.246246    225.57913    115.86456    36.459895   0.74641305   -164.27519            0    -3159.301    -3159.301    34929.597    28.291991    25.444518    48.521681      960 
     159            0    -29.61219   0.73998404    -42.75927    -10.02198   -36.055321    16.145741   0.32204177   -158.55505            0   -3159.3021   -3159.3021    34945.558    28.291015    25.453782    48.527859      960 
     160            0    20.208398   0.74680185    69.803641   -31.065234    21.886788   -6.3031102  -0.14456035   -152.14753            0   -3159.3025   -3159.3025    34940.626    28.284102    25.458823    48.523259      960 
     161            0   -283.77463   0.75360894   -232.97542   -472.30572   -146.04276   -30.631514  -0.66599058   -136.20165            0   -3159.3064   -3159.3064    34969.231    28.290406    25.476792    48.517919      960 
     162            0   -42.117717    0.7570529   -8.8512261   -446.26033    328.75841   -66.624719   -1.5661073   -108.39172            0   -3159.3278   -3159.3278    34945.628    28.284962     25.49003    48.469319      960 
     163            0    183.20035   0.76048994    194.31846    23.602192    331.68038   -19.522421  -0.44691544   -137.36197            0   -3159.3446   -3159.3446    34927.011    28.282778    25.464256    48.496274      960 
     164            0   -111.07295   0.76727605   -117.39425   -179.95465   -35.869958  -0.12789015 -0.016263965    -149.2331            0   -3159.3479   -3159.3479    34956.436    28.291648    25.462516    48.525228      960 
     165            0   -60.932865   0.77408695   -66.975685   0.47872931   -116.30164    23.212704   0.45927538   -165.71294            0   -3159.3492   -3159.3492    34953.182    28.291097    25.450308     48.54493      960 
     166            0    49.892999   0.78087401    50.131422    96.283927    3.2636466    19.410589   0.38705348   -163.64559            0   -3159.3496   -3159.3496     34942.35    28.287874    25.449329    48.537283      960 
     167            0    9.4691939    0.7876699    12.571952   -48.533861     64.36949    0.2503178 -0.0082980923   -150.63464            0   -3159.3504   -3159.3504    34945.151    28.288046    25.459084    48.522281      960 
     168            0   -250.33264   0.79447293   -259.60615   -274.61967    -216.7721    8.5983626    0.1635648   -155.51645            0   -3159.3526   -3159.3526    34970.951     28.29538     25.46148    48.540951      960 
     169            0    -141.8457   0.79791307     -152.875    105.97152   -378.63362    57.976648    1.0904397   -190.86913            0   -3159.3696   -3159.3696    34965.428    28.294223    25.435706    48.584449      960 
     170            0    277.40598   0.80471706    286.51161    403.22741    142.47892    32.491748   0.65222421   -174.46926            0   -3159.3764   -3159.3764    34923.968    28.282013    25.437563    48.544245      960 
     171            0    197.57839   0.80814886    205.24836    39.866885    347.61993   -18.140269  -0.41817477   -138.78332            0   -3159.3835   -3159.3835    34928.977    28.282531    25.463337    48.501178      960 
     172            0   -80.140869   0.81493592   -83.721895   -211.91778    55.217072   -11.362633  -0.26025097   -142.66717            0   -3159.3859   -3159.3859    34956.095    28.290151    25.466818    48.519125      960 
     173            0   -33.714063     0.821738   -32.386234    4.4074649    -73.16342    18.390294   0.36345798   -164.38323            0   -3159.3882   -3159.3882    34953.702    28.289492    25.451284    48.546545      960 
     174            0    59.792381   0.82852888    63.043652    91.306097    25.027395    16.793545    0.3340232   -163.26546            0   -3159.3884   -3159.3884    34944.607    28.287094    25.449937    48.540598      960 
     175            0    20.194982   0.83532906    6.0112147   -80.378902    134.95263   -4.2066005  -0.10594579   -145.90748            0     -3159.39     -3159.39    34946.916    28.288839    25.462034    48.517748      960 
     176            0   -366.18122   0.84210801   -368.53394   -449.82126   -280.18846   -2.3510052 -0.064048181   -150.43224            0   -3159.3946   -3159.3946    34985.484    28.296972    25.468427    48.545144      960 
     177            0   -282.65948   0.84553885   -193.07224   -170.08966   -484.81655    19.084659    0.3512433   -180.88484            0   -3159.4224   -3159.4224    34983.245    28.287904    25.449483    48.593744      960 
     178            0    71.865703   0.85233188    140.48965    163.00423   -87.896773    18.038565   0.34719253   -175.65264            0   -3159.4264   -3159.4264    34948.345    28.281285    25.444092    48.566915      960 
     179            0    17.894437   0.85917091   -0.4695128    11.251922    42.900903    13.902139   0.27655565   -159.33543            0   -3159.4283   -3159.4283     34951.51    28.289518    25.453557    48.539121      960 
     180            0   -70.112751   0.86595988   -73.591595   -82.000306   -54.746353    10.785544   0.20879325   -159.69884            0   -3159.4286   -3159.4286    34960.175    28.290282    25.455802    48.545563      960 
     181            0   -2.5416365   0.87276602    149.98943    4.6017407   -162.21608   -9.7951931  -0.21417517   -169.20946            0   -3159.4306   -3159.4306    34955.869    28.275394    25.452731       48.571      960 
     182            0    514.29049   0.87620306    481.66575    695.03311     366.1726    49.945537    1.0229975   -183.00547            0   -3159.4589   -3159.4589    34909.261    28.279812    25.426957    48.547821      960 
     183            0   -86.281281   0.87965703   -288.95254    104.80905   -74.700352    79.287086    1.6015378   -180.63742            0   -3159.4944   -3159.4944    34968.424     28.30845     25.43779    48.560214      960 
     184            0    32.671899   0.88309097    109.71915   -98.785063    87.081606   -21.665908   -0.4868907   -152.75406            0   -3159.5191   -3159.5191    34958.247    28.279812    25.462671    48.547756      960 
     185            0   -305.29663   0.88653803   -58.461462   -477.10485   -380.32356   -53.487627   -1.1139909   -160.03283            0   -3159.5624   -3159.5624    34997.594    28.272633    25.472304    48.596356      960 
     186            0    177.46471   0.88998294    581.86061    160.43485   -209.90133   -48.131359  -0.97189098   -194.53438            0   -3159.6652   -3159.6652     34967.35    28.247902    25.447124    48.644956      960 
     187            0   -35.185318    0.8934269    91.092302    92.718359   -289.36662    23.034562   0.41655667    -209.7567            0   -3159.7509   -3159.7509    34998.382    28.276539    25.437291    48.657619      960 
     188            0    52.503293   0.90024185    48.029944    67.749389    41.730545      22.7372   0.44476121   -188.26565            0   -3159.7546   -3159.7546    34986.945    28.285156    25.445188     48.61181      960 
     189            0   -7.5781495     0.907058   -16.859082   -3.1707118   -2.7046547    21.605098   0.42044716   -186.89945            0   -3159.7547   -3159.7547    34992.601    28.286924    25.447337    48.612522      960 
     190            0    2.4115324   0.91388488    75.990543   -75.483775     6.727829   -5.9169142  -0.15837066   -180.22129            0   -3159.7552   -3159.7552     34991.62    28.279156    25.454162    48.611474      960 
     191            0    211.18431   0.91733193    206.79051    229.12354    197.63887    28.961364   0.55939343    -218.1894            0   -3159.8552   -3159.8552    34981.255    28.280958    25.438302    48.624276      960 
     192            0   -148.28178    0.9241519   -166.02594   -149.20843   -129.61098    28.338795   0.53137611   -217.87759            0   -3159.8591   -3159.8591    35016.224    28.290431    25.447065    48.639829      960 
     193            0   -364.06467   0.93097091   -379.53864   -380.79286   -331.86252    25.805978   0.46923034   -218.70426            0   -3159.8606   -3159.8606    35037.723    28.295211      25.4526     48.65089      960 
     194            0   -144.40551   0.93440986    53.851203    -234.8131   -252.25462   -14.225315  -0.36574187   -249.43375            0   -3159.9226   -3159.9226     35027.92    28.270808     25.45079    48.682721      960 
     195            0    78.927844   0.94123507    193.09393    39.115947    4.5736595    7.4491113   0.07621833   -250.96193            0   -3159.9246   -3159.9246    35005.809    28.273065    25.441936    48.665039      960 
     196            0   -1.3314861   0.94807887   -2.5851946  -0.11519322   -1.2940704    32.690113   0.60246871   -251.17656            0   -3159.9254   -3159.9254    35012.815    28.285059     25.44006    48.657724      960 
     197            0    66.514972   0.95492387    41.683362    64.446702     93.41485    35.695936   0.67432813   -249.30163            0   -3159.9256   -3159.9256    35005.962    28.285469    25.438935    48.649649      960 
     198            0   -35.794434   0.96176195   -141.48324     -69.1705    103.27044    42.947345   0.84136114   -241.78416            0   -3159.9265   -3159.9265    35014.929    28.294639    25.443505    48.637603      960 
     199            0    194.49367   0.96521091    222.32052   -26.928237    388.08871   -3.0712114  -0.20304912   -221.83216            0   -3159.9548   -3159.9548    35000.294    28.275713    25.449538    48.638281      960 
     200            0   -137.34107   0.97203493   -117.94794   -285.37803   -8.6972462    13.250641   0.14616315   -232.71703            0   -3159.9591   -3159.9591    35034.731    28.284424    25.449164    48.671858      960 
     201            0    -32.95525   0.97889185    -20.90694   -17.371615   -60.587195    44.772986   0.78488434   -253.73895            0   -3159.9614   -3159.9614    35027.524    28.283317    25.432379    48.695868      960 
     202            0    11.427921   0.98573494    20.123407    23.303629   -9.1432732    44.565085   0.78596387    -252.8665            0   -3159.9614   -3159.9614    35023.102    28.282549    25.431804    48.692144      960 
     203            0  -0.91566233   0.99257898    -6.000943   -5.1274955    8.3814514    43.799354   0.77644937    -250.1208            0   -3159.9615   -3159.9615    35023.923    28.283946    25.433435    48.687757      960 
     204            0    87.884469   0.99941707    214.31353   -51.701898    101.04178  -0.36552301    -0.158564   -241.20879            0   -3159.9635   -3159.9635    35013.837    28.270067    25.443085    48.679163      960 
     205            0   -168.15903    1.0062389   -28.736753   -347.91317   -127.82718   -8.3687397  -0.33513926   -242.32182            0   -3159.9661   -3159.9661    35036.703    28.274963    25.451516    48.686386      960 
     206            0  -0.31605191     1.013098   0.90635748    -7.465757    5.6112438    46.174031   0.78684586   -270.17738            0    -3159.973    -3159.973    35016.188    28.284458    25.432702    48.677526      960 
     207            0  -0.31605191     1.128608   0.90635748    -7.465757    5.6112438    46.174031   0.78684586   -270.17738            0    -3159.973    -3159.973    35016.188    28.284458    25.432702    48.677526      960 
Loop time of 1.12863 on 1 procs for 207 steps with 960 atoms

99.9% CPU use with 1 MPI tasks x no OpenMP threads

Minimization stats:
  Stopping criterion = linesearch alpha is zero
  Energy initial, next-to-last, final = 
        -3151.62121857     -3159.97301445     -3159.97301445
  Force two-norm initial, final = 419.924 0.281831
  Force max component initial, final = 256.373 0.165357
  Final line search alpha, max atom move = 9.22779e-08 1.52588e-08
  Iterations, force evaluations = 207 328

MPI task timing breakdown:
Section |  min time  |  avg time  |  max time  |%varavg| %total
---------------------------------------------------------------
Pair    | 1.0806     | 1.0806     | 1.0806     |   0.0 | 95.75
Neigh   | 0.011006   | 0.011006   | 0.011006   |   0.0 |  0.98
Comm    | 0.0038264  | 0.0038264  | 0.0038264  |   0.0 |  0.34
Output  | 0.0065167  | 0.0065167  | 0.0065167  |   0.0 |  0.58
Modify  | 0          | 0          | 0          |   0.0 |  0.00
Other   |            | 0.02664    |            |       |  2.36

Nlocal:    960 ave 960 max 960 min
Histogram: 1 0 0 0 0 0 0 0 0 0
Nghost:    1471 ave 1471 max 1471 min
Histogram: 1 0 0 0 0 0 0 0 0 0
Neighs:    55260 ave 55260 max 55260 min
Histogram: 1 0 0 0 0 0 0 0 0 0

Total # of neighbors = 55260
Ave neighs/atom = 57.5625
Neighbor list builds = 1
Dangerous builds = 0
#minimize ${etol} ${ftol} ${maxiter} ${maxeval}
#minimize ${etol} ${ftol} ${maxiter} ${maxeval}

variable tmp equal pxx
variable pxx0 equal ${tmp}
variable pxx0 equal 0.906357478391855
variable tmp equal pyy
variable pyy0 equal ${tmp}
variable pyy0 equal -7.46575701643664
variable tmp equal pzz
variable pzz0 equal ${tmp}
variable pzz0 equal 5.61124379898985
variable tmp equal pyz
variable pyz0 equal ${tmp}
variable pyz0 equal -270.177375755888
variable tmp equal pxz
variable pxz0 equal ${tmp}
variable pxz0 equal 0.786845860725145
variable tmp equal pxy
variable pxy0 equal ${tmp}
variable pxy0 equal 46.1740309412943

variable tmp equal lx
variable lx0 equal ${tmp}
variable lx0 equal 28.2844581521485
variable tmp equal ly
variable ly0 equal ${tmp}
variable ly0 equal 25.4327020254627
variable tmp equal lz
variable lz0 equal ${tmp}
variable lz0 equal 48.6775257124705

# These formulas define the derivatives w.r.t. strain components
# Constants uses $, variables use v_
variable d1 equal -(v_pxx1-${pxx0})/(v_delta/v_len0)*${cfac}
variable d1 equal -(v_pxx1-0.906357478391855)/(v_delta/v_len0)*${cfac}
variable d1 equal -(v_pxx1-0.906357478391855)/(v_delta/v_len0)*0.0001
variable d2 equal -(v_pyy1-${pyy0})/(v_delta/v_len0)*${cfac}
variable d2 equal -(v_pyy1--7.46575701643664)/(v_delta/v_len0)*${cfac}
variable d2 equal -(v_pyy1--7.46575701643664)/(v_delta/v_len0)*0.0001
variable d3 equal -(v_pzz1-${pzz0})/(v_delta/v_len0)*${cfac}
variable d3 equal -(v_pzz1-5.61124379898985)/(v_delta/v_len0)*${cfac}
variable d3 equal -(v_pzz1-5.61124379898985)/(v_delta/v_len0)*0.0001
variable d4 equal -(v_pyz1-${pyz0})/(v_delta/v_len0)*${cfac}
variable d4 equal -(v_pyz1--270.177375755888)/(v_delta/v_len0)*${cfac}
variable d4 equal -(v_pyz1--270.177375755888)/(v_delta/v_len0)*0.0001
variable d5 equal -(v_pxz1-${pxz0})/(v_delta/v_len0)*${cfac}
variable d5 equal -(v_pxz1-0.786845860725145)/(v_delta/v_len0)*${cfac}
variable d5 equal -(v_pxz1-0.786845860725145)/(v_delta/v_len0)*0.0001
variable d6 equal -(v_pxy1-${pxy0})/(v_delta/v_len0)*${cfac}
variable d6 equal -(v_pxy1-46.1740309412943)/(v_delta/v_len0)*${cfac}
variable d6 equal -(v_pxy1-46.1740309412943)/(v_delta/v_len0)*0.0001

# Write restart
unfix 3
minimize ${etol} ${ftol} ${maxiter} ${maxeval}
minimize 0 ${ftol} ${maxiter} ${maxeval}
minimize 0 1e-10 ${maxiter} ${maxeval}
minimize 0 1e-10 1000 ${maxeval}
minimize 0 1e-10 1000 10000
Memory usage per processor = 3.38271 Mbytes
Step Temp Press CPU Pxx Pyy Pzz Pxy Pxz Pyz KinEng PotEng TotEng Volume Lx Ly Lz Atoms 
     207            0  -0.31605191            0   0.90635748    -7.465757    5.6112438    46.174031   0.78684586   -270.17738            0    -3159.973    -3159.973    35016.188    28.284458    25.432702    48.677526      960 
     208            0   -6.5496298 0.0067620277   -6.0531823   -33.332005    19.736298    46.141586   0.77058153    -257.8337            0   -3159.9766   -3159.9766    35016.188    28.284458    25.432702    48.677526      960 
     209            0   -61.963649  0.013535023   -42.225429   -139.40392   -4.2615977    46.020699    0.6478648    -250.2972            0    -3159.984    -3159.984    35016.188    28.284458    25.432702    48.677526      960 
     210            0    -72.87229  0.020301819   -48.506607   -169.82873  -0.28153055    45.997984   0.60236299   -241.56142            0   -3159.9863   -3159.9863    35016.188    28.284458    25.432702    48.677526      960 
     211            0   -59.953666   0.02707696   -41.942535   -164.42761    26.509148    46.018387   0.58726716    -230.5855            0   -3159.9867   -3159.9867    35016.188    28.284458    25.432702    48.677526      960 
     212            0   -58.719511  0.033853054    -41.15107   -165.23637    30.228911    46.065891   0.54833714   -211.60698            0   -3159.9871   -3159.9871    35016.188    28.284458    25.432702    48.677526      960 
     213            0     -85.3138  0.040614843   -56.988314   -193.37592   -5.5771635    46.206407   0.39364241   -144.86802            0   -3159.9883   -3159.9883    35016.188    28.284458    25.432702    48.677526      960 
     214            0   -90.651878  0.047386885   -60.929865   -203.24435   -7.7814153    46.176967   0.33925405   -122.59198            0   -3159.9887   -3159.9887    35016.188    28.284458    25.432702    48.677526      960 
     215            0   -87.926618  0.054153919   -58.759093   -209.07282    4.0520626    46.050532   0.25678618   -90.146848            0   -3159.9893   -3159.9893    35016.188    28.284458    25.432702    48.677526      960 
     216            0   -90.454386  0.060926914   -58.459707   -215.76085    2.8574008    45.866208   0.12610875   -49.326121            0   -3159.9902   -3159.9902    35016.188    28.284458    25.432702    48.677526      960 
     217            0   -95.297208  0.067697048   -62.805012   -218.74032   -4.3462957     45.81776  0.041538189   -21.234168            0   -3159.9908   -3159.9908    35016.188    28.284458    25.432702    48.677526      960 
     218            0   -92.687529   0.07447505    -62.47581   -213.17291   -2.4138702    45.865005   0.02718341   -9.7780508            0   -3159.9911   -3159.9911    35016.188    28.284458    25.432702    48.677526      960 
     219            0   -94.784655  0.081254005   -64.278832   -213.72009   -6.3550413    45.956328  0.051265245   -4.4291716            0   -3159.9913   -3159.9913    35016.188    28.284458    25.432702    48.677526      960 
     220            0   -96.645153  0.088018894   -65.460277   -217.46878   -7.0063997    46.007245  0.080669846  -0.62703857            0   -3159.9914   -3159.9914    35016.188    28.284458    25.432702    48.677526      960 
     221            0   -96.421448  0.094794989   -65.375241    -217.8743   -6.0147975    46.019332  0.094839242  -0.26515659            0   -3159.9914   -3159.9914    35016.188    28.284458    25.432702    48.677526      960 
     222            0   -96.015874   0.10156703   -65.136194   -217.72206   -5.1893664    46.017181   0.10208785  -0.36591545            0   -3159.9914   -3159.9914    35016.188    28.284458    25.432702    48.677526      960 
     223            0   -95.612709   0.10833788   -64.820152   -217.75249   -4.2654833    46.013118   0.10971857   -0.1137263            0   -3159.9914   -3159.9914    35016.188    28.284458    25.432702    48.677526      960 
     224            0   -95.412263   0.11510897   -64.641112   -217.63498    -3.960698    46.012275   0.11296178 -0.044121857            0   -3159.9914   -3159.9914    35016.188    28.284458    25.432702    48.677526      960 
     225            0   -95.061052   0.12188697    -64.38846   -217.33353   -3.4611634    46.013387   0.11710771 -0.057812459            0   -3159.9914   -3159.9914    35016.188    28.284458    25.432702    48.677526      960 
     226            0   -94.473995   0.12865591   -63.958682   -216.86696   -2.5963401    46.015981   0.12213861  -0.01078323            0   -3159.9914   -3159.9914    35016.188    28.284458    25.432702    48.677526      960 
     227            0   -93.999918   0.13542986   -63.604983    -216.4772   -1.9175668    46.017892   0.12401664  -0.01009293            0   -3159.9914   -3159.9914    35016.188    28.284458    25.432702    48.677526      960 
     228            0   -93.138385   0.14220691   -62.979784   -215.81062  -0.62475119    46.020577   0.12443511  0.040849282            0   -3159.9914   -3159.9914    35016.188    28.284458    25.432702    48.677526      960 
     229            0   -92.833748   0.14897203    -62.75945   -215.56766   -0.1741328     46.02059   0.12159234  0.053715889            0   -3159.9914   -3159.9914    35016.188    28.284458    25.432702    48.677526      960 
     230            0   -92.725332   0.15574694   -62.673415   -215.48765 -0.014932499    46.020046   0.11824959  0.075555531            0   -3159.9914   -3159.9914    35016.188    28.284458    25.432702    48.677526      960 
     231            0   -92.721039   0.16251683   -62.666355   -215.49186 -0.0048994609    46.019337   0.11441861  0.085669673            0   -3159.9914   -3159.9914    35016.188    28.284458    25.432702    48.677526      960 
     232            0   -92.719961   0.16930199   -62.666195   -215.49519 0.0015030035    46.018812   0.11097861  0.089940509            0   -3159.9914   -3159.9914    35016.188    28.284458    25.432702    48.677526      960 
     233            0   -92.727588   0.17606997    -62.66993   -215.50662 -0.0062087964    46.017971   0.10374875  0.091768908            0   -3159.9914   -3159.9914    35016.188    28.284458    25.432702    48.677526      960 
     234            0   -92.735071   0.18284392   -62.673257   -215.51778 -0.014173986     46.01699  0.093477373  0.090921121            0   -3159.9914   -3159.9914    35016.188    28.284458    25.432702    48.677526      960 
     235            0    -92.72987   0.18962002   -62.671143   -215.51704 -0.0014314064     46.01615  0.081559056  0.088808148            0   -3159.9914   -3159.9914    35016.188    28.284458    25.432702    48.677526      960 
     236            0   -92.722151   0.19638705   -62.665758   -215.51176  0.011064359    46.015757  0.069260486   0.08402761            0   -3159.9914   -3159.9914    35016.188    28.284458    25.432702    48.677526      960 
     237            0    -92.71989   0.20316505    -62.66324   -215.50753  0.011100383    46.015722  0.058631524  0.075154273            0   -3159.9914   -3159.9914    35016.188    28.284458    25.432702    48.677526      960 
     238            0    -92.71422    0.2099359   -62.660311   -215.49992  0.017568234    46.015679  0.043835247  0.062175229            0   -3159.9914   -3159.9914    35016.188    28.284458    25.432702    48.677526      960 
     239            0   -92.710816    0.2167089   -62.658686   -215.49076  0.016992935    46.015423  0.026052815  0.040153448            0   -3159.9914   -3159.9914    35016.188    28.284458    25.432702    48.677526      960 
     240            0   -92.716386   0.22347903   -62.662046   -215.49142 0.0043128932     46.01509  0.012929975  0.021100391            0   -3159.9914   -3159.9914    35016.188    28.284458    25.432702    48.677526      960 
     241            0   -92.722316   0.23025489   -62.666418   -215.49485 -0.0056811917    46.014781 0.0038018563 0.0055887737            0   -3159.9914   -3159.9914    35016.188    28.284458    25.432702    48.677526      960 
     242            0   -92.719282   0.23702502   -62.664546   -215.49212 -0.0011775455     46.01475 0.0020436411 0.0029035416            0   -3159.9914   -3159.9914    35016.188    28.284458    25.432702    48.677526      960 
     243            0   -92.717293   0.24379802   -62.662975   -215.48975 0.00084390368    46.014803 0.00099286079 -0.0012274504            0   -3159.9914   -3159.9914    35016.188    28.284458    25.432702    48.677526      960 
     244            0   -92.717465   0.25057292   -62.663242   -215.49058 0.0014258456    46.014886 0.0011532613 -0.0017708586            0   -3159.9914   -3159.9914    35016.188    28.284458    25.432702    48.677526      960 
     245            0   -92.718179   0.25734401   -62.663725   -215.49153 0.00071877179     46.01496 0.0013487513 -0.0024998232            0   -3159.9914   -3159.9914    35016.188    28.284458    25.432702    48.677526      960 
     246            0   -92.718471   0.26411486   -62.663933   -215.49189 0.00041107264    46.014994 0.0014907589 -0.0025694132            0   -3159.9914   -3159.9914    35016.188    28.284458    25.432702    48.677526      960 
     247            0   -92.718673   0.27088284   -62.664093   -215.49222 0.00028984674    46.015002 0.0015581603 -0.0023891889            0   -3159.9914   -3159.9914    35016.188    28.284458    25.432702    48.677526      960 
     248            0   -92.718959   0.27765894   -62.664265   -215.49269 8.2682697e-05    46.015013 0.0016475956 -0.0019807736            0   -3159.9914   -3159.9914    35016.188    28.284458    25.432702    48.677526      960 
     249            0   -92.718985   0.28442597   -62.664268   -215.49276 7.2355403e-05     46.01502 0.0016567992 -0.0018747272            0   -3159.9914   -3159.9914    35016.188    28.284458    25.432702    48.677526      960 
     250            0   -92.718985   0.29119992   -62.664271   -215.49283 0.00014269024    46.015028 0.0016361282 -0.0017404701            0   -3159.9914   -3159.9914    35016.188    28.284458    25.432702    48.677526      960 
     251            0   -92.718954   0.29797482   -62.664243   -215.49281 0.00019368468    46.015035 0.0015863968 -0.0015960704            0   -3159.9914   -3159.9914    35016.188    28.284458    25.432702    48.677526      960 
     252            0   -92.718924   0.30474186   -62.664203   -215.49277 0.00020159545    46.015042 0.0014871277 -0.001375448            0   -3159.9914   -3159.9914    35016.188    28.284458    25.432702    48.677526      960 
     253            0    -92.71895   0.31151605   -62.664202   -215.49278 0.00013350134    46.015045 0.0012864889 -0.00099532959            0   -3159.9914   -3159.9914    35016.188    28.284458    25.432702    48.677526      960 
     254            0   -92.719143   0.31828904   -62.664356   -215.49289 -0.00018134949    46.015019 0.00079192647 -0.00051446337            0   -3159.9914   -3159.9914    35016.188    28.284458    25.432702    48.677526      960 
     255            0   -92.719258   0.32505894   -62.664441     -215.493 -0.00033121539    46.015003 0.00049180162 -0.00029586924            0   -3159.9914   -3159.9914    35016.188    28.284458    25.432702    48.677526      960 
     256            0   -92.719259   0.33182883   -62.664436   -215.49305 -0.00028764685    46.014998 0.00029607318 -0.0001700834            0   -3159.9914   -3159.9914    35016.188    28.284458    25.432702    48.677526      960 
     257            0   -92.719194   0.33860588   -62.664412   -215.49309 -7.9048144e-05    46.014996 7.3047958e-05 -6.1301898e-05            0   -3159.9914   -3159.9914    35016.188    28.284458    25.432702    48.677526      960 
     258            0   -92.719198   0.34538102   -62.664418   -215.49311 -7.0801952e-05    46.014996 3.7777695e-05 -4.243906e-05            0   -3159.9914   -3159.9914    35016.188    28.284458    25.432702    48.677526      960 
     259            0   -92.719225   0.35214901    -62.66443   -215.49314 -0.00010622316    46.014996 9.2135777e-06 -2.1137909e-05            0   -3159.9914   -3159.9914    35016.188    28.284458    25.432702    48.677526      960 
     260            0   -92.719234   0.35892487   -62.664432   -215.49316 -0.00011172329    46.014996 1.9991023e-06 -3.4317539e-06            0   -3159.9914   -3159.9914    35016.188    28.284458    25.432702    48.677526      960 
     261            0   -92.719229   0.36569691   -62.664428   -215.49316 -0.00010243867    46.014997 1.0102662e-06 -3.0844787e-06            0   -3159.9914   -3159.9914    35016.188    28.284458    25.432702    48.677526      960 
     262            0   -92.719221    0.3724699   -62.664423   -215.49315 -9.0462247e-05    46.014997 8.2009079e-07 -2.5511773e-06            0   -3159.9914   -3159.9914    35016.188    28.284458    25.432702    48.677526      960 
     263            0   -92.719208   0.37923884   -62.664413   -215.49314 -7.205724e-05    46.014997 8.4856667e-07 -2.3413296e-06            0   -3159.9914   -3159.9914    35016.188    28.284458    25.432702    48.677526      960 
     264            0   -92.719183   0.38601589   -62.664394   -215.49312 -3.5472017e-05    46.014997 1.0656687e-06 -1.0491091e-06            0   -3159.9914   -3159.9914    35016.188    28.284458    25.432702    48.677526      960 
     265            0    -92.71917   0.39278603   -62.664386   -215.49311 -1.6497957e-05    46.014997 8.9428595e-07 -5.2653744e-07            0   -3159.9914   -3159.9914    35016.188    28.284458    25.432702    48.677526      960 
     266            0   -92.719162   0.39956188   -62.664379    -215.4931 -4.0446448e-06    46.014997 2.7891692e-07 5.1340467e-07            0   -3159.9914   -3159.9914    35016.188    28.284458    25.432702    48.677526      960 
     267            0   -92.719161   0.40633583   -62.664378    -215.4931 -2.8534018e-06    46.014997 1.090488e-07 5.6008913e-07            0   -3159.9914   -3159.9914    35016.188    28.284458    25.432702    48.677526      960 
     268            0    -92.71916   0.41311502   -62.664378    -215.4931 -8.9525419e-07    46.014997 1.9811229e-08 1.0287386e-06            0   -3159.9914   -3159.9914    35016.188    28.284458    25.432702    48.677526      960 
     269            0    -92.71916   0.41988897   -62.664377    -215.4931 -3.9004156e-07    46.014997 2.3115799e-08 1.1760162e-06            0   -3159.9914   -3159.9914    35016.188    28.284458    25.432702    48.677526      960 
     270            0    -92.71916   0.42665696   -62.664377    -215.4931 -1.5310945e-07    46.014997 4.6550013e-08 1.3445145e-06            0   -3159.9914   -3159.9914    35016.188    28.284458    25.432702    48.677526      960 
     271            0    -92.71916   0.43343282   -62.664377    -215.4931 -1.0559112e-07    46.014997 5.0084594e-08 1.3776682e-06            0   -3159.9914   -3159.9914    35016.188    28.284458    25.432702    48.677526      960 
     272            0    -92.71916   0.44020104   -62.664377    -215.4931 -4.0525928e-08    46.014997 4.198236e-08 1.4524196e-06            0   -3159.9914   -3159.9914    35016.188    28.284458    25.432702    48.677526      960 
     273            0    -92.71916   0.44697905   -62.664377    -215.4931 5.5164418e-08    46.014997 4.3007767e-08 1.484592e-06            0   -3159.9914   -3159.9914    35016.188    28.284458    25.432702    48.677526      960 
     274            0    -92.71916    0.4537549   -62.664377    -215.4931 3.330329e-08    46.014997 4.5553063e-08 1.4615325e-06            0   -3159.9914   -3159.9914    35016.188    28.284458    25.432702    48.677526      960 
     275            0    -92.71916   0.46052003   -62.664377    -215.4931 -5.9731298e-09    46.014997 4.4870075e-08 1.4000752e-06            0   -3159.9914   -3159.9914    35016.188    28.284458    25.432702    48.677526      960 
     276            0    -92.71916   0.46729493   -62.664377    -215.4931 -4.1708757e-08    46.014997 3.3500874e-08 1.249005e-06            0   -3159.9914   -3159.9914    35016.188    28.284458    25.432702    48.677526      960 
     277            0    -92.71916   0.47406697   -62.664377    -215.4931 -9.303346e-08    46.014997 1.040317e-08 8.9871438e-07            0   -3159.9914   -3159.9914    35016.188    28.284458    25.432702    48.677526      960 
     278            0   -92.719159   0.48083901   -62.664377    -215.4931 1.0080372e-08    46.014997 -2.9880035e-09 3.1386899e-07            0   -3159.9914   -3159.9914    35016.188    28.284458    25.432702    48.677526      960 
     279            0   -92.719159   0.48760986   -62.664377    -215.4931 1.0451296e-08    46.014997 -3.0382219e-09 4.4595599e-08            0   -3159.9914   -3159.9914    35016.188    28.284458    25.432702    48.677526      960 
     280            0   -92.719159   0.49772692   -62.664377    -215.4931 -5.1079729e-09    46.014997 -9.9230482e-10 2.4126673e-08            0   -3159.9914   -3159.9914    35016.188    28.284458    25.432702    48.677526      960 
Loop time of 0.497745 on 1 procs for 73 steps with 960 atoms

99.6% CPU use with 1 MPI tasks x no OpenMP threads

Minimization stats:
  Stopping criterion = force tolerance
  Energy initial, next-to-last, final = 
        -3159.97301445     -3159.99138117     -3159.99138117
  Force two-norm initial, final = 0.191552 8.89225e-11
  Force max component initial, final = 0.0113773 6.74058e-12
  Final line search alpha, max atom move = 1 6.74058e-12
  Iterations, force evaluations = 73 146

MPI task timing breakdown:
Section |  min time  |  avg time  |  max time  |%varavg| %total
---------------------------------------------------------------
Pair    | 0.49029    | 0.49029    | 0.49029    |   0.0 | 98.50
Neigh   | 0          | 0          | 0          |   0.0 |  0.00
Comm    | 0.0016918  | 0.0016918  | 0.0016918  |   0.0 |  0.34
Output  | 0.0022776  | 0.0022776  | 0.0022776  |   0.0 |  0.46
Modify  | 0          | 0          | 0          |   0.0 |  0.00
Other   |            | 0.003486   |            |       |  0.70

Nlocal:    960 ave 960 max 960 min
Histogram: 1 0 0 0 0 0 0 0 0 0
Nghost:    1471 ave 1471 max 1471 min
Histogram: 1 0 0 0 0 0 0 0 0 0
Neighs:    55260 ave 55260 max 55260 min
Histogram: 1 0 0 0 0 0 0 0 0 0

Total # of neighbors = 55260
Ave neighs/atom = 57.5625
Neighbor list builds = 0
Dangerous builds = 0
#fix 1a all qeq/comb 1 0.0001 file fq.out
write_restart restart.equil
write_data data0

# uxx Perturbation

variable dir equal 1
include /users/knc6/displace.mod
# NOTE: This script should not need to be
# modified. See in.elastic for more info.
#
# Find which reference length to use

if "${dir} == 1" then    "variable len0 equal ${lx0}"
variable len0 equal ${lx0}
variable len0 equal 28.2844581521485
if "${dir} == 2" then    "variable len0 equal ${ly0}"
if "${dir} == 3" then    "variable len0 equal ${lz0}"
if "${dir} == 4" then    "variable len0 equal ${lz0}"
if "${dir} == 5" then    "variable len0 equal ${lz0}"
if "${dir} == 6" then    "variable len0 equal ${ly0}"

# Reset box and simulation parameters

clear
box tilt large
read_restart restart.equil
  triclinic box = (0.176683 0.17067 -0.0387631) to (28.4611 25.6034 48.6388) with tilt (8.47757 0 0)
  1 by 1 by 1 MPI processor grid
  960 atoms
include potential.mod
pair_style eam/alloy
pair_coeff * * /users/knc6/Software/jarvis/jarvis/lammps/examples/Al03.eam.alloy  Al
neighbor 1.0 nsq
neigh_modify once no every 1 delay 0 check yes
min_style  cg
min_modify           dmax ${dmax} line quadratic
min_modify           dmax 0.01 line quadratic
thermo          1
thermo_style custom step temp press cpu pxx pyy pzz pxy pxz pyz ke pe etotal vol lx ly lz atoms
thermo_modify norm no
# Negative deformation

variable delta equal -${up}*${len0}
variable delta equal -1e-06*${len0}
variable delta equal -1e-06*28.2844581521485
if "${dir} == 1" then    "change_box all x delta 0 ${delta} remap units box"
change_box all x delta 0 ${delta} remap units box
change_box all x delta 0 -2.82844581521485e-05 remap units box
  triclinic box = (0.176683 0.17067 -0.0387631) to (28.4611 25.6034 48.6388) with tilt (8.47757 0 0)
if "${dir} == 2" then    "change_box all y delta 0 ${delta} remap units box"
if "${dir} == 3" then    "change_box all z delta 0 ${delta} remap units box"
if "${dir} == 4" then    "change_box all yz delta ${delta} remap units box"
if "${dir} == 5" then    "change_box all xz delta ${delta} remap units box"
if "${dir} == 6" then    "change_box all xy delta ${delta} remap units box"

# Relax atoms positions

minimize ${etol} ${ftol} ${maxiter} ${maxeval}
minimize 0 ${ftol} ${maxiter} ${maxeval}
minimize 0 1e-10 ${maxiter} ${maxeval}
minimize 0 1e-10 1000 ${maxeval}
minimize 0 1e-10 1000 10000
Neighbor list info ...
  1 neighbor list requests
  update every 1 steps, delay 0 steps, check yes
  max neighbors/atom: 2000, page size: 100000
  master list distance cutoff = 7.72488
  ghost atom cutoff = 7.72488
Memory usage per processor = 3.38391 Mbytes
Step Temp Press CPU Pxx Pyy Pzz Pxy Pxz Pyz KinEng PotEng TotEng Volume Lx Ly Lz Atoms 
     280            0   -92.345205            0   -62.068722    -215.2081   0.24120408    45.964494 -0.001195079 0.0037197481            0   -3159.9914   -3159.9914    35016.153     28.28443    25.432702    48.677526      960 
     281            0   -92.384891 0.0068118572   -62.094852   -215.24127   0.18145151    45.964761 -0.0011302594 -0.0010286466            0   -3159.9914   -3159.9914    35016.153     28.28443    25.432702    48.677526      960 
     282            0   -92.415566  0.013621807   -62.117731   -215.26625   0.13728009    45.965081 -0.0009619006 -0.0028802953            0   -3159.9914   -3159.9914    35016.153     28.28443    25.432702    48.677526      960 
     283            0   -92.448012   0.02043581   -62.142261   -215.29377  0.091992792    45.965309 -0.00066077383 -0.0040008728            0   -3159.9914   -3159.9914    35016.153     28.28443    25.432702    48.677526      960 
     284            0   -92.483521  0.027251959   -62.168374   -215.32356  0.041370281    45.965276 -0.00031956398 -0.0037180668            0   -3159.9914   -3159.9914    35016.153     28.28443    25.432702    48.677526      960 
     285            0   -92.505614  0.034058809   -62.184872   -215.34059 0.0086173103    45.965148 -0.00017151571 -0.0049365849            0   -3159.9914   -3159.9914    35016.153     28.28443    25.432702    48.677526      960 
     286            0   -92.507025  0.040874004   -62.186022   -215.34136 0.0063114641    45.965085 -0.00024662983 -0.0046757952            0   -3159.9914   -3159.9914    35016.153     28.28443    25.432702    48.677526      960 
     287            0   -92.508183  0.047684908    -62.18689   -215.34099 0.0033272575     45.96499 -0.000359513 -0.0050219755            0   -3159.9914   -3159.9914    35016.153     28.28443    25.432702    48.677526      960 
     288            0   -92.508761  0.054494858   -62.187214   -215.34058  0.001513737    45.964934 -0.00040492247 -0.0048511264            0   -3159.9914   -3159.9914    35016.153     28.28443    25.432702    48.677526      960 
     289            0   -92.509098  0.061303854   -62.187412   -215.34026 0.00037572175    45.964898 -0.00042882953 -0.0046196505            0   -3159.9914   -3159.9914    35016.153     28.28443    25.432702    48.677526      960 
     290            0   -92.509148  0.068118811   -62.187494   -215.33994 -3.9642751e-06    45.964895 -0.00043717464 -0.0046979137            0   -3159.9914   -3159.9914    35016.153     28.28443    25.432702    48.677526      960 
     291            0   -92.509152  0.074930906   -62.187538   -215.33977 -0.0001518768    45.964904 -0.00044034266 -0.0047869672            0   -3159.9914   -3159.9914    35016.153     28.28443    25.432702    48.677526      960 
     292            0    -92.50916  0.081735849   -62.187565   -215.33975 -0.00016239421     45.96492 -0.00043743549 -0.0047309691            0   -3159.9914   -3159.9914    35016.153     28.28443    25.432702    48.677526      960 
     293            0    -92.50914  0.088549852   -62.187583   -215.33967 -0.00017098582    45.964934 -0.00042202881 -0.0046376762            0   -3159.9914   -3159.9914    35016.153     28.28443    25.432702    48.677526      960 
     294            0   -92.509165  0.095356941   -62.187611   -215.33966 -0.00022794601    45.964947 -0.00038900695 -0.0042551047            0   -3159.9914   -3159.9914    35016.153     28.28443    25.432702    48.677526      960 
     295            0   -92.509219   0.10310602   -62.187646   -215.33979 -0.00021711927    45.964948 -0.00034691818 -0.0036175409            0   -3159.9914   -3159.9914    35016.153     28.28443    25.432702    48.677526      960 
[...]
Comm    | 0.00069928 | 0.00069928 | 0.00069928 |   0.0 |  0.34
Output  | 0.0009315  | 0.0009315  | 0.0009315  |   0.0 |  0.45
Modify  | 0          | 0          | 0          |   0.0 |  0.00
Other   |            | 0.001445   |            |       |  0.70

Nlocal:    960 ave 960 max 960 min
Histogram: 1 0 0 0 0 0 0 0 0 0
Nghost:    1471 ave 1471 max 1471 min
Histogram: 1 0 0 0 0 0 0 0 0 0
Neighs:    55260 ave 55260 max 55260 min
Histogram: 1 0 0 0 0 0 0 0 0 0

Total # of neighbors = 55260
Ave neighs/atom = 57.5625
Neighbor list builds = 0
Dangerous builds = 0

# Obtain new stress tensor

variable tmp equal pxx
variable pxx1 equal ${tmp}
variable pxx1 equal -62.6643273817245
variable tmp equal pyy
variable pyy1 equal ${tmp}
variable pyy1 equal -215.492821463486
variable tmp equal pzz
variable pzz1 equal ${tmp}
variable pzz1 equal 2.82192561546793e-08
variable tmp equal pxy
variable pxy1 equal ${tmp}
variable pxy1 equal 46.1656147950305
variable tmp equal pxz
variable pxz1 equal ${tmp}
variable pxz1 equal -7.09456902144096e-09
variable tmp equal pyz
variable pyz1 equal ${tmp}
variable pyz1 equal -3.21335383619449e-07

# Compute elastic constant from pressure tensor

variable C1neg equal ${d1}
variable C1neg equal -6357.06848601163
variable C2neg equal ${d2}
variable C2neg equal -20802.7064447049
variable C3neg equal ${d3}
variable C3neg equal -561.124377077059
variable C4neg equal ${d4}
variable C4neg equal 27017.7375434553
variable C5neg equal ${d5}
variable C5neg equal -78.6845867819714
variable C6neg equal ${d6}
variable C6neg equal -0.841614626379794

# Reset box and simulation parameters

clear
box tilt large
read_restart restart.equil
  triclinic box = (0.176683 0.17067 -0.0387631) to (28.4611 25.6034 48.6388) with tilt (8.47757 0 0)
  1 by 1 by 1 MPI processor grid
  960 atoms
include potential.mod
pair_style eam/alloy
pair_coeff * * /users/knc6/Software/jarvis/jarvis/lammps/examples/Al03.eam.alloy  Al
neighbor 1.0 nsq
neigh_modify once no every 1 delay 0 check yes
min_style  cg
min_modify           dmax ${dmax} line quadratic
min_modify           dmax 0.01 line quadratic
thermo          1
thermo_style custom step temp press cpu pxx pyy pzz pxy pxz pyz ke pe etotal vol lx ly lz atoms
thermo_modify norm no

# Positive deformation

variable delta equal ${up}*${len0}
variable delta equal 1e-06*${len0}
variable delta equal 1e-06*25.4327020254627
if "${dir} == 1" then    "change_box all x delta 0 ${delta} remap units box"
if "${dir} == 2" then    "change_box all y delta 0 ${delta} remap units box"
if "${dir} == 3" then    "change_box all z delta 0 ${delta} remap units box"
if "${dir} == 4" then    "change_box all yz delta ${delta} remap units box"
if "${dir} == 5" then    "change_box all xz delta ${delta} remap units box"
if "${dir} == 6" then    "change_box all xy delta ${delta} remap units box"
change_box all xy delta ${delta} remap units box
change_box all xy delta 2.54327020254627e-05 remap units box
  triclinic box = (0.176683 0.17067 -0.0387631) to (28.4611 25.6034 48.6388) with tilt (8.47759 0 0)

# Relax atoms positions

minimize ${etol} ${ftol} ${maxiter} ${maxeval}
minimize 0 ${ftol} ${maxiter} ${maxeval}
minimize 0 1e-10 ${maxiter} ${maxeval}
minimize 0 1e-10 1000 ${maxeval}
minimize 0 1e-10 1000 10000
Neighbor list info ...
  1 neighbor list requests
  update every 1 steps, delay 0 steps, check yes
  max neighbors/atom: 2000, page size: 100000
  master list distance cutoff = 7.72488
  ghost atom cutoff = 7.72488
Memory usage per processor = 3.38391 Mbytes
Step Temp Press CPU Pxx Pyy Pzz Pxy Pxz Pyz KinEng PotEng TotEng Volume Lx Ly Lz Atoms 
     280            0   -92.719338            0   -62.664478   -215.49343 -0.00010203605    45.862912 -0.0036228333 1.1153833e-05            0   -3159.9914   -3159.9914    35016.188    28.284458    25.432702    48.677526      960 
     281            0   -92.719318 0.0067911148   -62.664464   -215.49342 -7.3716989e-05    45.864166 -0.003279911 1.3946736e-05            0   -3159.9914   -3159.9914    35016.188    28.284458    25.432702    48.677526      960 
     282            0   -92.719324   0.01357913   -62.664467   -215.49343 -7.8969193e-05    45.864284 -0.0027588959 1.1611303e-05            0   -3159.9914   -3159.9914    35016.188    28.284458    25.432702    48.677526      960 
     283            0   -92.719296  0.020375013   -62.664446    -215.4934 -4.4007884e-05     45.86432 -0.0024211447 1.5910522e-05            0   -3159.9914   -3159.9914    35016.188    28.284458    25.432702    48.677526      960 
     284            0    -92.71933  0.027166128   -62.664474   -215.49344 -7.8090817e-05    45.864331 -0.0021961235 7.6435434e-07            0   -3159.9914   -3159.9914    35016.188    28.284458    25.432702    48.677526      960 
     285            0   -92.719304  0.033961058    -62.66445   -215.49341 -4.9979037e-05    45.864342 -0.0019204929 1.5405217e-05            0   -3159.9914   -3159.9914    35016.188    28.284458    25.432702    48.677526      960 
     286            0   -92.719265  0.040747166   -62.664427   -215.49337 -2.5265595e-06    45.864348 -0.001710114 2.3705366e-06            0   -3159.9914   -3159.9914    35016.188    28.284458    25.432702    48.677526      960 
     287            0   -92.719276  0.047540188   -62.664434   -215.49339 -6.9457596e-06    45.864351 -0.0015856234 1.4051168e-05            0   -3159.9914   -3159.9914    35016.188    28.284458    25.432702    48.677526      960 
     288            0    -92.71931  0.054334164    -62.66445   -215.49342 -6.2655805e-05    45.864354 -0.0014398627 5.3658364e-06            0   -3159.9914   -3159.9914    35016.188    28.284458    25.432702    48.677526      960 
     289            0   -92.719266  0.061120987   -62.664427   -215.49338 7.1076094e-06    45.864357 -0.0012698023 9.1738188e-06            0   -3159.9914   -3159.9914    35016.188    28.284458    25.432702    48.677526      960 
     290            0   -92.719208  0.067913055    -62.66439   -215.49333 9.6247918e-05    45.864364 -0.00087602443 2.0511366e-05            0   -3159.9914   -3159.9914    35016.188    28.284458    25.432702    48.677526      960 
     291            0   -92.719251   0.07470417   -62.664405   -215.49336 1.2128061e-05    45.864372 -0.00038498132  8.28418e-07            0   -3159.9914   -3159.9914    35016.188    28.284458    25.432702    48.677526      960 
     292            0   -92.719224  0.081495047     -62.6644   -215.49335 7.5135852e-05    45.864377 -7.1508236e-05 5.9386049e-06            0   -3159.9914   -3159.9914    35016.188    28.284458    25.432702    48.677526      960 
     293            0   -92.719235  0.088282108     -62.6644   -215.49335 4.9910383e-05    45.864378 -1.0319043e-05 3.7802817e-06            0   -3159.9914   -3159.9914    35016.188    28.284458    25.432702    48.677526      960 
     294            0   -92.719231  0.095077991   -62.664398   -215.49335 5.431272e-05    45.864378 -2.8444809e-06 2.3764757e-06            0   -3159.9914   -3159.9914    35016.188    28.284458    25.432702    48.677526      960 
     295            0    -92.71923   0.10187221   -62.664399   -215.49335 5.8763692e-05    45.864378 -2.455212e-07 4.5219819e-06            0   -3159.9914   -3159.9914    35016.188    28.284458    25.432702    48.677526      960 
     296            0   -92.719239   0.10865903   -62.664404   -215.49336 4.5181779e-05    45.864379 -3.2392417e-07 2.4509091e-06            0   -3159.9914   -3159.9914    35016.188    28.284458    25.432702    48.677526      960 
     297            0   -92.719243   0.11545515   -62.664408   -215.49336 3.8010951e-05    45.864379 -5.4120034e-07 1.9515262e-06            0   -3159.9914   -3159.9914    35016.188    28.284458    25.432702    48.677526      960 
     298            0   -92.719245   0.12224412   -62.664409   -215.49336 3.6189222e-05    45.864379 -6.0308636e-07 2.5241841e-06            0   -3159.9914   -3159.9914    35016.188    28.284458    25.432702    48.677526      960 
     299            0   -92.719245   0.12903309   -62.664409   -215.49336 3.536845e-05    45.864379 -5.5591801e-07 2.2996897e-06            0   -3159.9914   -3159.9914    35016.188    28.284458    25.432702    48.677526      960 
     300            0   -92.719248   0.13582206   -62.664412   -215.49336 3.1346381e-05    45.864379 -4.0485421e-07 1.8386778e-06            0   -3159.9914   -3159.9914    35016.188    28.284458    25.432702    48.677526      960 
     301            0   -92.719259   0.14261913   -62.664419   -215.49337 1.5435973e-05    45.864379 -4.0767681e-08 1.448625e-06            0   -3159.9914   -3159.9914    35016.188    28.284458    25.432702    48.677526      960 
     302            0   -92.719264   0.14940619   -62.664423   -215.49338 8.1096852e-06    45.864379 2.6259262e-08 1.0057182e-06            0   -3159.9914   -3159.9914    35016.188    28.284458    25.432702    48.677526      960 
     303            0   -92.719268   0.15620899   -62.664426   -215.49338 1.9571264e-06    45.864379 2.6029241e-08 4.4676828e-07            0   -3159.9914   -3159.9914    35016.188    28.284458    25.432702    48.677526      960 
     304            0   -92.719269   0.16300416   -62.664427   -215.49338 2.2583297e-07    45.864379 7.9572441e-09 4.4951145e-07            0   -3159.9914   -3159.9914    35016.188    28.284458    25.432702    48.677526      960 
     305            0   -92.719269   0.16979408   -62.664427   -215.49338 1.853918e-07    45.864379 1.8337235e-09 4.8707871e-07            0   -3159.9914   -3159.9914    35016.188    28.284458    25.432702    48.677526      960 
     306            0   -92.719269    0.1765852   -62.664427   -215.49338 7.6380307e-09    45.864379 -5.2911541e-09 4.1595743e-07            0   -3159.9914   -3159.9914    35016.188    28.284458    25.432702    48.677526      960 
     307            0   -92.719269   0.18338203   -62.664427   -215.49338 -1.8210477e-08    45.864379 -2.2716309e-09 3.9231708e-07            0   -3159.9914   -3159.9914    35016.188    28.284458    25.432702    48.677526      960 
     308            0   -92.719269   0.19017816   -62.664427   -215.49338 -1.2059623e-08    45.864379 1.3480706e-09 3.7897013e-07            0   -3159.9914   -3159.9914    35016.188    28.284458    25.432702    48.677526      960 
     309            0   -92.719269   0.19696403   -62.664427   -215.49338 -2.2697944e-08    45.864379 6.1130816e-09 3.4413364e-07            0   -3159.9914   -3159.9914    35016.188    28.284458    25.432702    48.677526      960 
     310            0   -92.719269   0.20710611   -62.664427   -215.49338 -2.7911927e-08    45.864379 7.0249387e-09 3.1769436e-07            0   -3159.9914   -3159.9914    35016.188    28.284458    25.432702    48.677526      960 
Loop time of 0.207124 on 1 procs for 30 steps with 960 atoms

100.4% CPU use with 1 MPI tasks x no OpenMP threads

Minimization stats:
  Stopping criterion = force tolerance
  Energy initial, next-to-last, final = 
        -3159.99138218     -3159.99138218     -3159.99138218
  Force two-norm initial, final = 7.19297e-06 8.40931e-11
  Force max component initial, final = 7.3604e-07 5.63621e-12
  Final line search alpha, max atom move = 1 5.63621e-12
  Iterations, force evaluations = 30 60

MPI task timing breakdown:
Section |  min time  |  avg time  |  max time  |%varavg| %total
---------------------------------------------------------------
Pair    | 0.20404    | 0.20404    | 0.20404    |   0.0 | 98.51
Neigh   | 0          | 0          | 0          |   0.0 |  0.00
Comm    | 0.00071812 | 0.00071812 | 0.00071812 |   0.0 |  0.35
Output  | 0.00092459 | 0.00092459 | 0.00092459 |   0.0 |  0.45
Modify  | 0          | 0          | 0          |   0.0 |  0.00
Other   |            | 0.001442   |            |       |  0.70

Nlocal:    960 ave 960 max 960 min
Histogram: 1 0 0 0 0 0 0 0 0 0
Nghost:    1471 ave 1471 max 1471 min
Histogram: 1 0 0 0 0 0 0 0 0 0
Neighs:    55260 ave 55260 max 55260 min
Histogram: 1 0 0 0 0 0 0 0 0 0

Total # of neighbors = 55260
Ave neighs/atom = 57.5625
Neighbor list builds = 0
Dangerous builds = 0

# Obtain new stress tensor

variable tmp equal pe
variable e1 equal ${tmp}
variable e1 equal -3159.99138217755
variable tmp equal press
variable p1 equal ${tmp}
variable p1 equal -92.7192689193009
variable tmp equal pxx
variable pxx1 equal ${tmp}
variable pxx1 equal -62.6644268484247
variable tmp equal pyy
variable pyy1 equal ${tmp}
variable pyy1 equal -215.493379881566
variable tmp equal pzz
variable pzz1 equal ${tmp}
variable pzz1 equal -2.79119267006552e-08
variable tmp equal pxy
variable pxy1 equal ${tmp}
variable pxy1 equal 45.8643785230732
variable tmp equal pxz
variable pxz1 equal ${tmp}
variable pxz1 equal 7.02493873829973e-09
variable tmp equal pyz
variable pyz1 equal ${tmp}
variable pyz1 equal 3.17694364384849e-07

# Compute elastic constant from pressure tensor

variable C1pos equal ${d1}
variable C1pos equal 6357.07843268165
variable C2pos equal ${d2}
variable C2pos equal 20802.7622865129
variable C3pos equal ${d3}
variable C3pos equal 561.124382690178
variable C4pos equal ${d4}
variable C4pos equal -27017.7376073582
variable C5pos equal ${d5}
variable C5pos equal 78.6845853700206
variable C6pos equal ${d6}
variable C6pos equal 30.9652418221098

# Combine positive and negative

variable C1${dir} equal 0.5*(${C1neg}+${C1pos})
variable C16 equal 0.5*(${C1neg}+${C1pos})
variable C16 equal 0.5*(-6357.06848601163+${C1pos})
variable C16 equal 0.5*(-6357.06848601163+6357.07843268165)
variable C2${dir} equal 0.5*(${C2neg}+${C2pos})
variable C26 equal 0.5*(${C2neg}+${C2pos})
variable C26 equal 0.5*(-20802.7064447049+${C2pos})
variable C26 equal 0.5*(-20802.7064447049+20802.7622865129)
variable C3${dir} equal 0.5*(${C3neg}+${C3pos})
variable C36 equal 0.5*(${C3neg}+${C3pos})
variable C36 equal 0.5*(-561.124377077059+${C3pos})
variable C36 equal 0.5*(-561.124377077059+561.124382690178)
variable C4${dir} equal 0.5*(${C4neg}+${C4pos})
variable C46 equal 0.5*(${C4neg}+${C4pos})
variable C46 equal 0.5*(27017.7375434553+${C4pos})
variable C46 equal 0.5*(27017.7375434553+-27017.7376073582)
variable C5${dir} equal 0.5*(${C5neg}+${C5pos})
variable C56 equal 0.5*(${C5neg}+${C5pos})
variable C56 equal 0.5*(-78.6845867819714+${C5pos})
variable C56 equal 0.5*(-78.6845867819714+78.6845853700206)
variable C6${dir} equal 0.5*(${C6neg}+${C6pos})
variable C66 equal 0.5*(${C6neg}+${C6pos})
variable C66 equal 0.5*(-0.841614626379794+${C6pos})
variable C66 equal 0.5*(-0.841614626379794+30.9652418221098)

# Delete dir to make sure it is not reused

variable dir delete

# Output final values

variable C11all equal ${C11}
variable C11all equal 47.6597395992749
variable C22all equal ${C22}
variable C22all equal 41.3161528660512
variable C33all equal ${C33}
variable C33all equal -1.96902605011928e-05

variable C12all equal 0.5*(${C12}+${C21})
variable C12all equal 0.5*(15.2652438261948+${C21})
variable C12all equal 0.5*(15.2652438261948+15.2406512610505)
variable C13all equal 0.5*(${C13}+${C31})
variable C13all equal 0.5*(-0.0062761903000137+${C31})
variable C13all equal 0.5*(-0.0062761903000137+-6.39050796280571e-06)
variable C23all equal 0.5*(${C23}+${C32})
variable C23all equal 0.5*(-0.0215592800996092+${C32})
variable C23all equal 0.5*(-0.0215592800996092+4.92629197879069e-06)

variable C44all equal ${C44}
variable C44all equal -1.24491634778678e-08
variable C55all equal ${C55}
variable C55all equal 8.04541040366757e-06
variable C66all equal ${C66}
variable C66all equal 15.061813597865

variable C14all equal 0.5*(${C14}+${C41})
variable C14all equal 0.5*(-4.17320279666455e-07+${C41})
variable C14all equal 0.5*(-4.17320279666455e-07+5.8507850553724e-05)
variable C15all equal 0.5*(${C15}+${C51})
variable C15all equal 0.5*(-1.08949734567432e-07+${C51})
variable C15all equal 0.5*(-1.08949734567432e-07+-0.000586826592702039)
variable C16all equal 0.5*(${C16}+${C61})
variable C16all equal 0.5*(0.00497333501016328+${C61})
variable C16all equal 0.5*(0.00497333501016328+-5.00644267122965)

variable C24all equal 0.5*(${C24}+${C42})
variable C24all equal 0.5*(-9.10051312530413e-07+${C42})
variable C24all equal 0.5*(-9.10051312530413e-07+1.81160066858865e-06)
variable C25all equal 0.5*(${C25}+${C52})
variable C25all equal 0.5*(1.402004272677e-07+${C52})
variable C25all equal 0.5*(1.402004272677e-07+0.000205174441454403)
variable C26all equal 0.5*(${C26}+${C62})
variable C26all equal 0.5*(0.0279209039999841+${C62})
variable C26all equal 0.5*(0.0279209039999841+0.0279123281447999)

variable C34all equal 0.5*(${C34}+${C43})
variable C34all equal 0.5*(-8.76866010912636e-07+${C43})
variable C34all equal 0.5*(-8.76866010912636e-07+-1.40564952744171e-06)
variable C35all equal 0.5*(${C35}+${C53})
variable C35all equal 0.5*(-1.10999962998903e-07+${C53})
variable C35all equal 0.5*(-1.10999962998903e-07+7.07950535954183e-05)
variable C36all equal 0.5*(${C36}+${C63})
variable C36all equal 0.5*(2.80655950746223e-06+${C63})
variable C36all equal 0.5*(2.80655950746223e-06+0.00460298459474995)

variable C45all equal 0.5*(${C45}+${C54})
variable C45all equal 0.5*(-2.63874972006306e-06+${C54})
variable C45all equal 0.5*(-2.63874972006306e-06+-1.57887747320729e-07)
variable C46all equal 0.5*(${C46}+${C64})
variable C46all equal 0.5*(-3.19514510920271e-05+${C64})
variable C46all equal 0.5*(-3.19514510920271e-05+3.95399499808491e-08)
variable C56all equal 0.5*(${C56}+${C65})
variable C56all equal 0.5*(-7.05975402581771e-07+${C65})
variable C56all equal 0.5*(-7.05975402581771e-07+1.17574950664334e-07)

# For Stillinger-Weber silicon, the analytical results
# are known to be (E. R. Cowley, 1988):
#               C11 = 151.4 GPa
#               C12 = 76.4 GPa
#               C44 = 56.4 GPa

print "Elastic Constant C11all = ${C11all} ${cunits}"
Elastic Constant C11all = 47.6597395992749 GPa
print "Elastic Constant C22all = ${C22all} ${cunits}"
Elastic Constant C22all = 41.3161528660512 GPa
print "Elastic Constant C33all = ${C33all} ${cunits}"
Elastic Constant C33all = -1.96902605011928e-05 GPa

print "Elastic Constant C12all = ${C12all} ${cunits}"
Elastic Constant C12all = 15.2529475436226 GPa
print "Elastic Constant C13all = ${C13all} ${cunits}"
Elastic Constant C13all = -0.00314129040398825 GPa
print "Elastic Constant C23all = ${C23all} ${cunits}"
Elastic Constant C23all = -0.0107771769038152 GPa

print "Elastic Constant C44all = ${C44all} ${cunits}"
Elastic Constant C44all = -1.24491634778678e-08 GPa
print "Elastic Constant C55all = ${C55all} ${cunits}"
Elastic Constant C55all = 8.04541040366757e-06 GPa
print "Elastic Constant C66all = ${C66all} ${cunits}"
Elastic Constant C66all = 15.061813597865 GPa

print "Elastic Constant C14all = ${C14all} ${cunits}"
Elastic Constant C14all = 2.90452651370288e-05 GPa
print "Elastic Constant C15all = ${C15all} ${cunits}"
Elastic Constant C15all = -0.000293467771218303 GPa
print "Elastic Constant C16all = ${C16all} ${cunits}"
Elastic Constant C16all = -2.50073466810974 GPa

print "Elastic Constant C24all = ${C24all} ${cunits}"
Elastic Constant C24all = 4.50774678029119e-07 GPa
print "Elastic Constant C25all = ${C25all} ${cunits}"
Elastic Constant C25all = 0.000102657320940835 GPa
print "Elastic Constant C26all = ${C26all} ${cunits}"
Elastic Constant C26all = 0.027916616072392 GPa

print "Elastic Constant C34all = ${C34all} ${cunits}"
Elastic Constant C34all = -1.14125776917717e-06 GPa
print "Elastic Constant C35all = ${C35all} ${cunits}"
Elastic Constant C35all = 3.53420268162097e-05 GPa
print "Elastic Constant C36all = ${C36all} ${cunits}"
Elastic Constant C36all = 0.00230289557712871 GPa

print "Elastic Constant C45all = ${C45all} ${cunits}"
Elastic Constant C45all = -1.39831873369189e-06 GPa
print "Elastic Constant C46all = ${C46all} ${cunits}"
Elastic Constant C46all = -1.59559555710231e-05 GPa
print "Elastic Constant C56all = ${C56all} ${cunits}"
Elastic Constant C56all = -2.94200225958719e-07 GPa

Total wall time: 0:00:05
