   2   2   0   0
  0.2044415E+02  0.3866974E-09  0.3866975E-09  0.3866975E-09  0.5000000E-15
  1.000000000000000E-004
  CAR 
 unknown system                          
     17.58455774     -8.14593218  301      5.93719575      1.00000000
     -8.146  0.0000E+00  0.0000E+00
     -8.060  0.0000E+00  0.0000E+00
     -7.974  0.0000E+00  0.0000E+00
     -7.889  0.0000E+00  0.0000E+00
     -7.803  0.0000E+00  0.0000E+00
     -7.717  0.0000E+00  0.0000E+00
     -7.631  0.0000E+00  0.0000E+00
     -7.546  0.0000E+00  0.0000E+00
     -7.460  0.0000E+00  0.0000E+00
     -7.374  0.0000E+00  0.0000E+00
     -7.288  0.1517E-16  0.1301E-17
     -7.202  0.1798E-14  0.1555E-15
     -7.117  0.1502E-12  0.1304E-13
     -7.031  0.8732E-11  0.7620E-12
     -6.945  0.3536E-09  0.3109E-10
     -6.859  0.9983E-08  0.8873E-09
     -6.774  0.1968E-06  0.1777E-07
     -6.688  0.2716E-05  0.2507E-06
     -6.602  0.2638E-04  0.2513E-05
     -6.516  0.1823E-03  0.1815E-04
     -6.431  0.9178E-03  0.9687E-04
     -6.345  0.3513E-02  0.3982E-03
     -6.259  0.1087E-01  0.1330E-02
     -6.173  0.2852E-01  0.3777E-02
     -6.087  0.6302E-01  0.9182E-02
     -6.002  0.1119E+00  0.1878E-01
     -5.916  0.1546E+00  0.3204E-01
     -5.830  0.1715E+00  0.4675E-01
     -5.744  0.1760E+00  0.6185E-01
     -5.659  0.2035E+00  0.7930E-01
     -5.573  0.2694E+00  0.1024E+00
     -5.487  0.3516E+00  0.1326E+00
     -5.401  0.3981E+00  0.1667E+00
     -5.316  0.3645E+00  0.1980E+00
     -5.230  0.2774E+00  0.2218E+00
     -5.144  0.2262E+00  0.2412E+00
     -5.058  0.2769E+00  0.2649E+00
     -4.973  0.4124E+00  0.3003E+00
     -4.887  0.5435E+00  0.3469E+00
     -4.801  0.5866E+00  0.3972E+00
     -4.715  0.5506E+00  0.4444E+00
     -4.629  0.5086E+00  0.4881E+00
     -4.544  0.4954E+00  0.5305E+00
     -4.458  0.4890E+00  0.5725E+00
     -4.372  0.4614E+00  0.6121E+00
     -4.286  0.4272E+00  0.6487E+00
     -4.201  0.4617E+00  0.6883E+00
     -4.115  0.6281E+00  0.7422E+00
     -4.029  0.8660E+00  0.8165E+00
     -3.943  0.1014E+01  0.9035E+00
     -3.858  0.9847E+00  0.9879E+00
     -3.772  0.8493E+00  0.1061E+01
     -3.686  0.7322E+00  0.1124E+01
     -3.600  0.6915E+00  0.1183E+01
     -3.514  0.7141E+00  0.1244E+01
     -3.429  0.7597E+00  0.1309E+01
     -3.343  0.7846E+00  0.1377E+01
     -3.257  0.7525E+00  0.1441E+01
     -3.171  0.6719E+00  0.1499E+01
     -3.086  0.6002E+00  0.1550E+01
     -3.000  0.5862E+00  0.1600E+01
     -2.914  0.6351E+00  0.1655E+01
     -2.828  0.7061E+00  0.1716E+01
     -2.743  0.7175E+00  0.1777E+01
     -2.657  0.6143E+00  0.1830E+01
     -2.571  0.4399E+00  0.1867E+01
     -2.485  0.2816E+00  0.1892E+01
     -2.399  0.1742E+00  0.1907E+01
     -2.314  0.1172E+00  0.1917E+01
     -2.228  0.1279E+00  0.1928E+01
     -2.142  0.2209E+00  0.1947E+01
     -2.056  0.3541E+00  0.1977E+01
     -1.971  0.4299E+00  0.2014E+01
     -1.885  0.3835E+00  0.2047E+01
     -1.799  0.2557E+00  0.2069E+01
     -1.713  0.1459E+00  0.2081E+01
     -1.628  0.1126E+00  0.2091E+01
     -1.542  0.1471E+00  0.2103E+01
     -1.456  0.2292E+00  0.2123E+01
     -1.370  0.3849E+00  0.2156E+01
     -1.284  0.6502E+00  0.2212E+01
     -1.199  0.9719E+00  0.2295E+01
     -1.113  0.1221E+01  0.2400E+01
     -1.027  0.1314E+01  0.2513E+01
     -0.941  0.1258E+01  0.2621E+01
     -0.856  0.1107E+01  0.2715E+01
     -0.770  0.9391E+00  0.2796E+01
     -0.684  0.8019E+00  0.2865E+01
     -0.598  0.6621E+00  0.2922E+01
     -0.513  0.4968E+00  0.2964E+01
     -0.427  0.3924E+00  0.2998E+01
     -0.341  0.4529E+00  0.3037E+01
     -0.255  0.6494E+00  0.3092E+01
     -0.169  0.8198E+00  0.3163E+01
     -0.084  0.8097E+00  0.3232E+01
      0.002  0.6196E+00  0.3285E+01
      0.088  0.3967E+00  0.3319E+01
      0.174  0.2731E+00  0.3343E+01
      0.259  0.2612E+00  0.3365E+01
      0.345  0.3009E+00  0.3391E+01
      0.431  0.3298E+00  0.3419E+01
      0.517  0.3200E+00  0.3447E+01
      0.602  0.2985E+00  0.3472E+01
      0.688  0.2997E+00  0.3498E+01
      0.774  0.3037E+00  0.3524E+01
      0.860  0.2832E+00  0.3548E+01
      0.946  0.2682E+00  0.3571E+01
      1.031  0.2869E+00  0.3596E+01
      1.117  0.3107E+00  0.3623E+01
      1.203  0.3271E+00  0.3651E+01
      1.289  0.3909E+00  0.3684E+01
      1.374  0.5376E+00  0.3730E+01
      1.460  0.7242E+00  0.3792E+01
      1.546  0.8997E+00  0.3870E+01
      1.632  0.1044E+01  0.3959E+01
      1.717  0.1102E+01  0.4054E+01
      1.803  0.1006E+01  0.4140E+01
      1.889  0.8001E+00  0.4209E+01
      1.975  0.6415E+00  0.4264E+01
      2.060  0.6762E+00  0.4322E+01
      2.146  0.9638E+00  0.4404E+01
      2.232  0.1422E+01  0.4526E+01
      2.318  0.1797E+01  0.4680E+01
      2.404  0.1817E+01  0.4836E+01
      2.489  0.1457E+01  0.4961E+01
      2.575  0.1005E+01  0.5047E+01
      2.661  0.7791E+00  0.5114E+01
      2.747  0.8506E+00  0.5187E+01
      2.832  0.1105E+01  0.5282E+01
      2.918  0.1424E+01  0.5404E+01
      3.004  0.1676E+01  0.5548E+01
      3.090  0.1716E+01  0.5695E+01
      3.175  0.1565E+01  0.5829E+01
      3.261  0.1416E+01  0.5951E+01
      3.347  0.1408E+01  0.6071E+01
      3.433  0.1465E+01  0.6197E+01
      3.519  0.1440E+01  0.6321E+01
      3.604  0.1349E+01  0.6436E+01
      3.690  0.1329E+01  0.6550E+01
      3.776  0.1368E+01  0.6668E+01
      3.862  0.1318E+01  0.6781E+01
      3.947  0.1188E+01  0.6883E+01
      4.033  0.1130E+01  0.6979E+01
      4.119  0.1186E+01  0.7081E+01
      4.205  0.1288E+01  0.7192E+01
      4.290  0.1383E+01  0.7310E+01
      4.376  0.1387E+01  0.7429E+01
      4.462  0.1206E+01  0.7533E+01
      4.548  0.8835E+00  0.7609E+01
      4.634  0.6015E+00  0.7660E+01
      4.719  0.5020E+00  0.7703E+01
      4.805  0.5537E+00  0.7751E+01
      4.891  0.5869E+00  0.7801E+01
      4.977  0.4848E+00  0.7843E+01
      5.062  0.3141E+00  0.7870E+01
      5.148  0.2182E+00  0.7888E+01
      5.234  0.2417E+00  0.7909E+01
      5.320  0.3021E+00  0.7935E+01
      5.405  0.2981E+00  0.7960E+01
      5.491  0.2184E+00  0.7979E+01
      5.577  0.1259E+00  0.7990E+01
      5.663  0.6460E-01  0.7996E+01
      5.749  0.3192E-01  0.7998E+01
      5.834  0.1415E-01  0.7999E+01
      5.920  0.5519E-02  0.8000E+01
      6.006  0.4756E-02  0.8000E+01
      6.092  0.1403E-01  0.8002E+01
      6.177  0.3950E-01  0.8005E+01
      6.263  0.8499E-01  0.8012E+01
      6.349  0.1460E+00  0.8025E+01
      6.435  0.2153E+00  0.8043E+01
      6.520  0.2845E+00  0.8068E+01
      6.606  0.3307E+00  0.8096E+01
      6.692  0.3352E+00  0.8125E+01
      6.778  0.3261E+00  0.8153E+01
      6.864  0.3556E+00  0.8183E+01
      6.949  0.4357E+00  0.8221E+01
      7.035  0.5338E+00  0.8266E+01
      7.121  0.6100E+00  0.8319E+01
      7.207  0.6317E+00  0.8373E+01
      7.292  0.5939E+00  0.8424E+01
      7.378  0.5746E+00  0.8473E+01
      7.464  0.7069E+00  0.8534E+01
      7.550  0.1016E+01  0.8621E+01
      7.635  0.1342E+01  0.8736E+01
      7.721  0.1517E+01  0.8866E+01
      7.807  0.1550E+01  0.8999E+01
      7.893  0.1565E+01  0.9133E+01
      7.979  0.1613E+01  0.9272E+01
      8.064  0.1619E+01  0.9410E+01
      8.150  0.1493E+01  0.9538E+01
      8.236  0.1292E+01  0.9649E+01
      8.322  0.1188E+01  0.9751E+01
      8.407  0.1281E+01  0.9861E+01
      8.493  0.1515E+01  0.9991E+01
      8.579  0.1707E+01  0.1014E+02
      8.665  0.1688E+01  0.1028E+02
      8.750  0.1459E+01  0.1041E+02
      8.836  0.1165E+01  0.1051E+02
      8.922  0.9920E+00  0.1059E+02
      9.008  0.1098E+01  0.1069E+02
      9.093  0.1504E+01  0.1082E+02
      9.179  0.1996E+01  0.1099E+02
      9.265  0.2248E+01  0.1118E+02
      9.351  0.2123E+01  0.1136E+02
      9.437  0.1771E+01  0.1151E+02
      9.522  0.1406E+01  0.1163E+02
      9.608  0.1141E+01  0.1173E+02
      9.694  0.1060E+01  0.1182E+02
      9.780  0.1201E+01  0.1193E+02
      9.865  0.1457E+01  0.1205E+02
      9.951  0.1649E+01  0.1219E+02
     10.037  0.1685E+01  0.1234E+02
     10.123  0.1548E+01  0.1247E+02
     10.208  0.1267E+01  0.1258E+02
     10.294  0.9629E+00  0.1266E+02
     10.380  0.7832E+00  0.1273E+02
     10.466  0.7739E+00  0.1279E+02
     10.552  0.8926E+00  0.1287E+02
     10.637  0.1063E+01  0.1296E+02
     10.723  0.1211E+01  0.1307E+02
     10.809  0.1315E+01  0.1318E+02
     10.895  0.1412E+01  0.1330E+02
     10.980  0.1521E+01  0.1343E+02
     11.066  0.1591E+01  0.1357E+02
     11.152  0.1549E+01  0.1370E+02
     11.238  0.1436E+01  0.1382E+02
     11.323  0.1409E+01  0.1394E+02
     11.409  0.1529E+01  0.1407E+02
     11.495  0.1655E+01  0.1422E+02
     11.581  0.1580E+01  0.1435E+02
     11.667  0.1286E+01  0.1446E+02
     11.752  0.9795E+00  0.1455E+02
     11.838  0.7837E+00  0.1461E+02
     11.924  0.6183E+00  0.1467E+02
     12.010  0.4072E+00  0.1470E+02
     12.095  0.2067E+00  0.1472E+02
     12.181  0.9802E-01  0.1473E+02
     12.267  0.1005E+00  0.1474E+02
     12.353  0.2015E+00  0.1475E+02
     12.438  0.3828E+00  0.1479E+02
     12.524  0.5925E+00  0.1484E+02
     12.610  0.7360E+00  0.1490E+02
     12.696  0.7531E+00  0.1497E+02
     12.782  0.7137E+00  0.1503E+02
     12.867  0.7585E+00  0.1509E+02
     12.953  0.8933E+00  0.1517E+02
     13.039  0.9376E+00  0.1525E+02
     13.125  0.7805E+00  0.1532E+02
     13.210  0.5738E+00  0.1536E+02
     13.296  0.5568E+00  0.1541E+02
     13.382  0.7769E+00  0.1548E+02
     13.468  0.1040E+01  0.1557E+02
     13.553  0.1108E+01  0.1566E+02
     13.639  0.9520E+00  0.1574E+02
     13.725  0.7560E+00  0.1581E+02
     13.811  0.6493E+00  0.1587E+02
     13.897  0.5626E+00  0.1591E+02
     13.982  0.4052E+00  0.1595E+02
     14.068  0.2173E+00  0.1597E+02
     14.154  0.8357E-01  0.1597E+02
     14.240  0.2277E-01  0.1598E+02
     14.325  0.4380E-02  0.1598E+02
     14.411  0.5935E-03  0.1598E+02
     14.497  0.5657E-04  0.1598E+02
     14.583  0.3787E-05  0.1598E+02
     14.668  0.1778E-06  0.1598E+02
     14.754  0.6424E-08  0.1598E+02
     14.840  0.1870E-07  0.1598E+02
     14.926  0.4160E-06  0.1598E+02
     15.012  0.6501E-05  0.1598E+02
     15.097  0.7092E-04  0.1598E+02
     15.183  0.5402E-03  0.1598E+02
     15.269  0.2876E-02  0.1598E+02
     15.355  0.1070E-01  0.1598E+02
     15.440  0.2787E-01  0.1598E+02
     15.526  0.5077E-01  0.1598E+02
     15.612  0.6474E-01  0.1599E+02
     15.698  0.5778E-01  0.1600E+02
     15.783  0.3610E-01  0.1600E+02
     15.869  0.1578E-01  0.1600E+02
     15.955  0.4828E-02  0.1600E+02
     16.041  0.1033E-02  0.1600E+02
     16.126  0.1544E-03  0.1600E+02
     16.212  0.1612E-04  0.1600E+02
     16.298  0.1175E-05  0.1600E+02
     16.384  0.5978E-07  0.1600E+02
     16.470  0.2120E-08  0.1600E+02
     16.555  0.5237E-10  0.1600E+02
     16.641  0.9011E-12  0.1600E+02
     16.727  0.1077E-13  0.1600E+02
     16.813  0.9102E-16  0.1600E+02
     16.898  0.0000E+00  0.1600E+02
     16.984  0.0000E+00  0.1600E+02
     17.070  0.0000E+00  0.1600E+02
     17.156  0.0000E+00  0.1600E+02
     17.241  0.0000E+00  0.1600E+02
     17.327  0.0000E+00  0.1600E+02
     17.413  0.0000E+00  0.1600E+02
     17.499  0.0000E+00  0.1600E+02
     17.585  0.0000E+00  0.1600E+02
