    2    2    1    1
  0.2044415E+02  0.3866974E-09  0.3866975E-09  0.3866975E-09  0.5000000E-15
  1.000000000000000E-004
  CAR 
 unknown system                          
    8   29    8
 
  0.0000000E+00  0.0000000E+00  0.0000000E+00  0.1953125E-02
   1       -6.145932
   2        5.595120
   3        5.595120
   4        5.595122
   5        8.217247
   6        8.217250
   7        8.217251
   8        8.823296
 
  0.1250000E+00  0.1387779E-16  0.0000000E+00  0.1562500E-01
   1       -5.945896
   2        4.034889
   3        5.320151
   4        5.320153
   5        8.109039
   6        8.626208
   7        8.626211
   8       10.186972
 
  0.2500000E+00  0.2775558E-16  0.0000000E+00  0.1562500E-01
   1       -5.362795
   2        1.756809
   3        4.864909
   4        4.864911
   5        7.628140
   6        9.142357
   7        9.142360
   8       12.388215
 
  0.3750000E+00  0.5551115E-16  0.0000000E+00  0.1562500E-01
   1       -4.490427
   2       -0.218275
   3        4.545382
   4        4.545385
   5        7.264492
   6        9.109414
   7        9.109417
   8       13.501176
 
  0.5000000E+00  0.5551115E-16  0.0000000E+00  0.7812500E-02
   1       -3.872860
   2       -1.212433
   3        4.435584
   4        4.435587
   5        7.136587
   6        9.007285
   7        9.007288
   8       13.372962
 
  0.1250000E+00  0.1250000E+00  0.0000000E+00  0.1171875E-01
   1       -5.878456
   2        4.270014
   3        4.826623
   4        4.826623
   5        7.678275
   6        9.312992
   7        9.312992
   8        9.886712
 
  0.2500000E+00  0.1250000E+00  0.0000000E+00  0.4687500E-01
   1       -5.419401
   2        2.432607
   3        4.330249
   4        4.396295
   5        7.800264
   6        9.283595
   7       10.064922
   8       10.387031
 
  0.3750000E+00  0.1250000E+00  0.0000000E+00  0.4687500E-01
   1       -4.622779
   2        0.421677
   3        3.819989
   4        4.067064
   5        7.884938
   6        9.247358
   7       10.086447
   8       11.084488
 
  0.5000000E+00  0.1250000E+00  0.0000000E+00  0.4687500E-01
   1       -3.786113
   2       -1.002815
   3        3.386690
   4        4.087759
   5        7.823785
   6        9.138845
   7        9.744957
   8       12.948554
 
 -0.3750000E+00  0.1250000E+00  0.0000000E+00  0.4687500E-01
   1       -4.022696
   2       -0.643008
   3        3.213103
   4        4.373057
   5        7.974470
   6        9.253763
   7        9.519919
   8       13.473820
 
 -0.2500000E+00  0.1250000E+00  0.0000000E+00  0.4687500E-01
   1       -4.922025
   2        1.064822
   3        3.366777
   4        4.847563
   5        8.317937
   6        9.319947
   7        9.472858
   8       11.859688
 
 -0.1250000E+00  0.1250000E+00  0.0000000E+00  0.2343750E-01
   1       -5.616535
   2        2.959842
   3        4.038235
   4        5.310965
   5        8.636336
   6        8.768820
   7        8.962244
   8       11.080481
 
  0.2500000E+00  0.2500000E+00  0.0000000E+00  0.1171875E-01
   1       -5.085773
   2        2.121336
   3        3.776309
   4        3.776309
   5        6.817007
   6        8.801682
   7       11.316660
   8       11.316660
 
  0.3750000E+00  0.2500000E+00  0.0000000E+00  0.4687500E-01
   1       -4.390993
   2        0.731728
   3        3.020564
   4        3.465449
   5        7.032858
   6        8.563897
   7       11.540201
   8       11.838875
 
  0.5000000E+00  0.2500000E+00  0.0000000E+00  0.4687500E-01
   1       -3.488570
   2       -0.670334
   3        2.179978
   4        3.466825
   5        7.206903
   6       10.073932
   7       11.286234
   8       11.518932
 
 -0.3750000E+00  0.2500000E+00  0.0000000E+00  0.4687500E-01
   1       -3.292022
   2       -0.919235
   3        1.735571
   4        3.774803
   5        7.521511
   6       11.025412
   7       11.092885
   8       12.527153
 
 -0.2500000E+00  0.2500000E+00  0.0000000E+00  0.2343750E-01
   1       -4.146617
   2        0.209944
   3        1.975389
   4        4.314705
   5        8.102828
   6       10.405975
   7       10.695578
   8       11.702839
 
  0.3750000E+00  0.3750000E+00  0.0000000E+00  0.1171875E-01
   1       -3.800551
   2       -0.061707
   3        3.077388
   4        3.077388
   5        6.317442
   6        7.243234
   7       13.558661
   8       13.558661
 
  0.5000000E+00  0.3750000E+00  0.0000000E+00  0.4687500E-01
   1       -2.923780
   2       -1.124124
   3        2.281792
   4        3.002503
   5        6.597548
   6        7.642489
   7       13.809337
   8       13.857274
 
 -0.3750000E+00  0.3750000E+00  0.0000000E+00  0.2343750E-01
   1       -2.501994
   2       -1.507927
   3        1.446590
   4        3.252584
   5        6.901013
   6        9.754997
   7       13.034092
   8       13.524511
 
  0.5000000E+00  0.5000000E+00  0.0000000E+00  0.5859375E-02
   1       -2.088277
   2       -2.088277
   3        2.837411
   4        2.837411
   5        6.419177
   6        6.419178
   7       15.584558
   8       15.584558
 
  0.3750000E+00  0.2500000E+00  0.1250000E+00  0.4687500E-01
   1       -4.844046
   2        1.375550
   3        2.984619
   4        4.220457
   5        8.095211
   6        9.492304
   7        9.846068
   8       11.069859
 
  0.5000000E+00  0.2500000E+00  0.1250000E+00  0.9375000E-01
   1       -3.976818
   2       -0.136659
   3        2.384939
   4        3.738779
   5        8.517717
   6        9.180239
   7       10.629534
   8       11.508864
 
 -0.3750000E+00  0.2500000E+00  0.1250000E+00  0.4687500E-01
   1       -3.344503
   2       -1.052306
   3        2.254304
   4        3.517889
   5        8.680077
   6        8.795737
   7       11.485109
   8       12.692460
 
  0.5000000E+00  0.3750000E+00  0.1250000E+00  0.4687500E-01
   1       -3.607795
   2       -0.276258
   3        2.352411
   4        2.938454
   5        7.610431
   6        8.317148
   7       11.325755
   8       13.510336
 
 -0.3750000E+00  0.3750000E+00  0.1250000E+00  0.9375000E-01
   1       -2.756819
   2       -1.221031
   3        1.677581
   4        2.744564
   5        8.050280
   6        9.907947
   7       10.863587
   8       12.996358
 
 -0.2500000E+00  0.3750000E+00  0.1250000E+00  0.4687500E-01
   1       -3.099429
   2       -0.864563
   3        1.516449
   4        3.108133
   5        8.517828
   6       10.153779
   7       10.816866
   8       12.601086
 
 -0.3750000E+00  0.5000000E+00  0.1250000E+00  0.2343750E-01
   1       -2.014858
   2       -2.014856
   3        2.300588
   4        2.300589
   5        7.642508
   6        7.642508
   7       13.390336
   8       13.390341
 
 -0.2500000E+00  0.5000000E+00  0.2500000E+00  0.1171875E-01
   1       -1.934444
   2       -1.934441
   3        1.883098
   4        1.883099
   5        9.900650
   6        9.900651
   7       10.593512
   8       10.593515
