 vasp.5.3.3 18Dez12 (build Jan 30 2013 10:57:47) complex                        
  
 executed on             LinuxIFC date 2016.06.21  12:26:01
 running on   16 total cores
 distrk:  each k-point on   16 cores,    1 groups
 distr:  one band on NCORES_PER_BAND=   4 cores,    4 groups


--------------------------------------------------------------------------------------------------------


 INCAR:
 POTCAR:    PAW_PBE Si 05Jan2001                  

 ----------------------------------------------------------------------------- 
|                                                                             |
|  ADVICE TO THIS USER RUNNING 'VASP/VAMP'   (HEAR YOUR MASTER'S VOICE ...):  |
|                                                                             |
|      You have switched on vdW-DFT.                                          |
|      This routine was written and supplied by Jiri Klimes.                  |
|      We recommed that you carefully read and cite the following             |
|      publication                                                            |
|      J. Klimes, D.R. Bowler, A. Michelides                                  |
|        J. Phys.: Cond Matt. 22 022201 (2010)                                |
|      J. Klimes, D.R. Bowler, A. Michelides                                  |
|        Phys. Rev. B. 83, 195131 (2011)                                      |
|      and references therein.                                                |
|                                                                             |
 ----------------------------------------------------------------------------- 

 POTCAR:    PAW_PBE Si 05Jan2001                  
   VRHFIN =Si: s2p2                                                             
   LEXCH  = PE                                                                  
   EATOM  =   103.0669 eV,    7.5752 Ry                                         
                                                                                
   TITEL  = PAW_PBE Si 05Jan2001                                                
   LULTRA =        F    use ultrasoft PP ?                                      
   IUNSCR =        1    unscreen: 0-lin 1-nonlin 2-no                           
   RPACOR =    1.500    partial core radius                                     
   POMASS =   28.085; ZVAL   =    4.000    mass and valenz                      
   RCORE  =    1.900    outmost cutoff radius                                   
   RWIGS  =    2.480; RWIGS  =    1.312    wigner-seitz radius (au A)           
   ENMAX  =  245.345; ENMIN  =  184.009 eV                                      
   ICORE  =        2    local potential                                         
   LCOR   =        T    correct aug charges                                     
   LPAW   =        T    paw PP                                                  
   EAUG   =  322.069                                                            
   DEXC   =    0.000                                                            
   RMAX   =    1.950    core radius for proj-oper                               
   RAUG   =    1.300    factor for augmentation sphere                          
   RDEP   =    1.993    radius for radial grids                                 
   RDEPT  =    1.837    core radius for aug-charge                              
                                                                                
   Atomic configuration                                                         
    6 entries                                                                   
     n  l   j            E        occ.                                          
     1  0  0.50     -1785.8828   2.0000                                         
     2  0  0.50      -139.4969   2.0000                                         
     2  1  1.50       -95.5546   6.0000                                         
     3  0  0.50       -10.8127   2.0000                                         
     3  1  0.50        -4.0811   2.0000                                         
     3  2  1.50        -4.0817   0.0000                                         
   Description                                                                  
     l       E           TYP  RCUT    TYP  RCUT                                 
     0    -10.8127223     23  1.900                                             
     0     -7.6451159     23  1.900                                             
     1     -4.0811372     23  1.900                                             
     1      2.4879257     23  1.900                                             
     2     -4.0817478      7  1.900                                             
  local pseudopotential read in
  partial core-charges read in
  partial kinetic energy density read in
  atomic valenz-charges read in
  non local Contribution for L=           0  read in
    real space projection operators read in
  non local Contribution for L=           0  read in
    real space projection operators read in
  non local Contribution for L=           1  read in
    real space projection operators read in
  non local Contribution for L=           1  read in
    real space projection operators read in
    PAW grid and wavefunctions read in
 
   number of l-projection  operators is LMAX  =           4
   number of lm-projection operators is LMMAX =           8
 

 ----------------------------------------------------------------------------- 
|                                                                             |
|  ADVICE TO THIS USER RUNNING 'VASP/VAMP'   (HEAR YOUR MASTER'S VOICE ...):  |
|                                                                             |
|      You enforced a specific xc-type in the INCAR file,                     |
|      a different type was found on the POTCAR file                          |
|          I HOPE YOU KNOW, WHAT YOU ARE  DOING                               |
|                                                                             |
 ----------------------------------------------------------------------------- 

  PAW_PBE Si 05Jan2001                  :
 energy of atom  1       EATOM= -103.0669
 kinetic energy error for atom=    0.0004 (will be added to EATOM!!)
 
 
 POSCAR: bulk@mp_149                             
  positions in direct lattice
  No initial velocities read in
 exchange correlation table for  LEXCH =       42
   RHO(1)=    0.500       N(1)  =     2000
   RHO(2)=  100.500       N(2)  =     4000
 


--------------------------------------------------------------------------------------------------------


 ion  position               nearest neighbor table
   1  0.875  0.875  0.875-   2 2.37   2 2.37   2 2.37   2 2.37
   2  0.125  0.125  0.125-   1 2.37   1 2.37   1 2.37   1 2.37
 
  LATTYP: Found a face centered cubic cell.
 ALAT       =     5.4687284904
  
  Lattice vectors:
  
 A1 = (   3.3488980000,   0.0000000000,   1.9334870000)
 A2 = (   1.1162990000,   3.1573720000,   1.9334870000)
 A3 = (   0.0000000000,   0.0000000000,   3.8669750000)


Analysis of symmetry for initial positions (statically):
=====================================================================
 Subroutine PRICEL returns:
 Original cell was already a primitive cell.
 

 Routine SETGRP: Setting up the symmetry group for a 
 face centered cubic supercell.


 Subroutine GETGRP returns: Found 48 space group operations
 (whereof 12 operations were pure point group operations)
 out of a pool of 48 trial point group operations.


The static configuration has the point symmetry D_3d.
 The point group associated with its full space group is O_h .


Analysis of symmetry for dynamics (positions and initial velocities):
=====================================================================
 Subroutine PRICEL returns:
 Original cell was already a primitive cell.
 

 Routine SETGRP: Setting up the symmetry group for a 
 face centered cubic supercell.


 Subroutine GETGRP returns: Found 48 space group operations
 (whereof 12 operations were pure point group operations)
 out of a pool of 48 trial point group operations.


The dynamic configuration has the point symmetry D_3d.
 The point group associated with its full space group is O_h .


 irot  :   1
 --------------------------------------------------------------------
 isymop:   1   0   0
           0   1   0
           0   0   1

 gtrans:     0.0000000     0.0000000     0.0000000

 ptrans:     0.0000000     0.0000000     0.0000000
 rotmap:
 (   1->   1)  (   2->   2) 


 irot  :   2
 --------------------------------------------------------------------
 isymop:  -1   0   0
           0  -1   0
           0   0  -1

 gtrans:     0.0000000     0.0000000     0.0000000

 ptrans:     0.0000000     0.0000000     0.0000000
 rotmap:
 (   1->   2)  (   2->   1) 


 irot  :   3
 --------------------------------------------------------------------
 isymop:   0   0   1
           1   0   0
           0   1   0

 gtrans:     0.0000000     0.0000000     0.0000000

 ptrans:     0.0000000     0.0000000     0.0000000
 rotmap:
 (   1->   1)  (   2->   2) 


 irot  :   4
 --------------------------------------------------------------------
 isymop:   0   0  -1
          -1   0   0
           0  -1   0

 gtrans:     0.0000000     0.0000000     0.0000000

 ptrans:     0.0000000     0.0000000     0.0000000
 rotmap:
 (   1->   2)  (   2->   1) 


 irot  :   5
 --------------------------------------------------------------------
 isymop:   0   1   0
           0   0   1
           1   0   0

 gtrans:     0.0000000     0.0000000     0.0000000

 ptrans:     0.0000000     0.0000000     0.0000000
 rotmap:
 (   1->   1)  (   2->   2) 


 irot  :   6
 --------------------------------------------------------------------
 isymop:   0  -1   0
           0   0  -1
          -1   0   0

 gtrans:     0.0000000     0.0000000     0.0000000

 ptrans:     0.0000000     0.0000000     0.0000000
 rotmap:
 (   1->   2)  (   2->   1) 


 irot  :   7
 --------------------------------------------------------------------
 isymop:  -1   0   0
           0   0  -1
           0  -1   0

 gtrans:     0.0000000     0.0000000     0.0000000

 ptrans:     0.0000000     0.0000000     0.0000000
 rotmap:
 (   1->   2)  (   2->   1) 


 irot  :   8
 --------------------------------------------------------------------
 isymop:   1   0   0
           0   0   1
           0   1   0

 gtrans:     0.0000000     0.0000000     0.0000000

 ptrans:     0.0000000     0.0000000     0.0000000
 rotmap:
 (   1->   1)  (   2->   2) 


 irot  :   9
 --------------------------------------------------------------------
 isymop:   0  -1   0
          -1   0   0
           0   0  -1

 gtrans:     0.0000000     0.0000000     0.0000000

 ptrans:     0.0000000     0.0000000     0.0000000
 rotmap:
 (   1->   2)  (   2->   1) 


 irot  :  10
 --------------------------------------------------------------------
 isymop:   0   1   0
           1   0   0
           0   0   1

 gtrans:     0.0000000     0.0000000     0.0000000

 ptrans:     0.0000000     0.0000000     0.0000000
 rotmap:
 (   1->   1)  (   2->   2) 


 irot  :  11
 --------------------------------------------------------------------
 isymop:   0   0  -1
           0  -1   0
          -1   0   0

 gtrans:     0.0000000     0.0000000     0.0000000

 ptrans:     0.0000000     0.0000000     0.0000000
 rotmap:
 (   1->   2)  (   2->   1) 


 irot  :  12
 --------------------------------------------------------------------
 isymop:   0   0   1
           0   1   0
           1   0   0

 gtrans:     0.0000000     0.0000000     0.0000000

 ptrans:     0.0000000     0.0000000     0.0000000
 rotmap:
 (   1->   1)  (   2->   2) 


 irot  :  13
 --------------------------------------------------------------------
 isymop:   1   1   1
           0   0  -1
          -1   0   0

 gtrans:     0.5000000     0.0000000     0.0000000

 ptrans:     0.0000000     0.0000000     0.0000000
 rotmap:
 (   1->   2)  (   2->   1) 


 irot  :  14
 --------------------------------------------------------------------
 isymop:  -1  -1  -1
           0   0   1
           1   0   0

 gtrans:     0.5000000     0.0000000     0.0000000

 ptrans:     0.0000000     0.0000000     0.0000000
 rotmap:
 (   1->   1)  (   2->   2) 


 irot  :  15
 --------------------------------------------------------------------
 isymop:   1   1   1
           0  -1   0
           0   0  -1

 gtrans:     0.5000000     0.0000000     0.0000000

 ptrans:     0.0000000     0.0000000     0.0000000
 rotmap:
 (   1->   2)  (   2->   1) 


 irot  :  16
 --------------------------------------------------------------------
 isymop:  -1  -1  -1
           0   1   0
           0   0   1

 gtrans:     0.5000000     0.0000000     0.0000000

 ptrans:     0.0000000     0.0000000     0.0000000
 rotmap:
 (   1->   1)  (   2->   2) 


 irot  :  17
 --------------------------------------------------------------------
 isymop:   1   1   1
          -1   0   0
           0  -1   0

 gtrans:     0.5000000     0.0000000     0.0000000

 ptrans:     0.0000000     0.0000000     0.0000000
 rotmap:
 (   1->   2)  (   2->   1) 


 irot  :  18
 --------------------------------------------------------------------
 isymop:  -1  -1  -1
           1   0   0
           0   1   0

 gtrans:     0.5000000     0.0000000     0.0000000

 ptrans:     0.0000000     0.0000000     0.0000000
 rotmap:
 (   1->   1)  (   2->   2) 


 irot  :  19
 --------------------------------------------------------------------
 isymop:   0   1   0
           1   0   0
          -1  -1  -1

 gtrans:     0.0000000     0.0000000     0.5000000

 ptrans:     0.0000000     0.0000000     0.0000000
 rotmap:
 (   1->   1)  (   2->   2) 


 irot  :  20
 --------------------------------------------------------------------
 isymop:   0  -1   0
          -1   0   0
           1   1   1

 gtrans:     0.0000000     0.0000000     0.5000000

 ptrans:     0.0000000     0.0000000     0.0000000
 rotmap:
 (   1->   2)  (   2->   1) 


 irot  :  21
 --------------------------------------------------------------------
 isymop:   1   0   0
           0   0   1
          -1  -1  -1

 gtrans:     0.0000000     0.0000000     0.5000000

 ptrans:     0.0000000     0.0000000     0.0000000
 rotmap:
 (   1->   1)  (   2->   2) 


 irot  :  22
 --------------------------------------------------------------------
 isymop:  -1   0   0
           0   0  -1
           1   1   1

 gtrans:     0.0000000     0.0000000     0.5000000

 ptrans:     0.0000000     0.0000000     0.0000000
 rotmap:
 (   1->   2)  (   2->   1) 


 irot  :  23
 --------------------------------------------------------------------
 isymop:   0   0   1
           0   1   0
          -1  -1  -1

 gtrans:     0.0000000     0.0000000     0.5000000

 ptrans:     0.0000000     0.0000000     0.0000000
 rotmap:
 (   1->   1)  (   2->   2) 


 irot  :  24
 --------------------------------------------------------------------
 isymop:   0   0  -1
           0  -1   0
           1   1   1

 gtrans:     0.0000000     0.0000000     0.5000000

 ptrans:     0.0000000     0.0000000     0.0000000
 rotmap:
 (   1->   2)  (   2->   1) 


 irot  :  25
 --------------------------------------------------------------------
 isymop:   0   0  -1
           1   1   1
           0  -1   0

 gtrans:     0.0000000     0.5000000     0.0000000

 ptrans:     0.0000000     0.0000000     0.0000000
 rotmap:
 (   1->   2)  (   2->   1) 


 irot  :  26
 --------------------------------------------------------------------
 isymop:   0   0   1
          -1  -1  -1
           0   1   0

 gtrans:     0.0000000     0.5000000     0.0000000

 ptrans:     0.0000000     0.0000000     0.0000000
 rotmap:
 (   1->   1)  (   2->   2) 


 irot  :  27
 --------------------------------------------------------------------
 isymop:   0  -1   0
           1   1   1
          -1   0   0

 gtrans:     0.0000000     0.5000000     0.0000000

 ptrans:     0.0000000     0.0000000     0.0000000
 rotmap:
 (   1->   2)  (   2->   1) 


 irot  :  28
 --------------------------------------------------------------------
 isymop:   0   1   0
          -1  -1  -1
           1   0   0

 gtrans:     0.0000000     0.5000000     0.0000000

 ptrans:     0.0000000     0.0000000     0.0000000
 rotmap:
 (   1->   1)  (   2->   2) 


 irot  :  29
 --------------------------------------------------------------------
 isymop:  -1   0   0
           1   1   1
           0   0  -1

 gtrans:     0.0000000     0.5000000     0.0000000

 ptrans:     0.0000000     0.0000000     0.0000000
 rotmap:
 (   1->   2)  (   2->   1) 


 irot  :  30
 --------------------------------------------------------------------
 isymop:   1   0   0
          -1  -1  -1
           0   0   1

 gtrans:     0.0000000     0.5000000     0.0000000

 ptrans:     0.0000000     0.0000000     0.0000000
 rotmap:
 (   1->   1)  (   2->   2) 


 irot  :  31
 --------------------------------------------------------------------
 isymop:  -1  -1  -1
           0   1   0
           1   0   0

 gtrans:     0.5000000     0.0000000     0.0000000

 ptrans:     0.0000000     0.0000000     0.0000000
 rotmap:
 (   1->   1)  (   2->   2) 


 irot  :  32
 --------------------------------------------------------------------
 isymop:   1   1   1
           0  -1   0
          -1   0   0

 gtrans:     0.5000000     0.0000000     0.0000000

 ptrans:     0.0000000     0.0000000     0.0000000
 rotmap:
 (   1->   2)  (   2->   1) 


 irot  :  33
 --------------------------------------------------------------------
 isymop:  -1  -1  -1
           1   0   0
           0   0   1

 gtrans:     0.5000000     0.0000000     0.0000000

 ptrans:     0.0000000     0.0000000     0.0000000
 rotmap:
 (   1->   1)  (   2->   2) 


 irot  :  34
 --------------------------------------------------------------------
 isymop:   1   1   1
          -1   0   0
           0   0  -1

 gtrans:     0.5000000     0.0000000     0.0000000

 ptrans:     0.0000000     0.0000000     0.0000000
 rotmap:
 (   1->   2)  (   2->   1) 


 irot  :  35
 --------------------------------------------------------------------
 isymop:  -1  -1  -1
           0   0   1
           0   1   0

 gtrans:     0.5000000     0.0000000     0.0000000

 ptrans:     0.0000000     0.0000000     0.0000000
 rotmap:
 (   1->   1)  (   2->   2) 


 irot  :  36
 --------------------------------------------------------------------
 isymop:   1   1   1
           0   0  -1
           0  -1   0

 gtrans:     0.5000000     0.0000000     0.0000000

 ptrans:     0.0000000     0.0000000     0.0000000
 rotmap:
 (   1->   2)  (   2->   1) 


 irot  :  37
 --------------------------------------------------------------------
 isymop:   0  -1   0
           0   0  -1
           1   1   1

 gtrans:     0.0000000     0.0000000     0.5000000

 ptrans:     0.0000000     0.0000000     0.0000000
 rotmap:
 (   1->   2)  (   2->   1) 


 irot  :  38
 --------------------------------------------------------------------
 isymop:   0   1   0
           0   0   1
          -1  -1  -1

 gtrans:     0.0000000     0.0000000     0.5000000

 ptrans:     0.0000000     0.0000000     0.0000000
 rotmap:
 (   1->   1)  (   2->   2) 


 irot  :  39
 --------------------------------------------------------------------
 isymop:  -1   0   0
           0  -1   0
           1   1   1

 gtrans:     0.0000000     0.0000000     0.5000000

 ptrans:     0.0000000     0.0000000     0.0000000
 rotmap:
 (   1->   2)  (   2->   1) 


 irot  :  40
 --------------------------------------------------------------------
 isymop:   1   0   0
           0   1   0
          -1  -1  -1

 gtrans:     0.0000000     0.0000000     0.5000000

 ptrans:     0.0000000     0.0000000     0.0000000
 rotmap:
 (   1->   1)  (   2->   2) 


 irot  :  41
 --------------------------------------------------------------------
 isymop:   0   0  -1
          -1   0   0
           1   1   1

 gtrans:     0.0000000     0.0000000     0.5000000

 ptrans:     0.0000000     0.0000000     0.0000000
 rotmap:
 (   1->   2)  (   2->   1) 


 irot  :  42
 --------------------------------------------------------------------
 isymop:   0   0   1
           1   0   0
          -1  -1  -1

 gtrans:     0.0000000     0.0000000     0.5000000

 ptrans:     0.0000000     0.0000000     0.0000000
 rotmap:
 (   1->   1)  (   2->   2) 


 irot  :  43
 --------------------------------------------------------------------
 isymop:   1   0   0
          -1  -1  -1
           0   1   0

 gtrans:     0.0000000     0.5000000     0.0000000

 ptrans:     0.0000000     0.0000000     0.0000000
 rotmap:
 (   1->   1)  (   2->   2) 


 irot  :  44
 --------------------------------------------------------------------
 isymop:  -1   0   0
           1   1   1
           0  -1   0

 gtrans:     0.0000000     0.5000000     0.0000000

 ptrans:     0.0000000     0.0000000     0.0000000
 rotmap:
 (   1->   2)  (   2->   1) 


 irot  :  45
 --------------------------------------------------------------------
 isymop:   0   0   1
          -1  -1  -1
           1   0   0

 gtrans:     0.0000000     0.5000000     0.0000000

 ptrans:     0.0000000     0.0000000     0.0000000
 rotmap:
 (   1->   1)  (   2->   2) 


 irot  :  46
 --------------------------------------------------------------------
 isymop:   0   0  -1
           1   1   1
          -1   0   0

 gtrans:     0.0000000     0.5000000     0.0000000

 ptrans:     0.0000000     0.0000000     0.0000000
 rotmap:
 (   1->   2)  (   2->   1) 


 irot  :  47
 --------------------------------------------------------------------
 isymop:   0   1   0
          -1  -1  -1
           0   0   1

 gtrans:     0.0000000     0.5000000     0.0000000

 ptrans:     0.0000000     0.0000000     0.0000000
 rotmap:
 (   1->   1)  (   2->   2) 


 irot  :  48
 --------------------------------------------------------------------
 isymop:   0  -1   0
           1   1   1
           0   0  -1

 gtrans:     0.0000000     0.5000000     0.0000000

 ptrans:     0.0000000     0.0000000     0.0000000
 rotmap:
 (   1->   2)  (   2->   1) 
 
 
 KPOINTS: Automatic kpoint scheme                 

Automatic generation of k-mesh.
Space group operators:
 irot       det(A)        alpha          n_x          n_y          n_z        tau_x        tau_y        tau_z
    1     1.000000     0.000000     1.000000     0.000000     0.000000     0.000000     0.000000     0.000000
    2    -1.000000     0.000000     1.000000     0.000000     0.000000     0.000000     0.000000     0.000000
    3     1.000000   120.000000    -0.471405    -0.333333    -0.816497     0.000000     0.000000     0.000000
    4    -1.000000   120.000000    -0.471405    -0.333333    -0.816497     0.000000     0.000000     0.000000
    5     1.000000   120.000000     0.471405     0.333334     0.816496     0.000000     0.000000     0.000000
    6    -1.000000   120.000000     0.471405     0.333334     0.816496     0.000000     0.000000     0.000000
    7     1.000000   180.000000     0.288675     0.816497    -0.500000     0.000000     0.000000     0.000000
    8    -1.000000   180.000000     0.288675     0.816497    -0.500000     0.000000     0.000000     0.000000
    9     1.000000   180.000000     0.577350    -0.816497     0.000000     0.000000     0.000000     0.000000
   10    -1.000000   180.000000     0.577350    -0.816497     0.000000     0.000000     0.000000     0.000000
   11     1.000000   180.000000     0.866025     0.000000    -0.500000     0.000000     0.000000     0.000000
   12    -1.000000   180.000000     0.866025     0.000000    -0.500000     0.000000     0.000000     0.000000
   13     1.000000    90.000000    -0.816496    -0.577350     0.000000     0.500000     0.000000     0.000000
   14    -1.000000    90.000000    -0.816496    -0.577350     0.000000     0.500000     0.000000     0.000000
   15     1.000000   180.000000     0.866025     0.000000     0.500000     0.500000     0.000000     0.000000
   16    -1.000000   180.000000     0.866025     0.000000     0.500000     0.500000     0.000000     0.000000
   17     1.000000    90.000000     0.408248    -0.577350     0.707107     0.500000     0.000000     0.000000
   18    -1.000000    90.000000     0.408248    -0.577350     0.707107     0.500000     0.000000     0.000000
   19     1.000000   180.000000     0.816497     0.577350     0.000000     0.000000     0.000000     0.500000
   20    -1.000000   180.000000     0.816497     0.577350     0.000000     0.000000     0.000000     0.500000
   21     1.000000   120.000000     0.942809    -0.333333     0.000000     0.000000     0.000000     0.500000
   22    -1.000000   120.000000     0.942809    -0.333333     0.000000     0.000000     0.000000     0.500000
   23     1.000000   120.000000     0.000000    -1.000000     0.000000     0.000000     0.000000     0.500000
   24    -1.000000   120.000000     0.000000    -1.000000     0.000000     0.000000     0.000000     0.500000
   25     1.000000    90.000000     0.816497     0.577350     0.000000     0.000000     0.500000     0.000000
   26    -1.000000    90.000000     0.816497     0.577350     0.000000     0.000000     0.500000     0.000000
   27     1.000000    90.000000     0.408248    -0.577350    -0.707107     0.000000     0.500000     0.000000
   28    -1.000000    90.000000     0.408248    -0.577350    -0.707107     0.000000     0.500000     0.000000
   29     1.000000   180.000000     0.288675     0.816497     0.500000     0.000000     0.500000     0.000000
   30    -1.000000   180.000000     0.288675     0.816497     0.500000     0.000000     0.500000     0.000000
   31     1.000000   120.000000     0.000000     1.000000     0.000000     0.500000     0.000000     0.000000
   32    -1.000000   120.000000     0.000000     1.000000     0.000000     0.500000     0.000000     0.000000
   33     1.000000   120.000000     0.471404     0.333333    -0.816497     0.500000     0.000000     0.000000
   34    -1.000000   120.000000     0.471404     0.333333    -0.816497     0.500000     0.000000     0.000000
   35     1.000000   180.000000    -0.408248     0.577350     0.707107     0.500000     0.000000     0.000000
   36    -1.000000   180.000000    -0.408248     0.577350     0.707107     0.500000     0.000000     0.000000
   37     1.000000    90.000000    -0.408248     0.577350    -0.707107     0.000000     0.000000     0.500000
   38    -1.000000    90.000000    -0.408248     0.577350    -0.707107     0.000000     0.000000     0.500000
   39     1.000000   180.000000     0.000000     0.000000     1.000000     0.000000     0.000000     0.500000
   40    -1.000000   180.000000     0.000000     0.000000     1.000000     0.000000     0.000000     0.500000
   41     1.000000    90.000000    -0.408248     0.577350     0.707107     0.000000     0.000000     0.500000
   42    -1.000000    90.000000    -0.408248     0.577350     0.707107     0.000000     0.000000     0.500000
   43     1.000000   120.000000    -0.942809     0.333333     0.000000     0.000000     0.500000     0.000000
   44    -1.000000   120.000000    -0.942809     0.333333     0.000000     0.000000     0.500000     0.000000
   45     1.000000   179.999999    -0.408248     0.577350    -0.707107     0.000000     0.500000     0.000000
   46    -1.000000   179.999999    -0.408248     0.577350    -0.707107     0.000000     0.500000     0.000000
   47     1.000000   120.000000    -0.471404    -0.333333     0.816497     0.000000     0.500000     0.000000
   48    -1.000000   120.000000    -0.471404    -0.333333     0.816497     0.000000     0.500000     0.000000
 
 Subroutine IBZKPT returns following result:
 ===========================================
 
 Found     29 irreducible k-points:
 
 Following reciprocal coordinates:
            Coordinates               Weight
  0.000000  0.000000  0.000000      1.000000
  0.125000  0.000000  0.000000      8.000000
  0.250000  0.000000  0.000000      8.000000
  0.375000  0.000000  0.000000      8.000000
  0.500000  0.000000  0.000000      4.000000
  0.125000  0.125000  0.000000      6.000000
  0.250000  0.125000  0.000000     24.000000
  0.375000  0.125000  0.000000     24.000000
  0.500000  0.125000  0.000000     24.000000
 -0.375000  0.125000  0.000000     24.000000
 -0.250000  0.125000  0.000000     24.000000
 -0.125000  0.125000  0.000000     12.000000
  0.250000  0.250000  0.000000      6.000000
  0.375000  0.250000  0.000000     24.000000
  0.500000  0.250000  0.000000     24.000000
 -0.375000  0.250000  0.000000     24.000000
 -0.250000  0.250000  0.000000     12.000000
  0.375000  0.375000  0.000000      6.000000
  0.500000  0.375000  0.000000     24.000000
 -0.375000  0.375000  0.000000     12.000000
  0.500000  0.500000  0.000000      3.000000
  0.375000  0.250000  0.125000     24.000000
  0.500000  0.250000  0.125000     48.000000
 -0.375000  0.250000  0.125000     24.000000
  0.500000  0.375000  0.125000     24.000000
 -0.375000  0.375000  0.125000     48.000000
 -0.250000  0.375000  0.125000     24.000000
 -0.375000  0.500000  0.125000     12.000000
 -0.250000  0.500000  0.250000      6.000000
 
 Following cartesian coordinates:
            Coordinates               Weight
  0.000000  0.000000  0.000000      1.000000
  0.037326 -0.013197  0.000000      8.000000
  0.074651 -0.026393  0.000000      8.000000
  0.111977 -0.039590  0.000000      8.000000
  0.149303 -0.052786  0.000000      4.000000
  0.037326  0.026393  0.000000      6.000000
  0.074651  0.013197  0.000000     24.000000
  0.111977  0.000000  0.000000     24.000000
  0.149303 -0.013197  0.000000     24.000000
 -0.111977  0.079180  0.000000     24.000000
 -0.074651  0.065983  0.000000     24.000000
 -0.037326  0.052787  0.000000     12.000000
  0.074651  0.052787  0.000000      6.000000
  0.111977  0.039590  0.000000     24.000000
  0.149303  0.026393  0.000000     24.000000
 -0.111977  0.118770  0.000000     24.000000
 -0.074651  0.105573  0.000000     12.000000
  0.111977  0.079180  0.000000      6.000000
  0.149303  0.065983  0.000000     24.000000
 -0.111977  0.158360  0.000000     12.000000
  0.149303  0.105573  0.000000      3.000000
  0.093314  0.026393  0.032325     24.000000
  0.130640  0.013197  0.032325     48.000000
 -0.130640  0.105573  0.032325     24.000000
  0.130640  0.052787  0.032325     24.000000
 -0.130640  0.145163  0.032325     48.000000
 -0.093314  0.131966  0.032325     24.000000
 -0.130640  0.184753  0.032325     12.000000
 -0.111977  0.158360  0.064650      6.000000
 


--------------------------------------------------------------------------------------------------------




 Dimension of arrays:
   k-points           NKPTS =     29   k-points in BZ     NKDIM =     29   number of bands    NBANDS=      8
   number of dos      NEDOS =    301   number of ions     NIONS =      2
   non local maximal  LDIM  =      4   non local SUM 2l+1 LMDIM =      8
   total plane-waves  NPLWV =  27000
   max r-space proj   IRMAX =      1   max aug-charges    IRDMAX=  22275
   dimension x,y,z NGX =    30 NGY =   30 NGZ =   30
   dimension x,y,z NGXF=    60 NGYF=   60 NGZF=   60
   support grid    NGXF=    60 NGYF=   60 NGZF=   60
   ions per type =               2
 NGX,Y,Z   is equivalent  to a cutoff of  12.90, 12.90, 12.90 a.u.
 NGXF,Y,Z  is equivalent  to a cutoff of  25.79, 25.79, 25.79 a.u.


 I would recommend the setting:
   dimension x,y,z NGX =    30 NGY =   30 NGZ =   30
 SYSTEM =  unknown system                          
 POSCAR =  bulk@mp_149                             

 Startparameter for this run:
   NWRITE =      2    write-flag & timer
   PREC   = accura    normal or accurate (medium, high low for compatibility)
   ISTART =      0    job   : 0-new  1-cont  2-samecut
   ICHARG =      2    charge: 1-file 2-atom 10-const
   ISPIN  =      1    spin polarized calculation?
   LNONCOLLINEAR =      F non collinear calculations
   LSORBIT =      F    spin-orbit coupling
   INIWAV =      1    electr: 0-lowe 1-rand  2-diag
   LASPH  =      F    aspherical Exc in radial PAW
   METAGGA=      F    non-selfconsistent MetaGGA calc.

 Electronic Relaxation 1
   ENCUT  =  550.0 eV  40.42 Ry    6.36 a.u.   7.39  7.39  7.39*2*pi/ulx,y,z
   ENINI  =  550.0     initial cutoff
   ENAUG  =  322.1 eV  augmentation charge cutoff
   NELM   =    400;   NELMIN=  2; NELMDL= -5     # of ELM steps 
   EDIFF  = 0.1E-06   stopping-criterion for ELM
   LREAL  =      F    real-space projection
   NLSPLINE    = F    spline interpolate recip. space projectors
   LCOMPAT=      F    compatible to vasp.4.4
   GGA_COMPAT  = T    GGA compatible to vasp.4.4-vasp.4.6
   LMAXPAW     = -100 max onsite density
   LMAXMIX     =    2 max onsite mixed and CHGCAR
   VOSKOWN=      0    Vosko Wilk Nusair interpolation
   ROPT   =    0.00000
 Ionic relaxation
   EDIFFG = 0.1E-05   stopping-criterion for IOM
   NSW    =      1    number of steps for IOM
   NBLOCK =      1;   KBLOCK =      1    inner block; outer block 
   IBRION =      2    ionic relax: 0-MD 1-quasi-New 2-CG
   NFREE  =      1    steps in history (QN), initial steepest desc. (CG)
   ISIF   =      2    stress and relaxation
   IWAVPR =     11    prediction:  0-non 1-charg 2-wave 3-comb
   ISYM   =      2    0-nonsym 1-usesym 2-fastsym
   LCORR  =      T    Harris-Foulkes like correction to forces

   POTIM  = 0.5000    time-step for ionic-motion
   TEIN   =    0.0    initial temperature
   TEBEG  =    0.0;   TEEND  =   0.0 temperature during run
   SMASS  =  -3.00    Nose mass-parameter (am)
   estimated Nose-frequenzy (Omega)   =  0.10E-29 period in steps =****** mass=  -0.342E-27a.u.
   SCALEE = 1.0000    scale energy and forces
   NPACO  =    256;   APACO  = 16.0  distance and # of slots for P.C.
   PSTRESS=    0.0 pullay stress

  Mass of Ions in am
   POMASS =  28.09
  Ionic Valenz
   ZVAL   =   4.00
  Atomic Wigner-Seitz radii
   RWIGS  =  -1.00
  virtual crystal weights 
   VCA    =   1.00
   NELECT =       8.0000    total number of electrons
   NUPDOWN=      -1.0000    fix difference up-down

 DOS related values:
   EMIN   =  10.00;   EMAX   =-10.00  energy-range for DOS
   EFERMI =   0.00
   ISMEAR =     0;   SIGMA  =   0.20  broadening in eV -4-tet -1-fermi 0-gaus

 Electronic relaxation 2 (details)
   IALGO  =     38    algorithm
   LDIAG  =      T    sub-space diagonalisation (order eigenvalues)
   LSUBROT=      T    optimize rotation matrix (better conditioning)
   TURBO    =      0    0=normal 1=particle mesh
   IRESTART =      0    0=no restart 2=restart with 2 vectors
   NREBOOT  =      0    no. of reboots
   NMIN     =      0    reboot dimension
   EREF     =   0.00    reference energy to select bands
   IMIX   =      4    mixing-type and parameters
     AMIX     =   0.40;   BMIX     =  1.00
     AMIX_MAG =   1.60;   BMIX_MAG =  1.00
     AMIN     =   0.10
     WC   =   100.;   INIMIX=   1;  MIXPRE=   1;  MAXMIX= -45

 Intra band minimization:
   WEIMIN = 0.0010     energy-eigenvalue tresh-hold
   EBREAK =  0.31E-08  absolut break condition
   DEPER  =   0.30     relativ break condition  

   TIME   =   0.40     timestep for ELM

  volume/ion in A,a.u.               =      20.44       137.96
  Fermi-wavevector in a.u.,A,eV,Ry     =   0.950397  1.795990 12.289528  0.903255
  Thomas-Fermi vector in A             =   2.078770
 
 Write flags
   LWAVE  =      F    write WAVECAR
   LCHARG =      F    write CHGCAR
   LVTOT  =      F    write LOCPOT, total local potential
   LVHAR  =      F    write LOCPOT, Hartree potential only
   LELF   =      F    write electronic localiz. function (ELF)
   LORBIT =      0    0 simple, 1 ext, 2 COOP (PROOUT)


 Dipole corrections
   LMONO  =      F    monopole corrections only (constant potential shift)
   LDIPOL =      F    correct potential (dipole corrections)
   IDIPOL =      0    1-x, 2-y, 3-z, 4-all directions 
   EPSILON=  1.0000000 bulk dielectric constant

 Exchange correlation treatment:
   GGA     =    BO    GGA type
   LEXCH   =    42    internal setting for exchange type
   VOSKOWN=      0    Vosko Wilk Nusair interpolation
   LHFCALC =     F    Hartree Fock is set to
   LHFONE  =     F    Hartree Fock one center treatment
   AEXX    =    0.0000 exact exchange contribution

 vdW DFT:
   LUSE_VDW   =     T    switch on vdW DFT
   Zab_VDW    =-.8491    correlation parameter
   PARAM1     =0.1833
   PARAM2     =0.2200
   PARAM3     =0.0000

 Linear response parameters
   LEPSILON=     F    determine dielectric tensor
   LRPA    =     F    only Hartree local field effects (RPA)
   LNABLA  =     F    use nabla operator in PAW spheres
   LVEL    =     F    velocity operator in full k-point grid
   LINTERFAST=   F  fast interpolation
   KINTER  =     0    interpolate to denser k-point grid
   CSHIFT  =0.1000    complex shift for real part using Kramers Kronig
   OMEGAMAX=  -1.0    maximum frequency
   DEG_THRESHOLD= 0.2000000E-02 threshold for treating states as degnerate
   RTIME   =    0.100 relaxation time in fs

 Orbital magnetization related:
   ORBITALMAG=     F  switch on orbital magnetization
   LCHIMAG   =     F  perturbation theory with respect to B field
   DQ        =  0.001000  dq finite difference perturbation B field



--------------------------------------------------------------------------------------------------------


 conjugate gradient relaxation of ions
 charge density and potential will be updated during run
 non-spin polarized calculation
 Variant of blocked Davidson
 Davidson routine will perform the subspace rotation
 perform sub-space diagonalisation
    after iterative eigenvector-optimisation
 modified Broyden-mixing scheme, WC =      100.0
 initial mixing is a Kerker type mixing with AMIX =  0.4000 and BMIX =      1.0000
 Hartree-type preconditioning will be used
 using additional bands            4
 reciprocal scheme for non local part
 use partial core corrections
 calculate Harris-corrections to forces 
   (improved forces if not selfconsistent)
 use gradient corrections 
 use of overlap-Matrix (Vanderbilt PP)
 Gauss-broadening in eV      SIGMA  =   0.20


--------------------------------------------------------------------------------------------------------


  energy-cutoff  :      550.00
  volume of cell :       40.89
      direct lattice vectors                 reciprocal lattice vectors
     3.348898000  0.000000000  1.933487000     0.298605691 -0.105573000  0.000000000
     1.116299000  3.157372000  1.933487000     0.000000000  0.316719094  0.000000000
     0.000000000  0.000000000  3.866975000    -0.149302807 -0.105573020  0.258600069

  length of vectors
     3.866974243  3.866974707  3.866975000     0.316719145  0.316719094  0.316719096


 
 k-points in units of 2pi/SCALE and weight: Automatic kpoint scheme                 
   0.00000000  0.00000000  0.00000000       0.002
   0.03732571 -0.01319662  0.00000000       0.016
   0.07465142 -0.02639325  0.00000000       0.016
   0.11197713 -0.03958987  0.00000000       0.016
   0.14930285 -0.05278650  0.00000000       0.008
   0.03732571  0.02639326  0.00000000       0.012
   0.07465142  0.01319664  0.00000000       0.047
   0.11197713  0.00000001  0.00000000       0.047
   0.14930285 -0.01319661  0.00000000       0.047
  -0.11197713  0.07917976  0.00000000       0.047
  -0.07465142  0.06598314  0.00000000       0.047
  -0.03732571  0.05278651  0.00000000       0.023
   0.07465142  0.05278652  0.00000000       0.012
   0.11197713  0.03958990  0.00000000       0.047
   0.14930285  0.02639327  0.00000000       0.047
  -0.11197713  0.11876965  0.00000000       0.047
  -0.07465142  0.10557302  0.00000000       0.023
   0.11197713  0.07917979  0.00000000       0.012
   0.14930285  0.06598316  0.00000000       0.047
  -0.11197713  0.15835954  0.00000000       0.023
   0.14930285  0.10557305  0.00000000       0.006
   0.09331428  0.02639327  0.03232501       0.047
   0.13063999  0.01319665  0.03232501       0.094
  -0.13063998  0.10557302  0.03232501       0.047
   0.13063999  0.05278653  0.03232501       0.047
  -0.13063998  0.14516291  0.03232501       0.094
  -0.09331427  0.13196628  0.03232501       0.047
  -0.13063998  0.18475279  0.03232501       0.023
  -0.11197712  0.15835954  0.06465002       0.012
 
 k-points in reciprocal lattice and weights: Automatic kpoint scheme                 
   0.00000000  0.00000000  0.00000000       0.002
   0.12500000  0.00000000  0.00000000       0.016
   0.25000000  0.00000000  0.00000000       0.016
   0.37500000  0.00000000  0.00000000       0.016
   0.50000000  0.00000000  0.00000000       0.008
   0.12500000  0.12500000  0.00000000       0.012
   0.25000000  0.12500000  0.00000000       0.047
   0.37500000  0.12500000  0.00000000       0.047
   0.50000000  0.12500000  0.00000000       0.047
  -0.37500000  0.12500000  0.00000000       0.047
  -0.25000000  0.12500000  0.00000000       0.047
  -0.12500000  0.12500000  0.00000000       0.023
   0.25000000  0.25000000  0.00000000       0.012
   0.37500000  0.25000000  0.00000000       0.047
   0.50000000  0.25000000  0.00000000       0.047
  -0.37500000  0.25000000  0.00000000       0.047
  -0.25000000  0.25000000  0.00000000       0.023
   0.37500000  0.37500000  0.00000000       0.012
   0.50000000  0.37500000  0.00000000       0.047
  -0.37500000  0.37500000  0.00000000       0.023
   0.50000000  0.50000000  0.00000000       0.006
   0.37500000  0.25000000  0.12500000       0.047
   0.50000000  0.25000000  0.12500000       0.094
  -0.37500000  0.25000000  0.12500000       0.047
   0.50000000  0.37500000  0.12500000       0.047
  -0.37500000  0.37500000  0.12500000       0.094
  -0.25000000  0.37500000  0.12500000       0.047
  -0.37500000  0.50000000  0.12500000       0.023
  -0.25000000  0.50000000  0.25000000       0.012
 
 position of ions in fractional coordinates (direct lattice) 
   0.87500000  0.87500000  0.87500000
   0.12500000  0.12500000  0.12500000
 
 position of ions in cartesian coordinates  (Angst):
   3.90704738  2.76270050  6.76720537
   0.55814962  0.39467150  0.96674362
 


--------------------------------------------------------------------------------------------------------


 k-point  1 :   0.0000 0.0000 0.0000  plane waves:    1243
 k-point  2 :   0.1250 0.0000 0.0000  plane waves:    1209
 k-point  3 :   0.2500 0.0000 0.0000  plane waves:    1203
 k-point  4 :   0.3750 0.0000 0.0000  plane waves:    1191
 k-point  5 :   0.5000 0.0000 0.0000  plane waves:    1194
 k-point  6 :   0.1250 0.1250 0.0000  plane waves:    1211
 k-point  7 :   0.2500 0.1250 0.0000  plane waves:    1204
 k-point  8 :   0.3750 0.1250 0.0000  plane waves:    1193
 k-point  9 :   0.5000 0.1250 0.0000  plane waves:    1196
 k-point 10 :  -0.3750 0.1250 0.0000  plane waves:    1194
 k-point 11 :  -0.2500 0.1250 0.0000  plane waves:    1198
 k-point 12 :  -0.1250 0.1250 0.0000  plane waves:    1217
 k-point 13 :   0.2500 0.2500 0.0000  plane waves:    1198
 k-point 14 :   0.3750 0.2500 0.0000  plane waves:    1202
 k-point 15 :   0.5000 0.2500 0.0000  plane waves:    1197
 k-point 16 :  -0.3750 0.2500 0.0000  plane waves:    1191
 k-point 17 :  -0.2500 0.2500 0.0000  plane waves:    1195
 k-point 18 :   0.3750 0.3750 0.0000  plane waves:    1202
 k-point 19 :   0.5000 0.3750 0.0000  plane waves:    1199
 k-point 20 :  -0.3750 0.3750 0.0000  plane waves:    1202
 k-point 21 :   0.5000 0.5000 0.0000  plane waves:    1186
 k-point 22 :   0.3750 0.2500 0.1250  plane waves:    1210
 k-point 23 :   0.5000 0.2500 0.1250  plane waves:    1198
 k-point 24 :  -0.3750 0.2500 0.1250  plane waves:    1198
 k-point 25 :   0.5000 0.3750 0.1250  plane waves:    1191
 k-point 26 :  -0.3750 0.3750 0.1250  plane waves:    1193
 k-point 27 :  -0.2500 0.3750 0.1250  plane waves:    1195
 k-point 28 :  -0.3750 0.5000 0.1250  plane waves:    1192
 k-point 29 :  -0.2500 0.5000 0.2500  plane waves:    1216

 maximum and minimum number of plane-waves per node :       318      291

 maximum number of plane-waves:      1243
 maximum index in each direction: 
   IXMAX=    7   IYMAX=    7   IZMAX=    7
   IXMIN=   -7   IYMIN=   -7   IZMIN=   -7

 NGX is ok and might be reduce to  30
 NGY is ok and might be reduce to  30
 NGZ is ok and might be reduce to  30

 parallel 3D FFT for wavefunctions:
    minimum data exchange during FFTs selected (reduces bandwidth)
 parallel 3D FFT for charge:
    minimum data exchange during FFTs selected (reduces bandwidth)


 total amount of memory used by VASP on root node    32609. kBytes
========================================================================

   base      :      30000. kBytes
   nonl-proj :        604. kBytes
   fftplans  :        700. kBytes
   grid      :        998. kBytes
   one-center:          3. kBytes
   wavefun   :        304. kBytes
 
 Broyden mixing: mesh for mixing (old mesh)
   NGX = 15   NGY = 15   NGZ = 15
  (NGX  = 60   NGY  = 60   NGZ  = 60)
  gives a total of   3375 points

 initial charge density was supplied:
 charge density of overlapping atoms calculated
 number of electron       8.0000000 magnetization 
 keeping initial charge density in first step


--------------------------------------------------------------------------------------------------------


 Maximum index for augmentation-charges         1526 (set IRDMAX)


--------------------------------------------------------------------------------------------------------


 First call to EWALD:  gamma=   0.514
 Maximum number of real-space cells 3x 3x 3
 Maximum number of reciprocal cells 3x 3x 3

 FEWALD executed in parallel
    FEWALD:  cpu time    0.00: real time    0.00


----------------------------------------- Iteration    1(   1)  ---------------------------------------


vdW kernel read from vdw_kernel.bindat
  0.0000  0.2424  0.5071  0.7962  1.1119  1.4567  1.8333  2.2446  2.6937  3.1842
  3.7199  4.3049  4.9438  5.6415  6.4036  7.2358  8.1446  9.1372 10.2212 11.4050
 12.6979 14.1099 15.6519 17.3360 19.1751 21.1837 23.3773 25.7729 28.3892 31.2465
 34.3669 37.7748 41.4965 45.5611 50.0000
 
    POTLOK:  cpu time    3.83: real time    4.17
    SETDIJ:  cpu time    0.01: real time    0.01
     EDDAV:  cpu time    0.53: real time    0.53
       DOS:  cpu time    0.00: real time    0.00
    --------------------------------------------
      LOOP:  cpu time    4.38: real time    5.36

 eigenvalue-minimisations  :   464
 total energy-change (2. order) : 0.8941436E+01  (-0.3492892E+03)
 number of electron       8.0000000 magnetization 
 augmentation part        8.0000000 magnetization 

 Free energy of the ion-electron system (eV)
  ---------------------------------------------------
  alpha Z        PSCENC =         3.29317992
  Ewald energy   TEWEN  =      -226.94489173
  -1/2 Hartree   DENC   =       -11.32339116
  -exchange  EXHF       =         0.00000000
  -V(xc)+E(xc)   XCENC  =       -20.24410379
  PAW double counting   =       189.40224250     -152.61488262
  entropy T*S    EENTRO =        -0.02002059
  eigenvalues    EBANDS =        18.79914076
  atomic energy  EATOM  =       208.59416316
  ---------------------------------------------------
  free energy    TOTEN  =         8.94143643 eV

  energy without entropy =        8.96145702  energy(sigma->0) =        8.95144673


--------------------------------------------------------------------------------------------------------




----------------------------------------- Iteration    1(   2)  ---------------------------------------


     EDDAV:  cpu time    0.44: real time    0.43
       DOS:  cpu time    0.00: real time    0.00
    --------------------------------------------
      LOOP:  cpu time    0.44: real time    1.27

 eigenvalue-minimisations  :   752
 total energy-change (2. order) :-0.1715295E+02  (-0.1603125E+02)
 number of electron       8.0000000 magnetization 
 augmentation part        8.0000000 magnetization 

 Free energy of the ion-electron system (eV)
  ---------------------------------------------------
  alpha Z        PSCENC =         3.29317992
  Ewald energy   TEWEN  =      -226.94489173
  -1/2 Hartree   DENC   =       -11.32339116
  -exchange  EXHF       =         0.00000000
  -V(xc)+E(xc)   XCENC  =       -20.24410379
  PAW double counting   =       189.40224250     -152.61488262
  entropy T*S    EENTRO =        -0.00000460
  eigenvalues    EBANDS =         1.62617532
  atomic energy  EATOM  =       208.59416316
  ---------------------------------------------------
  free energy    TOTEN  =        -8.21151301 eV

  energy without entropy =       -8.21150841  energy(sigma->0) =       -8.21151071


--------------------------------------------------------------------------------------------------------




----------------------------------------- Iteration    1(   3)  ---------------------------------------


     EDDAV:  cpu time    0.56: real time    0.56
       DOS:  cpu time    0.00: real time    0.00
    --------------------------------------------
      LOOP:  cpu time    0.56: real time    1.97

 eigenvalue-minimisations  :   640
 total energy-change (2. order) :-0.1995537E+00  (-0.1995536E+00)
 number of electron       8.0000000 magnetization 
 augmentation part        8.0000000 magnetization 

 Free energy of the ion-electron system (eV)
  ---------------------------------------------------
  alpha Z        PSCENC =         3.29317992
  Ewald energy   TEWEN  =      -226.94489173
  -1/2 Hartree   DENC   =       -11.32339116
  -exchange  EXHF       =         0.00000000
  -V(xc)+E(xc)   XCENC  =       -20.24410379
  PAW double counting   =       189.40224250     -152.61488262
  entropy T*S    EENTRO =        -0.00000386
  eigenvalues    EBANDS =         1.42662092
  atomic energy  EATOM  =       208.59416316
  ---------------------------------------------------
  free energy    TOTEN  =        -8.41106667 eV

  energy without entropy =       -8.41106281  energy(sigma->0) =       -8.41106474


--------------------------------------------------------------------------------------------------------




----------------------------------------- Iteration    1(   4)  ---------------------------------------


     EDDAV:  cpu time    0.70: real time    0.71
       DOS:  cpu time    0.00: real time    0.00
    --------------------------------------------
      LOOP:  cpu time    0.71: real time    1.15

 eigenvalue-minimisations  :   736
 total energy-change (2. order) :-0.8280823E-03  (-0.8280826E-03)
 number of electron       8.0000000 magnetization 
 augmentation part        8.0000000 magnetization 

 Free energy of the ion-electron system (eV)
  ---------------------------------------------------
  alpha Z        PSCENC =         3.29317992
  Ewald energy   TEWEN  =      -226.94489173
  -1/2 Hartree   DENC   =       -11.32339116
  -exchange  EXHF       =         0.00000000
  -V(xc)+E(xc)   XCENC  =       -20.24410379
  PAW double counting   =       189.40224250     -152.61488262
  entropy T*S    EENTRO =        -0.00000385
  eigenvalues    EBANDS =         1.42579283
  atomic energy  EATOM  =       208.59416316
  ---------------------------------------------------
  free energy    TOTEN  =        -8.41189475 eV

  energy without entropy =       -8.41189090  energy(sigma->0) =       -8.41189283


--------------------------------------------------------------------------------------------------------




----------------------------------------- Iteration    1(   5)  ---------------------------------------


     EDDAV:  cpu time    0.66: real time    0.66
       DOS:  cpu time    0.00: real time    0.00
    CHARGE:  cpu time    0.06: real time    0.09
    MIXING:  cpu time    0.00: real time    0.00
    --------------------------------------------
      LOOP:  cpu time    0.73: real time    1.22

 eigenvalue-minimisations  :   616
 total energy-change (2. order) :-0.4130106E-06  (-0.4131885E-06)
 number of electron       8.0000000 magnetization 
 augmentation part       -0.4829297 magnetization 

 Broyden mixing:
  rms(total) = 0.37404E+00    rms(broyden)= 0.37404E+00
  rms(prec ) = 0.89961E+00
  weight for this iteration     100.00

 Free energy of the ion-electron system (eV)
  ---------------------------------------------------
  alpha Z        PSCENC =         3.29317992
  Ewald energy   TEWEN  =      -226.94489173
  -1/2 Hartree   DENC   =       -11.32339116
  -exchange  EXHF       =         0.00000000
  -V(xc)+E(xc)   XCENC  =       -20.24410379
  PAW double counting   =       189.40224250     -152.61488262
  entropy T*S    EENTRO =        -0.00000385
  eigenvalues    EBANDS =         1.42579242
  atomic energy  EATOM  =       208.59416316
  ---------------------------------------------------
  free energy    TOTEN  =        -8.41189517 eV

  energy without entropy =       -8.41189131  energy(sigma->0) =       -8.41189324


--------------------------------------------------------------------------------------------------------




----------------------------------------- Iteration    1(   6)  ---------------------------------------


    POTLOK:  cpu time    1.98: real time    2.01
    SETDIJ:  cpu time    0.00: real time    0.00
     EDDAV:  cpu time    0.38: real time    0.38
       DOS:  cpu time    0.00: real time    0.00
    CHARGE:  cpu time    0.04: real time    0.03
    MIXING:  cpu time    0.00: real time    0.00
    --------------------------------------------
      LOOP:  cpu time    2.39: real time    3.41

 eigenvalue-minimisations  :   552
 total energy-change (2. order) : 0.5367588E-01  (-0.8905532E-02)
 number of electron       8.0000000 magnetization 
 augmentation part       -0.4759817 magnetization 

 Broyden mixing:
  rms(total) = 0.22952E+00    rms(broyden)= 0.22952E+00
  rms(prec ) = 0.54270E+00
  weight for this iteration     100.00

 eigenvalues of (default mixing * dielectric matrix)
  average eigenvalue GAMMA=   2.5723
  2.5723

 Free energy of the ion-electron system (eV)
  ---------------------------------------------------
  alpha Z        PSCENC =         3.29317992
  Ewald energy   TEWEN  =      -226.94489173
  -1/2 Hartree   DENC   =       -12.87365104
  -exchange  EXHF       =         0.00000000
  -V(xc)+E(xc)   XCENC  =       -20.00538865
  PAW double counting   =       308.84110927     -272.18858550
  entropy T*S    EENTRO =        -0.00001554
  eigenvalues    EBANDS =         2.92586083
  atomic energy  EATOM  =       208.59416316
  ---------------------------------------------------
  free energy    TOTEN  =        -8.35821928 eV

  energy without entropy =       -8.35820374  energy(sigma->0) =       -8.35821151


--------------------------------------------------------------------------------------------------------




----------------------------------------- Iteration    1(   7)  ---------------------------------------


    POTLOK:  cpu time    1.60: real time    1.60
    SETDIJ:  cpu time    0.00: real time    0.01
     EDDAV:  cpu time    0.46: real time    0.46
       DOS:  cpu time    0.00: real time    0.00
    CHARGE:  cpu time    0.03: real time    0.03
    MIXING:  cpu time    0.00: real time    0.00
    --------------------------------------------
      LOOP:  cpu time    2.10: real time    2.65

 eigenvalue-minimisations  :   592
 total energy-change (2. order) : 0.5545728E-02  (-0.2033086E-01)
 number of electron       8.0000000 magnetization 
 augmentation part       -0.4665500 magnetization 

 Broyden mixing:
  rms(total) = 0.18563E-01    rms(broyden)= 0.18563E-01
  rms(prec ) = 0.48636E-01
  weight for this iteration     100.00

 eigenvalues of (default mixing * dielectric matrix)
  average eigenvalue GAMMA=   2.3360
  2.3360  2.3360

 Free energy of the ion-electron system (eV)
  ---------------------------------------------------
  alpha Z        PSCENC =         3.29317992
  Ewald energy   TEWEN  =      -226.94489173
  -1/2 Hartree   DENC   =       -15.48967763
  -exchange  EXHF       =         0.00000000
  -V(xc)+E(xc)   XCENC  =       -19.57953098
  PAW double counting   =       559.38088480     -522.90375929
  entropy T*S    EENTRO =        -0.00009923
  eigenvalues    EBANDS =         5.29705742
  atomic energy  EATOM  =       208.59416316
  ---------------------------------------------------
  free energy    TOTEN  =        -8.35267356 eV

  energy without entropy =       -8.35257432  energy(sigma->0) =       -8.35262394


--------------------------------------------------------------------------------------------------------




----------------------------------------- Iteration    1(   8)  ---------------------------------------


    POTLOK:  cpu time    1.60: real time    1.61
    SETDIJ:  cpu time    0.00: real time    0.00
     EDDAV:  cpu time    0.24: real time    0.24
       DOS:  cpu time    0.00: real time    0.00
    CHARGE:  cpu time    0.02: real time    0.02
    MIXING:  cpu time    0.00: real time    0.00
    --------------------------------------------
      LOOP:  cpu time    1.88: real time    5.54

 eigenvalue-minimisations  :   576
 total energy-change (2. order) : 0.1687909E-01  (-0.6354430E-03)
 number of electron       8.0000000 magnetization 
 augmentation part       -0.4682005 magnetization 

 Broyden mixing:
  rms(total) = 0.10028E-01    rms(broyden)= 0.10028E-01
  rms(prec ) = 0.23823E-01
  weight for this iteration     100.00

 eigenvalues of (default mixing * dielectric matrix)
  average eigenvalue GAMMA=   2.0003
  2.6464  1.6772  1.6772

 Free energy of the ion-electron system (eV)
  ---------------------------------------------------
  alpha Z        PSCENC =         3.29317992
  Ewald energy   TEWEN  =      -226.94489173
  -1/2 Hartree   DENC   =       -15.25803607
  -exchange  EXHF       =         0.00000000
  -V(xc)+E(xc)   XCENC  =       -19.59425833
  PAW double counting   =       543.61653550     -507.07330816
  entropy T*S    EENTRO =        -0.00007086
  eigenvalues    EBANDS =         5.03089211
  atomic energy  EATOM  =       208.59416316
  ---------------------------------------------------
  free energy    TOTEN  =        -8.33579447 eV

  energy without entropy =       -8.33572361  energy(sigma->0) =       -8.33575904


--------------------------------------------------------------------------------------------------------




----------------------------------------- Iteration    1(   9)  ---------------------------------------


    POTLOK:  cpu time    1.80: real time    1.80
    SETDIJ:  cpu time    0.00: real time    0.00
     EDDAV:  cpu time    0.28: real time    0.29
       DOS:  cpu time    0.00: real time    0.00
    CHARGE:  cpu time    0.03: real time    0.04
    MIXING:  cpu time    0.00: real time    0.00
    --------------------------------------------
      LOOP:  cpu time    2.13: real time    2.61

 eigenvalue-minimisations  :   640
 total energy-change (2. order) :-0.1660092E-02  (-0.5539329E-04)
 number of electron       8.0000000 magnetization 
 augmentation part       -0.4678661 magnetization 

 Broyden mixing:
  rms(total) = 0.73615E-02    rms(broyden)= 0.73615E-02
  rms(prec ) = 0.80029E-02
  weight for this iteration     100.00

 eigenvalues of (default mixing * dielectric matrix)
  average eigenvalue GAMMA=   2.4059
  3.6660  0.9799  2.6743  2.3033

 Free energy of the ion-electron system (eV)
  ---------------------------------------------------
  alpha Z        PSCENC =         3.29317992
  Ewald energy   TEWEN  =      -226.94489173
  -1/2 Hartree   DENC   =       -15.39140420
  -exchange  EXHF       =         0.00000000
  -V(xc)+E(xc)   XCENC  =       -19.57303170
  PAW double counting   =       550.17834256     -513.64411422
  entropy T*S    EENTRO =        -0.00007693
  eigenvalues    EBANDS =         5.15037857
  atomic energy  EATOM  =       208.59416316
  ---------------------------------------------------
  free energy    TOTEN  =        -8.33745456 eV

  energy without entropy =       -8.33737763  energy(sigma->0) =       -8.33741610


--------------------------------------------------------------------------------------------------------




----------------------------------------- Iteration    1(  10)  ---------------------------------------


    POTLOK:  cpu time    1.96: real time    1.96
    SETDIJ:  cpu time    0.00: real time    0.00
     EDDAV:  cpu time    0.26: real time    0.26
       DOS:  cpu time    0.00: real time    0.00
    CHARGE:  cpu time    0.02: real time    0.02
    MIXING:  cpu time    0.00: real time    0.00
    --------------------------------------------
      LOOP:  cpu time    2.25: real time    2.95

 eigenvalue-minimisations  :   584
 total energy-change (2. order) : 0.6146326E-03  (-0.3678103E-05)
 number of electron       8.0000000 magnetization 
 augmentation part       -0.4678779 magnetization 

 Broyden mixing:
  rms(total) = 0.31632E-02    rms(broyden)= 0.31632E-02
  rms(prec ) = 0.32791E-02
  weight for this iteration     100.00

 eigenvalues of (default mixing * dielectric matrix)
  average eigenvalue GAMMA=   1.9012
  2.9586  2.4195  2.2718  0.9281  0.9281

 Free energy of the ion-electron system (eV)
  ---------------------------------------------------
  alpha Z        PSCENC =         3.29317992
  Ewald energy   TEWEN  =      -226.94489173
  -1/2 Hartree   DENC   =       -15.38119685
  -exchange  EXHF       =         0.00000000
  -V(xc)+E(xc)   XCENC  =       -19.57554840
  PAW double counting   =       534.18656973     -497.65033876
  entropy T*S    EENTRO =        -0.00007542
  eigenvalues    EBANDS =         5.14129843
  atomic energy  EATOM  =       208.59416316
  ---------------------------------------------------
  free energy    TOTEN  =        -8.33683993 eV

  energy without entropy =       -8.33676450  energy(sigma->0) =       -8.33680222


--------------------------------------------------------------------------------------------------------




----------------------------------------- Iteration    1(  11)  ---------------------------------------


    POTLOK:  cpu time    1.88: real time    1.89
    SETDIJ:  cpu time    0.00: real time    0.00
     EDDAV:  cpu time    0.28: real time    0.27
       DOS:  cpu time    0.00: real time    0.00
    CHARGE:  cpu time    0.02: real time    0.02
    MIXING:  cpu time    0.00: real time    0.00
    --------------------------------------------
      LOOP:  cpu time    2.19: real time    6.06

 eigenvalue-minimisations  :   704
 total energy-change (2. order) : 0.2323111E-04  (-0.8583127E-07)
 number of electron       8.0000000 magnetization 
 augmentation part       -0.4678893 magnetization 

 Broyden mixing:
  rms(total) = 0.36528E-03    rms(broyden)= 0.36528E-03
  rms(prec ) = 0.39765E-03
  weight for this iteration     100.00

 eigenvalues of (default mixing * dielectric matrix)
  average eigenvalue GAMMA=   2.0150
  1.0196  0.9890  2.9616  2.7494  2.2337  2.1366

 Free energy of the ion-electron system (eV)
  ---------------------------------------------------
  alpha Z        PSCENC =         3.29317992
  Ewald energy   TEWEN  =      -226.94489173
  -1/2 Hartree   DENC   =       -15.38422379
  -exchange  EXHF       =         0.00000000
  -V(xc)+E(xc)   XCENC  =       -19.57456894
  PAW double counting   =       538.28398499     -501.74763365
  entropy T*S    EENTRO =        -0.00007560
  eigenvalues    EBANDS =         5.14324895
  atomic energy  EATOM  =       208.59416316
  ---------------------------------------------------
  free energy    TOTEN  =        -8.33681670 eV

  energy without entropy =       -8.33674110  energy(sigma->0) =       -8.33677890


--------------------------------------------------------------------------------------------------------




----------------------------------------- Iteration    1(  12)  ---------------------------------------


    POTLOK:  cpu time    2.08: real time    2.08
    SETDIJ:  cpu time    0.00: real time    0.01
     EDDAV:  cpu time    0.58: real time    0.58
       DOS:  cpu time    0.00: real time    0.00
    CHARGE:  cpu time    0.04: real time    0.03
    MIXING:  cpu time    0.00: real time    0.00
    --------------------------------------------
      LOOP:  cpu time    2.71: real time    3.26

 eigenvalue-minimisations  :   592
 total energy-change (2. order) :-0.1300429E-05  (-0.7818618E-08)
 number of electron       8.0000000 magnetization 
 augmentation part       -0.4678906 magnetization 

 Broyden mixing:
  rms(total) = 0.10520E-03    rms(broyden)= 0.10520E-03
  rms(prec ) = 0.10659E-03
  weight for this iteration     100.00

 eigenvalues of (default mixing * dielectric matrix)
  average eigenvalue GAMMA=   1.9368
  2.9940  2.6900  2.5143  2.1832  0.9941  0.9941  1.1882

 Free energy of the ion-electron system (eV)
  ---------------------------------------------------
  alpha Z        PSCENC =         3.29317992
  Ewald energy   TEWEN  =      -226.94489173
  -1/2 Hartree   DENC   =       -15.38414169
  -exchange  EXHF       =         0.00000000
  -V(xc)+E(xc)   XCENC  =       -19.57459922
  PAW double counting   =       538.67168453     -502.13530823
  entropy T*S    EENTRO =        -0.00007555
  eigenvalues    EBANDS =         5.14317083
  atomic energy  EATOM  =       208.59416316
  ---------------------------------------------------
  free energy    TOTEN  =        -8.33681800 eV

  energy without entropy =       -8.33674244  energy(sigma->0) =       -8.33678022


--------------------------------------------------------------------------------------------------------




----------------------------------------- Iteration    1(  13)  ---------------------------------------


    POTLOK:  cpu time    2.08: real time    2.08
    SETDIJ:  cpu time    0.01: real time    0.01
     EDDAV:  cpu time    0.54: real time    0.54
       DOS:  cpu time    0.00: real time    0.00
    CHARGE:  cpu time    0.04: real time    0.04
    MIXING:  cpu time    0.00: real time    0.00
    --------------------------------------------
      LOOP:  cpu time    2.68: real time    3.47

 eigenvalue-minimisations  :   384
 total energy-change (2. order) : 0.2072602E-05  (-0.1693343E-09)
 number of electron       8.0000000 magnetization 
 augmentation part       -0.4678912 magnetization 

 Broyden mixing:
  rms(total) = 0.42039E-05    rms(broyden)= 0.42038E-05
  rms(prec ) = 0.56237E-05
  weight for this iteration     100.00

 eigenvalues of (default mixing * dielectric matrix)
  average eigenvalue GAMMA=   2.0382
  3.0228  2.9558  2.7636  2.4028  2.1943  0.9960  0.9960  0.9746

 Free energy of the ion-electron system (eV)
  ---------------------------------------------------
  alpha Z        PSCENC =         3.29317992
  Ewald energy   TEWEN  =      -226.94489173
  -1/2 Hartree   DENC   =       -15.38415036
  -exchange  EXHF       =         0.00000000
  -V(xc)+E(xc)   XCENC  =       -19.57458833
  PAW double counting   =       538.82287201     -502.28648245
  entropy T*S    EENTRO =        -0.00007555
  eigenvalues    EBANDS =         5.14315741
  atomic energy  EATOM  =       208.59416316
  ---------------------------------------------------
  free energy    TOTEN  =        -8.33681593 eV

  energy without entropy =       -8.33674038  energy(sigma->0) =       -8.33677815


--------------------------------------------------------------------------------------------------------




----------------------------------------- Iteration    1(  14)  ---------------------------------------


    POTLOK:  cpu time    1.94: real time    1.97
    SETDIJ:  cpu time    0.01: real time    0.01
     EDDAV:  cpu time    0.40: real time    0.40
       DOS:  cpu time    0.00: real time    0.00
    CHARGE:  cpu time    0.04: real time    0.04
    MIXING:  cpu time    0.00: real time    0.00
    --------------------------------------------
      LOOP:  cpu time    2.39: real time    3.41

 eigenvalue-minimisations  :   360
 total energy-change (2. order) : 0.6635343E-06  (-0.2116502E-10)
 number of electron       8.0000000 magnetization 
 augmentation part       -0.4678912 magnetization 

 Broyden mixing:
  rms(total) = 0.14009E-05    rms(broyden)= 0.14009E-05
  rms(prec ) = 0.18181E-05
  weight for this iteration     100.00

 eigenvalues of (default mixing * dielectric matrix)
  average eigenvalue GAMMA=   1.8984
  3.0419  2.8825  2.6467  2.4828  2.1771  1.0200  0.9676  0.9676  0.8995

 Free energy of the ion-electron system (eV)
  ---------------------------------------------------
  alpha Z        PSCENC =         3.29317992
  Ewald energy   TEWEN  =      -226.94489173
  -1/2 Hartree   DENC   =       -15.38416960
  -exchange  EXHF       =         0.00000000
  -V(xc)+E(xc)   XCENC  =       -19.57458520
  PAW double counting   =       538.82328365     -502.28689293
  entropy T*S    EENTRO =        -0.00007555
  eigenvalues    EBANDS =         5.14317303
  atomic energy  EATOM  =       208.59416316
  ---------------------------------------------------
  free energy    TOTEN  =        -8.33681526 eV

  energy without entropy =       -8.33673971  energy(sigma->0) =       -8.33677749


--------------------------------------------------------------------------------------------------------




----------------------------------------- Iteration    1(  15)  ---------------------------------------


    POTLOK:  cpu time    2.20: real time    2.22
    SETDIJ:  cpu time    0.00: real time    0.01
     EDDAV:  cpu time    0.30: real time    0.30
       DOS:  cpu time    0.00: real time    0.00
    CHARGE:  cpu time    0.04: real time    0.04
    MIXING:  cpu time    0.00: real time    0.00
    --------------------------------------------
      LOOP:  cpu time    2.56: real time    3.62

 eigenvalue-minimisations  :   272
 total energy-change (2. order) : 0.3724822E-06  (-0.2092039E-11)
 number of electron       8.0000000 magnetization 
 augmentation part       -0.4678913 magnetization 

 Broyden mixing:
  rms(total) = 0.73088E-06    rms(broyden)= 0.73088E-06
  rms(prec ) = 0.76841E-06
  weight for this iteration     100.00

 eigenvalues of (default mixing * dielectric matrix)
  average eigenvalue GAMMA=   1.8474
  3.0563  2.8767  2.6649  2.4793  2.1833  1.0147  0.9761  0.9761  1.1232  1.1232

 Free energy of the ion-electron system (eV)
  ---------------------------------------------------
  alpha Z        PSCENC =         3.29317992
  Ewald energy   TEWEN  =      -226.94489173
  -1/2 Hartree   DENC   =       -15.38416260
  -exchange  EXHF       =         0.00000000
  -V(xc)+E(xc)   XCENC  =       -19.57458598
  PAW double counting   =       538.82092279     -502.28453082
  entropy T*S    EENTRO =        -0.00007555
  eigenvalues    EBANDS =         5.14316592
  atomic energy  EATOM  =       208.59416316
  ---------------------------------------------------
  free energy    TOTEN  =        -8.33681489 eV

  energy without entropy =       -8.33673934  energy(sigma->0) =       -8.33677712


--------------------------------------------------------------------------------------------------------




----------------------------------------- Iteration    1(  16)  ---------------------------------------


    POTLOK:  cpu time    2.25: real time    2.25
    SETDIJ:  cpu time    0.00: real time    0.01
     EDDAV:  cpu time    0.25: real time    0.25
       DOS:  cpu time    0.00: real time    0.00
    --------------------------------------------
      LOOP:  cpu time    2.51: real time    6.31

 eigenvalue-minimisations  :   304
 total energy-change (2. order) :-0.6359363E-07  (-0.4559150E-12)
 number of electron       8.0000000 magnetization 
 augmentation part       -0.4678913 magnetization 

 Free energy of the ion-electron system (eV)
  ---------------------------------------------------
  alpha Z        PSCENC =         3.29317992
  Ewald energy   TEWEN  =      -226.94489173
  -1/2 Hartree   DENC   =       -15.38416417
  -exchange  EXHF       =         0.00000000
  -V(xc)+E(xc)   XCENC  =       -19.57458594
  PAW double counting   =       538.81991264     -502.28352099
  entropy T*S    EENTRO =        -0.00007555
  eigenvalues    EBANDS =         5.14316771
  atomic energy  EATOM  =       208.59416316
  ---------------------------------------------------
  free energy    TOTEN  =        -8.33681495 eV

  energy without entropy =       -8.33673941  energy(sigma->0) =       -8.33677718


--------------------------------------------------------------------------------------------------------




 average (electrostatic) potential at core
  the test charge radii are     0.9892
  (the norm of the test charge is              1.0000)
       1 -83.7657       2 -83.7657
 
 
 
 E-fermi :   5.9372     XC(G=0):  -9.3072     alpha+bet :-11.7317


 k-point   1 :       0.0000    0.0000    0.0000
  band No.  band energies     occupation 
      1      -6.1459      2.00000
      2       5.5951      1.98443
      3       5.5951      1.98443
      4       5.5951      1.98443
      5       8.2172      0.00000
      6       8.2172      0.00000
      7       8.2173      0.00000
      8       8.8233      0.00000

 k-point   2 :       0.1250    0.0000    0.0000
  band No.  band energies     occupation 
      1      -5.9459      2.00000
      2       4.0349      2.00000
      3       5.3202      1.99999
      4       5.3202      1.99999
      5       8.1090      0.00000
      6       8.6262      0.00000
      7       8.6262      0.00000
      8      10.1870      0.00000

 k-point   3 :       0.2500    0.0000    0.0000
  band No.  band energies     occupation 
      1      -5.3628      2.00000
      2       1.7568      2.00000
      3       4.8649      2.00000
      4       4.8649      2.00000
      5       7.6281      0.00000
      6       9.1424      0.00000
      7       9.1424      0.00000
      8      12.3882      0.00000

 k-point   4 :       0.3750    0.0000    0.0000
  band No.  band energies     occupation 
      1      -4.4904      2.00000
      2      -0.2183      2.00000
      3       4.5454      2.00000
      4       4.5454      2.00000
      5       7.2645      0.00000
      6       9.1094      0.00000
      7       9.1094      0.00000
      8      13.5012      0.00000

 k-point   5 :       0.5000    0.0000    0.0000
  band No.  band energies     occupation 
      1      -3.8729      2.00000
      2      -1.2124      2.00000
      3       4.4356      2.00000
      4       4.4356      2.00000
      5       7.1366      0.00000
      6       9.0073      0.00000
      7       9.0073      0.00000
      8      13.3730      0.00000

 k-point   6 :       0.1250    0.1250    0.0000
  band No.  band energies     occupation 
      1      -5.8785      2.00000
      2       4.2700      2.00000
      3       4.8266      2.00000
      4       4.8266      2.00000
      5       7.6783      0.00000
      6       9.3130      0.00000
      7       9.3130      0.00000
      8       9.8867      0.00000

 k-point   7 :       0.2500    0.1250    0.0000
  band No.  band energies     occupation 
      1      -5.4194      2.00000
      2       2.4326      2.00000
      3       4.3302      2.00000
      4       4.3963      2.00000
      5       7.8003      0.00000
      6       9.2836      0.00000
      7      10.0649      0.00000
      8      10.3870      0.00000

 k-point   8 :       0.3750    0.1250    0.0000
  band No.  band energies     occupation 
      1      -4.6228      2.00000
      2       0.4217      2.00000
      3       3.8200      2.00000
      4       4.0671      2.00000
      5       7.8849      0.00000
      6       9.2474      0.00000
      7      10.0864      0.00000
      8      11.0845      0.00000

 k-point   9 :       0.5000    0.1250    0.0000
  band No.  band energies     occupation 
      1      -3.7861      2.00000
      2      -1.0028      2.00000
      3       3.3867      2.00000
      4       4.0878      2.00000
      5       7.8238      0.00000
      6       9.1388      0.00000
      7       9.7450      0.00000
      8      12.9486      0.00000

 k-point  10 :      -0.3750    0.1250    0.0000
  band No.  band energies     occupation 
      1      -4.0227      2.00000
      2      -0.6430      2.00000
      3       3.2131      2.00000
      4       4.3731      2.00000
      5       7.9745      0.00000
      6       9.2538      0.00000
      7       9.5199      0.00000
      8      13.4738      0.00000

 k-point  11 :      -0.2500    0.1250    0.0000
  band No.  band energies     occupation 
      1      -4.9220      2.00000
      2       1.0648      2.00000
      3       3.3668      2.00000
      4       4.8476      2.00000
      5       8.3179      0.00000
      6       9.3199      0.00000
      7       9.4729      0.00000
      8      11.8597      0.00000

 k-point  12 :      -0.1250    0.1250    0.0000
  band No.  band energies     occupation 
      1      -5.6165      2.00000
      2       2.9598      2.00000
      3       4.0382      2.00000
      4       5.3110      1.99999
      5       8.6363      0.00000
      6       8.7688      0.00000
      7       8.9622      0.00000
      8      11.0805      0.00000

 k-point  13 :       0.2500    0.2500    0.0000
  band No.  band energies     occupation 
      1      -5.0858      2.00000
      2       2.1213      2.00000
      3       3.7763      2.00000
      4       3.7763      2.00000
      5       6.8170      0.00000
      6       8.8017      0.00000
      7      11.3167      0.00000
      8      11.3167      0.00000

 k-point  14 :       0.3750    0.2500    0.0000
  band No.  band energies     occupation 
      1      -4.3910      2.00000
      2       0.7317      2.00000
      3       3.0206      2.00000
      4       3.4654      2.00000
      5       7.0329      0.00000
      6       8.5639      0.00000
      7      11.5402      0.00000
      8      11.8389      0.00000

 k-point  15 :       0.5000    0.2500    0.0000
  band No.  band energies     occupation 
      1      -3.4886      2.00000
      2      -0.6703      2.00000
      3       2.1800      2.00000
      4       3.4668      2.00000
      5       7.2069      0.00000
      6      10.0739      0.00000
      7      11.2862      0.00000
      8      11.5189      0.00000

 k-point  16 :      -0.3750    0.2500    0.0000
  band No.  band energies     occupation 
      1      -3.2920      2.00000
      2      -0.9192      2.00000
      3       1.7356      2.00000
      4       3.7748      2.00000
      5       7.5215      0.00000
      6      11.0254      0.00000
      7      11.0929      0.00000
      8      12.5272      0.00000

 k-point  17 :      -0.2500    0.2500    0.0000
  band No.  band energies     occupation 
      1      -4.1466      2.00000
      2       0.2099      2.00000
      3       1.9754      2.00000
      4       4.3147      2.00000
      5       8.1028      0.00000
      6      10.4060      0.00000
      7      10.6956      0.00000
      8      11.7028      0.00000

 k-point  18 :       0.3750    0.3750    0.0000
  band No.  band energies     occupation 
      1      -3.8006      2.00000
      2      -0.0617      2.00000
      3       3.0774      2.00000
      4       3.0774      2.00000
      5       6.3174      0.00717
      6       7.2432      0.00000
      7      13.5587      0.00000
      8      13.5587      0.00000

 k-point  19 :       0.5000    0.3750    0.0000
  band No.  band energies     occupation 
      1      -2.9238      2.00000
      2      -1.1241      2.00000
      3       2.2818      2.00000
      4       3.0025      2.00000
      5       6.5975      0.00000
      6       7.6425      0.00000
      7      13.8093      0.00000
      8      13.8573      0.00000

 k-point  20 :      -0.3750    0.3750    0.0000
  band No.  band energies     occupation 
      1      -2.5020      2.00000
      2      -1.5079      2.00000
      3       1.4466      2.00000
      4       3.2526      2.00000
      5       6.9010      0.00000
      6       9.7550      0.00000
      7      13.0341      0.00000
      8      13.5245      0.00000

 k-point  21 :       0.5000    0.5000    0.0000
  band No.  band energies     occupation 
      1      -2.0883      2.00000
      2      -2.0883      2.00000
      3       2.8374      2.00000
      4       2.8374      2.00000
      5       6.4192      0.00065
      6       6.4192      0.00065
      7      15.5846      0.00000
      8      15.5846      0.00000

 k-point  22 :       0.3750    0.2500    0.1250
  band No.  band energies     occupation 
      1      -4.8440      2.00000
      2       1.3755      2.00000
      3       2.9846      2.00000
      4       4.2205      2.00000
      5       8.0952      0.00000
      6       9.4923      0.00000
      7       9.8461      0.00000
      8      11.0699      0.00000

 k-point  23 :       0.5000    0.2500    0.1250
  band No.  band energies     occupation 
      1      -3.9768      2.00000
      2      -0.1367      2.00000
      3       2.3849      2.00000
      4       3.7388      2.00000
      5       8.5177      0.00000
      6       9.1802      0.00000
      7      10.6295      0.00000
      8      11.5089      0.00000

 k-point  24 :      -0.3750    0.2500    0.1250
  band No.  band energies     occupation 
      1      -3.3445      2.00000
      2      -1.0523      2.00000
      3       2.2543      2.00000
      4       3.5179      2.00000
      5       8.6801      0.00000
      6       8.7957      0.00000
      7      11.4851      0.00000
      8      12.6925      0.00000

 k-point  25 :       0.5000    0.3750    0.1250
  band No.  band energies     occupation 
      1      -3.6078      2.00000
      2      -0.2763      2.00000
      3       2.3524      2.00000
      4       2.9385      2.00000
      5       7.6104      0.00000
      6       8.3171      0.00000
      7      11.3258      0.00000
      8      13.5103      0.00000

 k-point  26 :      -0.3750    0.3750    0.1250
  band No.  band energies     occupation 
      1      -2.7568      2.00000
      2      -1.2210      2.00000
      3       1.6776      2.00000
      4       2.7446      2.00000
      5       8.0503      0.00000
      6       9.9079      0.00000
      7      10.8636      0.00000
      8      12.9964      0.00000

 k-point  27 :      -0.2500    0.3750    0.1250
  band No.  band energies     occupation 
      1      -3.0994      2.00000
      2      -0.8646      2.00000
      3       1.5164      2.00000
      4       3.1081      2.00000
      5       8.5178      0.00000
      6      10.1538      0.00000
      7      10.8169      0.00000
      8      12.6011      0.00000

 k-point  28 :      -0.3750    0.5000    0.1250
  band No.  band energies     occupation 
      1      -2.0149      2.00000
      2      -2.0149      2.00000
      3       2.3006      2.00000
      4       2.3006      2.00000
      5       7.6425      0.00000
      6       7.6425      0.00000
      7      13.3903      0.00000
      8      13.3903      0.00000

 k-point  29 :      -0.2500    0.5000    0.2500
  band No.  band energies     occupation 
      1      -1.9344      2.00000
      2      -1.9344      2.00000
      3       1.8831      2.00000
      4       1.8831      2.00000
      5       9.9006      0.00000
      6       9.9007      0.00000
      7      10.5935      0.00000
      8      10.5935      0.00000


--------------------------------------------------------------------------------------------------------


 soft charge-density along one line, spin component           1
         0         1         2         3         4         5         6         7         8         9
 total charge-density along one line
 
 pseudopotential strength for first ion, spin component:           1
 18.530  25.848   0.000   0.000   0.000   0.000   0.000   0.000
 25.848  36.061   0.000   0.000   0.000   0.000   0.000   0.000
  0.000   0.000   4.199   0.000   0.000   7.816   0.000   0.000
  0.000   0.000   0.000   4.199   0.000   0.000   7.816   0.000
  0.000   0.000   0.000   0.000   4.199   0.000   0.000   7.816
  0.000   0.000   7.816   0.000   0.000  14.561   0.000   0.000
  0.000   0.000   0.000   7.816   0.000   0.000  14.561   0.000
  0.000   0.000   0.000   0.000   7.816   0.000   0.000  14.561
 total augmentation occupancy for first ion, spin component:           1
  3.251  -0.961   0.000   0.000   0.000   0.000   0.000   0.000
 -0.961   0.486   0.000   0.000   0.000   0.000   0.000   0.000
  0.000   0.000   2.262   0.000   0.000  -0.407   0.000   0.000
  0.000   0.000   0.000   2.262   0.000   0.000  -0.407   0.000
  0.000   0.000   0.000   0.000   2.262   0.000   0.000  -0.407
  0.000   0.000  -0.407   0.000   0.000   0.084   0.000   0.000
  0.000   0.000   0.000  -0.407   0.000   0.000   0.084   0.000
  0.000   0.000   0.000   0.000  -0.407   0.000   0.000   0.084


------------------------ aborting loop because EDIFF is reached ----------------------------------------


    CHARGE:  cpu time    0.06: real time    0.06
    FORLOC:  cpu time    0.00: real time    0.00
    FORNL :  cpu time    0.02: real time    0.02
    STRESS:  cpu time    0.10: real time    0.10
    FORCOR:  cpu time    2.28: real time    2.28
    FORHAR:  cpu time    0.01: real time    0.01
    MIXING:  cpu time    0.00: real time    0.00

  FORCE on cell =-STRESS in cart. coord.  units (eV):
  Direction    XX          YY          ZZ          XY          YZ          ZX
  --------------------------------------------------------------------------------------
  Alpha Z     3.29318     3.29318     3.29318
  Ewald     -75.64832   -75.64835   -75.64832    -0.00001     0.00001     0.00001
  Hartree     5.12805     5.12805     5.12806     0.00000     0.00000     0.00000
  E(xc)     -25.38200   -25.38200   -25.38200     0.00000     0.00000     0.00000
  Local     -29.55879   -29.55879   -29.55879     0.00001     0.00000     0.00000
  n-local    74.18218    77.57392    81.77679    -0.93994    -0.71756    -0.01082
  augment   -11.97399   -11.97399   -11.97400     0.00000     0.00000     0.00000
  Kinetic    53.36348    55.46254    61.00837     0.81525     1.01419    -0.53418
  Fock        0.00000     0.00000     0.00000     0.00000     0.00000     0.00000
  -------------------------------------------------------------------------------------
  Total       0.31388     0.31388     0.31388     0.00000     0.00000     0.00000
  in kB      12.29909    12.29910    12.29910     0.00000     0.00000     0.00000
  external pressure =       12.30 kB  Pullay stress =        0.00 kB


 VOLUME and BASIS-vectors are now :
 -----------------------------------------------------------------------------
  energy-cutoff  :      550.00
  volume of cell :       40.89
      direct lattice vectors                 reciprocal lattice vectors
     3.348898000  0.000000000  1.933487000     0.298605691 -0.105573000  0.000000000
     1.116299000  3.157372000  1.933487000     0.000000000  0.316719094  0.000000000
     0.000000000  0.000000000  3.866975000    -0.149302807 -0.105573020  0.258600069

  length of vectors
     3.866974243  3.866974707  3.866975000     0.316719145  0.316719094  0.316719096


 FORCES acting on ions
    electron-ion (+dipol)            ewald-force                    non-local-force                 convergence-correction
 -----------------------------------------------------------------------------------------------
   -.378E-05 0.692E-05 0.844E-05   0.634E-05 -.116E-04 -.142E-04   0.104E-16 -.555E-16 -.472E-15   0.127E-11 0.289E-11 0.530E-11
   0.378E-05 -.692E-05 -.844E-05   -.634E-05 0.116E-04 0.142E-04   -.382E-16 0.000E+00 0.493E-15   -.127E-11 -.289E-11 -.530E-11
 -----------------------------------------------------------------------------------------------
   0.189E-12 -.548E-13 -.107E-13   -.469E-16 0.276E-16 -.294E-16   -.278E-16 -.555E-16 0.208E-16   0.362E-16 0.222E-15 -.175E-14
 
 
 POSITION                                       TOTAL-FORCE (eV/Angst)
 -----------------------------------------------------------------------------------
      3.90705      2.76270      6.76721         0.000000      0.000000      0.000000
      0.55815      0.39467      0.96674         0.000000      0.000000      0.000000
 -----------------------------------------------------------------------------------
    total drift:                                0.000000      0.000000      0.000000


--------------------------------------------------------------------------------------------------------



  FREE ENERGIE OF THE ION-ELECTRON SYSTEM (eV)
  ---------------------------------------------------
  free  energy   TOTEN  =        -8.33681495 eV

  energy  without entropy=       -8.33673941  energy(sigma->0) =       -8.33677718
 


--------------------------------------------------------------------------------------------------------


    POTLOK:  cpu time    2.01: real time    2.04


--------------------------------------------------------------------------------------------------------




--------------------------------------------------------------------------------------------------------


  
 reached required accuracy - stopping structural energy minimisation
     LOOP+:  cpu time   37.10: real time   60.30
    4ORBIT:  cpu time    0.00: real time    0.00

 total amount of memory used by VASP on root node    32609. kBytes
========================================================================

   base      :      30000. kBytes
   nonl-proj :        604. kBytes
   fftplans  :        700. kBytes
   grid      :        998. kBytes
   one-center:          3. kBytes
   wavefun   :        304. kBytes
 
  
  
 General timing and accounting informations for this job:
 ========================================================
  
                  Total CPU time used (sec):       38.262
                            User time (sec):       38.038
                          System time (sec):        0.224
                         Elapsed time (sec):       79.646
  
                   Maximum memory used (kb):      103356.
                   Average memory used (kb):           0.
  
                          Minor page faults:        26822
                          Major page faults:            5
                 Voluntary context switches:          945
