<?xml version="1.0" encoding="ISO-8859-1"?>
<modeling>
 <generator>
  <i name="program" type="string">vasp </i>
  <i name="version" type="string">5.3.3  </i>
  <i name="subversion" type="string">18Dez12 (build Jan 30 2013 10:57:47) complex                          parallel </i>
  <i name="platform" type="string">LinuxIFC </i>
  <i name="date" type="string">2016 06 21 </i>
  <i name="time" type="string">12:26:01 </i>
 </generator>
 <incar>
  <i type="string" name="PREC">accurate</i>
  <i type="int" name="NELM">   400</i>
  <i type="int" name="IBRION">     2</i>
  <i name="EDIFF">      0.00000010</i>
  <i type="int" name="NSW">     1</i>
  <i name="ENCUT">    550.00000000</i>
  <i type="int" name="ISMEAR">     0</i>
  <i type="logical" name="LWAVE"> F  </i>
  <i type="logical" name="LCHARG"> F  </i>
  <i type="int" name="NELM">   400</i>
  <i type="string" name="GGA"> BO</i>
  <i name="PARAM1">      0.18333333</i>
  <i name="PARAM2">      0.22000000</i>
  <i type="logical" name="LUSE_VDW"> T  </i>
  <i name="AGGAC">      0.00000000</i>
 </incar>
 <kpoints>
  <generation param="Gamma">
   <v type="int" name="divisions">       8        8        8 </v>
   <v name="usershift">      0.00000000       0.00000000       0.00000000 </v>
   <v name="genvec1">      0.12500000       0.00000000       0.00000000 </v>
   <v name="genvec2">      0.00000000       0.12500000       0.00000000 </v>
   <v name="genvec3">      0.00000000       0.00000000       0.12500000 </v>
   <v name="shift">      0.00000000       0.00000000       0.00000000 </v>
  </generation>
  <varray name="kpointlist" >
   <v>       0.00000000       0.00000000       0.00000000 </v>
   <v>       0.12500000       0.00000000       0.00000000 </v>
   <v>       0.25000000       0.00000000       0.00000000 </v>
   <v>       0.37500000       0.00000000       0.00000000 </v>
   <v>       0.50000000       0.00000000       0.00000000 </v>
   <v>       0.12500000       0.12500000       0.00000000 </v>
   <v>       0.25000000       0.12500000       0.00000000 </v>
   <v>       0.37500000       0.12500000       0.00000000 </v>
   <v>       0.50000000       0.12500000       0.00000000 </v>
   <v>      -0.37500000       0.12500000       0.00000000 </v>
   <v>      -0.25000000       0.12500000       0.00000000 </v>
   <v>      -0.12500000       0.12500000       0.00000000 </v>
   <v>       0.25000000       0.25000000       0.00000000 </v>
   <v>       0.37500000       0.25000000       0.00000000 </v>
   <v>       0.50000000       0.25000000       0.00000000 </v>
   <v>      -0.37500000       0.25000000       0.00000000 </v>
   <v>      -0.25000000       0.25000000       0.00000000 </v>
   <v>       0.37500000       0.37500000       0.00000000 </v>
   <v>       0.50000000       0.37500000       0.00000000 </v>
   <v>      -0.37500000       0.37500000       0.00000000 </v>
   <v>       0.50000000       0.50000000       0.00000000 </v>
   <v>       0.37500000       0.25000000       0.12500000 </v>
   <v>       0.50000000       0.25000000       0.12500000 </v>
   <v>      -0.37500000       0.25000000       0.12500000 </v>
   <v>       0.50000000       0.37500000       0.12500000 </v>
   <v>      -0.37500000       0.37500000       0.12500000 </v>
   <v>      -0.25000000       0.37500000       0.12500000 </v>
   <v>      -0.37500000       0.50000000       0.12500000 </v>
   <v>      -0.25000000       0.50000000       0.25000000 </v>
  </varray>
  <varray name="weights" >
   <v>       0.00195312 </v>
   <v>       0.01562500 </v>
   <v>       0.01562500 </v>
   <v>       0.01562500 </v>
   <v>       0.00781250 </v>
   <v>       0.01171875 </v>
   <v>       0.04687500 </v>
   <v>       0.04687500 </v>
   <v>       0.04687500 </v>
   <v>       0.04687500 </v>
   <v>       0.04687500 </v>
   <v>       0.02343750 </v>
   <v>       0.01171875 </v>
   <v>       0.04687500 </v>
   <v>       0.04687500 </v>
   <v>       0.04687500 </v>
   <v>       0.02343750 </v>
   <v>       0.01171875 </v>
   <v>       0.04687500 </v>
   <v>       0.02343750 </v>
   <v>       0.00585938 </v>
   <v>       0.04687500 </v>
   <v>       0.09375000 </v>
   <v>       0.04687500 </v>
   <v>       0.04687500 </v>
   <v>       0.09375000 </v>
   <v>       0.04687500 </v>
   <v>       0.02343750 </v>
   <v>       0.01171875 </v>
  </varray>
 </kpoints>
 <parameters>
  <separator name="general" >
   <i type="string" name="SYSTEM">unknown system</i>
   <i type="logical" name="LCOMPAT"> F  </i>
  </separator>
  <separator name="electronic" >
   <i type="string" name="PREC">accura</i>
   <i name="ENMAX">    550.00000000</i>
   <i name="ENAUG">    322.06900000</i>
   <i name="EDIFF">      0.00000010</i>
   <i type="int" name="IALGO">    38</i>
   <i type="int" name="IWAVPR">    11</i>
   <i type="int" name="NBANDS">     8</i>
   <i name="NELECT">      8.00000000</i>
   <i type="int" name="TURBO">     0</i>
   <i type="int" name="IRESTART">     0</i>
   <i type="int" name="NREBOOT">     0</i>
   <i type="int" name="NMIN">     0</i>
   <i name="EREF">      0.00000000</i>
   <separator name="electronic smearing" >
    <i type="int" name="ISMEAR">     0</i>
    <i name="SIGMA">      0.20000000</i>
    <i name="KSPACING">      0.50000000</i>
    <i type="logical" name="KGAMMA"> T  </i>
   </separator>
   <separator name="electronic projectors" >
    <i type="logical" name="LREAL"> F  </i>
    <v name="ROPT">      0.00000000</v>
    <i type="int" name="LMAXPAW">  -100</i>
    <i type="int" name="LMAXMIX">     2</i>
    <i type="logical" name="NLSPLINE"> F  </i>
   </separator>
   <separator name="electronic startup" >
    <i type="int" name="ISTART">     0</i>
    <i type="int" name="ICHARG">     2</i>
    <i type="int" name="INIWAV">     1</i>
   </separator>
   <separator name="electronic spin" >
    <i type="int" name="ISPIN">     1</i>
    <i type="logical" name="LNONCOLLINEAR"> F  </i>
    <v name="MAGMOM">      1.00000000      1.00000000</v>
    <i name="NUPDOWN">     -1.00000000</i>
    <i type="logical" name="LSORBIT"> F  </i>
    <v name="SAXIS">      0.00000000      0.00000000      1.00000000</v>
    <i type="logical" name="LSPIRAL"> F  </i>
    <v name="QSPIRAL">      0.00000000      0.00000000      0.00000000</v>
    <i type="logical" name="LZEROZ"> F  </i>
   </separator>
   <separator name="electronic exchange-correlation" >
    <i type="logical" name="LASPH"> F  </i>
    <i type="logical" name="LMETAGGA"> F  </i>
   </separator>
   <separator name="electronic convergence" >
    <i type="int" name="NELM">   400</i>
    <i type="int" name="NELMDL">    -5</i>
    <i type="int" name="NELMIN">     2</i>
    <i name="ENINI">    550.00000000</i>
    <separator name="electronic convergence detail" >
     <i type="logical" name="LDIAG"> T  </i>
     <i type="logical" name="LSUBROT"> T  </i>
     <i name="WEIMIN">      0.00100000</i>
     <i name="EBREAK">      0.00000000</i>
     <i name="DEPER">      0.30000000</i>
     <i type="int" name="NRMM">     4</i>
     <i name="TIME">      0.40000000</i>
    </separator>
   </separator>
   <separator name="electronic mixer" >
    <i name="AMIX">      0.40000000</i>
    <i name="BMIX">      1.00000000</i>
    <i name="AMIN">      0.10000000</i>
    <i name="AMIX_MAG">      1.60000000</i>
    <i name="BMIX_MAG">      1.00000000</i>
    <separator name="electronic mixer details" >
     <i type="int" name="IMIX">     4</i>
     <i type="int" name="MAXMIX">   -45</i>
     <i name="WC">    100.00000000</i>
     <i type="int" name="INIMIX">     1</i>
     <i type="int" name="MIXPRE">     1</i>
     <i type="int" name="MREMOVE">     5</i>
    </separator>
   </separator>
   <separator name="electronic dipolcorrection" >
    <i type="logical" name="LDIPOL"> F  </i>
    <i type="logical" name="LMONO"> F  </i>
    <i type="int" name="IDIPOL">     0</i>
    <i name="EPSILON">      1.00000000</i>
    <v name="DIPOL">   -100.00000000   -100.00000000   -100.00000000</v>
    <i name="EFIELD">      0.00000000</i>
   </separator>
  </separator>
  <separator name="grids" >
   <i type="int" name="NGX">    30</i>
   <i type="int" name="NGY">    30</i>
   <i type="int" name="NGZ">    30</i>
   <i type="int" name="NGXF">    60</i>
   <i type="int" name="NGYF">    60</i>
   <i type="int" name="NGZF">    60</i>
   <i type="logical" name="ADDGRID"> F  </i>
  </separator>
  <separator name="ionic" >
   <i type="int" name="NSW">     1</i>
   <i type="int" name="IBRION">     2</i>
   <i type="int" name="ISIF">     2</i>
   <i name="PSTRESS">      0.00000000</i>
   <i name="EDIFFG">      0.00000100</i>
   <i type="int" name="NFREE">     1</i>
   <i name="POTIM">      0.50000000</i>
   <i name="SMASS">     -3.00000000</i>
   <i name="SCALEE">      1.00000000</i>
  </separator>
  <separator name="ionic md" >
   <i name="TEBEG">      0.00010000</i>
   <i name="TEEND">      0.00010000</i>
   <i type="int" name="NBLOCK">     1</i>
   <i type="int" name="KBLOCK">     1</i>
   <i type="int" name="NPACO">   256</i>
   <i name="APACO">     16.00000000</i>
  </separator>
  <separator name="symmetry" >
   <i type="int" name="ISYM">     2</i>
   <i name="SYMPREC">      0.00001000</i>
  </separator>
  <separator name="dos" >
   <i type="logical" name="LORBIT"> F  </i>
   <v name="RWIGS">     -1.00000000</v>
   <i type="int" name="NEDOS">   301</i>
   <i name="EMIN">     10.00000000</i>
   <i name="EMAX">    -10.00000000</i>
   <i name="EFERMI">      0.00000000</i>
  </separator>
  <separator name="writing" >
   <i type="int" name="NWRITE">     2</i>
   <i type="logical" name="LWAVE"> F  </i>
   <i type="logical" name="LCHARG"> F  </i>
   <i type="logical" name="LPARD"> F  </i>
   <i type="logical" name="LVTOT"> F  </i>
   <i type="logical" name="LVHAR"> F  </i>
   <i type="logical" name="LELF"> F  </i>
   <i type="logical" name="LOPTICS"> F  </i>
   <v name="STM">      0.00000000      0.00000000      0.00000000      0.00000000      0.00000000      0.00000000      0.00000000</v>
  </separator>
  <separator name="performance" >
   <i type="int" name="NPAR">     4</i>
   <i type="int" name="NSIM">     4</i>
   <i type="int" name="NBLK">    -1</i>
   <i type="logical" name="LPLANE"> T  </i>
   <i type="logical" name="LSCALAPACK"> F  </i>
   <i type="logical" name="LSCAAWARE"> F  </i>
   <i type="logical" name="LSCALU"> F  </i>
   <i type="logical" name="LASYNC"> F  </i>
   <i type="logical" name="LORBITALREAL"> F  </i>
  </separator>
  <separator name="miscellaneous" >
   <i type="int" name="IDIOT">     3</i>
   <i type="logical" name="LMUSIC"> F  </i>
   <v name="POMASS">     28.08500000</v>
   <v name="DARWINR">      0.00000000</v>
   <v name="DARWINV">      1.00000000</v>
   <i type="logical" name="LCORR"> T  </i>
  </separator>
  <i type="logical" name="GGA_COMPAT"> T  </i>
  <i type="logical" name="LBERRY"> F  </i>
  <i type="int" name="ICORELEVEL">     0</i>
  <i type="logical" name="LDAU"> F  </i>
  <i type="int" name="I_CONSTRAINED_M">     0</i>
  <separator name="electronic exchange-correlation" >
   <i type="string" name="GGA">BO</i>
   <i type="int" name="VOSKOWN">     0</i>
   <i type="logical" name="LHFCALC"> F  </i>
   <i type="string" name="PRECFOCK"></i>
   <i type="logical" name="LSYMGRAD"> F  </i>
   <i type="logical" name="LHFONE"> F  </i>
   <i type="logical" name="LRHFCALC"> F  </i>
   <i type="logical" name="LTHOMAS"> F  </i>
   <i type="logical" name="LMODELHF"> F  </i>
   <i name="ENCUT4O">     -1.00000000</i>
   <i type="int" name="EXXOEP">     0</i>
   <i type="int" name="FOURORBIT">     0</i>
   <i name="AEXX">      0.00000000</i>
   <i name="HFALPHA">      0.00000000</i>
   <i name="MCALPHA">      0.00000000</i>
   <i name="ALDAX">      1.00000000</i>
   <i name="AGGAX">      1.00000000</i>
   <i name="ALDAC">      1.00000000</i>
   <i name="AGGAC">      0.00000000</i>
   <i type="int" name="NKREDX">     1</i>
   <i type="int" name="NKREDY">     1</i>
   <i type="int" name="NKREDZ">     1</i>
   <i type="logical" name="SHIFTRED"> F  </i>
   <i type="logical" name="ODDONLY"> F  </i>
   <i type="logical" name="EVENONLY"> F  </i>
   <i type="int" name="LMAXFOCK">     0</i>
   <i type="int" name="NMAXFOCKAE">     0</i>
   <i type="logical" name="LFOCKAEDFT"> F  </i>
   <i name="HFSCREEN">      0.00000000</i>
   <i name="HFSCREENC">      0.00000000</i>
   <i type="int" name="NBANDSGWLOW">     0</i>
  </separator>
  <separator name="vdW DFT" >
   <i type="logical" name="LUSE_VDW"> T  </i>
   <i name="Zab_VDW">     -0.84910000</i>
   <i name="PARAM1">      0.18333333</i>
   <i name="PARAM2">      0.22000000</i>
   <i name="PARAM3">      0.00000000</i>
  </separator>
  <separator name="model GW" >
   <i type="int" name="MODEL_GW">     0</i>
   <i name="MODEL_EPS0">     12.26648953</i>
   <i name="MODEL_ALPHA">      1.00000000</i>
  </separator>
  <separator name="linear response parameters" >
   <i type="logical" name="LEPSILON"> F  </i>
   <i type="logical" name="LRPA"> F  </i>
   <i type="logical" name="LNABLA"> F  </i>
   <i type="logical" name="LVEL"> F  </i>
   <i type="int" name="KINTER">     0</i>
   <i name="CSHIFT">      0.10000000</i>
   <i name="OMEGAMAX">     -1.00000000</i>
   <i name="DEG_THRESHOLD">      0.00200000</i>
  </separator>
  <separator name="orbital magnetization" >
   <i type="logical" name="NUCIND"> F  </i>
   <v name="MAGPOS">      0.00000000      0.00000000      0.00000000</v>
   <i type="logical" name="LNICSALL"> T  </i>
   <i type="logical" name="ORBITALMAG"> F  </i>
   <i type="logical" name="LMAGBLOCH"> F  </i>
   <i type="logical" name="LCHIMAG"> F  </i>
   <i type="logical" name="LGAUGE"> T  </i>
   <i type="int" name="MAGATOM">     0</i>
   <v name="MAGDIPOL">      0.00000000      0.00000000      0.00000000</v>
   <v name="AVECCONST">      0.00000000      0.00000000      0.00000000</v>
  </separator>
  <separator name="response functions" >
   <i type="logical" name="LADDER"> F  </i>
   <i type="logical" name="LFXC"> F  </i>
   <i type="logical" name="LHARTREE"> T  </i>
   <i type="int" name="IBSE">     0</i>
   <i type="logical" name="LTCTE"> F  </i>
   <i type="logical" name="LTETE"> F  </i>
   <i type="logical" name="LTRIPLET"> F  </i>
   <i type="logical" name="LFXCEPS"> F  </i>
   <i type="logical" name="L2ORDER"> F  </i>
   <i type="logical" name="LUSEW"> F  </i>
   <i name="ENCUTGW">     -2.00000000</i>
   <i name="ENCUTGWSOFT">     -2.00000000</i>
   <i name="ENCUTLF">     -1.00000000</i>
   <i type="int" name="LMAXMP2">    -1</i>
   <i name="SCISSOR">      0.00000000</i>
   <i type="int" name="NOMEGA">     0</i>
   <i type="int" name="NOMEGAR">     0</i>
   <i type="int" name="NBANDSGW">    -1</i>
   <i type="int" name="NBANDSO">    -1</i>
   <i type="int" name="NBANDSV">    -1</i>
   <i type="int" name="NELM">   400</i>
   <i type="int" name="DIM">     3</i>
   <i type="int" name="ANTIRES">     0</i>
   <i name="OMEGAMAX">    -30.00000000</i>
   <i name="OMEGATL">   -200.00000000</i>
   <i type="int" name="OMEGAGRID">     0</i>
   <i name="CSHIFT">     -0.10000000</i>
   <i type="logical" name="SELFENERGY"> F  </i>
   <i type="logical" name="LSPECTRAL"> F  </i>
   <i type="logical" name="ODDONLYGW"> F  </i>
   <i type="logical" name="EVENONLYGW"> F  </i>
   <i type="int" name="NKREDLFX">     1</i>
   <i type="int" name="NKREDLFY">     1</i>
   <i type="int" name="NKREDLFZ">     1</i>
   <i type="int" name="MAXMEM">  1800</i>
   <i type="int" name="TELESCOPE">     0</i>
  </separator>
 </parameters>
 <atominfo>
  <atoms>       2 </atoms>
  <types>       1 </types>
  <array name="atoms" >
   <dimension dim="1">ion</dimension>
   <field type="string">element</field>
   <field type="int">atomtype</field>
   <set>
    <rc><c>Si</c><c>   1</c></rc>
    <rc><c>Si</c><c>   1</c></rc>
   </set>
  </array>
  <array name="atomtypes" >
   <dimension dim="1">type</dimension>
   <field type="int">atomspertype</field>
   <field type="string">element</field>
   <field>mass</field>
   <field>valence</field>
   <field type="string">pseudopotential</field>
   <set>
    <rc><c>   2</c><c>Si</c><c>     28.08500000</c><c>      4.00000000</c><c>  PAW_PBE Si 05Jan2001                  </c></rc>
   </set>
  </array>
 </atominfo>
 <structure name="initialpos" >
  <crystal>
   <varray name="basis" >
    <v>       3.34889800       0.00000000       1.93348700 </v>
    <v>       1.11629900       3.15737200       1.93348700 </v>
    <v>       0.00000000       0.00000000       3.86697500 </v>
   </varray>
   <i name="volume">     40.88829843 </i>
   <varray name="rec_basis" >
    <v>       0.29860569      -0.10557300       0.00000000 </v>
    <v>       0.00000000       0.31671909       0.00000000 </v>
    <v>      -0.14930281      -0.10557302       0.25860007 </v>
   </varray>
  </crystal>
  <varray name="positions" >
   <v>       0.87500000       0.87500000       0.87500000 </v>
   <v>       0.12500000       0.12500000       0.12500000 </v>
  </varray>
 </structure>
 <calculation>
  <scstep>
   <time name="dav">    0.53    0.53</time>
   <time name="total">    4.38    5.36</time>
   <energy>
    <i name="alphaZ">      3.29317992 </i>
    <i name="ewald">   -226.94489173 </i>
    <i name="hartreedc">    -11.32339116 </i>
    <i name="XCdc">    -20.24410379 </i>
    <i name="pawpsdc">    189.40224250 </i>
    <i name="pawaedc">   -152.61488262 </i>
    <i name="eentropy">     -0.02002059 </i>
    <i name="bandstr">     18.79914076 </i>
    <i name="atom">    208.59416316 </i>
    <i name="e_fr_energy">      8.94143643 </i>
    <i name="e_wo_entrp">      8.96145702 </i>
    <i name="e_0_energy">      8.95144673 </i>
   </energy>
  </scstep>
  <scstep>
   <time name="dav">    0.44    0.43</time>
   <time name="total">    0.44    1.27</time>
   <energy>
    <i name="e_fr_energy">     -8.21151301 </i>
    <i name="e_wo_entrp">     -8.21150841 </i>
    <i name="e_0_energy">     -8.21151071 </i>
   </energy>
  </scstep>
  <scstep>
   <time name="dav">    0.56    0.56</time>
   <time name="total">    0.56    1.97</time>
   <energy>
    <i name="e_fr_energy">     -8.41106667 </i>
    <i name="e_wo_entrp">     -8.41106281 </i>
    <i name="e_0_energy">     -8.41106474 </i>
   </energy>
  </scstep>
  <scstep>
   <time name="dav">    0.70    0.71</time>
   <time name="total">    0.71    1.15</time>
   <energy>
    <i name="e_fr_energy">     -8.41189475 </i>
    <i name="e_wo_entrp">     -8.41189090 </i>
    <i name="e_0_energy">     -8.41189283 </i>
   </energy>
  </scstep>
  <scstep>
   <time name="dav">    0.66    0.66</time>
   <time name="total">    0.73    1.22</time>
   <energy>
    <i name="e_fr_energy">     -8.41189517 </i>
    <i name="e_wo_entrp">     -8.41189131 </i>
    <i name="e_0_energy">     -8.41189324 </i>
   </energy>
  </scstep>
  <scstep>
   <time name="dav">    0.38    0.38</time>
   <time name="total">    2.39    3.41</time>
   <energy>
    <i name="e_fr_energy">     -8.35821928 </i>
    <i name="e_wo_entrp">     -8.35820374 </i>
    <i name="e_0_energy">     -8.35821151 </i>
   </energy>
  </scstep>
  <scstep>
   <time name="dav">    0.46    0.46</time>
   <time name="total">    2.10    2.65</time>
   <energy>
    <i name="e_fr_energy">     -8.35267356 </i>
    <i name="e_wo_entrp">     -8.35257432 </i>
    <i name="e_0_energy">     -8.35262394 </i>
   </energy>
  </scstep>
  <scstep>
   <time name="dav">    0.24    0.24</time>
   <time name="total">    1.88    5.54</time>
   <energy>
    <i name="e_fr_energy">     -8.33579447 </i>
    <i name="e_wo_entrp">     -8.33572361 </i>
    <i name="e_0_energy">     -8.33575904 </i>
   </energy>
  </scstep>
  <scstep>
   <time name="dav">    0.28    0.29</time>
   <time name="total">    2.13    2.61</time>
   <energy>
    <i name="e_fr_energy">     -8.33745456 </i>
    <i name="e_wo_entrp">     -8.33737763 </i>
    <i name="e_0_energy">     -8.33741610 </i>
   </energy>
  </scstep>
  <scstep>
   <time name="dav">    0.26    0.26</time>
   <time name="total">    2.25    2.95</time>
   <energy>
    <i name="e_fr_energy">     -8.33683993 </i>
    <i name="e_wo_entrp">     -8.33676450 </i>
    <i name="e_0_energy">     -8.33680222 </i>
   </energy>
  </scstep>
  <scstep>
   <time name="dav">    0.28    0.27</time>
   <time name="total">    2.19    6.06</time>
   <energy>
    <i name="e_fr_energy">     -8.33681670 </i>
    <i name="e_wo_entrp">     -8.33674110 </i>
    <i name="e_0_energy">     -8.33677890 </i>
   </energy>
  </scstep>
  <scstep>
   <time name="dav">    0.58    0.58</time>
   <time name="total">    2.71    3.26</time>
   <energy>
    <i name="e_fr_energy">     -8.33681800 </i>
    <i name="e_wo_entrp">     -8.33674244 </i>
    <i name="e_0_energy">     -8.33678022 </i>
   </energy>
  </scstep>
  <scstep>
   <time name="dav">    0.54    0.54</time>
   <time name="total">    2.68    3.47</time>
   <energy>
    <i name="e_fr_energy">     -8.33681593 </i>
    <i name="e_wo_entrp">     -8.33674038 </i>
    <i name="e_0_energy">     -8.33677815 </i>
   </energy>
  </scstep>
  <scstep>
   <time name="dav">    0.40    0.40</time>
   <time name="total">    2.39    3.41</time>
   <energy>
    <i name="e_fr_energy">     -8.33681526 </i>
    <i name="e_wo_entrp">     -8.33673971 </i>
    <i name="e_0_energy">     -8.33677749 </i>
   </energy>
  </scstep>
  <scstep>
   <time name="dav">    0.30    0.30</time>
   <time name="total">    2.56    3.62</time>
   <energy>
    <i name="e_fr_energy">     -8.33681489 </i>
    <i name="e_wo_entrp">     -8.33673934 </i>
    <i name="e_0_energy">     -8.33677712 </i>
   </energy>
  </scstep>
  <scstep>
   <time name="dav">    0.25    0.25</time>
   <time name="total">    2.51    6.31</time>
   <energy>
    <i name="alphaZ">      3.29317992 </i>
    <i name="ewald">   -226.94489173 </i>
    <i name="hartreedc">    -15.38416417 </i>
    <i name="XCdc">    -19.57458594 </i>
    <i name="pawpsdc">    538.81991264 </i>
    <i name="pawaedc">   -502.28352099 </i>
    <i name="eentropy">     -0.00007555 </i>
    <i name="bandstr">      5.14316771 </i>
    <i name="atom">    208.59416316 </i>
    <i name="e_fr_energy">     -8.33681495 </i>
    <i name="e_wo_entrp">     -8.33673941 </i>
    <i name="e_0_energy">     -8.33677718 </i>
   </energy>
  </scstep>
  <structure>
   <crystal>
    <varray name="basis" >
     <v>       3.34889800       0.00000000       1.93348700 </v>
     <v>       1.11629900       3.15737200       1.93348700 </v>
     <v>       0.00000000       0.00000000       3.86697500 </v>
    </varray>
    <i name="volume">     40.88829843 </i>
    <varray name="rec_basis" >
     <v>       0.29860569      -0.10557300       0.00000000 </v>
     <v>       0.00000000       0.31671909       0.00000000 </v>
     <v>      -0.14930281      -0.10557302       0.25860007 </v>
    </varray>
   </crystal>
   <varray name="positions" >
    <v>       0.87500000       0.87500000       0.87500000 </v>
    <v>       0.12500000       0.12500000       0.12500000 </v>
   </varray>
  </structure>
  <varray name="forces" >
   <v>       0.00000000       0.00000000       0.00000000 </v>
   <v>       0.00000000       0.00000000       0.00000000 </v>
  </varray>
  <varray name="stress" >
   <v>      12.29909395      -0.00000130      -0.00000184 </v>
   <v>      -0.00000130      12.29909930      -0.00000130 </v>
   <v>      -0.00000184      -0.00000130      12.29909825 </v>
  </varray>
  <energy>
   <i name="e_fr_energy">     -8.33681495 </i>
   <i name="e_wo_entrp">     -8.33677718 </i>
   <i name="e_0_energy">     -0.00007555 </i>
  </energy>
  <time name="totalsc">   37.10   60.30</time>
  <eigenvalues>
   <array>
    <dimension dim="1">band</dimension>
    <dimension dim="2">kpoint</dimension>
    <dimension dim="3">spin</dimension>
    <field>eigene</field>
    <field>occ</field>
    <set>
     <set comment="spin 1">
      <set comment="kpoint 1">
       <r>   -6.1459    1.0000 </r>
       <r>    5.5951    0.9922 </r>
       <r>    5.5951    0.9922 </r>
       <r>    5.5951    0.9922 </r>
       <r>    8.2172    0.0000 </r>
       <r>    8.2172    0.0000 </r>
       <r>    8.2173    0.0000 </r>
       <r>    8.8233    0.0000 </r>
      </set>
      <set comment="kpoint 2">
       <r>   -5.9459    1.0000 </r>
       <r>    4.0349    1.0000 </r>
       <r>    5.3202    1.0000 </r>
       <r>    5.3202    1.0000 </r>
       <r>    8.1090    0.0000 </r>
       <r>    8.6262    0.0000 </r>
       <r>    8.6262    0.0000 </r>
       <r>   10.1870    0.0000 </r>
      </set>
      <set comment="kpoint 3">
       <r>   -5.3628    1.0000 </r>
       <r>    1.7568    1.0000 </r>
       <r>    4.8649    1.0000 </r>
       <r>    4.8649    1.0000 </r>
       <r>    7.6281    0.0000 </r>
       <r>    9.1424    0.0000 </r>
       <r>    9.1424    0.0000 </r>
       <r>   12.3882    0.0000 </r>
      </set>
      <set comment="kpoint 4">
       <r>   -4.4904    1.0000 </r>
       <r>   -0.2183    1.0000 </r>
       <r>    4.5454    1.0000 </r>
       <r>    4.5454    1.0000 </r>
       <r>    7.2645    0.0000 </r>
       <r>    9.1094    0.0000 </r>
       <r>    9.1094    0.0000 </r>
       <r>   13.5012    0.0000 </r>
      </set>
      <set comment="kpoint 5">
       <r>   -3.8729    1.0000 </r>
       <r>   -1.2124    1.0000 </r>
       <r>    4.4356    1.0000 </r>
       <r>    4.4356    1.0000 </r>
       <r>    7.1366    0.0000 </r>
       <r>    9.0073    0.0000 </r>
       <r>    9.0073    0.0000 </r>
       <r>   13.3730    0.0000 </r>
      </set>
      <set comment="kpoint 6">
       <r>   -5.8785    1.0000 </r>
       <r>    4.2700    1.0000 </r>
       <r>    4.8266    1.0000 </r>
       <r>    4.8266    1.0000 </r>
       <r>    7.6783    0.0000 </r>
       <r>    9.3130    0.0000 </r>
       <r>    9.3130    0.0000 </r>
       <r>    9.8867    0.0000 </r>
      </set>
      <set comment="kpoint 7">
       <r>   -5.4194    1.0000 </r>
       <r>    2.4326    1.0000 </r>
       <r>    4.3302    1.0000 </r>
       <r>    4.3963    1.0000 </r>
       <r>    7.8003    0.0000 </r>
       <r>    9.2836    0.0000 </r>
       <r>   10.0649    0.0000 </r>
       <r>   10.3870    0.0000 </r>
      </set>
      <set comment="kpoint 8">
       <r>   -4.6228    1.0000 </r>
       <r>    0.4217    1.0000 </r>
       <r>    3.8200    1.0000 </r>
       <r>    4.0671    1.0000 </r>
       <r>    7.8849    0.0000 </r>
       <r>    9.2474    0.0000 </r>
       <r>   10.0864    0.0000 </r>
       <r>   11.0845    0.0000 </r>
      </set>
      <set comment="kpoint 9">
       <r>   -3.7861    1.0000 </r>
       <r>   -1.0028    1.0000 </r>
       <r>    3.3867    1.0000 </r>
       <r>    4.0878    1.0000 </r>
       <r>    7.8238    0.0000 </r>
       <r>    9.1388    0.0000 </r>
       <r>    9.7450    0.0000 </r>
       <r>   12.9486    0.0000 </r>
      </set>
      <set comment="kpoint 10">
       <r>   -4.0227    1.0000 </r>
       <r>   -0.6430    1.0000 </r>
       <r>    3.2131    1.0000 </r>
       <r>    4.3731    1.0000 </r>
       <r>    7.9745    0.0000 </r>
       <r>    9.2538    0.0000 </r>
       <r>    9.5199    0.0000 </r>
       <r>   13.4738    0.0000 </r>
      </set>
      <set comment="kpoint 11">
       <r>   -4.9220    1.0000 </r>
       <r>    1.0648    1.0000 </r>
       <r>    3.3668    1.0000 </r>
       <r>    4.8476    1.0000 </r>
       <r>    8.3179    0.0000 </r>
       <r>    9.3199    0.0000 </r>
       <r>    9.4729    0.0000 </r>
       <r>   11.8597    0.0000 </r>
      </set>
      <set comment="kpoint 12">
       <r>   -5.6165    1.0000 </r>
       <r>    2.9598    1.0000 </r>
       <r>    4.0382    1.0000 </r>
       <r>    5.3110    1.0000 </r>
       <r>    8.6363    0.0000 </r>
       <r>    8.7688    0.0000 </r>
       <r>    8.9622    0.0000 </r>
       <r>   11.0805    0.0000 </r>
      </set>
      <set comment="kpoint 13">
       <r>   -5.0858    1.0000 </r>
       <r>    2.1213    1.0000 </r>
       <r>    3.7763    1.0000 </r>
       <r>    3.7763    1.0000 </r>
       <r>    6.8170    0.0000 </r>
       <r>    8.8017    0.0000 </r>
       <r>   11.3167    0.0000 </r>
       <r>   11.3167    0.0000 </r>
      </set>
      <set comment="kpoint 14">
       <r>   -4.3910    1.0000 </r>
       <r>    0.7317    1.0000 </r>
       <r>    3.0206    1.0000 </r>
       <r>    3.4654    1.0000 </r>
       <r>    7.0329    0.0000 </r>
       <r>    8.5639    0.0000 </r>
       <r>   11.5402    0.0000 </r>
       <r>   11.8389    0.0000 </r>
      </set>
      <set comment="kpoint 15">
       <r>   -3.4886    1.0000 </r>
       <r>   -0.6703    1.0000 </r>
       <r>    2.1800    1.0000 </r>
       <r>    3.4668    1.0000 </r>
       <r>    7.2069    0.0000 </r>
       <r>   10.0739    0.0000 </r>
       <r>   11.2862    0.0000 </r>
       <r>   11.5189    0.0000 </r>
      </set>
      <set comment="kpoint 16">
       <r>   -3.2920    1.0000 </r>
       <r>   -0.9192    1.0000 </r>
       <r>    1.7356    1.0000 </r>
       <r>    3.7748    1.0000 </r>
       <r>    7.5215    0.0000 </r>
       <r>   11.0254    0.0000 </r>
       <r>   11.0929    0.0000 </r>
       <r>   12.5272    0.0000 </r>
      </set>
      <set comment="kpoint 17">
       <r>   -4.1466    1.0000 </r>
       <r>    0.2099    1.0000 </r>
       <r>    1.9754    1.0000 </r>
       <r>    4.3147    1.0000 </r>
       <r>    8.1028    0.0000 </r>
       <r>   10.4060    0.0000 </r>
       <r>   10.6956    0.0000 </r>
       <r>   11.7028    0.0000 </r>
      </set>
      <set comment="kpoint 18">
       <r>   -3.8006    1.0000 </r>
       <r>   -0.0617    1.0000 </r>
       <r>    3.0774    1.0000 </r>
       <r>    3.0774    1.0000 </r>
       <r>    6.3174    0.0036 </r>
       <r>    7.2432    0.0000 </r>
       <r>   13.5587    0.0000 </r>
       <r>   13.5587    0.0000 </r>
      </set>
      <set comment="kpoint 19">
       <r>   -2.9238    1.0000 </r>
       <r>   -1.1241    1.0000 </r>
       <r>    2.2818    1.0000 </r>
       <r>    3.0025    1.0000 </r>
       <r>    6.5975    0.0000 </r>
       <r>    7.6425    0.0000 </r>
       <r>   13.8093    0.0000 </r>
       <r>   13.8573    0.0000 </r>
      </set>
      <set comment="kpoint 20">
       <r>   -2.5020    1.0000 </r>
       <r>   -1.5079    1.0000 </r>
       <r>    1.4466    1.0000 </r>
       <r>    3.2526    1.0000 </r>
       <r>    6.9010    0.0000 </r>
       <r>    9.7550    0.0000 </r>
       <r>   13.0341    0.0000 </r>
       <r>   13.5245    0.0000 </r>
      </set>
      <set comment="kpoint 21">
       <r>   -2.0883    1.0000 </r>
       <r>   -2.0883    1.0000 </r>
       <r>    2.8374    1.0000 </r>
       <r>    2.8374    1.0000 </r>
       <r>    6.4192    0.0003 </r>
       <r>    6.4192    0.0003 </r>
       <r>   15.5846    0.0000 </r>
       <r>   15.5846    0.0000 </r>
      </set>
      <set comment="kpoint 22">
       <r>   -4.8440    1.0000 </r>
       <r>    1.3755    1.0000 </r>
       <r>    2.9846    1.0000 </r>
       <r>    4.2205    1.0000 </r>
       <r>    8.0952    0.0000 </r>
       <r>    9.4923    0.0000 </r>
       <r>    9.8461    0.0000 </r>
       <r>   11.0699    0.0000 </r>
      </set>
      <set comment="kpoint 23">
       <r>   -3.9768    1.0000 </r>
       <r>   -0.1367    1.0000 </r>
       <r>    2.3849    1.0000 </r>
       <r>    3.7388    1.0000 </r>
       <r>    8.5177    0.0000 </r>
       <r>    9.1802    0.0000 </r>
       <r>   10.6295    0.0000 </r>
       <r>   11.5089    0.0000 </r>
      </set>
      <set comment="kpoint 24">
       <r>   -3.3445    1.0000 </r>
       <r>   -1.0523    1.0000 </r>
       <r>    2.2543    1.0000 </r>
       <r>    3.5179    1.0000 </r>
       <r>    8.6801    0.0000 </r>
       <r>    8.7957    0.0000 </r>
       <r>   11.4851    0.0000 </r>
       <r>   12.6925    0.0000 </r>
      </set>
      <set comment="kpoint 25">
       <r>   -3.6078    1.0000 </r>
       <r>   -0.2763    1.0000 </r>
       <r>    2.3524    1.0000 </r>
       <r>    2.9385    1.0000 </r>
       <r>    7.6104    0.0000 </r>
       <r>    8.3171    0.0000 </r>
       <r>   11.3258    0.0000 </r>
       <r>   13.5103    0.0000 </r>
      </set>
      <set comment="kpoint 26">
       <r>   -2.7568    1.0000 </r>
       <r>   -1.2210    1.0000 </r>
       <r>    1.6776    1.0000 </r>
       <r>    2.7446    1.0000 </r>
       <r>    8.0503    0.0000 </r>
       <r>    9.9079    0.0000 </r>
       <r>   10.8636    0.0000 </r>
       <r>   12.9964    0.0000 </r>
      </set>
      <set comment="kpoint 27">
       <r>   -3.0994    1.0000 </r>
       <r>   -0.8646    1.0000 </r>
       <r>    1.5164    1.0000 </r>
       <r>    3.1081    1.0000 </r>
       <r>    8.5178    0.0000 </r>
       <r>   10.1538    0.0000 </r>
       <r>   10.8169    0.0000 </r>
       <r>   12.6011    0.0000 </r>
      </set>
      <set comment="kpoint 28">
       <r>   -2.0149    1.0000 </r>
       <r>   -2.0149    1.0000 </r>
       <r>    2.3006    1.0000 </r>
       <r>    2.3006    1.0000 </r>
       <r>    7.6425    0.0000 </r>
       <r>    7.6425    0.0000 </r>
       <r>   13.3903    0.0000 </r>
       <r>   13.3903    0.0000 </r>
      </set>
      <set comment="kpoint 29">
       <r>   -1.9344    1.0000 </r>
       <r>   -1.9344    1.0000 </r>
       <r>    1.8831    1.0000 </r>
       <r>    1.8831    1.0000 </r>
       <r>    9.9006    0.0000 </r>
       <r>    9.9007    0.0000 </r>
       <r>   10.5935    0.0000 </r>
       <r>   10.5935    0.0000 </r>
      </set>
     </set>
    </set>
   </array>
  </eigenvalues>
  <separator name="orbital magnetization" >
   <v name="MAGDIPOLOUT">      0.00000000      0.00000000      0.00000000</v>
  </separator>
  <dos>
   <i name="efermi">      5.93719575 </i>
   <total>
    <array>
     <dimension dim="1">gridpoints</dimension>
     <dimension dim="2">spin</dimension>
     <field>energy</field>
     <field>total</field>
     <field>integrated</field>
     <set>
      <set comment="spin 1">
       <r>    -8.1459     0.0000     0.0000 </r>
       <r>    -8.0602     0.0000     0.0000 </r>
       <r>    -7.9744     0.0000     0.0000 </r>
       <r>    -7.8886     0.0000     0.0000 </r>
       <r>    -7.8029     0.0000     0.0000 </r>
       <r>    -7.7171     0.0000     0.0000 </r>
       <r>    -7.6313     0.0000     0.0000 </r>
       <r>    -7.5456     0.0000     0.0000 </r>
       <r>    -7.4598     0.0000     0.0000 </r>
       <r>    -7.3740     0.0000     0.0000 </r>
       <r>    -7.2882     0.0000     0.0000 </r>
       <r>    -7.2025     0.0000     0.0000 </r>
       <r>    -7.1167     0.0000     0.0000 </r>
       <r>    -7.0309     0.0000     0.0000 </r>
       <r>    -6.9452     0.0000     0.0000 </r>
       <r>    -6.8594     0.0000     0.0000 </r>
       <r>    -6.7736     0.0000     0.0000 </r>
       <r>    -6.6879     0.0000     0.0000 </r>
       <r>    -6.6021     0.0000     0.0000 </r>
       <r>    -6.5163     0.0002     0.0000 </r>
       <r>    -6.4306     0.0009     0.0001 </r>
       <r>    -6.3448     0.0035     0.0004 </r>
       <r>    -6.2590     0.0109     0.0013 </r>
       <r>    -6.1733     0.0285     0.0038 </r>
       <r>    -6.0875     0.0630     0.0092 </r>
       <r>    -6.0017     0.1119     0.0188 </r>
       <r>    -5.9160     0.1546     0.0320 </r>
       <r>    -5.8302     0.1715     0.0468 </r>
       <r>    -5.7444     0.1760     0.0618 </r>
       <r>    -5.6587     0.2035     0.0793 </r>
       <r>    -5.5729     0.2694     0.1024 </r>
       <r>    -5.4871     0.3516     0.1326 </r>
       <r>    -5.4013     0.3981     0.1667 </r>
       <r>    -5.3156     0.3645     0.1980 </r>
       <r>    -5.2298     0.2774     0.2218 </r>
       <r>    -5.1440     0.2262     0.2412 </r>
       <r>    -5.0583     0.2769     0.2649 </r>
       <r>    -4.9725     0.4124     0.3003 </r>
       <r>    -4.8867     0.5435     0.3469 </r>
       <r>    -4.8010     0.5866     0.3972 </r>
       <r>    -4.7152     0.5506     0.4444 </r>
       <r>    -4.6294     0.5086     0.4881 </r>
       <r>    -4.5437     0.4954     0.5305 </r>
       <r>    -4.4579     0.4890     0.5725 </r>
       <r>    -4.3721     0.4614     0.6121 </r>
       <r>    -4.2864     0.4272     0.6487 </r>
       <r>    -4.2006     0.4617     0.6883 </r>
       <r>    -4.1148     0.6281     0.7422 </r>
       <r>    -4.0291     0.8660     0.8165 </r>
       <r>    -3.9433     1.0143     0.9035 </r>
       <r>    -3.8575     0.9847     0.9879 </r>
       <r>    -3.7717     0.8493     1.0608 </r>
       <r>    -3.6860     0.7322     1.1236 </r>
       <r>    -3.6002     0.6915     1.1829 </r>
       <r>    -3.5144     0.7141     1.2441 </r>
       <r>    -3.4287     0.7597     1.3093 </r>
       <r>    -3.3429     0.7846     1.3766 </r>
       <r>    -3.2571     0.7525     1.4411 </r>
       <r>    -3.1714     0.6719     1.4987 </r>
       <r>    -3.0856     0.6002     1.5502 </r>
       <r>    -2.9998     0.5862     1.6005 </r>
       <r>    -2.9141     0.6351     1.6550 </r>
       <r>    -2.8283     0.7061     1.7155 </r>
       <r>    -2.7425     0.7175     1.7771 </r>
       <r>    -2.6568     0.6143     1.8297 </r>
       <r>    -2.5710     0.4399     1.8675 </r>
       <r>    -2.4852     0.2816     1.8916 </r>
       <r>    -2.3995     0.1742     1.9066 </r>
       <r>    -2.3137     0.1172     1.9166 </r>
       <r>    -2.2279     0.1279     1.9276 </r>
       <r>    -2.1422     0.2209     1.9465 </r>
       <r>    -2.0564     0.3541     1.9769 </r>
       <r>    -1.9706     0.4299     2.0138 </r>
       <r>    -1.8848     0.3835     2.0467 </r>
       <r>    -1.7991     0.2557     2.0686 </r>
       <r>    -1.7133     0.1459     2.0811 </r>
       <r>    -1.6275     0.1126     2.0908 </r>
       <r>    -1.5418     0.1471     2.1034 </r>
       <r>    -1.4560     0.2292     2.1230 </r>
       <r>    -1.3702     0.3849     2.1561 </r>
       <r>    -1.2845     0.6502     2.2118 </r>
       <r>    -1.1987     0.9719     2.2952 </r>
       <r>    -1.1129     1.2209     2.3999 </r>
       <r>    -1.0272     1.3142     2.5126 </r>
       <r>    -0.9414     1.2579     2.6205 </r>
       <r>    -0.8556     1.1067     2.7154 </r>
       <r>    -0.7699     0.9391     2.7960 </r>
       <r>    -0.6841     0.8019     2.8647 </r>
       <r>    -0.5983     0.6621     2.9215 </r>
       <r>    -0.5126     0.4968     2.9641 </r>
       <r>    -0.4268     0.3924     2.9978 </r>
       <r>    -0.3410     0.4529     3.0366 </r>
       <r>    -0.2552     0.6494     3.0923 </r>
       <r>    -0.1695     0.8198     3.1627 </r>
       <r>    -0.0837     0.8097     3.2321 </r>
       <r>     0.0021     0.6196     3.2852 </r>
       <r>     0.0878     0.3967     3.3193 </r>
       <r>     0.1736     0.2731     3.3427 </r>
       <r>     0.2594     0.2612     3.3651 </r>
       <r>     0.3451     0.3009     3.3909 </r>
       <r>     0.4309     0.3298     3.4192 </r>
       <r>     0.5167     0.3200     3.4466 </r>
       <r>     0.6024     0.2985     3.4722 </r>
       <r>     0.6882     0.2997     3.4979 </r>
       <r>     0.7740     0.3037     3.5240 </r>
       <r>     0.8597     0.2832     3.5483 </r>
       <r>     0.9455     0.2682     3.5713 </r>
       <r>     1.0313     0.2869     3.5959 </r>
       <r>     1.1170     0.3107     3.6225 </r>
       <r>     1.2028     0.3271     3.6506 </r>
       <r>     1.2886     0.3909     3.6841 </r>
       <r>     1.3743     0.5376     3.7302 </r>
       <r>     1.4601     0.7242     3.7923 </r>
       <r>     1.5459     0.8997     3.8695 </r>
       <r>     1.6317     1.0441     3.9591 </r>
       <r>     1.7174     1.1024     4.0536 </r>
       <r>     1.8032     1.0060     4.1399 </r>
       <r>     1.8890     0.8001     4.2085 </r>
       <r>     1.9747     0.6415     4.2635 </r>
       <r>     2.0605     0.6762     4.3215 </r>
       <r>     2.1463     0.9638     4.4042 </r>
       <r>     2.2320     1.4218     4.5261 </r>
       <r>     2.3178     1.7974     4.6803 </r>
       <r>     2.4036     1.8173     4.8362 </r>
       <r>     2.4893     1.4572     4.9612 </r>
       <r>     2.5751     1.0051     5.0474 </r>
       <r>     2.6609     0.7791     5.1142 </r>
       <r>     2.7466     0.8506     5.1871 </r>
       <r>     2.8324     1.1054     5.2819 </r>
       <r>     2.9182     1.4245     5.4041 </r>
       <r>     3.0039     1.6756     5.5478 </r>
       <r>     3.0897     1.7164     5.6950 </r>
       <r>     3.1755     1.5648     5.8293 </r>
       <r>     3.2613     1.4163     5.9507 </r>
       <r>     3.3470     1.4078     6.0715 </r>
       <r>     3.4328     1.4651     6.1971 </r>
       <r>     3.5186     1.4405     6.3207 </r>
       <r>     3.6043     1.3493     6.4364 </r>
       <r>     3.6901     1.3292     6.5504 </r>
       <r>     3.7759     1.3678     6.6677 </r>
       <r>     3.8616     1.3176     6.7807 </r>
       <r>     3.9474     1.1875     6.8826 </r>
       <r>     4.0332     1.1299     6.9795 </r>
       <r>     4.1189     1.1858     7.0812 </r>
       <r>     4.2047     1.2882     7.1917 </r>
       <r>     4.2905     1.3832     7.3103 </r>
       <r>     4.3762     1.3874     7.4293 </r>
       <r>     4.4620     1.2060     7.5327 </r>
       <r>     4.5478     0.8835     7.6085 </r>
       <r>     4.6335     0.6015     7.6601 </r>
       <r>     4.7193     0.5020     7.7032 </r>
       <r>     4.8051     0.5537     7.7507 </r>
       <r>     4.8908     0.5869     7.8010 </r>
       <r>     4.9766     0.4848     7.8426 </r>
       <r>     5.0624     0.3141     7.8695 </r>
       <r>     5.1482     0.2182     7.8882 </r>
       <r>     5.2339     0.2417     7.9090 </r>
       <r>     5.3197     0.3021     7.9349 </r>
       <r>     5.4055     0.2981     7.9604 </r>
       <r>     5.4912     0.2184     7.9792 </r>
       <r>     5.5770     0.1259     7.9900 </r>
       <r>     5.6628     0.0646     7.9955 </r>
       <r>     5.7485     0.0319     7.9982 </r>
       <r>     5.8343     0.0141     7.9995 </r>
       <r>     5.9201     0.0055     7.9999 </r>
       <r>     6.0058     0.0048     8.0003 </r>
       <r>     6.0916     0.0140     8.0015 </r>
       <r>     6.1774     0.0395     8.0049 </r>
       <r>     6.2631     0.0850     8.0122 </r>
       <r>     6.3489     0.1460     8.0247 </r>
       <r>     6.4347     0.2153     8.0432 </r>
       <r>     6.5204     0.2845     8.0676 </r>
       <r>     6.6062     0.3307     8.0960 </r>
       <r>     6.6920     0.3352     8.1247 </r>
       <r>     6.7778     0.3261     8.1527 </r>
       <r>     6.8635     0.3556     8.1832 </r>
       <r>     6.9493     0.4357     8.2206 </r>
       <r>     7.0351     0.5338     8.2663 </r>
       <r>     7.1208     0.6100     8.3187 </r>
       <r>     7.2066     0.6317     8.3728 </r>
       <r>     7.2924     0.5939     8.4238 </r>
       <r>     7.3781     0.5746     8.4731 </r>
       <r>     7.4639     0.7069     8.5337 </r>
       <r>     7.5497     1.0158     8.6208 </r>
       <r>     7.6354     1.3424     8.7360 </r>
       <r>     7.7212     1.5172     8.8661 </r>
       <r>     7.8070     1.5501     8.9990 </r>
       <r>     7.8927     1.5647     9.1332 </r>
       <r>     7.9785     1.6133     9.2716 </r>
       <r>     8.0643     1.6190     9.4105 </r>
       <r>     8.1500     1.4926     9.5385 </r>
       <r>     8.2358     1.2923     9.6493 </r>
       <r>     8.3216     1.1881     9.7512 </r>
       <r>     8.4073     1.2812     9.8611 </r>
       <r>     8.4931     1.5150     9.9911 </r>
       <r>     8.5789     1.7069    10.1375 </r>
       <r>     8.6647     1.6885    10.2823 </r>
       <r>     8.7504     1.4589    10.4074 </r>
       <r>     8.8362     1.1649    10.5073 </r>
       <r>     8.9220     0.9920    10.5924 </r>
       <r>     9.0077     1.0976    10.6865 </r>
       <r>     9.0935     1.5038    10.8155 </r>
       <r>     9.1793     1.9965    10.9867 </r>
       <r>     9.2650     2.2484    11.1796 </r>
       <r>     9.3508     2.1226    11.3616 </r>
       <r>     9.4366     1.7712    11.5135 </r>
       <r>     9.5223     1.4059    11.6341 </r>
       <r>     9.6081     1.1405    11.7319 </r>
       <r>     9.6939     1.0595    11.8228 </r>
       <r>     9.7796     1.2013    11.9258 </r>
       <r>     9.8654     1.4567    12.0508 </r>
       <r>     9.9512     1.6491    12.1922 </r>
       <r>    10.0369     1.6849    12.3367 </r>
       <r>    10.1227     1.5475    12.4695 </r>
       <r>    10.2085     1.2667    12.5781 </r>
       <r>    10.2943     0.9629    12.6607 </r>
       <r>    10.3800     0.7832    12.7279 </r>
       <r>    10.4658     0.7739    12.7942 </r>
       <r>    10.5516     0.8926    12.8708 </r>
       <r>    10.6373     1.0635    12.9620 </r>
       <r>    10.7231     1.2106    13.0658 </r>
       <r>    10.8089     1.3151    13.1786 </r>
       <r>    10.8946     1.4120    13.2997 </r>
       <r>    10.9804     1.5205    13.4302 </r>
       <r>    11.0662     1.5914    13.5666 </r>
       <r>    11.1519     1.5493    13.6995 </r>
       <r>    11.2377     1.4365    13.8227 </r>
       <r>    11.3235     1.4087    13.9435 </r>
       <r>    11.4092     1.5289    14.0747 </r>
       <r>    11.4950     1.6555    14.2167 </r>
       <r>    11.5808     1.5796    14.3521 </r>
       <r>    11.6665     1.2865    14.4625 </r>
       <r>    11.7523     0.9795    14.5465 </r>
       <r>    11.8381     0.7837    14.6137 </r>
       <r>    11.9238     0.6183    14.6667 </r>
       <r>    12.0096     0.4072    14.7017 </r>
       <r>    12.0954     0.2067    14.7194 </r>
       <r>    12.1812     0.0980    14.7278 </r>
       <r>    12.2669     0.1005    14.7364 </r>
       <r>    12.3527     0.2015    14.7537 </r>
       <r>    12.4385     0.3828    14.7865 </r>
       <r>    12.5242     0.5925    14.8374 </r>
       <r>    12.6100     0.7360    14.9005 </r>
       <r>    12.6958     0.7531    14.9651 </r>
       <r>    12.7815     0.7137    15.0263 </r>
       <r>    12.8673     0.7585    15.0913 </r>
       <r>    12.9531     0.8933    15.1680 </r>
       <r>    13.0388     0.9376    15.2484 </r>
       <r>    13.1246     0.7805    15.3153 </r>
       <r>    13.2104     0.5738    15.3645 </r>
       <r>    13.2961     0.5568    15.4123 </r>
       <r>    13.3819     0.7769    15.4789 </r>
       <r>    13.4677     1.0400    15.5681 </r>
       <r>    13.5534     1.1083    15.6632 </r>
       <r>    13.6392     0.9520    15.7448 </r>
       <r>    13.7250     0.7560    15.8097 </r>
       <r>    13.8108     0.6493    15.8654 </r>
       <r>    13.8965     0.5626    15.9136 </r>
       <r>    13.9823     0.4052    15.9484 </r>
       <r>    14.0681     0.2173    15.9670 </r>
       <r>    14.1538     0.0836    15.9742 </r>
       <r>    14.2396     0.0228    15.9761 </r>
       <r>    14.3254     0.0044    15.9765 </r>
       <r>    14.4111     0.0006    15.9766 </r>
       <r>    14.4969     0.0001    15.9766 </r>
       <r>    14.5827     0.0000    15.9766 </r>
       <r>    14.6684     0.0000    15.9766 </r>
       <r>    14.7542     0.0000    15.9766 </r>
       <r>    14.8400     0.0000    15.9766 </r>
       <r>    14.9257     0.0000    15.9766 </r>
       <r>    15.0115     0.0000    15.9766 </r>
       <r>    15.0973     0.0001    15.9766 </r>
       <r>    15.1830     0.0005    15.9766 </r>
       <r>    15.2688     0.0029    15.9769 </r>
       <r>    15.3546     0.0107    15.9778 </r>
       <r>    15.4404     0.0279    15.9802 </r>
       <r>    15.5261     0.0508    15.9845 </r>
       <r>    15.6119     0.0647    15.9901 </r>
       <r>    15.6977     0.0578    15.9950 </r>
       <r>    15.7834     0.0361    15.9981 </r>
       <r>    15.8692     0.0158    15.9995 </r>
       <r>    15.9550     0.0048    15.9999 </r>
       <r>    16.0407     0.0010    16.0000 </r>
       <r>    16.1265     0.0002    16.0000 </r>
       <r>    16.2123     0.0000    16.0000 </r>
       <r>    16.2980     0.0000    16.0000 </r>
       <r>    16.3838     0.0000    16.0000 </r>
       <r>    16.4696     0.0000    16.0000 </r>
       <r>    16.5553     0.0000    16.0000 </r>
       <r>    16.6411     0.0000    16.0000 </r>
       <r>    16.7269     0.0000    16.0000 </r>
       <r>    16.8126     0.0000    16.0000 </r>
       <r>    16.8984     0.0000    16.0000 </r>
       <r>    16.9842     0.0000    16.0000 </r>
       <r>    17.0699     0.0000    16.0000 </r>
       <r>    17.1557     0.0000    16.0000 </r>
       <r>    17.2415     0.0000    16.0000 </r>
       <r>    17.3273     0.0000    16.0000 </r>
       <r>    17.4130     0.0000    16.0000 </r>
       <r>    17.4988     0.0000    16.0000 </r>
       <r>    17.5846     0.0000    16.0000 </r>
      </set>
     </set>
    </array>
   </total>
  </dos>
 </calculation>
 <structure name="finalpos" >
  <crystal>
   <varray name="basis" >
    <v>       3.34889800       0.00000000       1.93348700 </v>
    <v>       1.11629900       3.15737200       1.93348700 </v>
    <v>       0.00000000       0.00000000       3.86697500 </v>
   </varray>
   <i name="volume">     40.88829843 </i>
   <varray name="rec_basis" >
    <v>       0.29860569      -0.10557300       0.00000000 </v>
    <v>       0.00000000       0.31671909       0.00000000 </v>
    <v>      -0.14930281      -0.10557302       0.25860007 </v>
   </varray>
  </crystal>
  <varray name="positions" >
   <v>       0.87500000       0.87500000       0.87500000 </v>
   <v>       0.12500000       0.12500000       0.12500000 </v>
  </varray>
 </structure>
</modeling>
