 running on   16 total cores
 distrk:  each k-point on   16 cores,    1 groups
 distr:  one band on    4 cores,    4 groups
 using from now: INCAR     
 vasp.5.3.3 18Dez12 (build Jan 30 2013 10:57:47) complex                        
  
 POSCAR found type information on POSCAR  Si
 POSCAR found :  1 types and       2 ions

 ----------------------------------------------------------------------------- 
|                                                                             |
|  ADVICE TO THIS USER RUNNING 'VASP/VAMP'   (HEAR YOUR MASTER'S VOICE ...):  |
|                                                                             |
|      You have switched on vdW-DFT.                                          |
|      This routine was written and supplied by Jiri Klimes.                  |
|      We recommed that you carefully read and cite the following             |
|      publication                                                            |
|      J. Klimes, D.R. Bowler, A. Michelides                                  |
|        J. Phys.: Cond Matt. 22 022201 (2010)                                |
|      J. Klimes, D.R. Bowler, A. Michelides                                  |
|        Phys. Rev. B. 83, 195131 (2011)                                      |
|      and references therein.                                                |
|                                                                             |
 ----------------------------------------------------------------------------- 


 ----------------------------------------------------------------------------- 
|                                                                             |
|  ADVICE TO THIS USER RUNNING 'VASP/VAMP'   (HEAR YOUR MASTER'S VOICE ...):  |
|                                                                             |
|      You enforced a specific xc-type in the INCAR file,                     |
|      a different type was found on the POTCAR file                          |
|          I HOPE YOU KNOW, WHAT YOU ARE  DOING                               |
|                                                                             |
 ----------------------------------------------------------------------------- 

 LDA part: xc-table for Pade appr. of Perdew
 POSCAR, INCAR and KPOINTS ok, starting setup
 FFT: planning ...
 WAVECAR not read
 entering main loop
       N       E                     dE             d eps       ncg     rms          rms(c)
Total vdW correction in eV:      1.0792472
DAV:   1     0.894143643379E+01    0.89414E+01   -0.34929E+03   464   0.843E+02
DAV:   2    -0.821151300856E+01   -0.17153E+02   -0.16031E+02   752   0.779E+01
DAV:   3    -0.841106667138E+01   -0.19955E+00   -0.19955E+00   640   0.110E+01
DAV:   4    -0.841189475372E+01   -0.82808E-03   -0.82808E-03   736   0.813E-01
DAV:   5    -0.841189516673E+01   -0.41301E-06   -0.41319E-06   616   0.182E-02    0.374E+00
Total vdW correction in eV:      1.1275345
DAV:   6    -0.835821928422E+01    0.53676E-01   -0.89055E-02   552   0.176E+00    0.230E+00
Total vdW correction in eV:      1.2194558
DAV:   7    -0.835267355594E+01    0.55457E-02   -0.20331E-01   592   0.263E+00    0.186E-01
Total vdW correction in eV:      1.2146085
DAV:   8    -0.833579446869E+01    0.16879E-01   -0.63544E-03   576   0.556E-01    0.100E-01
Total vdW correction in eV:      1.2198716
DAV:   9    -0.833745456106E+01   -0.16601E-02   -0.55393E-04   640   0.157E-01    0.736E-02
Total vdW correction in eV:      1.2201919
DAV:  10    -0.833683992845E+01    0.61463E-03   -0.36781E-05   584   0.545E-02    0.316E-02
Total vdW correction in eV:      1.2202073
DAV:  11    -0.833681669734E+01    0.23231E-04   -0.85831E-07   704   0.862E-03    0.365E-03
Total vdW correction in eV:      1.2202367
DAV:  12    -0.833681799777E+01   -0.13004E-05   -0.78186E-08   592   0.272E-03    0.105E-03
Total vdW correction in eV:      1.2202402
DAV:  13    -0.833681592517E+01    0.20726E-05   -0.16933E-09   384   0.397E-04    0.420E-05
Total vdW correction in eV:      1.2202412
DAV:  14    -0.833681526164E+01    0.66353E-06   -0.21165E-10   360   0.154E-04    0.140E-05
Total vdW correction in eV:      1.2202409
DAV:  15    -0.833681488916E+01    0.37248E-06   -0.20920E-11   272   0.409E-05    0.731E-06
Total vdW correction in eV:      1.2202410
DAV:  16    -0.833681495275E+01   -0.63594E-07   -0.45591E-12   304   0.178E-05
Total vdW correction in eV:      1.2202409
Total vdW correction in eV:      1.2202409
   1 F= -.83368150E+01 E0= -.83367772E+01  d E =-.833681E+01
 curvature:   0.00 expect dE= 0.000E+00 dE for cont linesearch  0.000E+00
 trial: gam= 0.00000 g(F)=  0.165E-43 g(S)=  0.000E+00 ort = 0.000E+00 (trialstep = 0.100E+01)
 search vector abs. value=  0.100E-09
 reached required accuracy - stopping structural energy minimisation
