datafile (written by JARVIS-FF) 

900 	 atoms 
1  atom types
0.0 28.637824408  xlo xhi
0.0 24.801083446  ylo yhi
0.0 46.765371428  zlo zhi
14.318912204 0E-9 0E-9  xy xz yz


Atoms 

     1   1 0.000000 28.637824408 19.840866757 14.029611429
     2   1 0.000000 31.501606849 24.801083447 14.029611429
     3   1 0.000000 20.046477086 4.960216689 14.029611429
     4   1 0.000000 22.910259527 9.920433379 14.029611429
     5   1 0.000000 25.774041968 14.880650068 14.029611429
     6   1 0.000000 34.365389290 19.840866757 14.029611429
     7   1 0.000000 37.229171731 24.801083447 14.029611429
     8   1 0.000000 25.774041968 4.960216689 14.029611429
     9   1 0.000000 28.637824408 9.920433379 14.029611429
    10   1 0.000000 31.501606849 14.880650068 14.029611429
    11   1 0.000000 11.455129763 19.840866757 14.029611429
    12   1 0.000000 14.318912204 24.801083447 14.029611429
    13   1 0.000000 2.863782441 4.960216689 14.029611429
    14   1 0.000000 5.727564882 9.920433379 14.029611429
    15   1 0.000000 8.591347323 14.880650068 14.029611429
    16   1 0.000000 17.182694645 19.840866757 14.029611429
    17   1 0.000000 20.046477086 24.801083447 14.029611429
    18   1 0.000000 8.591347323 4.960216689 14.029611429
    19   1 0.000000 11.455129763 9.920433379 14.029611429
    20   1 0.000000 14.318912204 14.880650068 14.029611429
    21   1 0.000000 22.910259527 19.840866757 14.029611429
    22   1 0.000000 25.774041968 24.801083447 14.029611429
    23   1 0.000000 14.318912204 4.960216689 14.029611429
    24   1 0.000000 17.182694645 9.920433379 14.029611429
    25   1 0.000000 20.046477086 14.880650068 14.029611429
    26   1 0.000000 32.933498070 22.320975102 14.029611429
    27   1 0.000000 21.478368306 2.480108345 14.029611429
    28   1 0.000000 24.342150747 7.440325034 14.029611429
    29   1 0.000000 27.205933188 12.400541723 14.029611429
    30   1 0.000000 30.069715629 17.360758413 14.029611429
    31   1 0.000000 38.661062951 22.320975102 14.029611429
    32   1 0.000000 27.205933188 2.480108345 14.029611429
    33   1 0.000000 30.069715629 7.440325034 14.029611429
    34   1 0.000000 32.933498070 12.400541723 14.029611429
    35   1 0.000000 35.797280511 17.360758413 14.029611429
    36   1 0.000000 15.750803425 22.320975102 14.029611429
    37   1 0.000000 4.295673661 2.480108345 14.029611429
    38   1 0.000000 7.159456102 7.440325034 14.029611429
    39   1 0.000000 10.023238543 12.400541723 14.029611429
    40   1 0.000000 12.887020984 17.360758413 14.029611429
    41   1 0.000000 21.478368306 22.320975102 14.029611429
    42   1 0.000000 10.023238543 2.480108345 14.029611429
    43   1 0.000000 12.887020984 7.440325034 14.029611429
    44   1 0.000000 15.750803425 12.400541723 14.029611429
    45   1 0.000000 18.614585866 17.360758413 14.029611429
    46   1 0.000000 27.205933188 22.320975102 14.029611429
    47   1 0.000000 15.750803425 2.480108345 14.029611429
    48   1 0.000000 18.614585866 7.440325034 14.029611429
    49   1 0.000000 21.478368306 12.400541723 14.029611429
    50   1 0.000000 24.342150747 17.360758413 14.029611429
    51   1 0.000000 30.069715629 22.320975102 14.029611429
    52   1 0.000000 18.614585866 2.480108345 14.029611429
    53   1 0.000000 21.478368306 7.440325034 14.029611429
    54   1 0.000000 24.342150747 12.400541723 14.029611429
    55   1 0.000000 27.205933188 17.360758413 14.029611429
    56   1 0.000000 35.797280511 22.320975102 14.029611429
    57   1 0.000000 24.342150747 2.480108345 14.029611429
    58   1 0.000000 27.205933188 7.440325034 14.029611429
    59   1 0.000000 30.069715629 12.400541723 14.029611429
    60   1 0.000000 32.933498070 17.360758413 14.029611429
    61   1 0.000000 12.887020984 22.320975102 14.029611429
    62   1 0.000000 1.431891220 2.480108345 14.029611429
    63   1 0.000000 4.295673661 7.440325034 14.029611429
    64   1 0.000000 7.159456102 12.400541723 14.029611429
    65   1 0.000000 10.023238543 17.360758413 14.029611429
    66   1 0.000000 18.614585866 22.320975102 14.029611429
    67   1 0.000000 7.159456102 2.480108345 14.029611429
    68   1 0.000000 10.023238543 7.440325034 14.029611429
    69   1 0.000000 12.887020984 12.400541723 14.029611429
    70   1 0.000000 15.750803425 17.360758413 14.029611429
    71   1 0.000000 24.342150747 22.320975102 14.029611429
    72   1 0.000000 12.887020984 2.480108345 14.029611429
    73   1 0.000000 15.750803425 7.440325034 14.029611429
    74   1 0.000000 18.614585866 12.400541723 14.029611429
    75   1 0.000000 21.478368306 17.360758413 14.029611429
    76   1 0.000000 31.501606849 19.840866757 14.029611429
    77   1 0.000000 34.365389290 24.801083447 14.029611429
    78   1 0.000000 22.910259527 4.960216689 14.029611429
    79   1 0.000000 25.774041968 9.920433379 14.029611429
    80   1 0.000000 28.637824408 14.880650068 14.029611429
    81   1 0.000000 37.229171731 19.840866757 14.029611429
    82   1 0.000000 40.092954172 24.801083447 14.029611429
    83   1 0.000000 28.637824408 4.960216689 14.029611429
    84   1 0.000000 31.501606849 9.920433379 14.029611429
    85   1 0.000000 34.365389290 14.880650068 14.029611429
    86   1 0.000000 14.318912204 19.840866757 14.029611429
    87   1 0.000000 17.182694645 24.801083447 14.029611429
    88   1 0.000000 5.727564882 4.960216689 14.029611429
    89   1 0.000000 8.591347323 9.920433379 14.029611429
    90   1 0.000000 11.455129763 14.880650068 14.029611429
    91   1 0.000000 20.046477086 19.840866757 14.029611429
    92   1 0.000000 22.910259527 24.801083447 14.029611429
    93   1 0.000000 11.455129763 4.960216689 14.029611429
    94   1 0.000000 14.318912204 9.920433379 14.029611429
    95   1 0.000000 17.182694645 14.880650068 14.029611429
    96   1 0.000000 25.774041968 19.840866757 14.029611429
    97   1 0.000000 28.637824408 24.801083447 14.029611429
    98   1 0.000000 17.182694645 4.960216689 14.029611429
    99   1 0.000000 20.046477086 9.920433379 14.029611429
   100   1 0.000000 22.910259527 14.880650068 14.029611429
   101   1 0.000000 28.637824408 23.147677884 16.367880000
   102   1 0.000000 17.182694645 3.306811126 16.367880000
   103   1 0.000000 20.046477086 8.267027816 16.367880000
   104   1 0.000000 22.910259527 13.227244505 16.367880000
   105   1 0.000000 25.774041968 18.187461194 16.367880000
   106   1 0.000000 34.365389290 23.147677884 16.367880000
   107   1 0.000000 22.910259527 3.306811126 16.367880000
   108   1 0.000000 25.774041968 8.267027816 16.367880000
   109   1 0.000000 28.637824408 13.227244505 16.367880000
   110   1 0.000000 31.501606849 18.187461194 16.367880000
   111   1 0.000000 40.092954172 23.147677884 16.367880000
   112   1 0.000000 28.637824408 3.306811126 16.367880000
   113   1 0.000000 31.501606849 8.267027816 16.367880000
   114   1 0.000000 34.365389290 13.227244505 16.367880000
   115   1 0.000000 37.229171731 18.187461194 16.367880000
   116   1 0.000000 17.182694645 23.147677884 16.367880000
   117   1 0.000000 5.727564882 3.306811126 16.367880000
   118   1 0.000000 8.591347323 8.267027816 16.367880000
   119   1 0.000000 11.455129763 13.227244505 16.367880000
   120   1 0.000000 14.318912204 18.187461194 16.367880000
   121   1 0.000000 22.910259527 23.147677884 16.367880000
   122   1 0.000000 11.455129763 3.306811126 16.367880000
   123   1 0.000000 14.318912204 8.267027816 16.367880000
   124   1 0.000000 17.182694645 13.227244505 16.367880000
   125   1 0.000000 20.046477086 18.187461194 16.367880000
   126   1 0.000000 18.614585866 0.826702782 16.367880000
   127   1 0.000000 21.478368306 5.786919471 16.367880000
   128   1 0.000000 24.342150747 10.747136160 16.367880000
   129   1 0.000000 27.205933188 15.707352850 16.367880000
   130   1 0.000000 30.069715629 20.667569539 16.367880000
   131   1 0.000000 24.342150747 0.826702782 16.367880000
   132   1 0.000000 27.205933188 5.786919471 16.367880000
   133   1 0.000000 30.069715629 10.747136160 16.367880000
   134   1 0.000000 32.933498070 15.707352850 16.367880000
   135   1 0.000000 35.797280511 20.667569539 16.367880000
   136   1 0.000000 1.431891220 0.826702782 16.367880000
   137   1 0.000000 4.295673661 5.786919471 16.367880000
   138   1 0.000000 7.159456102 10.747136160 16.367880000
   139   1 0.000000 10.023238543 15.707352850 16.367880000
   140   1 0.000000 12.887020984 20.667569539 16.367880000
   141   1 0.000000 7.159456102 0.826702782 16.367880000
   142   1 0.000000 10.023238543 5.786919471 16.367880000
   143   1 0.000000 12.887020984 10.747136160 16.367880000
   144   1 0.000000 15.750803425 15.707352850 16.367880000
   145   1 0.000000 18.614585866 20.667569539 16.367880000
   146   1 0.000000 12.887020984 0.826702782 16.367880000
   147   1 0.000000 15.750803425 5.786919471 16.367880000
   148   1 0.000000 18.614585866 10.747136160 16.367880000
   149   1 0.000000 21.478368306 15.707352850 16.367880000
   150   1 0.000000 24.342150747 20.667569539 16.367880000
   151   1 0.000000 15.750803425 0.826702782 16.367880000
   152   1 0.000000 18.614585866 5.786919471 16.367880000
   153   1 0.000000 21.478368306 10.747136160 16.367880000
   154   1 0.000000 24.342150747 15.707352850 16.367880000
   155   1 0.000000 27.205933188 20.667569539 16.367880000
   156   1 0.000000 21.478368306 0.826702782 16.367880000
   157   1 0.000000 24.342150747 5.786919471 16.367880000
   158   1 0.000000 27.205933188 10.747136160 16.367880000
   159   1 0.000000 30.069715629 15.707352850 16.367880000
   160   1 0.000000 32.933498070 20.667569539 16.367880000
   161   1 0.000000 27.205933188 0.826702782 16.367880000
   162   1 0.000000 30.069715629 5.786919471 16.367880000
   163   1 0.000000 32.933498070 10.747136160 16.367880000
   164   1 0.000000 35.797280511 15.707352850 16.367880000
   165   1 0.000000 38.661062951 20.667569539 16.367880000
   166   1 0.000000 4.295673661 0.826702782 16.367880000
   167   1 0.000000 7.159456102 5.786919471 16.367880000
   168   1 0.000000 10.023238543 10.747136160 16.367880000
   169   1 0.000000 12.887020984 15.707352850 16.367880000
   170   1 0.000000 15.750803425 20.667569539 16.367880000
   171   1 0.000000 10.023238543 0.826702782 16.367880000
   172   1 0.000000 12.887020984 5.786919471 16.367880000
   173   1 0.000000 15.750803425 10.747136160 16.367880000
   174   1 0.000000 18.614585866 15.707352850 16.367880000
   175   1 0.000000 21.478368306 20.667569539 16.367880000
   176   1 0.000000 31.501606849 23.147677884 16.367880000
   177   1 0.000000 20.046477086 3.306811126 16.367880000
   178   1 0.000000 22.910259527 8.267027816 16.367880000
   179   1 0.000000 25.774041968 13.227244505 16.367880000
   180   1 0.000000 28.637824408 18.187461194 16.367880000
   181   1 0.000000 37.229171731 23.147677884 16.367880000
   182   1 0.000000 25.774041968 3.306811126 16.367880000
   183   1 0.000000 28.637824408 8.267027816 16.367880000
   184   1 0.000000 31.501606849 13.227244505 16.367880000
   185   1 0.000000 34.365389290 18.187461194 16.367880000
   186   1 0.000000 14.318912204 23.147677884 16.367880000
   187   1 0.000000 2.863782441 3.306811126 16.367880000
   188   1 0.000000 5.727564882 8.267027816 16.367880000
   189   1 0.000000 8.591347323 13.227244505 16.367880000
   190   1 0.000000 11.455129763 18.187461194 16.367880000
   191   1 0.000000 20.046477086 23.147677884 16.367880000
   192   1 0.000000 8.591347323 3.306811126 16.367880000
   193   1 0.000000 11.455129763 8.267027816 16.367880000
   194   1 0.000000 14.318912204 13.227244505 16.367880000
   195   1 0.000000 17.182694645 18.187461194 16.367880000
   196   1 0.000000 25.774041968 23.147677884 16.367880000
   197   1 0.000000 14.318912204 3.306811126 16.367880000
   198   1 0.000000 17.182694645 8.267027816 16.367880000
   199   1 0.000000 20.046477086 13.227244505 16.367880000
   200   1 0.000000 22.910259527 18.187461194 16.367880000
   201   1 0.000000 14.318912204 1.653405563 18.706148572
   202   1 0.000000 17.182694645 6.613622252 18.706148572
   203   1 0.000000 20.046477086 11.573838942 18.706148572
   204   1 0.000000 22.910259527 16.534055631 18.706148572
   205   1 0.000000 25.774041968 21.494272321 18.706148572
   206   1 0.000000 20.046477086 1.653405563 18.706148572
   207   1 0.000000 22.910259527 6.613622252 18.706148572
   208   1 0.000000 25.774041968 11.573838942 18.706148572
   209   1 0.000000 28.637824408 16.534055631 18.706148572
   210   1 0.000000 31.501606849 21.494272321 18.706148572
   211   1 0.000000 25.774041968 1.653405563 18.706148572
   212   1 0.000000 28.637824408 6.613622252 18.706148572
   213   1 0.000000 31.501606849 11.573838942 18.706148572
   214   1 0.000000 34.365389290 16.534055631 18.706148572
   215   1 0.000000 37.229171731 21.494272321 18.706148572
   216   1 0.000000 2.863782441 1.653405563 18.706148572
   217   1 0.000000 5.727564882 6.613622252 18.706148572
   218   1 0.000000 8.591347323 11.573838942 18.706148572
   219   1 0.000000 11.455129763 16.534055631 18.706148572
   220   1 0.000000 14.318912204 21.494272321 18.706148572
   221   1 0.000000 8.591347323 1.653405563 18.706148572
   222   1 0.000000 11.455129763 6.613622252 18.706148572
   223   1 0.000000 14.318912204 11.573838942 18.706148572
   224   1 0.000000 17.182694645 16.534055631 18.706148572
   225   1 0.000000 20.046477086 21.494272321 18.706148572
   226   1 0.000000 18.614585866 4.133513908 18.706148572
   227   1 0.000000 21.478368306 9.093730597 18.706148572
   228   1 0.000000 24.342150747 14.053947287 18.706148572
   229   1 0.000000 27.205933188 19.014163976 18.706148572
   230   1 0.000000 30.069715629 23.974380665 18.706148572
   231   1 0.000000 24.342150747 4.133513908 18.706148572
   232   1 0.000000 27.205933188 9.093730597 18.706148572
   233   1 0.000000 30.069715629 14.053947287 18.706148572
   234   1 0.000000 32.933498070 19.014163976 18.706148572
   235   1 0.000000 35.797280511 23.974380665 18.706148572
   236   1 0.000000 30.069715629 4.133513908 18.706148572
   237   1 0.000000 32.933498070 9.093730597 18.706148572
   238   1 0.000000 35.797280511 14.053947287 18.706148572
   239   1 0.000000 38.661062951 19.014163976 18.706148572
   240   1 0.000000 41.524845392 23.974380665 18.706148572
   241   1 0.000000 7.159456102 4.133513908 18.706148572
   242   1 0.000000 10.023238543 9.093730597 18.706148572
   243   1 0.000000 12.887020984 14.053947287 18.706148572
   244   1 0.000000 15.750803425 19.014163976 18.706148572
   245   1 0.000000 18.614585866 23.974380665 18.706148572
   246   1 0.000000 12.887020984 4.133513908 18.706148572
   247   1 0.000000 15.750803425 9.093730597 18.706148572
   248   1 0.000000 18.614585866 14.053947287 18.706148572
   249   1 0.000000 21.478368306 19.014163976 18.706148572
   250   1 0.000000 24.342150747 23.974380665 18.706148572
   251   1 0.000000 15.750803425 4.133513908 18.706148572
   252   1 0.000000 18.614585866 9.093730597 18.706148572
   253   1 0.000000 21.478368306 14.053947287 18.706148572
   254   1 0.000000 24.342150747 19.014163976 18.706148572
   255   1 0.000000 27.205933188 23.974380665 18.706148572
   256   1 0.000000 21.478368306 4.133513908 18.706148572
   257   1 0.000000 24.342150747 9.093730597 18.706148572
   258   1 0.000000 27.205933188 14.053947287 18.706148572
   259   1 0.000000 30.069715629 19.014163976 18.706148572
   260   1 0.000000 32.933498070 23.974380665 18.706148572
   261   1 0.000000 27.205933188 4.133513908 18.706148572
   262   1 0.000000 30.069715629 9.093730597 18.706148572
   263   1 0.000000 32.933498070 14.053947287 18.706148572
   264   1 0.000000 35.797280511 19.014163976 18.706148572
   265   1 0.000000 38.661062951 23.974380665 18.706148572
   266   1 0.000000 4.295673661 4.133513908 18.706148572
   267   1 0.000000 7.159456102 9.093730597 18.706148572
   268   1 0.000000 10.023238543 14.053947287 18.706148572
   269   1 0.000000 12.887020984 19.014163976 18.706148572
   270   1 0.000000 15.750803425 23.974380665 18.706148572
   271   1 0.000000 10.023238543 4.133513908 18.706148572
   272   1 0.000000 12.887020984 9.093730597 18.706148572
   273   1 0.000000 15.750803425 14.053947287 18.706148572
   274   1 0.000000 18.614585866 19.014163976 18.706148572
   275   1 0.000000 21.478368306 23.974380665 18.706148572
   276   1 0.000000 17.182694645 1.653405563 18.706148572
   277   1 0.000000 20.046477086 6.613622252 18.706148572
   278   1 0.000000 22.910259527 11.573838942 18.706148572
   279   1 0.000000 25.774041968 16.534055631 18.706148572
   280   1 0.000000 28.637824408 21.494272321 18.706148572
   281   1 0.000000 22.910259527 1.653405563 18.706148572
   282   1 0.000000 25.774041968 6.613622252 18.706148572
   283   1 0.000000 28.637824408 11.573838942 18.706148572
   284   1 0.000000 31.501606849 16.534055631 18.706148572
   285   1 0.000000 34.365389290 21.494272321 18.706148572
   286   1 0.000000 28.637824408 1.653405563 18.706148572
   287   1 0.000000 31.501606849 6.613622252 18.706148572
   288   1 0.000000 34.365389290 11.573838942 18.706148572
   289   1 0.000000 37.229171731 16.534055631 18.706148572
   290   1 0.000000 40.092954172 21.494272321 18.706148572
   291   1 0.000000 5.727564882 1.653405563 18.706148572
   292   1 0.000000 8.591347323 6.613622252 18.706148572
   293   1 0.000000 11.455129763 11.573838942 18.706148572
   294   1 0.000000 14.318912204 16.534055631 18.706148572
   295   1 0.000000 17.182694645 21.494272321 18.706148572
   296   1 0.000000 11.455129763 1.653405563 18.706148572
   297   1 0.000000 14.318912204 6.613622252 18.706148572
   298   1 0.000000 17.182694645 11.573838942 18.706148572
   299   1 0.000000 20.046477086 16.534055631 18.706148572
   300   1 0.000000 22.910259527 21.494272321 18.706148572
   301   1 0.000000 14.318912204 4.960216689 21.044417143
   302   1 0.000000 17.182694645 9.920433379 21.044417143
   303   1 0.000000 20.046477086 14.880650068 21.044417143
   304   1 0.000000 22.910259527 19.840866757 21.044417143
   305   1 0.000000 11.455129763 0E-9 21.044417143
   306   1 0.000000 20.046477086 4.960216689 21.044417143
   307   1 0.000000 22.910259527 9.920433379 21.044417143
   308   1 0.000000 25.774041968 14.880650068 21.044417143
   309   1 0.000000 28.637824408 19.840866757 21.044417143
   310   1 0.000000 17.182694645 0E-9 21.044417143
   311   1 0.000000 25.774041968 4.960216689 21.044417143
   312   1 0.000000 28.637824408 9.920433379 21.044417143
   313   1 0.000000 31.501606849 14.880650068 21.044417143
   314   1 0.000000 34.365389290 19.840866757 21.044417143
   315   1 0.000000 22.910259527 0E-9 21.044417143
   316   1 0.000000 2.863782441 4.960216689 21.044417143
   317   1 0.000000 5.727564882 9.920433379 21.044417143
   318   1 0.000000 8.591347323 14.880650068 21.044417143
   319   1 0.000000 11.455129763 19.840866757 21.044417143
   320   1 0.000000 0E-9 0E-9 21.044417143
   321   1 0.000000 8.591347323 4.960216689 21.044417143
   322   1 0.000000 11.455129763 9.920433379 21.044417143
   323   1 0.000000 14.318912204 14.880650068 21.044417143
   324   1 0.000000 17.182694645 19.840866757 21.044417143
   325   1 0.000000 5.727564882 0E-9 21.044417143
   326   1 0.000000 18.614585866 7.440325034 21.044417143
   327   1 0.000000 21.478368306 12.400541723 21.044417143
   328   1 0.000000 24.342150747 17.360758413 21.044417143
   329   1 0.000000 27.205933188 22.320975102 21.044417143
   330   1 0.000000 15.750803425 2.480108345 21.044417143
   331   1 0.000000 24.342150747 7.440325034 21.044417143
   332   1 0.000000 27.205933188 12.400541723 21.044417143
   333   1 0.000000 30.069715629 17.360758413 21.044417143
   334   1 0.000000 32.933498070 22.320975102 21.044417143
   335   1 0.000000 21.478368306 2.480108345 21.044417143
   336   1 0.000000 30.069715629 7.440325034 21.044417143
   337   1 0.000000 32.933498070 12.400541723 21.044417143
   338   1 0.000000 35.797280511 17.360758413 21.044417143
   339   1 0.000000 38.661062951 22.320975102 21.044417143
   340   1 0.000000 27.205933188 2.480108345 21.044417143
   341   1 0.000000 7.159456102 7.440325034 21.044417143
   342   1 0.000000 10.023238543 12.400541723 21.044417143
   343   1 0.000000 12.887020984 17.360758413 21.044417143
   344   1 0.000000 15.750803425 22.320975102 21.044417143
   345   1 0.000000 4.295673661 2.480108345 21.044417143
   346   1 0.000000 12.887020984 7.440325034 21.044417143
   347   1 0.000000 15.750803425 12.400541723 21.044417143
   348   1 0.000000 18.614585866 17.360758413 21.044417143
   349   1 0.000000 21.478368306 22.320975102 21.044417143
   350   1 0.000000 10.023238543 2.480108345 21.044417143
   351   1 0.000000 15.750803425 7.440325034 21.044417143
   352   1 0.000000 18.614585866 12.400541723 21.044417143
   353   1 0.000000 21.478368306 17.360758413 21.044417143
   354   1 0.000000 24.342150747 22.320975102 21.044417143
   355   1 0.000000 12.887020984 2.480108345 21.044417143
   356   1 0.000000 21.478368306 7.440325034 21.044417143
   357   1 0.000000 24.342150747 12.400541723 21.044417143
   358   1 0.000000 27.205933188 17.360758413 21.044417143
   359   1 0.000000 30.069715629 22.320975102 21.044417143
   360   1 0.000000 18.614585866 2.480108345 21.044417143
   361   1 0.000000 27.205933188 7.440325034 21.044417143
   362   1 0.000000 30.069715629 12.400541723 21.044417143
   363   1 0.000000 32.933498070 17.360758413 21.044417143
   364   1 0.000000 35.797280511 22.320975102 21.044417143
   365   1 0.000000 24.342150747 2.480108345 21.044417143
   366   1 0.000000 4.295673661 7.440325034 21.044417143
   367   1 0.000000 7.159456102 12.400541723 21.044417143
   368   1 0.000000 10.023238543 17.360758413 21.044417143
   369   1 0.000000 12.887020984 22.320975102 21.044417143
   370   1 0.000000 1.431891220 2.480108345 21.044417143
   371   1 0.000000 10.023238543 7.440325034 21.044417143
   372   1 0.000000 12.887020984 12.400541723 21.044417143
   373   1 0.000000 15.750803425 17.360758413 21.044417143
   374   1 0.000000 18.614585866 22.320975102 21.044417143
   375   1 0.000000 7.159456102 2.480108345 21.044417143
   376   1 0.000000 17.182694645 4.960216689 21.044417143
   377   1 0.000000 20.046477086 9.920433379 21.044417143
   378   1 0.000000 22.910259527 14.880650068 21.044417143
   379   1 0.000000 25.774041968 19.840866757 21.044417143
   380   1 0.000000 14.318912204 0E-9 21.044417143
   381   1 0.000000 22.910259527 4.960216689 21.044417143
   382   1 0.000000 25.774041968 9.920433379 21.044417143
   383   1 0.000000 28.637824408 14.880650068 21.044417143
   384   1 0.000000 31.501606849 19.840866757 21.044417143
   385   1 0.000000 20.046477086 0E-9 21.044417143
   386   1 0.000000 28.637824408 4.960216689 21.044417143
   387   1 0.000000 31.501606849 9.920433379 21.044417143
   388   1 0.000000 34.365389290 14.880650068 21.044417143
   389   1 0.000000 37.229171731 19.840866757 21.044417143
   390   1 0.000000 25.774041968 0E-9 21.044417143
   391   1 0.000000 5.727564882 4.960216689 21.044417143
   392   1 0.000000 8.591347323 9.920433379 21.044417143
   393   1 0.000000 11.455129763 14.880650068 21.044417143
   394   1 0.000000 14.318912204 19.840866757 21.044417143
   395   1 0.000000 2.863782441 0E-9 21.044417143
   396   1 0.000000 11.455129763 4.960216689 21.044417143
   397   1 0.000000 14.318912204 9.920433379 21.044417143
   398   1 0.000000 17.182694645 14.880650068 21.044417143
   399   1 0.000000 20.046477086 19.840866757 21.044417143
   400   1 0.000000 8.591347323 0E-9 21.044417143
   401   1 0.000000 14.318912204 8.267027816 23.382685715
   402   1 0.000000 17.182694645 13.227244505 23.382685715
   403   1 0.000000 20.046477086 18.187461194 23.382685715
   404   1 0.000000 22.910259527 23.147677884 23.382685715
   405   1 0.000000 11.455129763 3.306811126 23.382685715
   406   1 0.000000 20.046477086 8.267027816 23.382685715
   407   1 0.000000 22.910259527 13.227244505 23.382685715
   408   1 0.000000 25.774041968 18.187461194 23.382685715
   409   1 0.000000 28.637824408 23.147677884 23.382685715
   410   1 0.000000 17.182694645 3.306811126 23.382685715
   411   1 0.000000 25.774041968 8.267027816 23.382685715
   412   1 0.000000 28.637824408 13.227244505 23.382685715
   413   1 0.000000 31.501606849 18.187461194 23.382685715
   414   1 0.000000 34.365389290 23.147677884 23.382685715
   415   1 0.000000 22.910259527 3.306811126 23.382685715
   416   1 0.000000 31.501606849 8.267027816 23.382685715
   417   1 0.000000 34.365389290 13.227244505 23.382685715
   418   1 0.000000 37.229171731 18.187461194 23.382685715
   419   1 0.000000 40.092954172 23.147677884 23.382685715
   420   1 0.000000 28.637824408 3.306811126 23.382685715
   421   1 0.000000 8.591347323 8.267027816 23.382685715
   422   1 0.000000 11.455129763 13.227244505 23.382685715
   423   1 0.000000 14.318912204 18.187461194 23.382685715
   424   1 0.000000 17.182694645 23.147677884 23.382685715
   425   1 0.000000 5.727564882 3.306811126 23.382685715
   426   1 0.000000 18.614585866 10.747136160 23.382685715
   427   1 0.000000 21.478368306 15.707352850 23.382685715
   428   1 0.000000 24.342150747 20.667569539 23.382685715
   429   1 0.000000 12.887020984 0.826702782 23.382685715
   430   1 0.000000 15.750803425 5.786919471 23.382685715
   431   1 0.000000 24.342150747 10.747136160 23.382685715
   432   1 0.000000 27.205933188 15.707352850 23.382685715
   433   1 0.000000 30.069715629 20.667569539 23.382685715
   434   1 0.000000 18.614585866 0.826702782 23.382685715
   435   1 0.000000 21.478368306 5.786919471 23.382685715
   436   1 0.000000 30.069715629 10.747136160 23.382685715
   437   1 0.000000 32.933498070 15.707352850 23.382685715
   438   1 0.000000 35.797280511 20.667569539 23.382685715
   439   1 0.000000 24.342150747 0.826702782 23.382685715
   440   1 0.000000 27.205933188 5.786919471 23.382685715
   441   1 0.000000 7.159456102 10.747136160 23.382685715
   442   1 0.000000 10.023238543 15.707352850 23.382685715
   443   1 0.000000 12.887020984 20.667569539 23.382685715
   444   1 0.000000 1.431891220 0.826702782 23.382685715
   445   1 0.000000 4.295673661 5.786919471 23.382685715
   446   1 0.000000 12.887020984 10.747136160 23.382685715
   447   1 0.000000 15.750803425 15.707352850 23.382685715
   448   1 0.000000 18.614585866 20.667569539 23.382685715
   449   1 0.000000 7.159456102 0.826702782 23.382685715
   450   1 0.000000 10.023238543 5.786919471 23.382685715
   451   1 0.000000 15.750803425 10.747136160 23.382685715
   452   1 0.000000 18.614585866 15.707352850 23.382685715
   453   1 0.000000 21.478368306 20.667569539 23.382685715
   454   1 0.000000 10.023238543 0.826702782 23.382685715
   455   1 0.000000 12.887020984 5.786919471 23.382685715
   456   1 0.000000 21.478368306 10.747136160 23.382685715
   457   1 0.000000 24.342150747 15.707352850 23.382685715
   458   1 0.000000 27.205933188 20.667569539 23.382685715
   459   1 0.000000 15.750803425 0.826702782 23.382685715
   460   1 0.000000 18.614585866 5.786919471 23.382685715
   461   1 0.000000 27.205933188 10.747136160 23.382685715
   462   1 0.000000 30.069715629 15.707352850 23.382685715
   463   1 0.000000 32.933498070 20.667569539 23.382685715
   464   1 0.000000 21.478368306 0.826702782 23.382685715
   465   1 0.000000 24.342150747 5.786919471 23.382685715
   466   1 0.000000 32.933498070 10.747136160 23.382685715
   467   1 0.000000 35.797280511 15.707352850 23.382685715
   468   1 0.000000 38.661062951 20.667569539 23.382685715
   469   1 0.000000 27.205933188 0.826702782 23.382685715
   470   1 0.000000 30.069715629 5.786919471 23.382685715
   471   1 0.000000 10.023238543 10.747136160 23.382685715
   472   1 0.000000 12.887020984 15.707352850 23.382685715
   473   1 0.000000 15.750803425 20.667569539 23.382685715
   474   1 0.000000 4.295673661 0.826702782 23.382685715
   475   1 0.000000 7.159456102 5.786919471 23.382685715
   476   1 0.000000 17.182694645 8.267027816 23.382685715
   477   1 0.000000 20.046477086 13.227244505 23.382685715
   478   1 0.000000 22.910259527 18.187461194 23.382685715
   479   1 0.000000 25.774041968 23.147677884 23.382685715
   480   1 0.000000 14.318912204 3.306811126 23.382685715
   481   1 0.000000 22.910259527 8.267027816 23.382685715
   482   1 0.000000 25.774041968 13.227244505 23.382685715
   483   1 0.000000 28.637824408 18.187461194 23.382685715
   484   1 0.000000 31.501606849 23.147677884 23.382685715
   485   1 0.000000 20.046477086 3.306811126 23.382685715
   486   1 0.000000 28.637824408 8.267027816 23.382685715
   487   1 0.000000 31.501606849 13.227244505 23.382685715
   488   1 0.000000 34.365389290 18.187461194 23.382685715
   489   1 0.000000 37.229171731 23.147677884 23.382685715
   490   1 0.000000 25.774041968 3.306811126 23.382685715
   491   1 0.000000 5.727564882 8.267027816 23.382685715
   492   1 0.000000 8.591347323 13.227244505 23.382685715
   493   1 0.000000 11.455129763 18.187461194 23.382685715
   494   1 0.000000 14.318912204 23.147677884 23.382685715
   495   1 0.000000 2.863782441 3.306811126 23.382685715
   496   1 0.000000 11.455129763 8.267027816 23.382685715
   497   1 0.000000 14.318912204 13.227244505 23.382685715
   498   1 0.000000 17.182694645 18.187461194 23.382685715
   499   1 0.000000 20.046477086 23.147677884 23.382685715
   500   1 0.000000 8.591347323 3.306811126 23.382685715
   501   1 0.000000 14.318912204 11.573838942 25.720954286
   502   1 0.000000 17.182694645 16.534055631 25.720954286
   503   1 0.000000 20.046477086 21.494272321 25.720954286
   504   1 0.000000 8.591347323 1.653405563 25.720954286
   505   1 0.000000 11.455129763 6.613622252 25.720954286
   506   1 0.000000 20.046477086 11.573838942 25.720954286
   507   1 0.000000 22.910259527 16.534055631 25.720954286
   508   1 0.000000 25.774041968 21.494272321 25.720954286
   509   1 0.000000 14.318912204 1.653405563 25.720954286
   510   1 0.000000 17.182694645 6.613622252 25.720954286
   511   1 0.000000 25.774041968 11.573838942 25.720954286