LAMMPS data file via write_data, version 13 Jan 2016, timestep = 164

900 atoms
1 atom types

1.7004754476036973e-01 2.8467776863239607e+01 xlo xhi
1.4726549339070411e-01 2.4653817952609291e+01 ylo yhi
-3.0684657817132793e-02 4.6796056085817135e+01 zlo zhi
1.4148864659494006e+01 0.0000000000000000e+00 0.0000000000000000e+00 xy xz yz

Masses

1 26.982

Atoms # charge

1 1 0.0000000000000000e+00 2.8467776863795670e+01 1.9752507461189104e+01 1.4071699345753068e+01 0 0 0
2 1 0.0000000000000000e+00 1.7148685136198075e+01 1.4726549381430551e-01 1.4071699345752075e+01 0 1 0
3 1 0.0000000000000000e+00 1.9978458068095623e+01 5.0485759856584433e+00 1.4071699345751677e+01 0 0 0
4 1 0.0000000000000000e+00 2.2808230999996436e+01 9.9498864775024440e+00 1.4071699345752270e+01 0 0 0
5 1 0.0000000000000000e+00 2.5638003931897298e+01 1.4851196969346029e+01 1.4071699345753915e+01 0 0 0
6 1 0.0000000000000000e+00 3.4127322727491183e+01 1.9752507461188312e+01 1.4071699345753331e+01 0 0 0
7 1 0.0000000000000000e+00 2.2808230999893436e+01 1.4726549381359913e-01 1.4071699345753242e+01 0 1 0
8 1 0.0000000000000000e+00 2.5638003931790660e+01 5.0485759856583563e+00 1.4071699345752478e+01 0 0 0
9 1 0.0000000000000000e+00 2.8467776863691054e+01 9.9498864775029627e+00 1.4071699345751940e+01 0 0 0
10 1 0.0000000000000000e+00 3.1297549795592321e+01 1.4851196969345917e+01 1.4071699345753268e+01 0 0 0
11 1 0.0000000000000000e+00 1.1489139272706597e+01 1.9752507461186038e+01 1.4071699345752771e+01 0 0 0
12 1 0.0000000000000000e+00 1.7004754510863329e-01 1.4726549381214243e-01 1.4071699345752249e+01 0 1 0
13 1 0.0000000000000000e+00 2.9998204770059926e+00 5.0485759856573766e+00 1.4071699345751272e+01 0 0 0
14 1 0.0000000000000000e+00 5.8295934089065380e+00 9.9498864775012539e+00 1.4071699345751682e+01 0 0 0
15 1 0.0000000000000000e+00 8.6593663408080559e+00 1.4851196969343311e+01 1.4071699345752798e+01 0 0 0
16 1 0.0000000000000000e+00 1.7148685136402289e+01 1.9752507461185548e+01 1.4071699345751368e+01 0 0 0
17 1 0.0000000000000000e+00 5.8295934088042234e+00 1.4726549381175955e-01 1.4071699345751087e+01 0 1 0
18 1 0.0000000000000000e+00 8.6593663407016397e+00 5.0485759856564227e+00 1.4071699345750650e+01 0 0 0
19 1 0.0000000000000000e+00 1.1489139272602484e+01 9.9498864774998275e+00 1.4071699345750879e+01 0 0 0
20 1 0.0000000000000000e+00 1.4318912204504166e+01 1.4851196969342155e+01 1.4071699345751570e+01 0 0 0
21 1 0.0000000000000000e+00 2.2808231000099159e+01 1.9752507461187271e+01 1.4071699345752545e+01 0 0 0
22 1 0.0000000000000000e+00 1.1489139272501188e+01 1.4726549381296122e-01 1.4071699345751265e+01 0 1 0
23 1 0.0000000000000000e+00 1.4318912204398673e+01 5.0485759856573971e+00 1.4071699345750419e+01 0 0 0
24 1 0.0000000000000000e+00 1.7148685136300013e+01 9.9498864775008276e+00 1.4071699345750531e+01 0 0 0
25 1 0.0000000000000000e+00 1.9978458068201380e+01 1.4851196969343819e+01 1.4071699345752348e+01 0 0 0
26 1 0.0000000000000000e+00 3.2712436261591940e+01 2.2203162707110614e+01 1.4071699345752821e+01 0 0 0
27 1 0.0000000000000000e+00 2.1393344533994242e+01 2.5979207397361841e+00 1.4071699345752629e+01 0 0 0
28 1 0.0000000000000000e+00 2.4223117465893253e+01 7.4992312315805885e+00 1.4071699345752075e+01 0 0 0
29 1 0.0000000000000000e+00 2.7052890397794471e+01 1.2400541723424739e+01 1.4071699345753000e+01 0 0 0
30 1 0.0000000000000000e+00 2.9882663329694520e+01 1.7301852215267544e+01 1.4071699345753371e+01 0 0 0
31 1 0.0000000000000000e+00 3.8371982125286692e+01 2.2203162707108959e+01 1.4071699345753130e+01 0 0 0
32 1 0.0000000000000000e+00 2.7052890397688842e+01 2.5979207397352875e+00 1.4071699345752558e+01 0 0 0
33 1 0.0000000000000000e+00 2.9882663329587743e+01 7.4992312315802359e+00 1.4071699345751290e+01 0 0 0
34 1 0.0000000000000000e+00 3.2712436261489167e+01 1.2400541723423609e+01 1.4071699345752535e+01 0 0 0
35 1 0.0000000000000000e+00 3.5542209193389560e+01 1.7301852215265598e+01 1.4071699345753178e+01 0 0 0
36 1 0.0000000000000000e+00 1.5733798670502281e+01 2.2203162707107644e+01 1.4071699345751618e+01 0 0 0
37 1 0.0000000000000000e+00 4.4147069429045258e+00 2.5979207397342736e+00 1.4071699345751131e+01 0 0 0
38 1 0.0000000000000000e+00 7.2444798748035648e+00 7.4992312315786034e+00 1.4071699345750911e+01 0 0 0
39 1 0.0000000000000000e+00 1.0074252806705305e+01 1.2400541723421245e+01 1.4071699345751872e+01 0 0 0
40 1 0.0000000000000000e+00 1.2904025738605467e+01 1.7301852215263519e+01 1.4071699345752108e+01 0 0 0
41 1 0.0000000000000000e+00 2.1393344534198629e+01 2.2203162707108259e+01 1.4071699345751396e+01 0 0 0
42 1 0.0000000000000000e+00 1.0074252806600885e+01 2.5979207397343518e+00 1.4071699345750648e+01 0 0 0
43 1 0.0000000000000000e+00 1.2904025738500117e+01 7.4992312315784320e+00 1.4071699345750154e+01 0 0 0
44 1 0.0000000000000000e+00 1.5733798670402297e+01 1.2400541723421268e+01 1.4071699345750879e+01 0 0 0
45 1 0.0000000000000000e+00 1.8563571602302137e+01 1.7301852215264173e+01 1.4071699345751609e+01 0 0 0
46 1 0.0000000000000000e+00 2.7052890397895720e+01 2.2203162707110199e+01 1.4071699345752137e+01 0 0 0
47 1 0.0000000000000000e+00 1.5733798670298111e+01 2.5979207397359465e+00 1.4071699345751114e+01 0 0 0
48 1 0.0000000000000000e+00 1.8563571602197612e+01 7.4992312315798104e+00 1.4071699345750710e+01 0 0 0
49 1 0.0000000000000000e+00 2.1393344534099427e+01 1.2400541723423311e+01 1.4071699345752544e+01 0 0 0
50 1 0.0000000000000000e+00 2.4223117465998854e+01 1.7301852215266543e+01 1.4071699345753601e+01 0 0 0
51 1 0.0000000000000000e+00 2.9882663329744027e+01 2.2203162707110781e+01 1.4071699345752377e+01 0 0 0
52 1 0.0000000000000000e+00 1.8563571602146453e+01 2.5979207397362782e+00 1.4071699345751805e+01 0 0 0
53 1 0.0000000000000000e+00 2.1393344534045738e+01 7.4992312315803167e+00 1.4071699345751604e+01 0 0 0
54 1 0.0000000000000000e+00 2.4223117465947137e+01 1.2400541723424237e+01 1.4071699345753235e+01 0 0 0
55 1 0.0000000000000000e+00 2.7052890397846809e+01 1.7301852215267413e+01 1.4071699345753657e+01 0 0 0
56 1 0.0000000000000000e+00 3.5542209193439525e+01 2.2203162707109932e+01 1.4071699345753219e+01 0 0 0
57 1 0.0000000000000000e+00 2.4223117465841678e+01 2.5979207397358230e+00 1.4071699345752995e+01 0 0 0
58 1 0.0000000000000000e+00 2.7052890397740516e+01 7.4992312315806293e+00 1.4071699345751805e+01 0 0 0
59 1 0.0000000000000000e+00 2.9882663329641815e+01 1.2400541723424556e+01 1.4071699345752613e+01 0 0 0
60 1 0.0000000000000000e+00 3.2712436261542173e+01 1.7301852215266862e+01 1.4071699345753331e+01 0 0 0
61 1 0.0000000000000000e+00 1.2904025738654749e+01 2.2203162707108060e+01 1.4071699345752496e+01 0 0 0
62 1 0.0000000000000000e+00 1.5849340110569232e+00 2.5979207397347248e+00 1.4071699345751760e+01 0 0 0
63 1 0.0000000000000000e+00 4.4147069429559265e+00 7.4992312315794090e+00 1.4071699345751059e+01 0 0 0
64 1 0.0000000000000000e+00 7.2444798748574559e+00 1.2400541723422290e+01 1.4071699345752384e+01 0 0 0
65 1 0.0000000000000000e+00 1.0074252806757803e+01 1.7301852215264280e+01 1.4071699345752764e+01 0 0 0
66 1 0.0000000000000000e+00 1.8563571602350315e+01 2.2203162707107765e+01 1.4071699345751171e+01 0 0 0
67 1 0.0000000000000000e+00 7.2444798747525665e+00 2.5979207397340547e+00 1.4071699345750794e+01 0 0 0
68 1 0.0000000000000000e+00 1.0074252806651627e+01 7.4992312315782215e+00 1.4071699345750565e+01 0 0 0
69 1 0.0000000000000000e+00 1.2904025738553628e+01 1.2400541723420856e+01 1.4071699345751210e+01 0 0 0
70 1 0.0000000000000000e+00 1.5733798670453661e+01 1.7301852215263487e+01 1.4071699345751496e+01 0 0 0
71 1 0.0000000000000000e+00 2.4223117466047231e+01 2.2203162707109175e+01 1.4071699345751872e+01 0 0 0
72 1 0.0000000000000000e+00 1.2904025738449517e+01 2.5979207397351560e+00 1.4071699345750744e+01 0 0 0
73 1 0.0000000000000000e+00 1.5733798670348980e+01 7.4992312315790830e+00 1.4071699345750126e+01 0 0 0
74 1 0.0000000000000000e+00 1.8563571602251098e+01 1.2400541723422222e+01 1.4071699345751396e+01 0 0 0
75 1 0.0000000000000000e+00 2.1393344534150678e+01 1.7301852215265317e+01 1.4071699345752664e+01 0 0 0
76 1 0.0000000000000000e+00 3.1297549795643558e+01 1.9752507461189087e+01 1.4071699345753125e+01 0 0 0
77 1 0.0000000000000000e+00 1.9978458068045956e+01 1.4726549381416509e-01 1.4071699345752748e+01 0 1 0
78 1 0.0000000000000000e+00 2.2808230999943323e+01 5.0485759856585055e+00 1.4071699345752405e+01 0 0 0
79 1 0.0000000000000000e+00 2.5638003931843787e+01 9.9498864775029379e+00 1.4071699345752350e+01 0 0 0
80 1 0.0000000000000000e+00 2.8467776863744827e+01 1.4851196969346409e+01 1.4071699345753505e+01 0 0 0
81 1 0.0000000000000000e+00 3.6957095659338528e+01 1.9752507461187154e+01 1.4071699345753245e+01 0 0 0
82 1 0.0000000000000000e+00 2.5638003931740620e+01 1.4726549381286000e-01 1.4071699345753023e+01 0 1 0
83 1 0.0000000000000000e+00 2.8467776863637866e+01 5.0485759856579833e+00 1.4071699345751872e+01 0 0 0
84 1 0.0000000000000000e+00 3.1297549795538345e+01 9.9498864775023375e+00 1.4071699345751687e+01 0 0 0
85 1 0.0000000000000000e+00 3.4127322727439754e+01 1.4851196969344725e+01 1.4071699345753139e+01 0 0 0
86 1 0.0000000000000000e+00 1.4318912204554218e+01 1.9752507461185459e+01 1.4071699345751950e+01 0 0 0
87 1 0.0000000000000000e+00 2.9998204769562156e+00 1.4726549381182705e-01 1.4071699345751441e+01 0 1 0
88 1 0.0000000000000000e+00 5.8295934088536443e+00 5.0485759856567425e+00 1.4071699345750908e+01 0 0 0
89 1 0.0000000000000000e+00 8.6593663407542714e+00 9.9498864775002982e+00 1.4071699345751412e+01 0 0 0
90 1 0.0000000000000000e+00 1.1489139272655896e+01 1.4851196969342356e+01 1.4071699345752151e+01 0 0 0
91 1 0.0000000000000000e+00 1.9978458068250664e+01 1.9752507461186223e+01 1.4071699345751638e+01 0 0 0
92 1 0.0000000000000000e+00 8.6593663406525838e+00 1.4726549381211224e-01 1.4071699345751076e+01 0 1 0
93 1 0.0000000000000000e+00 1.1489139272549989e+01 5.0485759856567229e+00 1.4071699345750398e+01 0 0 0
94 1 0.0000000000000000e+00 1.4318912204451163e+01 9.9498864775000744e+00 1.4071699345750380e+01 0 0 0
95 1 0.0000000000000000e+00 1.7148685136352764e+01 1.4851196969342739e+01 1.4071699345751458e+01 0 0 0
96 1 0.0000000000000000e+00 2.5638003931947519e+01 1.9752507461188404e+01 1.4071699345753045e+01 0 0 0
97 1 0.0000000000000000e+00 1.4318912204349749e+01 1.4726549381390955e-01 1.4071699345751542e+01 0 1 0
98 1 0.0000000000000000e+00 1.7148685136247359e+01 5.0485759856580952e+00 1.4071699345750845e+01 0 0 0
99 1 0.0000000000000000e+00 1.9978458068148559e+01 9.9498864775017459e+00 1.4071699345751371e+01 0 0 0
100 1 0.0000000000000000e+00 2.2808231000049584e+01 1.4851196969345079e+01 1.4071699345753533e+01 0 0 0
101 1 0.0000000000000000e+00 2.8467776863824763e+01 2.3020047789084806e+01 1.6326489109042836e+01 0 0 0
102 1 0.0000000000000000e+00 1.7148685136227254e+01 3.4148058217102095e+00 1.6326489109042129e+01 0 0 0
103 1 0.0000000000000000e+00 1.9978458068126734e+01 8.3161163135536587e+00 1.6326489109042363e+01 0 0 0
104 1 0.0000000000000000e+00 2.2808231000028201e+01 1.3217426805397162e+01 1.6326489109044530e+01 0 0 0
105 1 0.0000000000000000e+00 2.5638003931927802e+01 1.8118737297240894e+01 1.6326489109044640e+01 0 0 0
106 1 0.0000000000000000e+00 3.4127322727520891e+01 2.3020047789084764e+01 1.6326489109043738e+01 0 0 0
107 1 0.0000000000000000e+00 2.2808230999923271e+01 3.4148058217104778e+00 1.6326489109043560e+01 0 0 0
108 1 0.0000000000000000e+00 2.5638003931822428e+01 8.3161163135545699e+00 1.6326489109043141e+01 0 0 0
109 1 0.0000000000000000e+00 2.8467776863723710e+01 1.3217426805398215e+01 1.6326489109044367e+01 0 0 0
110 1 0.0000000000000000e+00 3.1297549795623784e+01 1.8118737297241228e+01 1.6326489109044360e+01 0 0 0
111 1 0.0000000000000000e+00 3.9786868591215999e+01 2.3020047789083122e+01 1.6326489109043582e+01 0 0 0
112 1 0.0000000000000000e+00 2.8467776863618298e+01 3.4148058217096096e+00 1.6326489109042789e+01 0 0 0
113 1 0.0000000000000000e+00 3.1297549795517313e+01 8.3161163135537084e+00 1.6326489109042313e+01 0 0 0
114 1 0.0000000000000000e+00 3.4127322727418765e+01 1.3217426805396425e+01 1.6326489109043941e+01 0 0 0
115 1 0.0000000000000000e+00 3.6957095659319045e+01 1.8118737297238994e+01 1.6326489109044065e+01 0 0 0
116 1 0.0000000000000000e+00 1.7148685136431641e+01 2.3020047789082138e+01 1.6326489109042011e+01 0 0 0
117 1 0.0000000000000000e+00 5.8295934088341133e+00 3.4148058217084096e+00 1.6326489109041646e+01 0 0 0
118 1 0.0000000000000000e+00 8.6593663407333690e+00 8.3161163135519072e+00 1.6326489109042033e+01 0 0 0
119 1 0.0000000000000000e+00 1.1489139272635166e+01 1.3217426805394252e+01 1.6326489109042974e+01 0 0 0
120 1 0.0000000000000000e+00 1.4318912204534998e+01 1.8118737297237377e+01 1.6326489109042768e+01 0 0 0
121 1 0.0000000000000000e+00 2.2808231000127726e+01 2.3020047789082927e+01 1.6326489109042164e+01 0 0 0
122 1 0.0000000000000000e+00 1.1489139272530316e+01 3.4148058217087303e+00 1.6326489109041372e+01 0 0 0
123 1 0.0000000000000000e+00 1.4318912204429902e+01 8.3161163135519907e+00 1.6326489109041283e+01 0 0 0
124 1 0.0000000000000000e+00 1.7148685136331650e+01 1.3217426805394863e+01 1.6326489109042456e+01 0 0 0
125 1 0.0000000000000000e+00 1.9978458068231038e+01 1.8118737297238571e+01 1.6326489109042960e+01 0 0 0
126 1 0.0000000000000000e+00 1.8563571602126991e+01 9.6415057578836660e-01 1.6326489109042829e+01 0 0 0
127 1 0.0000000000000000e+00 2.1393344534024603e+01 5.8654610676323111e+00 1.6326489109042740e+01 0 0 0
128 1 0.0000000000000000e+00 2.4223117465925359e+01 1.0766771559475988e+01 1.6326489109043738e+01 0 0 0
129 1 0.0000000000000000e+00 2.7052890397826346e+01 1.5668082051319654e+01 1.6326489109044878e+01 0 0 0
130 1 0.0000000000000000e+00 2.9882663329724728e+01 2.0569392543163097e+01 1.6326489109043631e+01 0 0 0
131 1 0.0000000000000000e+00 2.4223117465822526e+01 9.6415057578763008e-01 1.6326489109043653e+01 0 0 0
132 1 0.0000000000000000e+00 2.7052890397719992e+01 5.8654610676322996e+00 1.6326489109042768e+01 0 0 0
133 1 0.0000000000000000e+00 2.9882663329620424e+01 1.0766771559476016e+01 1.6326489109043059e+01 0 0 0
134 1 0.0000000000000000e+00 3.2712436261521688e+01 1.5668082051318789e+01 1.6326489109044289e+01 0 0 0
135 1 0.0000000000000000e+00 3.5542209193420348e+01 2.0569392543161861e+01 1.6326489109043969e+01 0 0 0
136 1 0.0000000000000000e+00 1.5849340110380581e+00 9.6415057578632068e-01 1.6326489109042235e+01 0 0 0
137 1 0.0000000000000000e+00 4.4147069429356076e+00 5.8654610676309158e+00 1.6326489109041749e+01 0 0 0
138 1 0.0000000000000000e+00 7.2444798748362249e+00 1.0766771559473872e+01 1.6326489109042846e+01 0 0 0
139 1 0.0000000000000000e+00 1.0074252806737714e+01 1.5668082051316178e+01 1.6326489109043525e+01 0 0 0
140 1 0.0000000000000000e+00 1.2904025738635974e+01 2.0569392543159815e+01 1.6326489109042992e+01 0 0 0
141 1 0.0000000000000000e+00 7.2444798747335515e+00 9.6415057578596808e-01 1.6326489109041439e+01 0 0 0
142 1 0.0000000000000000e+00 1.0074252806631286e+01 5.8654610676300454e+00 1.6326489109041294e+01 0 0 0
143 1 0.0000000000000000e+00 1.2904025738532377e+01 1.0766771559472753e+01 1.6326489109041809e+01 0 0 0
144 1 0.0000000000000000e+00 1.5733798670433567e+01 1.5668082051315626e+01 1.6326489109042434e+01 0 0 0
145 1 0.0000000000000000e+00 1.8563571602331383e+01 2.0569392543159811e+01 1.6326489109041940e+01 0 0 0
146 1 0.0000000000000000e+00 1.2904025738430310e+01 9.6415057578733498e-01 1.6326489109041731e+01 0 0 0
147 1 0.0000000000000000e+00 1.5733798670328101e+01 5.8654610676311316e+00 1.6326489109041262e+01 0 0 0
148 1 0.0000000000000000e+00 1.8563571602229199e+01 1.0766771559474201e+01 1.6326489109042139e+01 0 0 0
149 1 0.0000000000000000e+00 2.1393344534130073e+01 1.5668082051317695e+01 1.6326489109043969e+01 0 0 0
150 1 0.0000000000000000e+00 2.4223117466028032e+01 2.0569392543161666e+01 1.6326489109043251e+01 0 0 0
151 1 0.0000000000000000e+00 1.5733798670278841e+01 9.6415057578810992e-01 1.6326489109042168e+01 0 0 0
152 1 0.0000000000000000e+00 1.8563571602176562e+01 5.8654610676318759e+00 1.6326489109041912e+01 0 0 0
153 1 0.0000000000000000e+00 2.1393344534077496e+01 1.0766771559475211e+01 1.6326489109043173e+01 0 0 0
154 1 0.0000000000000000e+00 2.4223117465978376e+01 1.5668082051318892e+01 1.6326489109044907e+01 0 0 0
155 1 0.0000000000000000e+00 2.7052890397876570e+01 2.0569392543162682e+01 1.6326489109043550e+01 0 0 0
156 1 0.0000000000000000e+00 2.1393344533974926e+01 9.6415057578816188e-01 1.6326489109043482e+01 0 0 0
157 1 0.0000000000000000e+00 2.4223117465872473e+01 5.8654610676324550e+00 1.6326489109043138e+01 0 0 0
158 1 0.0000000000000000e+00 2.7052890397773012e+01 1.0766771559476336e+01 1.6326489109043475e+01 0 0 0
159 1 0.0000000000000000e+00 2.9882663329674116e+01 1.5668082051319622e+01 1.6326489109044481e+01 0 0 0
160 1 0.0000000000000000e+00 3.2712436261572712e+01 2.0569392543162728e+01 1.6326489109043852e+01 0 0 0
161 1 0.0000000000000000e+00 2.7052890397669970e+01 9.6415057578691621e-01 1.6326489109043095e+01 0 0 0
162 1 0.0000000000000000e+00 2.9882663329567432e+01 5.8654610676317516e+00 1.6326489109042154e+01 0 0 0
163 1 0.0000000000000000e+00 3.2712436261467900e+01 1.0766771559475059e+01 1.6326489109042960e+01 0 0 0
164 1 0.0000000000000000e+00 3.5542209193369352e+01 1.5668082051317448e+01 1.6326489109044033e+01 0 0 0
165 1 0.0000000000000000e+00 3.8371982125267841e+01 2.0569392543160742e+01 1.6326489109043724e+01 0 0 0
166 1 0.0000000000000000e+00 4.4147069428856769e+00 9.6415057578595120e-01 1.6326489109041642e+01 0 0 0
167 1 0.0000000000000000e+00 7.2444798747833428e+00 5.8654610676302266e+00 1.6326489109041546e+01 0 0 0
168 1 0.0000000000000000e+00 1.0074252806684198e+01 1.0766771559472987e+01 1.6326489109042416e+01 0 0 0
169 1 0.0000000000000000e+00 1.2904025738585586e+01 1.5668082051315467e+01 1.6326489109042875e+01 0 0 0
170 1 0.0000000000000000e+00 1.5733798670483617e+01 2.0569392543159466e+01 1.6326489109042200e+01 0 0 0
171 1 0.0000000000000000e+00 1.0074252806581862e+01 9.6415057578645835e-01 1.6326489109041511e+01 0 0 0
172 1 0.0000000000000000e+00 1.2904025738479634e+01 5.8654610676304024e+00 1.6326489109041102e+01 0 0 0
173 1 0.0000000000000000e+00 1.5733798670380821e+01 1.0766771559473213e+01 1.6326489109041585e+01 0 0 0
174 1 0.0000000000000000e+00 1.8563571602281808e+01 1.5668082051316460e+01 1.6326489109042779e+01 0 0 0
175 1 0.0000000000000000e+00 2.1393344534179608e+01 2.0569392543160568e+01 1.6326489109042527e+01 0 0 0
176 1 0.0000000000000000e+00 3.1297549795672975e+01 2.3020047789085112e+01 1.6326489109043191e+01 0 0 0
177 1 0.0000000000000000e+00 1.9978458068075412e+01 3.4148058217105635e+00 1.6326489109042893e+01 0 0 0
178 1 0.0000000000000000e+00 2.2808230999974729e+01 8.3161163135542893e+00 1.6326489109043077e+01 0 0 0
179 1 0.0000000000000000e+00 2.5638003931876092e+01 1.3217426805398022e+01 1.6326489109044747e+01 0 0 0
180 1 0.0000000000000000e+00 2.8467776863775928e+01 1.8118737297241516e+01 1.6326489109044481e+01 0 0 0
181 1 0.0000000000000000e+00 3.6957095659368569e+01 2.3020047789084067e+01 1.6326489109043923e+01 0 0 0
182 1 0.0000000000000000e+00 2.5638003931770893e+01 3.4148058217101886e+00 1.6326489109043443e+01 0 0 0
183 1 0.0000000000000000e+00 2.8467776863669915e+01 8.3161163135544527e+00 1.6326489109042647e+01 0 0 0
184 1 0.0000000000000000e+00 3.1297549795571207e+01 1.3217426805397642e+01 1.6326489109044040e+01 0 0 0
185 1 0.0000000000000000e+00 3.4127322727471508e+01 1.8118737297240322e+01 1.6326489109044296e+01 0 0 0
186 1 0.0000000000000000e+00 1.4318912204584121e+01 2.3020047789082405e+01 1.6326489109042694e+01 0 0 0
187 1 0.0000000000000000e+00 2.9998204769864567e+00 3.4148058217089816e+00 1.6326489109042022e+01 0 0 0
188 1 0.0000000000000000e+00 5.8295934088855867e+00 8.3161163135527207e+00 1.6326489109042193e+01 0 0 0
189 1 0.0000000000000000e+00 8.6593663407872263e+00 1.3217426805395139e+01 1.6326489109043564e+01 0 0 0
190 1 0.0000000000000000e+00 1.1489139272687305e+01 1.8118737297237928e+01 1.6326489109043457e+01 0 0 0
191 1 0.0000000000000000e+00 1.9978458068279487e+01 2.3020047789082344e+01 1.6326489109041809e+01 0 0 0
192 1 0.0000000000000000e+00 8.6593663406820642e+00 3.4148058217083119e+00 1.6326489109041407e+01 0 0 0
193 1 0.0000000000000000e+00 1.1489139272581481e+01 8.3161163135516745e+00 1.6326489109041564e+01 0 0 0
194 1 0.0000000000000000e+00 1.4318912204483327e+01 1.3217426805394192e+01 1.6326489109042374e+01 0 0 0
195 1 0.0000000000000000e+00 1.7148685136382884e+01 1.8118737297237708e+01 1.6326489109042353e+01 0 0 0
196 1 0.0000000000000000e+00 2.5638003931976268e+01 2.3020047789083939e+01 1.6326489109042488e+01 0 0 0
197 1 0.0000000000000000e+00 1.4318912204378806e+01 3.4148058217095443e+00 1.6326489109041557e+01 0 0 0
198 1 0.0000000000000000e+00 1.7148685136278385e+01 8.3161163135528255e+00 1.6326489109041500e+01 0 0 0
199 1 0.0000000000000000e+00 1.9978458068179982e+01 1.3217426805396018e+01 1.6326489109043369e+01 0 0 0
200 1 0.0000000000000000e+00 2.2808231000079410e+01 1.8118737297239782e+01 1.6326489109044019e+01 0 0 0
201 1 0.0000000000000000e+00 1.4318912204363762e+01 1.7810356577614035e+00 1.8652569272589783e+01 0 0 0
202 1 0.0000000000000000e+00 1.7148685136261946e+01 6.6823461496046770e+00 1.8652569272589979e+01 0 0 0
203 1 0.0000000000000000e+00 1.9978458068162883e+01 1.1583656641448103e+01 1.8652569272591460e+01 0 0 0
204 1 0.0000000000000000e+00 2.2808231000063440e+01 1.6484967133292301e+01 1.8652569272592665e+01 0 0 0
205 1 0.0000000000000000e+00 2.5638003931961393e+01 2.1386277625136341e+01 1.8652569272591066e+01 0 0 0
206 1 0.0000000000000000e+00 1.9978458068060363e+01 1.7810356577621222e+00 1.8652569272590959e+01 0 0 0
207 1 0.0000000000000000e+00 2.2808230999958333e+01 6.6823461496057908e+00 1.8652569272591240e+01 0 0 0
208 1 0.0000000000000000e+00 2.5638003931859103e+01 1.1583656641449640e+01 1.8652569272592473e+01 0 0 0
209 1 0.0000000000000000e+00 2.8467776863759951e+01 1.6484967133293672e+01 1.8652569272593013e+01 0 0 0
210 1 0.0000000000000000e+00 3.1297549795658139e+01 2.1386277625137158e+01 1.8652569272591556e+01 0 0 0
211 1 0.0000000000000000e+00 2.5638003931755900e+01 1.7810356577613533e+00 1.8652569272591062e+01 0 0 0
212 1 0.0000000000000000e+00 2.8467776863653725e+01 6.6823461496054648e+00 1.8652569272590636e+01 0 0 0
213 1 0.0000000000000000e+00 3.1297549795554229e+01 1.1583656641448968e+01 1.8652569272591784e+01 0 0 0
214 1 0.0000000000000000e+00 3.4127322727455379e+01 1.6484967133292187e+01 1.8652569272592423e+01 0 0 0
215 1 0.0000000000000000e+00 3.6957095659353691e+01 2.1386277625135772e+01 1.8652569272591673e+01 0 0 0
216 1 0.0000000000000000e+00 2.9998204769713555e+00 1.7810356577601181e+00 1.8652569272589687e+01 0 0 0
217 1 0.0000000000000000e+00 5.8295934088693313e+00 6.6823461496039069e+00 1.8652569272590032e+01 0 0 0
218 1 0.0000000000000000e+00 8.6593663407702302e+00 1.1583656641446808e+01 1.8652569272591393e+01 0 0 0
219 1 0.0000000000000000e+00 1.1489139272671324e+01 1.6484967133289999e+01 1.8652569272591478e+01 0 0 0
220 1 0.0000000000000000e+00 1.4318912204569267e+01 2.1386277625134099e+01 1.8652569272590398e+01 0 0 0
221 1 0.0000000000000000e+00 8.6593663406669208e+00 1.7810356577600386e+00 1.8652569272589304e+01 0 0 0
222 1 0.0000000000000000e+00 1.1489139272565184e+01 6.6823461496034389e+00 1.8652569272589687e+01 0 0 0
223 1 0.0000000000000000e+00 1.4318912204466368e+01 1.1583656641446334e+01 1.8652569272590476e+01 0 0 0
224 1 0.0000000000000000e+00 1.7148685136366925e+01 1.6484967133290148e+01 1.8652569272590839e+01 0 0 0
225 1 0.0000000000000000e+00 1.9978458068264533e+01 2.1386277625134504e+01 1.8652569272589961e+01 0 0 0
226 1 0.0000000000000000e+00 1.8563571602160767e+01 4.2316909036834778e+00 1.8652569272590288e+01 0 0 0
227 1 0.0000000000000000e+00 2.1393344534060436e+01 9.1330013955268896e+00 1.8652569272591144e+01 0 0 0
228 1 0.0000000000000000e+00 2.4223117465961693e+01 1.4034311887370974e+01 1.8652569272593070e+01 0 0 0
229 1 0.0000000000000000e+00 2.7052890397861233e+01 1.8935622379215037e+01 1.8652569272592238e+01 0 0 0
230 1 0.0000000000000000e+00 2.9882663329758049e+01 2.3836932871058607e+01 1.8652569272590476e+01 0 0 0
231 1 0.0000000000000000e+00 2.4223117465856799e+01 4.2316909036836829e+00 1.8652569272591123e+01 0 0 0
232 1 0.0000000000000000e+00 2.7052890397756205e+01 9.1330013955275113e+00 1.8652569272591233e+01 0 0 0
233 1 0.0000000000000000e+00 2.9882663329657408e+01 1.4034311887371308e+01 1.8652569272592604e+01 0 0 0
234 1 0.0000000000000000e+00 3.2712436261557272e+01 1.8935622379214685e+01 1.8652569272592071e+01 0 0 0
235 1 0.0000000000000000e+00 3.5542209193454184e+01 2.3836932871058305e+01 1.8652569272591279e+01 0 0 0
236 1 0.0000000000000000e+00 2.9882663329551779e+01 4.2316909036826287e+00 1.8652569272590021e+01 0 0 0
237 1 0.0000000000000000e+00 3.2712436261451110e+01 9.1330013955261258e+00 1.8652569272590640e+01 0 0 0
238 1 0.0000000000000000e+00 3.5542209193352591e+01 1.4034311887369142e+01 1.8652569272592025e+01 0 0 0
239 1 0.0000000000000000e+00 3.8371982125252423e+01 1.8935622379212539e+01 1.8652569272591503e+01 0 0 0
240 1 0.0000000000000000e+00 4.1201755057149214e+01 2.3836932871056760e+01 1.8652569272590565e+01 0 0 0
241 1 0.0000000000000000e+00 7.2444798747676069e+00 4.2316909036815584e+00 1.8652569272589368e+01 0 0 0
242 1 0.0000000000000000e+00 1.0074252806667351e+01 9.1330013955246070e+00 1.8652569272590281e+01 0 0 0
243 1 0.0000000000000000e+00 1.2904025738568963e+01 1.4034311887367602e+01 1.8652569272590981e+01 0 0 0
244 1 0.0000000000000000e+00 1.5733798670468220e+01 1.8935622379211559e+01 1.8652569272590281e+01 0 0 0
245 1 0.0000000000000000e+00 1.8563571602364753e+01 2.3836932871056110e+01 1.8652569272589385e+01 0 0 0
246 1 0.0000000000000000e+00 1.2904025738463949e+01 4.2316909036821491e+00 1.8652569272589314e+01 0 0 0
247 1 0.0000000000000000e+00 1.5733798670363853e+01 9.1330013955251701e+00 1.8652569272589808e+01 0 0 0
248 1 0.0000000000000000e+00 1.8563571602265103e+01 1.4034311887368816e+01 1.8652569272591201e+01 0 0 0
249 1 0.0000000000000000e+00 2.1393344534164203e+01 1.8935622379213051e+01 1.8652569272591094e+01 0 0 0
250 1 0.0000000000000000e+00 2.4223117466060980e+01 2.3836932871057112e+01 1.8652569272589702e+01 0 0 0
251 1 0.0000000000000000e+00 1.5733798670312476e+01 4.2316909036828507e+00 1.8652569272589638e+01 0 0 0
252 1 0.0000000000000000e+00 1.8563571602212246e+01 9.1330013955260476e+00 1.8652569272590359e+01 0 0 0
253 1 0.0000000000000000e+00 2.1393344534113453e+01 1.4034311887369967e+01 1.8652569272592306e+01 0 0 0
254 1 0.0000000000000000e+00 2.4223117466012791e+01 1.8935622379214152e+01 1.8652569272591929e+01 0 0 0
255 1 0.0000000000000000e+00 2.7052890397909611e+01 2.3836932871058000e+01 1.8652569272590057e+01 0 0 0
256 1 0.0000000000000000e+00 2.1393344534008946e+01 4.2316909036837513e+00 1.8652569272590938e+01 0 0 0
257 1 0.0000000000000000e+00 2.4223117465908505e+01 9.1330013955274012e+00 1.8652569272591528e+01 0 0 0
258 1 0.0000000000000000e+00 2.7052890397809758e+01 1.4034311887371510e+01 1.8652569272592999e+01 0 0 0
259 1 0.0000000000000000e+00 2.9882663329709473e+01 1.8935622379215236e+01 1.8652569272592149e+01 0 0 0
260 1 0.0000000000000000e+00 3.2712436261606321e+01 2.3836932871058668e+01 1.8652569272590942e+01 0 0 0
261 1 0.0000000000000000e+00 2.7052890397704456e+01 4.2316909036832762e+00 1.8652569272590714e+01 0 0 0
262 1 0.0000000000000000e+00 2.9882663329603730e+01 9.1330013955270299e+00 1.8652569272590814e+01 0 0 0
263 1 0.0000000000000000e+00 3.2712436261505033e+01 1.4034311887370400e+01 1.8652569272592316e+01 0 0 0
264 1 0.0000000000000000e+00 3.5542209193404993e+01 1.8935622379213669e+01 1.8652569272591919e+01 0 0 0
265 1 0.0000000000000000e+00 3.8371982125301876e+01 2.3836932871057588e+01 1.8652569272591190e+01 0 0 0
266 1 0.0000000000000000e+00 4.4147069429199872e+00 4.2316909036819421e+00 1.8652569272589563e+01 0 0 0
267 1 0.0000000000000000e+00 7.2444798748194819e+00 9.1330013955251754e+00 1.8652569272590565e+01 0 0 0
268 1 0.0000000000000000e+00 1.0074252806721125e+01 1.4034311887368073e+01 1.8652569272591546e+01 0 0 0
269 1 0.0000000000000000e+00 1.2904025738620705e+01 1.8935622379211726e+01 1.8652569272590863e+01 0 0 0
270 1 0.0000000000000000e+00 1.5733798670517338e+01 2.3836932871056220e+01 1.8652569272589808e+01 0 0 0
271 1 0.0000000000000000e+00 1.0074252806615668e+01 4.2316909036816366e+00 1.8652569272589272e+01 0 0 0
272 1 0.0000000000000000e+00 1.2904025738515587e+01 9.1330013955245981e+00 1.8652569272589886e+01 0 0 0
273 1 0.0000000000000000e+00 1.5733798670417002e+01 1.4034311887367904e+01 1.8652569272590735e+01 0 0 0
274 1 0.0000000000000000e+00 1.8563571602316063e+01 1.8935622379212106e+01 1.8652569272590316e+01 0 0 0
275 1 0.0000000000000000e+00 2.1393344534212698e+01 2.3836932871056412e+01 1.8652569272589410e+01 0 0 0
276 1 0.0000000000000000e+00 1.7148685136212180e+01 1.7810356577619897e+00 1.8652569272590291e+01 0 0 0
277 1 0.0000000000000000e+00 1.9978458068110218e+01 6.6823461496054115e+00 1.8652569272590661e+01 0 0 0
278 1 0.0000000000000000e+00 2.2808231000011101e+01 1.1583656641449087e+01 1.8652569272592292e+01 0 0 0
279 1 0.0000000000000000e+00 2.5638003931911843e+01 1.6484967133293324e+01 1.8652569272593158e+01 0 0 0
280 1 0.0000000000000000e+00 2.8467776863809920e+01 2.1386277625137112e+01 1.8652569272591315e+01 0 0 0
281 1 0.0000000000000000e+00 2.2808230999908254e+01 1.7810356577619397e+00 1.8652569272591279e+01 0 0 0
282 1 0.0000000000000000e+00 2.5638003931806164e+01 6.6823461496058494e+00 1.8652569272591119e+01 0 0 0
283 1 0.0000000000000000e+00 2.8467776863706742e+01 1.1583656641449668e+01 1.8652569272592036e+01 0 0 0
284 1 0.0000000000000000e+00 3.1297549795607761e+01 1.6484967133293274e+01 1.8652569272592675e+01 0 0 0
285 1 0.0000000000000000e+00 3.4127322727506055e+01 2.1386277625136678e+01 1.8652569272591677e+01 0 0 0