LAMMPS (13 Jan 2016)
Reading data file ...
  triclinic box = (0 0 0) to (28.6378 24.8011 46.7654) with tilt (14.3189 0 0)
  1 by 1 by 1 MPI processor grid
  reading atoms ...
  900 atoms
Neighbor list info ...
  1 neighbor list requests
  update every 1 steps, delay 0 steps, check yes
  max neighbors/atom: 2000, page size: 100000
  master list distance cutoff = 7.72488
  ghost atom cutoff = 7.72488
Setting up cg style minimization ...
  Unit style: metal
Memory usage per processor = 3.38681 Mbytes
Step Temp Press CPU Pxx Pyy Pzz Pxy Pxz Pyz KinEng PotEng TotEng Volume Lx Ly Lz Atoms 
       0            0   -10344.524            0   -11070.447   -11070.447   -8892.6778 -2.9383821e-09 -1.6740137e-07 -2.781481e-07            0   -2967.0034   -2967.0034    33215.062    28.637824    24.801083    46.765371      900 
       1            0   -9429.9468 0.0031840801   -10116.091   -10116.091   -8057.6573 -3.8114959e-08 -1.7081002e-07 -2.8206523e-07            0   -2967.5834   -2967.5834    33122.037    28.609187    24.776282    46.727806      900 
       2            0   -8504.9662 0.0063719749   -9149.7625   -9149.7625   -7215.3736 -7.7384067e-08 -1.7444781e-07 -2.8555391e-07            0   -2968.1077   -2968.1077    33029.414    28.580549    24.751481    46.690564      900 
       3            0    -7569.764 0.0095629692    -8171.493    -8171.493    -6366.306 -1.2134146e-07 -1.7832214e-07 -2.8878835e-07            0   -2968.5758   -2968.5758    32937.231    28.551911     24.72668      46.6537      900 
       4            0   -6624.7309  0.012746096   -7181.4913   -7181.4913   -5511.2101 -1.7101506e-07 -1.8264299e-07 -2.9184182e-07            0   -2968.9875   -2968.9875    32845.536    28.523273    24.701879    46.617288      900 
       5            0     -5670.75  0.015936136   -6180.3842   -6180.3842   -4651.4816 -2.2757997e-07 -1.8724235e-07 -2.9395562e-07            0   -2969.3426   -2969.3426      32754.4    28.494635    24.677078    46.581429      900 
       6            0   -4708.9711  0.019122124   -5168.9823   -5168.9823   -3788.9487 -2.9285682e-07 -1.9243962e-07 -2.9552331e-07            0   -2969.6409   -2969.6409    32663.922    28.465997    24.652277     46.54627      900 
       7            0   -3740.8705  0.022308111   -4148.2216   -4148.2216   -2926.1682 -3.6961057e-07 -1.9831879e-07 -2.9595621e-07            0   -2969.8824   -2969.8824    32574.257     28.43736    24.627476    46.512036      900 
       8            0   -2769.2525  0.025496006   -3120.0498   -3120.0498   -2067.6578 -4.6214365e-07 -2.050337e-07 -2.9464703e-07            0   -2970.0673   -2970.0673    32485.663    28.408722    24.602675      46.4791      900 
       9            0   -1799.6562  0.039391041   -2088.4172   -2088.4172   -1222.1341 -5.7924408e-07 -2.1318847e-07 -2.910648e-07            0   -2970.1963   -2970.1963    32398.624    28.380084    24.577874    46.448167      900 
      10            0   -844.56802  0.042582035   -1062.1516   -1062.1516   -409.40083 -7.3974454e-07 -2.235354e-07 -2.8292732e-07            0   -2970.2707   -2970.2707    32314.263    28.351446    24.553073    46.420861      900 
      11            0    52.634537  0.045773983   -72.060496   -72.060493     302.0246 -1.0106376e-06 -2.3937754e-07 -2.6397692e-07            0   -2970.2952   -2970.2952    32236.526    28.322808    24.528272    46.402884      900 
      12            0   -25.278105  0.048962116   -2.1729011   -2.1729013   -71.488514 -1.7223605e-06 -2.7231548e-07 -2.0147201e-07            0   -2970.3016   -2970.3016    32245.999    28.312706    24.519523    46.449649      900 
      13            0    922.85597  0.055295944    970.90618    970.90618    826.75555 -2.1741996e-06 -3.0014544e-07 -1.6539468e-07            0   -2970.3263   -2970.3263    32165.539    28.288559    24.498611    46.412884      900 
      14            0    1719.8763  0.058491945    1598.4743    1598.4743    1962.6802 -5.345617e-06 -4.8429301e-07 1.3072889e-07            0   -2970.7469   -2970.7469    32115.806    28.280932    24.492006    46.366119      900 
      15            0    709.76329  0.061691999    562.58034    562.58033    1004.1292 -4.9281758e-06 -4.5144767e-07 8.5182263e-08            0   -2970.8567   -2970.8567    32205.022    28.305916    24.513642    46.412884      900 
      16            0   -64.534374  0.068028927   -186.30306   -186.30306      179.003 -3.8627033e-06 -3.8654345e-07 -1.5756089e-08            0   -2970.8734   -2970.8734    32273.369    28.321838    24.527431    46.459102      900 
      17            0    4.6100716  0.074368954    48.448602    48.448605   -83.066992 -9.6849008e-07 -2.3687784e-07 -2.7149038e-07            0   -2970.8784   -2970.8784    32270.331    28.306861    24.514461    46.503899      900 
      18            0   -445.66753  0.077580929   -395.73044   -395.73039   -545.54177 1.128216e-05 3.679196e-07 -1.3157224e-06            0   -2971.0888   -2971.0888    32322.298     28.31541    24.521865    46.550664      900 
      19            0    459.46065  0.084414959    509.06121    509.06124     360.2595 4.7617458e-06 5.4118347e-08 -7.8394845e-07            0   -2971.1116   -2971.1116    32243.729    28.294388    24.503659     46.50654      900 
      20            0    1020.5884  0.090780973    1022.6163    1022.6163    1016.5327 -7.4502953e-06 -5.8337519e-07 3.1108184e-07            0   -2971.1211   -2971.1211    32195.776    28.285118    24.495631    46.467816      900 
      21            0    777.53417  0.093985081    530.66093    530.66077    1271.2808 -4.7991935e-05 -2.8172731e-06 4.1745152e-06            0   -2971.2332   -2971.2332    32219.644     28.30985    24.517049    46.421051      900 
      22            0    104.16129  0.097181082   -97.797831   -97.797951    508.07964 -3.6103021e-05 -2.1041567e-06 2.9490066e-06            0   -2971.2552   -2971.2552    32279.459    28.321854    24.527445    46.467816      900 
      23            0   -94.880483   0.10038614   -171.25064   -171.25069    57.859878 -1.4661712e-05 -9.4273023e-07 9.4402637e-07            0   -2971.2629   -2971.2629    32299.309    28.316315    24.522648    46.514582      900 
      24            0    114.55728   0.10672712    91.845218    91.845199    159.98141 -7.0117701e-06 -5.4900949e-07 2.6110574e-07            0   -2971.2645   -2971.2645    32281.848    28.307127    24.514691    46.519621      900 
      25            0   -40.129058   0.11307096    33.677032    33.677078   -187.74128 1.1530219e-05 3.8987945e-07 -1.3599957e-06            0   -2971.2671   -2971.2671    32297.501    28.302899    24.511029    46.556085      900 
      26            0    265.98002   0.11627007    434.98038    434.98074   -72.021065 0.00010065949 4.8916091e-06 -9.1603617e-06            0   -2971.5379   -2971.5379    32291.899    28.286241    24.496603     46.60285      900 
      27            0   -415.58778   0.12262511   -391.24719   -391.24708   -464.26907 3.1525089e-05 1.4034302e-06 -3.1143087e-06            0   -2971.5535   -2971.5535    32350.576    28.313476    24.520189    46.597758      900 
      28            0    -677.1527   0.12896895    -852.0085   -852.00879    -327.4408 -8.5122649e-05 -4.6048905e-06 7.2888127e-06            0   -2971.5623   -2971.5623    32371.802    28.335621    24.539367    46.555477      900 
      29            0   -187.44196   0.13217115    -444.0006   -444.00112    325.67586 -0.00015289222 -8.3945381e-06 1.3844534e-05            0    -2971.583    -2971.583     32328.07    28.330707    24.535112    46.508712      900 
      30            0    247.49385   0.13852096    165.22733    165.22712    412.02708 -6.3310947e-05 -3.5337636e-06 5.4256473e-06            0    -2971.593    -2971.593    32292.836    28.306482    24.514133    46.537576      900 
      31            0   -11.926733   0.14486408    1.7768594    1.7768743   -39.333933 2.6245502e-06 -5.2386847e-08 -5.9858352e-07            0   -2971.5969   -2971.5969    32317.621    28.304711    24.512599    46.579122      900 
      32            0    282.53155   0.14806914    413.10802     413.1114    21.375232 0.0009746577 4.9868882e-05 -8.7062697e-05            0   -2971.7774   -2971.7774    32309.915     28.28714    24.497381    46.625887      900 
      33            0   -387.44582   0.15442204    -364.0262   -364.02487    -434.2864 0.00038125371 1.9276493e-05 -3.4070313e-05            0   -2971.7911   -2971.7911    32368.495    28.311074    24.518109    46.631478      900 
      34            0   -736.22652   0.16077304   -854.08994   -854.09208   -500.49753 -0.00061870657 -3.2204918e-05 5.5097918e-05            0   -2971.7977   -2971.7977    32398.728    28.330526    24.534956    46.610958      900 
      35            0   -404.24793   0.16398001   -635.18226   -635.18805    57.626504 -0.0016715078 -8.9740345e-05 0.00015474541            0   -2971.8241   -2971.8241    32369.202     28.33183    24.536085    46.564193      900 
      36            0    148.46337   0.17033815    24.754132    24.750451    395.88552 -0.0010641218 -5.7286134e-05 9.852912e-05            0    -2971.834    -2971.834    32322.174    28.310278     24.51742    46.567366      900 
      37            0   -1.3106311   0.17354107    7.2602282    7.2603174   -18.452439 2.4093407e-05 1.0692728e-06 -2.5391445e-06            0   -2971.8383   -2971.8383    32338.048    28.303021    24.511135    46.614131      900 
      38            0   -701.50508   0.17674112   -853.29927   -853.28327   -397.93271 0.0046156368 0.00024189995 -0.00041966425            0   -2971.9045   -2971.9045    32405.698    28.331658    24.535935    46.617264      900 
      39            0    409.25652   0.17994404    286.91077    286.92956    653.92924 0.0054235869 0.00029551945 -0.00051254548            0   -2971.9774   -2971.9774    32314.546    28.303021    24.511134    46.580256      900 
      40            0     358.1763   0.18315411     341.0377    341.04217    392.44903 0.0012888855 6.8884994e-05 -0.0001199959            0   -2972.0476   -2972.0476    32328.949    28.295127    24.504298    46.627022      900 
      41            0   -9.0689392   0.18951297   -34.041468   -34.038324    40.872974 0.00090576939 4.7746099e-05 -8.3378155e-05            0   -2972.0512   -2972.0512    32361.356    28.304185    24.512143     46.64389      900 
      42            0   -3.3892816   0.19586802    41.217032    41.211463    -92.59634 -0.0016091838 -8.427544e-05 0.00014529208            0   -2972.0521   -2972.0521    32362.393     28.29841    24.507143    46.664424      900 
      43            0    1117.9998   0.19907308    1119.1031    1119.0357    1115.8606 -0.019436402 -0.0010847499 0.0018781845            0   -2972.3012   -2972.3012    32305.816     28.27381    24.485843     46.66393      900 
      44            0    203.84523   0.20228195    154.28459     154.2258    303.02528 -0.016973934 -0.00092661643 0.0016043167            0     -2972.37     -2972.37    32394.029     28.29821    24.506973    46.710696      900 
      45            0   -23.362736   0.20863795   -64.846614   -64.886226    59.644633 -0.011436656 -0.00061786957 0.0010695435            0   -2972.3714   -2972.3714    32414.458    28.302759    24.510912    46.725131      900 
      46            0 -0.095265005    0.2149961    7.9561641    7.9631169   -16.205076 0.0020054417 0.00010725724 -0.0001864115            0   -2972.3719   -2972.3719    32413.451    28.298199    24.506959    46.738747      900 
      47            0    901.49573   0.21820116    862.47195    862.85183     979.1634   0.10965957 0.0061406482 -0.010636558            0   -2972.4114   -2972.4114     32342.56    28.281406    24.492386    46.691981      900 
      48            0    109.50189   0.22140694   -60.841671    -60.14468    449.49201   0.20120303  0.011215743 -0.019426858            0    -2972.501    -2972.501    32426.716    28.310043    24.517162    46.718861      900 
      49            0   -126.87858   0.22460604   -182.56113   -182.35573   -15.718893  0.059291673 0.0032082091 -0.0055573476            0   -2972.5061   -2972.5061    32450.244    28.306126    24.513808    46.765626      900 
      50            0    21.661544   0.23096013    11.206158    11.262339    42.516136  0.016216333 0.00087515537 -0.0015163722            0    -2972.507    -2972.507    32437.919    28.299035    24.507679    46.771271      900 
      51            0   -4.4189538   0.23731208  -0.26539704  -0.28011186   -12.711353 -0.0042494522 -0.00022868032 0.00039552842            0   -2972.5071   -2972.5071    32440.575    28.298443    24.507172    46.777047      900 
      52            0    109.16968   0.24366403    148.25321    147.98851    31.267304 -0.076414141 -0.0041016072 0.0071036321            0   -2972.5076   -2972.5076    32431.552    28.292989    24.502468     46.78203      900 
      53            0   -107.40542   0.25002193    29.066995    27.782882   -379.06614  -0.37069004 -0.019385568  0.033575946            0   -2972.5113   -2972.5113    32455.664    28.289888    24.499863    46.826922      900 
      54            0    310.52297   0.25638413    436.76737    435.30139    59.500137  -0.42319362 -0.022639209  0.039211623            0   -2972.5456   -2972.5456    32443.298    28.279994    24.491309    46.841811      900 
      55            0   -50.595068   0.26273608    9.7467058     8.808361   -170.34027   -0.2708778 -0.014470243  0.025062638            0   -2972.5502   -2972.5502    32477.609    28.293392     24.50287    46.847032      900 
      56            0    13.942754   0.26908612    19.490901    19.384091    2.9532682 -0.030834906 -0.0016695991 0.0028913863            0    -2972.551    -2972.551     32471.19    28.296356    24.505372    46.828084      900 
      57            0   -7.7507202   0.27543497   -6.6282815    -6.671814   -9.9520652 -0.012568401 -0.00068072612 0.0011786094            0    -2972.551    -2972.551    32473.047    28.297213    24.506109    46.827937      900 
      58            0    8.2474735   0.28178716   -4.7832005   -4.4909325    34.016554  0.084369019 0.0045810826 -0.007935119            0   -2972.5511   -2972.5511     32471.32    28.298005    24.506768    46.822876      900 
      59            0   -138.80031     0.288131   -177.38363   -176.47703   -62.540267   0.26171266  0.014185435 -0.024570493            0   -2972.5518   -2972.5518    32484.144    28.303528    24.511502    46.823182      900 
      60            0    30.349734   0.29448199   -40.168452   -37.389085    168.60674   0.80234234   0.04396445   -0.0761501            0   -2972.5566   -2972.5566    32469.439    28.302699    24.510637    46.805009      900 
      61            0   -25.450663   0.30082703   -30.321685   -30.082313    -15.94799  0.069099066 0.0037311031 -0.0064628783            0   -2972.5576   -2972.5576    32476.072      28.2987    24.507374     46.82742      900 
      62            0     0.171753   0.30718398  -0.77259827  -0.65883463    1.9466919  0.032839129  0.001773519 -0.0030722357            0   -2972.5577   -2972.5577    32473.863    28.297795    24.506601     46.82721      900 
      63            0  -0.16434321   0.31353712  -0.12768777  -0.13137073  -0.23397112 -0.0010648042 -5.8034747e-05 0.00010011038            0   -2972.5577   -2972.5577    32473.914    28.297722    24.506547    46.827506      900 
      64            0   0.54354025   0.31988215   0.64603502    0.6369367   0.34764902 -0.0026280831 -0.0001424728 0.00024636142            0   -2972.5577   -2972.5577    32473.851    28.297701    24.506529    46.827487      900 
      65            0   -3.9304593   0.32623816   -3.9067686   -5.8734662   -2.0111431  -0.56773225 -0.030666128   0.05311384            0   -2972.5577   -2972.5577    32474.006    28.297804    24.506773    46.827073      900 
      66            0   0.37473503   0.33259511   0.56871825  -0.85937099    1.4148578  -0.41225223 -0.022270105  0.038572246            0   -2972.5577   -2972.5577    32473.619    28.297695    24.506635    46.826958      900 
      67            0 -0.021673167   0.33898997 -0.018815379  0.016307316 -0.062511437  0.010137432 0.00054710021 -0.00094797983            0   -2972.5577   -2972.5577    32473.665    28.297727    24.506547     46.82714      900 
      68            0    1.9173725   0.34535909     1.639712    2.4401355    1.6722699   0.23106174  0.012480388 -0.021617144            0   -2972.5577   -2972.5577    32473.488    28.297709    24.506471    46.827059      900 
      69            0   -0.5953413    0.3517611   -4.4663193    3.0005765  -0.32028115    2.1555941   0.11641852  -0.20165219            0   -2972.5577   -2972.5577    32473.634    28.298089    24.506274    46.827017      900 
      70            0   0.59214534   0.35816598   0.39413574   0.77279432   0.60950596   0.10930793 0.0059035212 -0.010225565            0   -2972.5577   -2972.5577    32473.431    28.297725    24.506519    46.826858      900 
      71            0 -0.039282406   0.36454105  -0.18762808  0.048954177  0.020826685   0.06829389 0.0036882084 -0.0063885167            0   -2972.5577   -2972.5577    32473.487    28.297735    24.506539    46.826885      900 
      72            0 0.0078430748   0.37093806    0.0813636 -0.036525822 -0.021308554 -0.034033336 -0.0018385161 0.0031840577            0   -2972.5577   -2972.5577    32473.483    28.297714    24.506549    46.826896      900 
      73            0   -1.5544572   0.37729502   -1.4279779   -1.7678772   -1.4675167 -0.098121906 -0.0052996287  0.009178866            0   -2972.5577   -2972.5577    32473.609    28.297746    24.506594    46.826938      900 
      74            0 -0.018825689   0.38366795   0.57968393  -0.38300202  -0.25315898  -0.27790364 -0.015009171  0.025996166            0   -2972.5577   -2972.5577    32473.395    28.297676    24.506583    46.826766      900 
      75            0  0.048091566   0.39007306  0.048628811  0.049020627   0.04662526 0.00011149576 5.6837033e-06 -1.0175272e-05            0   -2972.5577   -2972.5577    32473.385    28.297728    24.506552    46.826724      900 
      76            0 -0.00086133808   0.39643216 -0.0052202389 -0.00040017954 0.0030364041 0.0013898195 7.4723592e-05 -0.00012975586            0   -2972.5577   -2972.5577    32473.389     28.29773    24.506553    46.826726      900 
      77            0 -0.0033277732   0.40279198  0.013286807 -0.0045350944 -0.018735032 -0.005146351 -0.00027828218 0.00048166808            0   -2972.5577   -2972.5577    32473.389    28.297728    24.506553    46.826729      900 
      78            0  0.098116552   0.40914106   0.12316843   0.09757448  0.073606748 -0.0073899472 -0.00039945421 0.00069154467            0   -2972.5577   -2972.5577     32473.38    28.297725    24.506551    46.826725      900 
      79            0  0.010325923   0.41549301 -0.022148441 -0.046344899  0.099471109 -0.0069865254 -0.00037764195 0.00065377363            0   -2972.5577   -2972.5577    32473.389    28.297732    24.506556    46.826716      900 
      80            0 -0.020852824   0.42186093 -0.023751162  -0.02212178 -0.016685529 0.00046875181 2.5009303e-05 -4.363793e-05            0   -2972.5577   -2972.5577    32473.393     28.29773    24.506553    46.826731      900 
      81            0 0.00039352678   0.42820811 0.00019507083  0.002164087 -0.0011785775 0.00056679562 3.0304546e-05 -5.2809546e-05            0   -2972.5577   -2972.5577    32473.391    28.297729    24.506552     46.82673      900 
      82            0 0.0049916455   0.43456197 0.0088505608 -0.010439053  0.016563428 -0.0055700415 -0.00030113456 0.00052125985            0   -2972.5577   -2972.5577    32473.391    28.297729    24.506554    46.826728      900 
      83            0 -0.043590087    0.4409101 -0.041533136 -0.066719752 -0.022517373 -0.007272359 -0.00039307193 0.00068050044            0   -2972.5577   -2972.5577    32473.395     28.29773    24.506555     46.82673      900 
      84            0 -0.0074133902   0.44727015 -0.018287251  0.017187532 -0.021140452  0.010239081 0.00055272347 -0.00095765346            0   -2972.5577   -2972.5577    32473.396    28.297731    24.506551    46.826739      900 
      85            0  0.011696292   0.45364594  0.009759634  0.018295472 0.0070337706 0.0024624755 0.00013272485 -0.00023019417            0   -2972.5577   -2972.5577    32473.395    28.297729    24.506552    46.826736      900 
      86            0 -0.00015676475   0.46002102 7.0954886e-06 -0.00078518732 0.0003077976 -0.0002303211 -1.2708031e-05 2.1703023e-05            0   -2972.5577   -2972.5577    32473.396     28.29773    24.506553    46.826736      900 
      87            0 -0.021446478   0.46637106 -0.021166264 -0.0036907718   -0.0394824 0.0050431317 0.00027210334 -0.00047160393            0   -2972.5577   -2972.5577    32473.398     28.29773    24.506552    46.826741      900 
      88            0  0.017282342   0.47273493  0.019976739  0.047109748 -0.015239462 0.0078310177 0.00042267546 -0.00073240131            0   -2972.5577   -2972.5577    32473.395    28.297729     24.50655    46.826742      900 
      89            0 0.0010852942   0.47910309 -0.00030106693 0.00057141915 0.0029855304 0.00025025692 1.3265165e-05 -2.3277909e-05            0   -2972.5577   -2972.5577    32473.398    28.297729    24.506552     46.82674      900 
      90            0 -0.0009670986     0.485461 -0.0016417559 -0.0013499084 9.0368458e-05 8.2641024e-05 4.2125658e-06 -7.5983393e-06            0   -2972.5577   -2972.5577    32473.398    28.297729    24.506553    46.826741      900 
      91            0 -3.4480604e-05   0.49180603 5.6149909e-05 -7.5257376e-05 -8.4334343e-05 -3.9542147e-05 -2.3862948e-06 3.8312416e-06            0   -2972.5577   -2972.5577    32473.398    28.297729    24.506552    46.826741      900 
      92            0 6.0804458e-05   0.49816012 8.5231074e-05 5.7394711e-05 3.978759e-05 -9.6437776e-06 -7.7153233e-07 1.0343865e-06            0   -2972.5577   -2972.5577    32473.398    28.297729    24.506552    46.826741      900 
      93            0 -8.5190334e-06   0.50450706 -4.0790403e-05 6.347312e-06 8.8859909e-06 1.199936e-05 3.9739403e-07 -9.9023155e-07            0   -2972.5577   -2972.5577    32473.398    28.297729    24.506552    46.826741      900 
      94            0 -0.00042280018   0.51086116 -0.00013689308 -0.00077008765 -0.0003614198 -0.00018439557 -1.0207797e-05 1.7379097e-05            0   -2972.5577   -2972.5577    32473.398    28.297729    24.506552    46.826741      900 
      95            0 0.00027018776   0.51721406 0.0008245296 -0.00025462641 0.00024066009 -0.00031313351 -1.7158145e-05  2.94183e-05            0   -2972.5577   -2972.5577    32473.398    28.297729    24.506552    46.826741      900 
      96            0 6.4924256e-05   0.52355909 3.8587979e-05 0.00014044921 1.573558e-05 2.7797008e-05 1.2620879e-06 -2.484063e-06            0   -2972.5577   -2972.5577    32473.398    28.297729    24.506552    46.826741      900 
      97            0 -2.6973292e-05   0.52991414 -4.9547962e-05 1.8441622e-05 -4.9813535e-05 1.8019123e-05 7.3404844e-07 -1.5694369e-06            0   -2972.5577   -2972.5577    32473.398    28.297729    24.506552    46.826741      900 
      98            0 -1.3502415e-06   0.53626013 -1.6211193e-06 -4.234042e-06 1.8044368e-06 -2.3620336e-06 -3.6667584e-07 3.3708163e-07            0   -2972.5577   -2972.5577    32473.398    28.297729    24.506552    46.826741      900 
      99            0 1.5471788e-05   0.54261208 1.8411854e-05 1.7884448e-05 1.0119062e-05 -1.7600405e-06 -3.3413486e-07 2.8072453e-07            0   -2972.5577   -2972.5577    32473.398    28.297729    24.506552    46.826741      900 
     100            0 -7.7291639e-06   0.54895806 2.6033088e-06 1.5291994e-05 -4.1082795e-05 2.0551526e-06 -1.278764e-07 -7.6451224e-08            0   -2972.5577   -2972.5577    32473.398    28.297729    24.506552    46.826741      900 
     101            0 -0.00010247839   0.55531216 -0.00015858969 -0.00010055151 -4.8293981e-05 1.5146614e-05 5.8701466e-07 -1.3119501e-06            0   -2972.5577   -2972.5577    32473.398    28.297729    24.506552    46.826741      900 
     102            0 1.5527509e-05   0.56166196 -2.8016824e-05 1.7831739e-05 5.6767611e-05 1.1627824e-05 3.9864247e-07 -9.8509398e-07            0   -2972.5577   -2972.5577    32473.398    28.297729    24.506552    46.826741      900 
     103            0 3.1640779e-06   0.56801009 5.7729635e-06 1.8214229e-06 1.8978472e-06 -2.7482212e-06 -3.7726396e-07 3.590022e-07            0   -2972.5577   -2972.5577    32473.398    28.297729    24.506552    46.826741      900 
     104            0 -3.144047e-06   0.57435894 -1.8296958e-06 -4.0255046e-06 -3.5769406e-06 -2.2413631e-06 -3.4988504e-07 3.1158419e-07            0   -2972.5577   -2972.5577    32473.398    28.297729    24.506552    46.826741      900 
     105            0 4.1941559e-07   0.58071113 -9.6900305e-06 7.4428483e-06 3.505429e-06 3.3383393e-06 -4.8433201e-08 -2.1050227e-07            0   -2972.5577   -2972.5577    32473.398    28.297729    24.506552    46.826741      900 
     106            0 8.6143553e-05   0.58706093 9.3513694e-05 7.9657647e-05 8.525932e-05 -5.6072812e-06 -5.2773711e-07 6.2104834e-07            0   -2972.5577   -2972.5577    32473.398    28.297729    24.506552    46.826741      900 
     107            0 -3.0531579e-06   0.59341812 4.847239e-05 -7.3009153e-05 1.5377289e-05 -3.6675702e-05 -2.1898537e-06 3.5055971e-06            0   -2972.5577   -2972.5577    32473.398    28.297729    24.506552    46.826741      900 
     108            0 -1.3517923e-05   0.59976506 -1.3748212e-05 -1.212788e-05 -1.4677677e-05 -1.1391376e-06 -2.6560051e-07 1.7448636e-07            0   -2972.5577   -2972.5577    32473.398    28.297729    24.506552    46.826741      900 
     109            0 1.519911e-07   0.60612011 -2.8807528e-07 2.7865773e-06 -2.0425287e-06 -7.192954e-07 -2.4284335e-07 1.3510256e-07            0   -2972.5577   -2972.5577    32473.398    28.297729    24.506552    46.826741      900 
     110            0 3.6198068e-07     0.612463 3.2025247e-07 1.9511863e-07 5.7057096e-07 -1.6429925e-06 -2.9272721e-07 2.2148395e-07            0   -2972.5577   -2972.5577    32473.398    28.297729    24.506552    46.826741      900 
     111            0 -7.3760459e-07   0.61881614 -7.5152155e-07 -1.0076723e-06 -4.5361987e-07 -1.6808225e-06 -2.9475964e-07 2.2501891e-07            0   -2972.5577   -2972.5577    32473.398    28.297729    24.506552    46.826741      900 
     112            0 -6.0355036e-07   0.62516093 2.3706532e-06 1.2197999e-06 -5.4011043e-06 -1.9391074e-06 -3.0828685e-07 2.4863409e-07            0   -2972.5577   -2972.5577    32473.398    28.297729    24.506552    46.826741      900 
     113            0 1.371933e-05   0.63151312 1.4365499e-05 1.644005e-05 1.0352442e-05 -1.0079645e-06 -2.5434506e-07 1.5668198e-07            0   -2972.5577   -2972.5577    32473.398    28.297729    24.506552    46.826741      900 
     114            0 1.4743045e-07   0.63786793 -2.7460656e-06 1.1425802e-06 2.0457767e-06 -4.8418093e-07 -2.2270199e-07 1.032579e-07            0   -2972.5577   -2972.5577    32473.398    28.297729    24.506552    46.826741      900 
     115            0 -6.514096e-07   0.64422297 -6.8424536e-07 -7.4845785e-07 -5.2152558e-07 -1.6252595e-06 -2.841917e-07 2.0980036e-07            0   -2972.5577   -2972.5577    32473.398    28.297729    24.506552    46.826741      900 
     116            0 8.1735697e-09   0.65057898 9.4651805e-08 -6.4669919e-08 -5.4611765e-09 -1.6527257e-06 -2.8566892e-07 2.1235268e-07            0   -2972.5577   -2972.5577    32473.398    28.297729    24.506552    46.826741      900 
     117            0 4.1245895e-08   0.65692306 -5.1545309e-08 1.3444901e-07 4.0833986e-08 -1.5530364e-06 -2.802673e-07 2.030106e-07            0   -2972.5577   -2972.5577    32473.398    28.297729    24.506552    46.826741      900 
     118            0 -2.8730155e-07   0.66327715 -4.2913259e-07 -1.9479454e-07 -2.3797751e-07 -1.5390755e-06 -2.7946541e-07 2.0164661e-07            0   -2972.5577   -2972.5577    32473.398    28.297729    24.506552    46.826741      900 
     119            0 -1.758522e-07     0.669626 4.1072167e-07 -1.3536864e-06 4.1540813e-07 -2.1160177e-06 -3.0744433e-07 2.5148347e-07            0   -2972.5577   -2972.5577    32473.398    28.297729    24.506552    46.826741      900 
     120            0 7.1426505e-07   0.67597604 9.1969228e-07 4.9648824e-07 7.2661464e-07 -1.7288126e-06 -2.8530824e-07 2.1366111e-07            0   -2972.5577   -2972.5577    32473.398    28.297729    24.506552    46.826741      900 
     121            0 3.2086194e-09   0.68232393 1.2390741e-08 4.6145124e-08 -4.8910006e-08 -1.5969181e-06 -2.7790027e-07 2.0095899e-07            0   -2972.5577   -2972.5577    32473.398    28.297729    24.506552    46.826741      900 
     122            0 -2.31732e-08   0.68867612 -2.6671545e-08 -2.3958122e-08 -1.8889934e-08 -1.6058894e-06 -2.7838188e-07 2.0178674e-07            0   -2972.5577   -2972.5577    32473.398    28.297729    24.506552    46.826741      900 
     123            0 8.6022927e-09   0.69502616 5.8314154e-09 1.7039058e-09 1.8271557e-08 -1.6078584e-06 -2.7848166e-07 2.0195987e-07            0   -2972.5577   -2972.5577    32473.398    28.297729    24.506552    46.826741      900 
     124            0 6.598623e-08   0.70139003 2.3026602e-07 7.4187154e-08 -1.0649448e-07 -1.651699e-06 -2.8011429e-07 2.0512548e-07            0   -2972.5577   -2972.5577    32473.398    28.297729    24.506552    46.826741      900 
     125            0 -3.1934413e-07   0.70773602 -1.3128405e-07 -3.1714498e-07 -5.0960336e-07 -1.6602541e-06 -2.7893219e-07 2.0381136e-07            0   -2972.5577   -2972.5577    32473.398    28.297729    24.506552    46.826741      900 
     126            0 -5.0153684e-08   0.71409011 -2.220973e-07 4.6284517e-08 2.5351728e-08 -1.5288035e-06 -2.5308617e-07 1.674248e-07            0   -2972.5577   -2972.5577    32473.398    28.297729    24.506552    46.826741      900 
     127            0 9.1111944e-08    0.7204361 4.0415659e-08 1.2610825e-07 1.0681193e-07 -1.581551e-06 -2.5549763e-07 1.7180161e-07            0   -2972.5577   -2972.5577    32473.398    28.297729    24.506552    46.826741      900 
     128            0 3.9606376e-10    0.7267921 7.3303622e-09 -5.962176e-09 -1.7999499e-10 -1.6101297e-06 -2.5689411e-07 1.7427959e-07            0   -2972.5577   -2972.5577    32473.398    28.297729    24.506552    46.826741      900 
     129            0 -5.2003788e-08   0.73313904 -8.7185105e-08 -1.6473302e-08 -5.2352956e-08 -1.5858564e-06 -2.5547285e-07 1.718707e-07            0   -2972.5577   -2972.5577    32473.398    28.297729    24.506552    46.826741      900 
     130            0 4.1201182e-08   0.73949003 -3.5058169e-08 1.3252357e-07 2.6138145e-08 -1.557896e-06 -2.5372449e-07 1.6896774e-07            0   -2972.5577   -2972.5577    32473.398    28.297729    24.506552    46.826741      900 
     131            0 2.2075839e-07   0.74584603 3.1482811e-07 1.1636198e-08 3.3581085e-07 -1.6935261e-06 -2.4436441e-07 1.6099616e-07            0   -2972.5577   -2972.5577    32473.398    28.297729    24.506552    46.826741      900 
     132            0 -7.8404374e-08   0.75221705 -1.8399286e-08 -2.4200877e-07 2.5194937e-08 -1.670546e-06 -2.4143593e-07 1.5673855e-07            0   -2972.5577   -2972.5577    32473.398    28.297729    24.506552    46.826741      900 
     133            0 -6.5943406e-09   0.75857306 -4.9268869e-09 3.2675109e-10 -1.5182886e-08 -1.6044754e-06 -2.3691206e-07 1.4937462e-07            0   -2972.5577   -2972.5577    32473.398    28.297729    24.506552    46.826741      900 
     134            0 2.2263604e-08   0.76491904 2.1864866e-08 2.4082404e-08 2.0843543e-08 -1.6053441e-06 -2.3693671e-07 1.4943005e-07            0   -2972.5577   -2972.5577    32473.398    28.297729    24.506552    46.826741      900 
     135            0 -3.7285404e-09   0.77127194 -1.8888312e-08 -3.5005345e-08 4.2708036e-08 -1.6106272e-06 -2.3712181e-07 1.4980724e-07            0   -2972.5577   -2972.5577    32473.398    28.297729    24.506552    46.826741      900 
     136            0 -3.7905599e-07   0.77762103 -2.5469823e-07 -4.0367919e-07 -4.7879056e-07 -1.6488891e-06 -2.3188585e-07 1.4481287e-07            0   -2972.5577   -2972.5577    32473.398    28.297729    24.506552    46.826741      900 
     137            0 4.2897954e-08   0.78397202 2.6217611e-07 7.0354427e-08 -2.0383667e-07 -1.6611485e-06 -2.2521531e-07 1.3733963e-07            0   -2972.5577   -2972.5577    32473.398    28.297729    24.506552    46.826741      900 
     138            0 2.6609903e-08   0.79032207 1.3391708e-08 3.4947711e-08 3.1490291e-08 -1.5995067e-06 -2.1812784e-07 1.2716982e-07            0   -2972.5577   -2972.5577    32473.398    28.297729    24.506552    46.826741      900 
     139            0 -8.4280509e-09   0.79667401 -1.9718045e-08 -4.7257392e-09 -8.4036871e-10 -1.6013895e-06 -2.1820411e-07 1.2731033e-07            0   -2972.5577   -2972.5577    32473.398    28.297729    24.506552    46.826741      900 
     140            0 -2.1367364e-09   0.80302405 2.7580245e-08 -1.6156447e-08 -1.7834007e-08 -1.6183494e-06 -2.19046e-07 1.2881769e-07            0   -2972.5577   -2972.5577    32473.398    28.297729    24.506552    46.826741      900 
     141            0 2.0798738e-07   0.80938005 2.2619917e-07 2.2601072e-07 1.7175225e-07 -1.6057474e-06 -2.1712009e-07 1.2625495e-07            0   -2972.5577   -2972.5577    32473.398    28.297729    24.506552    46.826741      900 
     142            0 6.7328278e-09   0.81572604 -4.4521129e-07 3.5310884e-07 1.1230093e-07 -1.3749046e-06 -1.8186541e-07 7.9408786e-08            0   -2972.5577   -2972.5577    32473.398    28.297729    24.506552    46.826741      900 
     143            0 -1.8330625e-07   0.82208204 -1.9460077e-07 -1.9999417e-07 -1.5532381e-07 -1.606625e-06 -1.7437631e-07 7.8923678e-08            0   -2972.5577   -2972.5577    32473.398    28.297729    24.506552    46.826741      900 
     144            0 4.476855e-10   0.82842898 2.134147e-08 -2.1265655e-08 1.2672413e-09 -1.6173835e-06 -1.7397951e-07 7.8854849e-08            0   -2972.5577   -2972.5577    32473.398    28.297729    24.506552    46.826741      900 
     145            0 5.8074528e-09   0.83478498 3.9942023e-09 8.6441929e-09 4.7839631e-09 -1.6037034e-06 -1.7322432e-07 7.7542727e-08            0   -2972.5577   -2972.5577    32473.398    28.297729    24.506552    46.826741      900 
     146            0 -6.440044e-09   0.84113002 -1.0206336e-08 -3.1070802e-09 -6.0067157e-09 -1.6030311e-06 -1.7317267e-07 7.7472201e-08            0   -2972.5577   -2972.5577    32473.398    28.297729    24.506552    46.826741      900 
     147            0 -2.8637958e-08   0.84748507 2.3193998e-08 -1.1402543e-07 4.9175557e-09 -1.6446631e-06 -1.7492906e-07  8.10907e-08            0   -2972.5577   -2972.5577    32473.398    28.297729    24.506552    46.826741      900 
     148            0 1.2816112e-07   0.85384011 1.9404623e-07 4.6808259e-08 1.4362887e-07 -1.6475302e-06 -1.7415436e-07 8.0856815e-08            0   -2972.5577   -2972.5577    32473.398    28.297729    24.506552    46.826741      900 
     149            0 9.4956358e-09   0.86018705 -9.3297236e-10 4.093806e-08 -1.151818e-08 -1.5928689e-06 -1.6792273e-07 7.3894367e-08            0   -2972.5577   -2972.5577    32473.398    28.297729    24.506552    46.826741      900 
     150            0 -1.8155157e-08   0.86653996 -2.3317335e-08 -8.7988859e-09 -2.2349251e-08 -1.6007388e-06 -1.6830155e-07 7.4610532e-08            0   -2972.5577   -2972.5577    32473.398    28.297729    24.506552    46.826741      900 
     151            0 7.9302666e-10   0.87288594 1.6139112e-09 -2.9079155e-09 3.6730843e-09 -1.6062778e-06 -1.6857111e-07 7.5111667e-08            0   -2972.5577   -2972.5577    32473.398    28.297729    24.506552    46.826741      900 
     152            0 3.7580689e-08   0.87923813 4.6541768e-08 6.1263293e-08 4.9370061e-09 -1.600733e-06 -1.6815487e-07 7.4581574e-08            0   -2972.5577   -2972.5577    32473.398    28.297729    24.506552    46.826741      900 
     153            0 -3.3157944e-08   0.88559008 -2.16046e-08 2.2271545e-08 -1.0014078e-07 -1.592291e-06 -1.6742994e-07 7.3756654e-08            0   -2972.5577   -2972.5577    32473.398    28.297729    24.506552    46.826741      900 
     154            0 -1.6143847e-07   0.89194012 -2.9444705e-07 -2.1263228e-07 2.2763937e-08 -1.580927e-06 -1.5162217e-07 7.1129485e-08            0   -2972.5577   -2972.5577    32473.398    28.297729    24.506552    46.826741      900 
     155            0 7.3548035e-08   0.89829016 -1.3420466e-08 3.9044603e-08 1.9501997e-07 -1.5893595e-06 -1.4983432e-07 7.1682641e-08            0   -2972.5577   -2972.5577    32473.398    28.297729    24.506552    46.826741      900 
     156            0 6.413819e-09   0.90464211 1.4883091e-08 4.6331792e-09 -2.7481348e-10 -1.607421e-06 -1.4946289e-07 7.3233796e-08            0   -2972.5577   -2972.5577    32473.398    28.297729    24.506552    46.826741      900 
     157            0 -6.1951996e-09   0.91099095 -2.2125588e-09 -7.3555998e-09 -9.01744e-09 -1.6059302e-06 -1.4938351e-07 7.3088785e-08            0   -2972.5577   -2972.5577    32473.398    28.297729    24.506552    46.826741      900 
     158            0 1.0065533e-09     0.917346 -6.8356614e-09 3.4465618e-09 6.4087596e-09 -1.6014649e-06 -1.491273e-07 7.2679084e-08            0   -2972.5577   -2972.5577    32473.398    28.297729    24.506552    46.826741      900 
     159            0 8.3741746e-08   0.92369795 1.0773655e-07 7.2342264e-08 7.1146419e-08 -1.6146298e-06 -1.4933732e-07 7.3869712e-08            0   -2972.5577   -2972.5577    32473.398    28.297729    24.506552    46.826741      900 
     160            0 -1.2999212e-08   0.93005514 7.3604584e-08 -7.1600205e-08 -4.1002016e-08 -1.6462663e-06 -1.4938522e-07 7.6695019e-08            0   -2972.5577   -2972.5577    32473.398    28.297729    24.506552    46.826741      900 
     161            0 -1.5185555e-08   0.93639994 -1.9460089e-08 -1.2175137e-08 -1.3921438e-08 -1.6022089e-06 -1.458461e-07 7.2484896e-08            0   -2972.5577   -2972.5577    32473.398    28.297729    24.506552    46.826741      900 
     162            0 7.4789799e-10   0.94275403 -2.612616e-09 4.1506273e-09 7.0568264e-10 -1.6023625e-06 -1.4583554e-07 7.2496841e-08            0   -2972.5577   -2972.5577    32473.398    28.297729    24.506552    46.826741      900 
     163            0 5.1739726e-10   0.95213699 2.3640347e-09 -1.3423892e-09 5.3054631e-10 -1.6053706e-06 -1.4600034e-07 7.2781618e-08            0   -2972.5577   -2972.5577    32473.398    28.297729    24.506552    46.826741      900 
Loop time of 0.952156 on 1 procs for 163 steps with 900 atoms

100.0% CPU use with 1 MPI tasks x no OpenMP threads

Minimization stats:
  Stopping criterion = force tolerance
  Energy initial, next-to-last, final = 
        -2967.00340377     -2972.55768349     -2972.55768349
  Force two-norm initial, final = 373.311 8.92711e-11
  Force max component initial, final = 229.504 4.84908e-11
  Final line search alpha, max atom move = 1 4.84908e-11
  Iterations, force evaluations = 163 295

MPI task timing breakdown:
Section |  min time  |  avg time  |  max time  |%varavg| %total
---------------------------------------------------------------
Pair    | 0.91068    | 0.91068    | 0.91068    |   0.0 | 95.64
Neigh   | 0.010632   | 0.010632   | 0.010632   |   0.0 |  1.12
Comm    | 0.0034053  | 0.0034053  | 0.0034053  |   0.0 |  0.36
Output  | 0.004822   | 0.004822   | 0.004822   |   0.0 |  0.51
Modify  | 0          | 0          | 0          |   0.0 |  0.00
Other   |            | 0.02261    |            |       |  2.37

Nlocal:    900 ave 900 max 900 min
Histogram: 1 0 0 0 0 0 0 0 0 0
Nghost:    1503 ave 1503 max 1503 min
Histogram: 1 0 0 0 0 0 0 0 0 0
Neighs:    51900 ave 51900 max 51900 min
Histogram: 1 0 0 0 0 0 0 0 0 0

Total # of neighbors = 51900
Ave neighs/atom = 57.6667
Neighbor list builds = 1
Dangerous builds = 0
Setting up cg style minimization ...
  Unit style: metal
Memory usage per processor = 3.38681 Mbytes
Step Temp Press CPU Pxx Pyy Pzz Pxy Pxz Pyz KinEng PotEng TotEng Volume Lx Ly Lz Atoms 
     163            0  4.85386e-10            0 2.3224858e-09 -1.3563184e-09 4.8999061e-10 -1.6053703e-06 -1.4600038e-07 7.2782936e-08            0   -2972.5577   -2972.5577    32473.398    28.297729    24.506552    46.826741      900 
     164            0 -1.2905381e-08  0.009303093 -7.0356194e-09 -1.0653944e-08 -2.102658e-08 -1.605257e-06 -1.4444702e-07 7.2505139e-08            0   -2972.5577   -2972.5577    32473.398    28.297729    24.506552    46.826741      900 
Loop time of 0.00932002 on 1 procs for 1 steps with 900 atoms

85.8% CPU use with 1 MPI tasks x no OpenMP threads

Minimization stats:
  Stopping criterion = force tolerance
  Energy initial, next-to-last, final = 
        -2972.55768349     -2972.55768349     -2972.55768349
  Force two-norm initial, final = 6.88608e-11 5.42506e-11
  Force max component initial, final = 4.11787e-12 2.94955e-12
  Final line search alpha, max atom move = 1 2.94955e-12
  Iterations, force evaluations = 1 2

MPI task timing breakdown:
Section |  min time  |  avg time  |  max time  |%varavg| %total
---------------------------------------------------------------
Pair    | 0.0092001  | 0.0092001  | 0.0092001  |   0.0 | 98.71
Neigh   | 0          | 0          | 0          |   0.0 |  0.00
Comm    | 3.4809e-05 | 3.4809e-05 | 3.4809e-05 |   0.0 |  0.37
Output  | 0          | 0          | 0          |   0.0 |  0.00
Modify  | 0          | 0          | 0          |   0.0 |  0.00
Other   |            | 8.512e-05  |            |       |  0.91

Nlocal:    900 ave 900 max 900 min
Histogram: 1 0 0 0 0 0 0 0 0 0
Nghost:    1503 ave 1503 max 1503 min
Histogram: 1 0 0 0 0 0 0 0 0 0
Neighs:    51900 ave 51900 max 51900 min
Histogram: 1 0 0 0 0 0 0 0 0 0

Total # of neighbors = 51900
Ave neighs/atom = 57.6667
Neighbor list builds = 0
Dangerous builds = 0
System init for write_restart ...
System init for write_data ...
Reading restart file ...
  restart file = 13 Jan 2016, LAMMPS = 13 Jan 2016
  triclinic box = (0.170048 0.147265 -0.0306847) to (28.4678 24.6538 46.7961) with tilt (14.1489 0 0)
WARNING: Triclinic box skew is large (../domain.cpp:185)
  1 by 1 by 1 MPI processor grid
  900 atoms
Changing box ...
WARNING: Triclinic box skew is large (../domain.cpp:185)
  triclinic box = (0.170048 0.147265 -0.0306847) to (28.4677 24.6538 46.7961) with tilt (14.1489 0 0)
Neighbor list info ...
  1 neighbor list requests
  update every 1 steps, delay 0 steps, check yes
  max neighbors/atom: 2000, page size: 100000
  master list distance cutoff = 7.72488
  ghost atom cutoff = 7.72488
Setting up cg style minimization ...
  Unit style: metal
Memory usage per processor = 3.38681 Mbytes
Step Temp Press CPU Pxx Pyy Pzz Pxy Pxz Pyz KinEng PotEng TotEng Volume Lx Ly Lz Atoms 
     164            0   0.37854301            0   0.60103004   0.29091367   0.24368531 -0.089524338 -0.0048348518 0.0083740156            0   -2972.5577   -2972.5577    32473.366    28.297701    24.506552    46.826741      900 
     165            0   0.34169879 0.0062251091   0.57616899   0.26656917   0.18235821 -0.089375219 -0.0042805093 0.0074138742            0   -2972.5577   -2972.5577    32473.366    28.297701    24.506552    46.826741      900 
     166            0    0.3122729  0.012457132   0.55323565   0.24447149   0.13911158 -0.089133982 -0.0033344775 0.0057753106            0   -2972.5577   -2972.5577    32473.366    28.297701    24.506552    46.826741      900 
     167            0   0.28096754  0.018686056   0.53005396   0.22218616  0.090662513 -0.088875222 -0.0021929926 0.0037982144            0   -2972.5577   -2972.5577    32473.366    28.297701    24.506552    46.826741      900 
     168            0   0.22479096   0.02491498   0.48835612   0.18156014 0.0044566097  -0.08856581 -0.00038740654 0.00067087864            0   -2972.5577   -2972.5577    32473.366    28.297701    24.506552    46.826741      900 
     169            0   0.22211489  0.031145096   0.48709134   0.17893533 0.00031801224 -0.088958423 -0.0015076428 0.0026111993            0   -2972.5577   -2972.5577    32473.366    28.297701    24.506552    46.826741      900 
     170            0   0.22211489  0.040390015   0.48709134   0.17893533 0.00031801224 -0.088958423 -0.0015076428 0.0026111993            0   -2972.5577   -2972.5577    32473.366    28.297701    24.506552    46.826741      900 
Loop time of 0.0404072 on 1 procs for 6 steps with 900 atoms

99.0% CPU use with 1 MPI tasks x no OpenMP threads

Minimization stats:
  Stopping criterion = linesearch alpha is zero
  Energy initial, next-to-last, final = 
        -2972.55768348     -2972.55768348     -2972.55768348
  Force two-norm initial, final = 4.11018e-05 1.3544e-06
  Force max component initial, final = 2.86699e-06 7.96738e-08
  Final line search alpha, max atom move = 0.5 3.98369e-08
  Iterations, force evaluations = 6 12

MPI task timing breakdown:
Section |  min time  |  avg time  |  max time  |%varavg| %total
---------------------------------------------------------------
Pair    | 0.039813   | 0.039813   | 0.039813   |   0.0 | 98.53
Neigh   | 0          | 0          | 0          |   0.0 |  0.00
Comm    | 0.00014901 | 0.00014901 | 0.00014901 |   0.0 |  0.37
Output  | 0.00014806 | 0.00014806 | 0.00014806 |   0.0 |  0.37
Modify  | 0          | 0          | 0          |   0.0 |  0.00
Other   |            | 0.0002971  |            |       |  0.74

Nlocal:    900 ave 900 max 900 min
Histogram: 1 0 0 0 0 0 0 0 0 0
Nghost:    1503 ave 1503 max 1503 min
Histogram: 1 0 0 0 0 0 0 0 0 0
Neighs:    51900 ave 51900 max 51900 min
Histogram: 1 0 0 0 0 0 0 0 0 0

Total # of neighbors = 51900
Ave neighs/atom = 57.6667
Neighbor list builds = 0
Dangerous builds = 0
Reading restart file ...
  restart file = 13 Jan 2016, LAMMPS = 13 Jan 2016
  triclinic box = (0.170048 0.147265 -0.0306847) to (28.4678 24.6538 46.7961) with tilt (14.1489 0 0)
WARNING: Triclinic box skew is large (../domain.cpp:185)
  1 by 1 by 1 MPI processor grid
  900 atoms
Changing box ...
  triclinic box = (0.170048 0.147265 -0.0306847) to (28.4678 24.6538 46.7961) with tilt (14.1489 0 0)
Neighbor list info ...
  1 neighbor list requests
  update every 1 steps, delay 0 steps, check yes
  max neighbors/atom: 2000, page size: 100000
  master list distance cutoff = 7.72488
  ghost atom cutoff = 7.72488
Setting up cg style minimization ...
  Unit style: metal
Memory usage per processor = 3.38681 Mbytes
Step Temp Press CPU Pxx Pyy Pzz Pxy Pxz Pyz KinEng PotEng TotEng Volume Lx Ly Lz Atoms 
     164            0  -0.37854015            0  -0.60102437  -0.29091194  -0.24368414  0.089520295  0.004834462 -0.008373727            0   -2972.5577   -2972.5577    32473.431    28.297758    24.506552    46.826741      900 
     165            0   -0.3416962 0.0061349869  -0.57616352   -0.2665676   -0.1823575  0.089371197 0.0042801851 -0.0074136833            0   -2972.5577   -2972.5577    32473.431    28.297758    24.506552    46.826741      900 
     166            0  -0.31227067  0.012276888  -0.55323047  -0.24447012  -0.13911142  0.089129988 0.0033342057 -0.0057751875            0   -2972.5577   -2972.5577    32473.431    28.297758    24.506552    46.826741      900 
     167            0  -0.28096539  0.018417835  -0.53004889  -0.22218482  -0.09066248  0.088871258 0.0021927734 -0.0037981551            0   -2972.5577   -2972.5577    32473.431    28.297758    24.506552    46.826741      900 
     168            0  -0.22478891  0.024562836  -0.48835119   -0.1815588 -0.0044567365  0.088561895 0.00038727593 -0.00067091077            0   -2972.5577   -2972.5577    32473.431    28.297758    24.506552    46.826741      900 
     169            0  -0.22211273  0.031162977  -0.48708639  -0.17893396 -0.00031784357    0.0889545 0.0015075243 -0.0026112233            0   -2972.5577   -2972.5577    32473.431    28.297758    24.506552    46.826741      900 
     170            0  -0.22211273  0.040349007  -0.48708639  -0.17893396 -0.00031784357    0.0889545 0.0015075243 -0.0026112233            0   -2972.5577   -2972.5577    32473.431    28.297758    24.506552    46.826741      900 
Loop time of 0.0403669 on 1 procs for 6 steps with 900 atoms

99.1% CPU use with 1 MPI tasks x no OpenMP threads

Minimization stats:
  Stopping criterion = linesearch alpha is zero
  Energy initial, next-to-last, final = 
        -2972.55768348     -2972.55768348     -2972.55768348
  Force two-norm initial, final = 4.11017e-05 1.3544e-06
  Force max component initial, final = 2.86698e-06 7.96623e-08
  Final line search alpha, max atom move = 0.5 3.98312e-08
  Iterations, force evaluations = 6 12

MPI task timing breakdown:
Section |  min time  |  avg time  |  max time  |%varavg| %total
---------------------------------------------------------------
Pair    | 0.039743   | 0.039743   | 0.039743   |   0.0 | 98.45
Neigh   | 0          | 0          | 0          |   0.0 |  0.00
Comm    | 0.0001502  | 0.0001502  | 0.0001502  |   0.0 |  0.37
Output  | 0.00016308 | 0.00016308 | 0.00016308 |   0.0 |  0.40
Modify  | 0          | 0          | 0          |   0.0 |  0.00
Other   |            | 0.0003107  |            |       |  0.77

Nlocal:    900 ave 900 max 900 min
Histogram: 1 0 0 0 0 0 0 0 0 0
Nghost:    1503 ave 1503 max 1503 min
Histogram: 1 0 0 0 0 0 0 0 0 0
Neighs:    51900 ave 51900 max 51900 min
Histogram: 1 0 0 0 0 0 0 0 0 0

Total # of neighbors = 51900
Ave neighs/atom = 57.6667
Neighbor list builds = 0
Dangerous builds = 0
Reading restart file ...
  restart file = 13 Jan 2016, LAMMPS = 13 Jan 2016
  triclinic box = (0.170048 0.147265 -0.0306847) to (28.4678 24.6538 46.7961) with tilt (14.1489 0 0)
WARNING: Triclinic box skew is large (../domain.cpp:185)
  1 by 1 by 1 MPI processor grid
  900 atoms
Changing box ...
WARNING: Triclinic box skew is large (../domain.cpp:185)
  triclinic box = (0.170048 0.147265 -0.0306847) to (28.4678 24.6538 46.7961) with tilt (14.1489 0 0)
Neighbor list info ...
  1 neighbor list requests
  update every 1 steps, delay 0 steps, check yes
  max neighbors/atom: 2000, page size: 100000
  master list distance cutoff = 7.72488
  ghost atom cutoff = 7.72488
Setting up cg style minimization ...
  Unit style: metal
Memory usage per processor = 3.38681 Mbytes
Step Temp Press CPU Pxx Pyy Pzz Pxy Pxz Pyz KinEng PotEng TotEng Volume Lx Ly Lz Atoms 
     164            0   0.37854292            0   0.29091376   0.60102972   0.24368528 -1.6052378e-06 -1.4444207e-07 -0.0083738846            0   -2972.5577   -2972.5577    32473.366    28.297729    24.506528    46.826741      900 
     165            0   0.34178061 0.0061190128   0.26662338   0.57622393    0.1824945 -1.6050538e-06 -1.4181755e-07 -0.0074158755            0   -2972.5577   -2972.5577    32473.366    28.297729    24.506528    46.826741      900 
     166            0   0.31230284  0.012233019   0.24449317    0.5532576   0.13915775 -1.6047452e-06 -1.3663016e-07 -0.0057765309            0   -2972.5577   -2972.5577    32473.366    28.297729    24.506528    46.826741      900 
     167            0   0.28075307  0.018353939   0.22203365   0.52989579  0.090329774 -1.6043321e-06 -1.2854428e-07 -0.0037873842            0   -2972.5577   -2972.5577    32473.366    28.297729    24.506528    46.826741      900 
     168            0   0.22409201  0.024466991   0.18106012    0.4878395 0.0033764124 -1.6036183e-06 -1.0909563e-07 -0.00063420905            0   -2972.5577   -2972.5577    32473.366    28.297729    24.506528    46.826741      900 
     169            0   0.22206332  0.030588865   0.17889784   0.48705309 0.00023902707 -1.6036991e-06 -1.0295722e-07 -0.0026092764            0   -2972.5577   -2972.5577    32473.366    28.297729    24.506528    46.826741      900 
     170            0   0.22206332  0.039718866   0.17889784   0.48705309 0.00023902707 -1.6036991e-06 -1.0295722e-07 -0.0026092764            0   -2972.5577   -2972.5577    32473.366    28.297729    24.506528    46.826741      900 
Loop time of 0.039736 on 1 procs for 6 steps with 900 atoms

100.7% CPU use with 1 MPI tasks x no OpenMP threads

Minimization stats:
  Stopping criterion = linesearch alpha is zero
  Energy initial, next-to-last, final = 
        -2972.55768348     -2972.55768348     -2972.55768348
  Force two-norm initial, final = 4.10308e-05 1.17389e-06
  Force max component initial, final = 2.86699e-06 7.97395e-08
  Final line search alpha, max atom move = 0.5 3.98697e-08
  Iterations, force evaluations = 6 12

MPI task timing breakdown:
Section |  min time  |  avg time  |  max time  |%varavg| %total
---------------------------------------------------------------
Pair    | 0.039141   | 0.039141   | 0.039141   |   0.0 | 98.50
Neigh   | 0          | 0          | 0          |   0.0 |  0.00
Comm    | 0.00014853 | 0.00014853 | 0.00014853 |   0.0 |  0.37
Output  | 0.00014901 | 0.00014901 | 0.00014901 |   0.0 |  0.38
Modify  | 0          | 0          | 0          |   0.0 |  0.00
Other   |            | 0.0002973  |            |       |  0.75

Nlocal:    900 ave 900 max 900 min
Histogram: 1 0 0 0 0 0 0 0 0 0
Nghost:    1503 ave 1503 max 1503 min
Histogram: 1 0 0 0 0 0 0 0 0 0
Neighs:    51900 ave 51900 max 51900 min
Histogram: 1 0 0 0 0 0 0 0 0 0

Total # of neighbors = 51900
Ave neighs/atom = 57.6667
Neighbor list builds = 0
Dangerous builds = 0
Reading restart file ...
  restart file = 13 Jan 2016, LAMMPS = 13 Jan 2016
  triclinic box = (0.170048 0.147265 -0.0306847) to (28.4678 24.6538 46.7961) with tilt (14.1489 0 0)
WARNING: Triclinic box skew is large (../domain.cpp:185)
  1 by 1 by 1 MPI processor grid
  900 atoms
Changing box ...
WARNING: Triclinic box skew is large (../domain.cpp:185)
  triclinic box = (0.170048 0.147265 -0.0306847) to (28.4678 24.6538 46.7961) with tilt (14.1489 0 0)
Neighbor list info ...
  1 neighbor list requests
  update every 1 steps, delay 0 steps, check yes
  max neighbors/atom: 2000, page size: 100000
  master list distance cutoff = 7.72488
  ghost atom cutoff = 7.72488
Setting up cg style minimization ...
  Unit style: metal
Memory usage per processor = 3.38681 Mbytes
Step Temp Press CPU Pxx Pyy Pzz Pxy Pxz Pyz KinEng PotEng TotEng Volume Lx Ly Lz Atoms 
     164            0  -0.37854024            0  -0.29091185  -0.60102469  -0.24368417 -1.605193e-06 -1.4443817e-07 0.0083738581            0   -2972.5577   -2972.5577    32473.431    28.297729    24.506577    46.826741      900 
     165            0  -0.34177819 0.0061070919  -0.26662161  -0.57621911  -0.18249384 -1.6050324e-06 -1.4180234e-07 0.0074159504            0   -2972.5577   -2972.5577    32473.431    28.297729    24.506577    46.826741      900 
     166            0  -0.31230076  0.012226105  -0.24449159  -0.55325306  -0.13915763 -1.6047132e-06 -1.3663325e-07 0.0057766758            0   -2972.5577   -2972.5577    32473.431    28.297729    24.506577    46.826741      900 
     167            0  -0.28075107  0.018335104  -0.22203209  -0.52989136 -0.090329762 -1.6042927e-06 -1.2855105e-07 0.0037875899            0   -2972.5577   -2972.5577    32473.431    28.297729    24.506577    46.826741      900 
     168            0  -0.22409008  0.024793148  -0.18105853  -0.48783519 -0.0033765159 -1.6036012e-06 -1.0909027e-07 0.00063449243            0   -2972.5577   -2972.5577    32473.431    28.297729    24.506577    46.826741      900 
     169            0  -0.22206127  0.030929089  -0.17889623  -0.48704876 -0.00023883373 -1.6036853e-06 -1.0294875e-07 0.0026095383            0   -2972.5577   -2972.5577    32473.431    28.297729    24.506577    46.826741      900 
     170            0  -0.22206127  0.040064096  -0.17889623  -0.48704876 -0.00023883373 -1.6036853e-06 -1.0294875e-07 0.0026095383            0   -2972.5577   -2972.5577    32473.431    28.297729    24.506577    46.826741      900 
Loop time of 0.040082 on 1 procs for 6 steps with 900 atoms

99.8% CPU use with 1 MPI tasks x no OpenMP threads

Minimization stats:
  Stopping criterion = linesearch alpha is zero
  Energy initial, next-to-last, final = 
        -2972.55768348     -2972.55768348     -2972.55768348
  Force two-norm initial, final = 4.10307e-05 1.17389e-06
  Force max component initial, final = 2.86698e-06 7.97526e-08
  Final line search alpha, max atom move = 0.5 3.98763e-08
  Iterations, force evaluations = 6 12

MPI task timing breakdown:
Section |  min time  |  avg time  |  max time  |%varavg| %total
---------------------------------------------------------------
Pair    | 0.039461   | 0.039461   | 0.039461   |   0.0 | 98.45
Neigh   | 0          | 0          | 0          |   0.0 |  0.00
Comm    | 0.00015068 | 0.00015068 | 0.00015068 |   0.0 |  0.38
Output  | 0.00016332 | 0.00016332 | 0.00016332 |   0.0 |  0.41
Modify  | 0          | 0          | 0          |   0.0 |  0.00
Other   |            | 0.0003068  |            |       |  0.77

Nlocal:    900 ave 900 max 900 min
Histogram: 1 0 0 0 0 0 0 0 0 0
Nghost:    1503 ave 1503 max 1503 min
Histogram: 1 0 0 0 0 0 0 0 0 0
Neighs:    51900 ave 51900 max 51900 min
Histogram: 1 0 0 0 0 0 0 0 0 0

Total # of neighbors = 51900
Ave neighs/atom = 57.6667
Neighbor list builds = 0
Dangerous builds = 0
Reading restart file ...
  restart file = 13 Jan 2016, LAMMPS = 13 Jan 2016
  triclinic box = (0.170048 0.147265 -0.0306847) to (28.4678 24.6538 46.7961) with tilt (14.1489 0 0)
WARNING: Triclinic box skew is large (../domain.cpp:185)
  1 by 1 by 1 MPI processor grid
  900 atoms
Changing box ...
WARNING: Triclinic box skew is large (../domain.cpp:185)
  triclinic box = (0.170048 0.147265 -0.0306847) to (28.4678 24.6538 46.796) with tilt (14.1489 0 0)
Neighbor list info ...
  1 neighbor list requests
  update every 1 steps, delay 0 steps, check yes
  max neighbors/atom: 2000, page size: 100000
  master list distance cutoff = 7.72488
  ghost atom cutoff = 7.72488
Setting up cg style minimization ...
  Unit style: metal
Memory usage per processor = 3.38681 Mbytes
Step Temp Press CPU Pxx Pyy Pzz Pxy Pxz Pyz KinEng PotEng TotEng Volume Lx Ly Lz Atoms 
     164            0    0.3388354            0   0.24368552   0.24368552   0.52913517 -1.6052304e-06 -1.4444348e-07 7.2514393e-08            0   -2972.5577   -2972.5577    32473.366    28.297729    24.506552    46.826694      900 
     165            0   0.27348848 0.0061240196   0.20121726   0.20121726   0.41803092 -1.6051018e-06 -1.4261313e-07 7.2175275e-08            0   -2972.5577   -2972.5577    32473.366    28.297729    24.506552    46.826694      900 
     166            0   0.20505796  0.012253046   0.15019969   0.15019969   0.31477449 -1.6048075e-06 -1.3801182e-07 7.1300267e-08            0   -2972.5577   -2972.5577    32473.366    28.297729    24.506552    46.826694      900 
     167            0   0.13394385  0.018373966  0.098040589  0.098040585   0.20575039 -1.6044241e-06 -1.2998879e-07 6.9601069e-08            0   -2972.5577   -2972.5577    32473.366    28.297729    24.506552    46.826694      900 
     168            0 2.9449085e-07  0.024502993 3.455578e-07 3.4114714e-07 1.9676763e-07 -1.60357e-06 -1.0859743e-07 6.4060194e-08            0   -2972.5577   -2972.5577    32473.366    28.297729    24.506552    46.826694      900 
     169            0 7.8989249e-07  0.030622005 5.7335885e-07 5.6893392e-07 1.2273847e-06 -1.6036029e-06 -1.0787314e-07 6.3488247e-08            0   -2972.5577   -2972.5577    32473.366    28.297729    24.506552    46.826694      900 
     170            0 5.6614315e-07  0.036750078 4.0768997e-07 4.0327891e-07 8.8746057e-07 -1.6036207e-06 -1.0572765e-07 6.1804714e-08            0   -2972.5577   -2972.5577    32473.366    28.297729    24.506552    46.826694      900 
     171            0 4.2602881e-07  0.042867899 3.1201645e-07 3.0758326e-07 6.5848673e-07 -1.6035848e-06 -1.0429994e-07 6.0696772e-08            0   -2972.5577   -2972.5577    32473.366    28.297729    24.506552    46.826694      900 
     172            0 3.4984621e-07  0.052013874 2.5961568e-07 2.5536611e-07 5.3455684e-07 -1.6035251e-06 -1.0260541e-07 5.9406463e-08            0   -2972.5577   -2972.5577    32473.366    28.297729    24.506552    46.826694      900 
Loop time of 0.052031 on 1 procs for 8 steps with 900 atoms

99.9% CPU use with 1 MPI tasks x no OpenMP threads

Minimization stats:
  Stopping criterion = force tolerance
  Energy initial, next-to-last, final = 
        -2972.55768348     -2972.55768349     -2972.55768349
  Force two-norm initial, final = 0.000104234 7.64796e-11
  Force max component initial, final = 7.17618e-06 4.26683e-12
  Final line search alpha, max atom move = 1 4.26683e-12
  Iterations, force evaluations = 8 16

MPI task timing breakdown:
Section |  min time  |  avg time  |  max time  |%varavg| %total
---------------------------------------------------------------
Pair    | 0.051237   | 0.051237   | 0.051237   |   0.0 | 98.47
Neigh   | 0          | 0          | 0          |   0.0 |  0.00
Comm    | 0.0001936  | 0.0001936  | 0.0001936  |   0.0 |  0.37
Output  | 0.00020909 | 0.00020909 | 0.00020909 |   0.0 |  0.40
Modify  | 0          | 0          | 0          |   0.0 |  0.00
Other   |            | 0.0003917  |            |       |  0.75

Nlocal:    900 ave 900 max 900 min
Histogram: 1 0 0 0 0 0 0 0 0 0
Nghost:    1503 ave 1503 max 1503 min
Histogram: 1 0 0 0 0 0 0 0 0 0
Neighs:    51900 ave 51900 max 51900 min
Histogram: 1 0 0 0 0 0 0 0 0 0

Total # of neighbors = 51900
Ave neighs/atom = 57.6667
Neighbor list builds = 0
Dangerous builds = 0
Reading restart file ...
  restart file = 13 Jan 2016, LAMMPS = 13 Jan 2016
  triclinic box = (0.170048 0.147265 -0.0306847) to (28.4678 24.6538 46.7961) with tilt (14.1489 0 0)
WARNING: Triclinic box skew is large (../domain.cpp:185)
  1 by 1 by 1 MPI processor grid
  900 atoms
Changing box ...
WARNING: Triclinic box skew is large (../domain.cpp:185)
  triclinic box = (0.170048 0.147265 -0.0306847) to (28.4678 24.6538 46.7961) with tilt (14.1489 0 0)
Neighbor list info ...
  1 neighbor list requests
  update every 1 steps, delay 0 steps, check yes
  max neighbors/atom: 2000, page size: 100000
  master list distance cutoff = 7.72488
  ghost atom cutoff = 7.72488
Setting up cg style minimization ...
  Unit style: metal
Memory usage per processor = 3.38681 Mbytes
Step Temp Press CPU Pxx Pyy Pzz Pxy Pxz Pyz KinEng PotEng TotEng Volume Lx Ly Lz Atoms 
     164            0  -0.33883276            0  -0.24368393  -0.24368394  -0.52913041 -1.6052648e-06 -1.4444376e-07 7.2507416e-08            0   -2972.5577   -2972.5577    32473.431    28.297729    24.506552    46.826788      900 
     165            0  -0.27348721 0.0061178207   -0.2012166   -0.2012166  -0.41802844 -1.6050844e-06 -1.4261694e-07 7.217288e-08            0   -2972.5577   -2972.5577    32473.431    28.297729    24.506552    46.826788      900 
     166            0  -0.20505863  0.012233019  -0.15020035  -0.15020035  -0.31477518 -1.6048119e-06 -1.380084e-07 7.1303606e-08            0   -2972.5577   -2972.5577    32473.431    28.297729    24.506552    46.826788      900 
     167            0  -0.13394335  0.018357992 -0.098040462 -0.098040465  -0.20574913 -1.6043833e-06 -1.299873e-07 6.959726e-08            0   -2972.5577   -2972.5577    32473.431    28.297729    24.506552    46.826788      900 
     168            0 2.9432977e-07  0.024473906 3.4542141e-07 3.4103148e-07 1.9653642e-07 -1.6035821e-06 -1.0859635e-07 6.4060769e-08            0   -2972.5577   -2972.5577    32473.431    28.297729    24.506552    46.826788      900 
     169            0 7.9043538e-07  0.031030893 5.7374553e-07 5.6935801e-07 1.2282026e-06 -1.6035672e-06 -1.0787491e-07 6.3490593e-08            0   -2972.5577   -2972.5577    32473.431    28.297729    24.506552    46.826788      900 
     170            0 5.6670828e-07  0.037153959 4.0813816e-07 4.0368917e-07 8.8829751e-07 -1.6035906e-06 -1.0572518e-07 6.1802483e-08            0   -2972.5577   -2972.5577    32473.431    28.297729    24.506552    46.826788      900 
     171            0 4.2660665e-07  0.043282986 3.1242829e-07 3.0802461e-07 6.5936706e-07 -1.6036007e-06 -1.0429851e-07 6.070082e-08            0   -2972.5577   -2972.5577    32473.431    28.297729    24.506552    46.826788      900 
     172            0 3.503444e-07  0.052420855 2.5999864e-07 2.5571704e-07 5.3531752e-07 -1.6035356e-06 -1.0261166e-07 5.9401967e-08            0   -2972.5577   -2972.5577    32473.431    28.297729    24.506552    46.826788      900 
Loop time of 0.052439 on 1 procs for 8 steps with 900 atoms

99.2% CPU use with 1 MPI tasks x no OpenMP threads

Minimization stats:
  Stopping criterion = force tolerance
  Energy initial, next-to-last, final = 
        -2972.55768348     -2972.55768349     -2972.55768349
  Force two-norm initial, final = 0.000104234 7.66292e-11
  Force max component initial, final = 7.17614e-06 4.27167e-12
  Final line search alpha, max atom move = 1 4.27167e-12
  Iterations, force evaluations = 8 16

MPI task timing breakdown:
Section |  min time  |  avg time  |  max time  |%varavg| %total
---------------------------------------------------------------
Pair    | 0.051618   | 0.051618   | 0.051618   |   0.0 | 98.43
Neigh   | 0          | 0          | 0          |   0.0 |  0.00
Comm    | 0.00019503 | 0.00019503 | 0.00019503 |   0.0 |  0.37
Output  | 0.00021815 | 0.00021815 | 0.00021815 |   0.0 |  0.42
Modify  | 0          | 0          | 0          |   0.0 |  0.00
Other   |            | 0.0004079  |            |       |  0.78

Nlocal:    900 ave 900 max 900 min
Histogram: 1 0 0 0 0 0 0 0 0 0
Nghost:    1503 ave 1503 max 1503 min
Histogram: 1 0 0 0 0 0 0 0 0 0
Neighs:    51900 ave 51900 max 51900 min
Histogram: 1 0 0 0 0 0 0 0 0 0

Total # of neighbors = 51900
Ave neighs/atom = 57.6667
Neighbor list builds = 0
Dangerous builds = 0
Reading restart file ...
  restart file = 13 Jan 2016, LAMMPS = 13 Jan 2016
  triclinic box = (0.170048 0.147265 -0.0306847) to (28.4678 24.6538 46.7961) with tilt (14.1489 0 0)
WARNING: Triclinic box skew is large (../domain.cpp:185)
  1 by 1 by 1 MPI processor grid
  900 atoms
Changing box ...
WARNING: Triclinic box skew is large (../domain.cpp:185)
  triclinic box = (0.170048 0.147265 -0.0306847) to (28.4678 24.6538 46.7961) with tilt (14.1489 0 -4.68267e-05)
Neighbor list info ...
  1 neighbor list requests
  update every 1 steps, delay 0 steps, check yes
  max neighbors/atom: 2000, page size: 100000
  master list distance cutoff = 7.72488
  ghost atom cutoff = 7.72488
Setting up cg style minimization ...
  Unit style: metal
Memory usage per processor = 3.38681 Mbytes
Step Temp Press CPU Pxx Pyy Pzz Pxy Pxz Pyz KinEng PotEng TotEng Volume Lx Ly Lz Atoms 
     164            0 2.1732382e-07            0 0.0083739529 -0.0083737442 4.4320939e-07 -1.6052269e-06 -1.4442987e-07   0.12591249            0   -2972.5577   -2972.5577    32473.398    28.297729    24.506552    46.826741      900 
     165            0 2.1737446e-07 0.0091280937  0.008373953 -0.0083737441 4.4323148e-07 -1.6052485e-06 -1.4442964e-07   0.12591249            0   -2972.5577   -2972.5577    32473.398    28.297729    24.506552    46.826741      900 
Loop time of 0.00914598 on 1 procs for 1 steps with 900 atoms

87.5% CPU use with 1 MPI tasks x no OpenMP threads

Minimization stats:
  Stopping criterion = linesearch alpha is zero
  Energy initial, next-to-last, final = 
        -2972.55768348     -2972.55768348     -2972.55768348
  Force two-norm initial, final = 1.99394e-05 1.99394e-05
  Force max component initial, final = 1.40117e-06 1.40117e-06
  Final line search alpha, max atom move = 0.5 7.00587e-07
  Iterations, force evaluations = 1 2

MPI task timing breakdown:
Section |  min time  |  avg time  |  max time  |%varavg| %total
---------------------------------------------------------------
Pair    | 0.0090349  | 0.0090349  | 0.0090349  |   0.0 | 98.79
Neigh   | 0          | 0          | 0          |   0.0 |  0.00
Comm    | 3.171e-05  | 3.171e-05  | 3.171e-05  |   0.0 |  0.35
Output  | 0          | 0          | 0          |   0.0 |  0.00
Modify  | 0          | 0          | 0          |   0.0 |  0.00
Other   |            | 7.939e-05  |            |       |  0.87

Nlocal:    900 ave 900 max 900 min
Histogram: 1 0 0 0 0 0 0 0 0 0
Nghost:    1503 ave 1503 max 1503 min
Histogram: 1 0 0 0 0 0 0 0 0 0
Neighs:    51900 ave 51900 max 51900 min
Histogram: 1 0 0 0 0 0 0 0 0 0

Total # of neighbors = 51900
Ave neighs/atom = 57.6667
Neighbor list builds = 0
Dangerous builds = 0
Reading restart file ...
  restart file = 13 Jan 2016, LAMMPS = 13 Jan 2016
  triclinic box = (0.170048 0.147265 -0.0306847) to (28.4678 24.6538 46.7961) with tilt (14.1489 0 0)
WARNING: Triclinic box skew is large (../domain.cpp:185)
  1 by 1 by 1 MPI processor grid
  900 atoms
Changing box ...
WARNING: Triclinic box skew is large (../domain.cpp:185)
  triclinic box = (0.170048 0.147265 -0.0306847) to (28.4678 24.6538 46.7961) with tilt (14.1489 0 4.68267e-05)
Neighbor list info ...
  1 neighbor list requests
  update every 1 steps, delay 0 steps, check yes
  max neighbors/atom: 2000, page size: 100000
  master list distance cutoff = 7.72488
  ghost atom cutoff = 7.72488
Setting up cg style minimization ...
  Unit style: metal
Memory usage per processor = 3.38681 Mbytes
Step Temp Press CPU Pxx Pyy Pzz Pxy Pxz Pyz KinEng PotEng TotEng Volume Lx Ly Lz Atoms 
     164            0 2.1733329e-07            0 -0.0083737897 0.0083739985 4.4321407e-07 -1.6052136e-06 -1.4444743e-07  -0.12591262            0   -2972.5577   -2972.5577    32473.398    28.297729    24.506552    46.826741      900 
     165            0 3.5037144e-08 0.0030810833 -0.0051661771 0.0051661442 1.3802213e-07 -1.6046021e-06 -1.3560645e-07  -0.10629656            0   -2972.5577   -2972.5577    32473.398    28.297729    24.506552    46.826741      900 
     166            0 2.2533141e-07 0.0061650276 -0.0048961064 0.0048963213 4.6113563e-07 -1.6045342e-06 -1.280011e-07 -0.097364423            0   -2972.5577   -2972.5577    32473.398    28.297729    24.506552    46.826741      900 
     167            0 2.2533141e-07  0.015310049 -0.0048961064 0.0048963213 4.6113563e-07 -1.6045342e-06 -1.280011e-07 -0.097364423            0   -2972.5577   -2972.5577    32473.398    28.297729    24.506552    46.826741      900 
Loop time of 0.015327 on 1 procs for 3 steps with 900 atoms

78.3% CPU use with 1 MPI tasks x no OpenMP threads

Minimization stats:
  Stopping criterion = linesearch alpha is zero
  Energy initial, next-to-last, final = 
        -2972.55768348     -2972.55768349     -2972.55768349
  Force two-norm initial, final = 1.99395e-05 1.10667e-05
  Force max component initial, final = 1.40118e-06 6.24634e-07
  Final line search alpha, max atom move = 0.5 3.12317e-07
  Iterations, force evaluations = 3 4

MPI task timing breakdown:
Section |  min time  |  avg time  |  max time  |%varavg| %total
---------------------------------------------------------------
Pair    | 0.015065   | 0.015065   | 0.015065   |   0.0 | 98.29
Neigh   | 0          | 0          | 0          |   0.0 |  0.00
Comm    | 5.7697e-05 | 5.7697e-05 | 5.7697e-05 |   0.0 |  0.38
Output  | 5.9128e-05 | 5.9128e-05 | 5.9128e-05 |   0.0 |  0.39
Modify  | 0          | 0          | 0          |   0.0 |  0.00
Other   |            | 0.0001454  |            |       |  0.95

Nlocal:    900 ave 900 max 900 min
Histogram: 1 0 0 0 0 0 0 0 0 0
Nghost:    1503 ave 1503 max 1503 min
Histogram: 1 0 0 0 0 0 0 0 0 0
Neighs:    51900 ave 51900 max 51900 min
Histogram: 1 0 0 0 0 0 0 0 0 0

Total # of neighbors = 51900
Ave neighs/atom = 57.6667
Neighbor list builds = 0
Dangerous builds = 0
Reading restart file ...
  restart file = 13 Jan 2016, LAMMPS = 13 Jan 2016
  triclinic box = (0.170048 0.147265 -0.0306847) to (28.4678 24.6538 46.7961) with tilt (14.1489 0 0)
WARNING: Triclinic box skew is large (../domain.cpp:185)
  1 by 1 by 1 MPI processor grid
  900 atoms
Changing box ...
WARNING: Triclinic box skew is large (../domain.cpp:185)
  triclinic box = (0.170048 0.147265 -0.0306847) to (28.4678 24.6538 46.7961) with tilt (14.1489 -4.68267e-05 0)
Neighbor list info ...
  1 neighbor list requests
  update every 1 steps, delay 0 steps, check yes
  max neighbors/atom: 2000, page size: 100000
  master list distance cutoff = 7.72488
  ghost atom cutoff = 7.72488
Setting up cg style minimization ...
  Unit style: metal
Memory usage per processor = 3.38681 Mbytes
Step Temp Press CPU Pxx Pyy Pzz Pxy Pxz Pyz KinEng PotEng TotEng Volume Lx Ly Lz Atoms 
     164            0 2.1732939e-07            0 1.3078356e-07 7.7999664e-08 4.4320494e-07 0.0083722661   0.12591241 2.1300258e-07            0   -2972.5577   -2972.5577    32473.398    28.297729    24.506552    46.826741      900 
     165            0 3.5024572e-08 0.0035731792 2.8546494e-09 -3.5777109e-08 1.3799617e-07 0.0051645403   0.10629643 1.3557696e-07            0   -2972.5577   -2972.5577    32473.398    28.297729    24.506552    46.826741      900 
     166            0 2.2534242e-07 0.0067200661 1.3453369e-07 8.0339966e-08 4.6115361e-07 0.0048945864  0.097364292 1.4109153e-07            0   -2972.5577   -2972.5577    32473.398    28.297729    24.506552    46.826741      900 
     167            0 2.2534242e-07  0.015957117 1.3453369e-07 8.0339966e-08 4.6115361e-07 0.0048945864  0.097364292 1.4109153e-07            0   -2972.5577   -2972.5577    32473.398    28.297729    24.506552    46.826741      900 
Loop time of 0.015974 on 1 procs for 3 steps with 900 atoms

100.2% CPU use with 1 MPI tasks x no OpenMP threads

Minimization stats:
  Stopping criterion = linesearch alpha is zero
  Energy initial, next-to-last, final = 
        -2972.55768348     -2972.55768349     -2972.55768349
  Force two-norm initial, final = 1.99395e-05 1.10667e-05
  Force max component initial, final = 1.40118e-06 6.24547e-07
  Final line search alpha, max atom move = 0.5 3.12273e-07
  Iterations, force evaluations = 3 4

MPI task timing breakdown:
Section |  min time  |  avg time  |  max time  |%varavg| %total
---------------------------------------------------------------
Pair    | 0.015695   | 0.015695   | 0.015695   |   0.0 | 98.25
Neigh   | 0          | 0          | 0          |   0.0 |  0.00
Comm    | 5.9605e-05 | 5.9605e-05 | 5.9605e-05 |   0.0 |  0.37
Output  | 6.8188e-05 | 6.8188e-05 | 6.8188e-05 |   0.0 |  0.43
Modify  | 0          | 0          | 0          |   0.0 |  0.00
Other   |            | 0.0001514  |            |       |  0.95

Nlocal:    900 ave 900 max 900 min
Histogram: 1 0 0 0 0 0 0 0 0 0
Nghost:    1503 ave 1503 max 1503 min
Histogram: 1 0 0 0 0 0 0 0 0 0
Neighs:    51900 ave 51900 max 51900 min
Histogram: 1 0 0 0 0 0 0 0 0 0

Total # of neighbors = 51900
Ave neighs/atom = 57.6667
Neighbor list builds = 0
Dangerous builds = 0
Reading restart file ...
  restart file = 13 Jan 2016, LAMMPS = 13 Jan 2016
  triclinic box = (0.170048 0.147265 -0.0306847) to (28.4678 24.6538 46.7961) with tilt (14.1489 0 0)
WARNING: Triclinic box skew is large (../domain.cpp:185)
  1 by 1 by 1 MPI processor grid
  900 atoms
Changing box ...
WARNING: Triclinic box skew is large (../domain.cpp:185)
  triclinic box = (0.170048 0.147265 -0.0306847) to (28.4678 24.6538 46.7961) with tilt (14.1489 4.68267e-05 0)
Neighbor list info ...
  1 neighbor list requests
  update every 1 steps, delay 0 steps, check yes
  max neighbors/atom: 2000, page size: 100000
  master list distance cutoff = 7.72488
  ghost atom cutoff = 7.72488
Setting up cg style minimization ...
  Unit style: metal
Memory usage per processor = 3.38681 Mbytes
Step Temp Press CPU Pxx Pyy Pzz Pxy Pxz Pyz KinEng PotEng TotEng Volume Lx Ly Lz Atoms 
     164            0 2.1734069e-07            0 1.3079777e-07 7.8013787e-08 4.4321051e-07 -0.0083754766   -0.1259127 2.1299641e-07            0   -2972.5577   -2972.5577    32473.398    28.297729    24.506552    46.826741      900 
     165            0 3.5039636e-08 0.0031270981 2.8673815e-09 -3.5758938e-08 1.3801046e-07 -0.0051677495   -0.1062967 1.3558164e-07            0   -2972.5577   -2972.5577    32473.398    28.297729    24.506552    46.826741      900 
     166            0 3.5039636e-08  0.012374163 2.8673815e-09 -3.5758938e-08 1.3801046e-07 -0.0051677495   -0.1062967 1.3558164e-07            0   -2972.5577   -2972.5577    32473.398    28.297729    24.506552    46.826741      900 
Loop time of 0.0123911 on 1 procs for 2 steps with 900 atoms

129.1% CPU use with 1 MPI tasks x no OpenMP threads

Minimization stats:
  Stopping criterion = linesearch alpha is zero
  Energy initial, next-to-last, final = 
        -2972.55768348     -2972.55768349     -2972.55768349
  Force two-norm initial, final = 1.99395e-05 1.30354e-05
  Force max component initial, final = 1.40118e-06 6.72258e-07
  Final line search alpha, max atom move = 0.5 3.36129e-07
  Iterations, force evaluations = 2 3

MPI task timing breakdown:
Section |  min time  |  avg time  |  max time  |%varavg| %total
---------------------------------------------------------------
Pair    | 0.012205   | 0.012205   | 0.012205   |   0.0 | 98.50
Neigh   | 0          | 0          | 0          |   0.0 |  0.00
Comm    | 4.5061e-05 | 4.5061e-05 | 4.5061e-05 |   0.0 |  0.36
Output  | 3.0994e-05 | 3.0994e-05 | 3.0994e-05 |   0.0 |  0.25
Modify  | 0          | 0          | 0          |   0.0 |  0.00
Other   |            | 0.0001101  |            |       |  0.89

Nlocal:    900 ave 900 max 900 min
Histogram: 1 0 0 0 0 0 0 0 0 0
Nghost:    1503 ave 1503 max 1503 min
Histogram: 1 0 0 0 0 0 0 0 0 0
Neighs:    51900 ave 51900 max 51900 min
Histogram: 1 0 0 0 0 0 0 0 0 0

Total # of neighbors = 51900
Ave neighs/atom = 57.6667
Neighbor list builds = 0
Dangerous builds = 0
Reading restart file ...
  restart file = 13 Jan 2016, LAMMPS = 13 Jan 2016
  triclinic box = (0.170048 0.147265 -0.0306847) to (28.4678 24.6538 46.7961) with tilt (14.1489 0 0)
WARNING: Triclinic box skew is large (../domain.cpp:185)
  1 by 1 by 1 MPI processor grid
  900 atoms
Changing box ...
  triclinic box = (0.170048 0.147265 -0.0306847) to (28.4678 24.6538 46.7961) with tilt (14.1488 0 0)
Neighbor list info ...
  1 neighbor list requests
  update every 1 steps, delay 0 steps, check yes
  max neighbors/atom: 2000, page size: 100000
  master list distance cutoff = 7.72488
  ghost atom cutoff = 7.72488
Setting up cg style minimization ...
  Unit style: metal
Memory usage per processor = 3.38681 Mbytes
Step Temp Press CPU Pxx Pyy Pzz Pxy Pxz Pyz KinEng PotEng TotEng Volume Lx Ly Lz Atoms 
     164            0 2.4795557e-07            0 1.2073277e-07 5.4819906e-07 7.4934876e-08    0.1550556 0.0083737269 9.0913137e-08            0   -2972.5577   -2972.5577    32473.398    28.297729    24.506552    46.826741      900 
     165            0 1.8695713e-07  0.006100893 7.7329116e-08 5.1036853e-07 -2.6826262e-08   0.15433143 0.0056816478 8.2672553e-08            0   -2972.5577   -2972.5577    32473.398    28.297729    24.506552    46.826741      900 
     166            0 3.7028487e-07 0.0091879368 1.7902643e-07 6.1124649e-07 3.2058169e-07   0.15422261 0.0045349259 7.804575e-08            0   -2972.5577   -2972.5577    32473.398    28.297729    24.506552    46.826741      900 
     167            0 3.7028487e-07  0.018306017 1.7902643e-07 6.1124649e-07 3.2058169e-07   0.15422261 0.0045349259 7.804575e-08            0   -2972.5577   -2972.5577    32473.398    28.297729    24.506552    46.826741      900 
Loop time of 0.0183229 on 1 procs for 3 steps with 900 atoms

109.2% CPU use with 1 MPI tasks x no OpenMP threads

Minimization stats:
  Stopping criterion = linesearch alpha is zero
  Energy initial, next-to-last, final = 
        -2972.55768348     -2972.55768348     -2972.55768348
  Force two-norm initial, final = 4.18198e-06 7.43794e-07
  Force max component initial, final = 2.36805e-07 2.962e-08
  Final line search alpha, max atom move = 0.5 1.481e-08
  Iterations, force evaluations = 3 5

MPI task timing breakdown:
Section |  min time  |  avg time  |  max time  |%varavg| %total
---------------------------------------------------------------
Pair    | 0.018039   | 0.018039   | 0.018039   |   0.0 | 98.45
Neigh   | 0          | 0          | 0          |   0.0 |  0.00
Comm    | 6.6996e-05 | 6.6996e-05 | 6.6996e-05 |   0.0 |  0.37
Output  | 5.9843e-05 | 5.9843e-05 | 5.9843e-05 |   0.0 |  0.33
Modify  | 0          | 0          | 0          |   0.0 |  0.00
Other   |            | 0.0001571  |            |       |  0.86

Nlocal:    900 ave 900 max 900 min
Histogram: 1 0 0 0 0 0 0 0 0 0
Nghost:    1503 ave 1503 max 1503 min
Histogram: 1 0 0 0 0 0 0 0 0 0
Neighs:    51900 ave 51900 max 51900 min
Histogram: 1 0 0 0 0 0 0 0 0 0

Total # of neighbors = 51900
Ave neighs/atom = 57.6667
Neighbor list builds = 0
Dangerous builds = 0
Reading restart file ...
  restart file = 13 Jan 2016, LAMMPS = 13 Jan 2016
  triclinic box = (0.170048 0.147265 -0.0306847) to (28.4678 24.6538 46.7961) with tilt (14.1489 0 0)
WARNING: Triclinic box skew is large (../domain.cpp:185)
  1 by 1 by 1 MPI processor grid
  900 atoms
Changing box ...
WARNING: Triclinic box skew is large (../domain.cpp:185)
  triclinic box = (0.170048 0.147265 -0.0306847) to (28.4678 24.6538 46.7961) with tilt (14.1489 0 0)
Neighbor list info ...
  1 neighbor list requests
  update every 1 steps, delay 0 steps, check yes
  max neighbors/atom: 2000, page size: 100000
  master list distance cutoff = 7.72488
  ghost atom cutoff = 7.72488
Setting up cg style minimization ...
  Unit style: metal
Memory usage per processor = 3.38681 Mbytes
Step Temp Press CPU Pxx Pyy Pzz Pxy Pxz Pyz KinEng PotEng TotEng Volume Lx Ly Lz Atoms 
     164            0 2.4796346e-07            0 1.2074371e-07 5.4820858e-07 7.4938083e-08  -0.15505881 -0.0083740158 9.0920653e-08            0   -2972.5577   -2972.5577    32473.398    28.297729    24.506552    46.826741      900 
     165            0 1.8696826e-07 0.0061109066 7.731996e-08 5.1042709e-07 -2.6842273e-08  -0.15433464 -0.0056819198 8.267421e-08            0   -2972.5577   -2972.5577    32473.398    28.297729    24.506552    46.826741      900 
     166            0 3.7030694e-07 0.0091919899 1.7903072e-07 6.1127774e-07 3.2061236e-07  -0.15422582 -0.0045351784 7.8046006e-08            0   -2972.5577   -2972.5577    32473.398    28.297729    24.506552    46.826741      900 
     167            0 3.7030694e-07  0.018798828 1.7903072e-07 6.1127774e-07 3.2061236e-07  -0.15422582 -0.0045351784 7.8046006e-08            0   -2972.5577   -2972.5577    32473.398    28.297729    24.506552    46.826741      900 
Loop time of 0.0188189 on 1 procs for 3 steps with 900 atoms

106.3% CPU use with 1 MPI tasks x no OpenMP threads

Minimization stats:
  Stopping criterion = linesearch alpha is zero
  Energy initial, next-to-last, final = 
        -2972.55768348     -2972.55768348     -2972.55768348
  Force two-norm initial, final = 4.18199e-06 7.43814e-07
  Force max component initial, final = 2.36807e-07 2.96181e-08
  Final line search alpha, max atom move = 0.5 1.48091e-08
  Iterations, force evaluations = 3 5

MPI task timing breakdown:
Section |  min time  |  avg time  |  max time  |%varavg| %total
---------------------------------------------------------------
Pair    | 0.018514   | 0.018514   | 0.018514   |   0.0 | 98.38
Neigh   | 0          | 0          | 0          |   0.0 |  0.00
Comm    | 7.0095e-05 | 7.0095e-05 | 7.0095e-05 |   0.0 |  0.37
Output  | 5.9128e-05 | 5.9128e-05 | 5.9128e-05 |   0.0 |  0.31
Modify  | 0          | 0          | 0          |   0.0 |  0.00
Other   |            | 0.0001755  |            |       |  0.93

Nlocal:    900 ave 900 max 900 min
Histogram: 1 0 0 0 0 0 0 0 0 0
Nghost:    1503 ave 1503 max 1503 min
Histogram: 1 0 0 0 0 0 0 0 0 0
Neighs:    51900 ave 51900 max 51900 min
Histogram: 1 0 0 0 0 0 0 0 0 0

Total # of neighbors = 51900
Ave neighs/atom = 57.6667
Neighbor list builds = 0
Dangerous builds = 0
Elastic Constant C11all = 48.7088867762419 GPa
Elastic Constant C22all = 48.7050922998848 GPa
Elastic Constant C33all = -3.80338506876494e-08 GPa
Elastic Constant C12all = 17.8915839991253 GPa
Elastic Constant C13all = 0.0158963857190997 GPa
Elastic Constant C23all = 0.0119465112406395 GPa
Elastic Constant C44all = 11.163845525983 GPa
Elastic Constant C55all = 10.1830495761438 GPa
Elastic Constant C66all = 15.4224212839673 GPa
Elastic Constant C14all = 0.462312050123848 GPa
Elastic Constant C15all = -0.0753758857889096 GPa
Elastic Constant C16all = -4.44782306948432 GPa
Elastic Constant C24all = -0.462222001527051 GPa
Elastic Constant C25all = 2.90226084260525e-06 GPa
Elastic Constant C26all = -1.12758834655199e-09 GPa
Elastic Constant C34all = -4.47491399026194e-07 GPa
Elastic Constant C35all = 8.07873492390915e-06 GPa
Elastic Constant C36all = -5.03554673201476e-10 GPa
Elastic Constant C45all = -2.72966241693075e-07 GPa
Elastic Constant C46all = -1.78636544086995e-08 GPa
Elastic Constant C56all = 0.478311005231321 GPa
Total wall time: 0:00:01
