   8   8   0   0
  0.2072476E+02  0.5493635E-09  0.5493635E-09  0.5493635E-09  0.1500000E-16
  1.000000000000000E-004
  CAR 
 unknown system                          
     17.33666068     -8.19190273 5000      5.79928080      1.00000000
     -8.192  0.0000E+00  0.0000E+00
     -8.187  0.0000E+00  0.0000E+00
     -8.182  0.0000E+00  0.0000E+00
     -8.177  0.0000E+00  0.0000E+00
     -8.171  0.0000E+00  0.0000E+00
     -8.166  0.0000E+00  0.0000E+00
     -8.161  0.0000E+00  0.0000E+00
     -8.156  0.0000E+00  0.0000E+00
     -8.151  0.0000E+00  0.0000E+00
     -8.146  0.0000E+00  0.0000E+00
     -8.141  0.0000E+00  0.0000E+00
     -8.136  0.0000E+00  0.0000E+00
     -8.131  0.0000E+00  0.0000E+00
     -8.126  0.0000E+00  0.0000E+00
     -8.120  0.0000E+00  0.0000E+00
     -8.115  0.0000E+00  0.0000E+00
     -8.110  0.0000E+00  0.0000E+00
     -8.105  0.0000E+00  0.0000E+00
     -8.100  0.0000E+00  0.0000E+00
     -8.095  0.0000E+00  0.0000E+00
     -8.090  0.0000E+00  0.0000E+00
     -8.085  0.0000E+00  0.0000E+00
     -8.080  0.0000E+00  0.0000E+00
     -8.074  0.0000E+00  0.0000E+00
     -8.069  0.0000E+00  0.0000E+00
     -8.064  0.0000E+00  0.0000E+00
     -8.059  0.0000E+00  0.0000E+00
     -8.054  0.0000E+00  0.0000E+00
     -8.049  0.0000E+00  0.0000E+00
     -8.044  0.0000E+00  0.0000E+00
     -8.039  0.0000E+00  0.0000E+00
     -8.034  0.0000E+00  0.0000E+00
     -8.028  0.0000E+00  0.0000E+00
     -8.023  0.0000E+00  0.0000E+00
     -8.018  0.0000E+00  0.0000E+00
     -8.013  0.0000E+00  0.0000E+00
     -8.008  0.0000E+00  0.0000E+00
     -8.003  0.0000E+00  0.0000E+00
     -7.998  0.0000E+00  0.0000E+00
     -7.993  0.0000E+00  0.0000E+00
     -7.988  0.0000E+00  0.0000E+00
     -7.983  0.0000E+00  0.0000E+00
     -7.977  0.0000E+00  0.0000E+00
     -7.972  0.0000E+00  0.0000E+00
     -7.967  0.0000E+00  0.0000E+00
     -7.962  0.0000E+00  0.0000E+00
     -7.957  0.0000E+00  0.0000E+00
     -7.952  0.0000E+00  0.0000E+00
     -7.947  0.0000E+00  0.0000E+00
     -7.942  0.0000E+00  0.0000E+00
     -7.937  0.0000E+00  0.0000E+00
     -7.931  0.0000E+00  0.0000E+00
     -7.926  0.0000E+00  0.0000E+00
     -7.921  0.0000E+00  0.0000E+00
     -7.916  0.0000E+00  0.0000E+00
     -7.911  0.0000E+00  0.0000E+00
     -7.906  0.0000E+00  0.0000E+00
     -7.901  0.0000E+00  0.0000E+00
     -7.896  0.0000E+00  0.0000E+00
     -7.891  0.0000E+00  0.0000E+00
     -7.885  0.0000E+00  0.0000E+00
     -7.880  0.0000E+00  0.0000E+00
     -7.875  0.0000E+00  0.0000E+00
     -7.870  0.0000E+00  0.0000E+00
     -7.865  0.0000E+00  0.0000E+00
     -7.860  0.0000E+00  0.0000E+00
     -7.855  0.0000E+00  0.0000E+00
     -7.850  0.0000E+00  0.0000E+00
     -7.845  0.0000E+00  0.0000E+00
     -7.840  0.0000E+00  0.0000E+00
     -7.834  0.0000E+00  0.0000E+00
     -7.829  0.0000E+00  0.0000E+00
     -7.824  0.0000E+00  0.0000E+00
     -7.819  0.0000E+00  0.0000E+00
     -7.814  0.0000E+00  0.0000E+00
     -7.809  0.0000E+00  0.0000E+00
     -7.804  0.0000E+00  0.0000E+00
     -7.799  0.0000E+00  0.0000E+00
     -7.794  0.0000E+00  0.0000E+00
     -7.788  0.0000E+00  0.0000E+00
     -7.783  0.0000E+00  0.0000E+00
     -7.778  0.0000E+00  0.0000E+00
     -7.773  0.0000E+00  0.0000E+00
     -7.768  0.0000E+00  0.0000E+00
     -7.763  0.0000E+00  0.0000E+00
     -7.758  0.0000E+00  0.0000E+00
     -7.753  0.0000E+00  0.0000E+00
     -7.748  0.0000E+00  0.0000E+00
     -7.743  0.0000E+00  0.0000E+00
     -7.737  0.0000E+00  0.0000E+00
     -7.732  0.0000E+00  0.0000E+00
     -7.727  0.0000E+00  0.0000E+00
     -7.722  0.0000E+00  0.0000E+00
     -7.717  0.0000E+00  0.0000E+00
     -7.712  0.0000E+00  0.0000E+00
     -7.707  0.0000E+00  0.0000E+00
     -7.702  0.0000E+00  0.0000E+00
     -7.697  0.0000E+00  0.0000E+00
     -7.691  0.0000E+00  0.0000E+00
     -7.686  0.0000E+00  0.0000E+00
     -7.681  0.0000E+00  0.0000E+00
     -7.676  0.0000E+00  0.0000E+00
     -7.671  0.0000E+00  0.0000E+00
     -7.666  0.0000E+00  0.0000E+00
     -7.661  0.0000E+00  0.0000E+00
     -7.656  0.0000E+00  0.0000E+00
     -7.651  0.0000E+00  0.0000E+00
     -7.645  0.0000E+00  0.0000E+00
     -7.640  0.0000E+00  0.0000E+00
     -7.635  0.0000E+00  0.0000E+00
     -7.630  0.0000E+00  0.0000E+00
     -7.625  0.0000E+00  0.0000E+00
     -7.620  0.0000E+00  0.0000E+00
     -7.615  0.0000E+00  0.0000E+00
     -7.610  0.0000E+00  0.0000E+00
     -7.605  0.0000E+00  0.0000E+00
     -7.600  0.0000E+00  0.0000E+00
     -7.594  0.0000E+00  0.0000E+00
     -7.589  0.0000E+00  0.0000E+00
     -7.584  0.0000E+00  0.0000E+00
     -7.579  0.0000E+00  0.0000E+00
     -7.574  0.0000E+00  0.0000E+00
     -7.569  0.0000E+00  0.0000E+00
     -7.564  0.0000E+00  0.0000E+00
     -7.559  0.0000E+00  0.0000E+00
     -7.554  0.0000E+00  0.0000E+00
     -7.548  0.0000E+00  0.0000E+00
     -7.543  0.0000E+00  0.0000E+00
     -7.538  0.0000E+00  0.0000E+00
     -7.533  0.0000E+00  0.0000E+00
     -7.528  0.0000E+00  0.0000E+00
     -7.523  0.0000E+00  0.0000E+00
     -7.518  0.0000E+00  0.0000E+00
     -7.513  0.0000E+00  0.0000E+00
     -7.508  0.0000E+00  0.0000E+00
     -7.502  0.0000E+00  0.0000E+00
     -7.497  0.0000E+00  0.0000E+00
     -7.492  0.0000E+00  0.0000E+00
     -7.487  0.0000E+00  0.0000E+00
     -7.482  0.0000E+00  0.0000E+00
     -7.477  0.0000E+00  0.0000E+00
     -7.472  0.0000E+00  0.0000E+00
     -7.467  0.0000E+00  0.0000E+00
     -7.462  0.0000E+00  0.0000E+00
     -7.457  0.0000E+00  0.0000E+00
     -7.451  0.0000E+00  0.0000E+00
     -7.446  0.0000E+00  0.0000E+00
     -7.441  0.0000E+00  0.0000E+00
     -7.436  0.0000E+00  0.0000E+00
     -7.431  0.0000E+00  0.0000E+00
     -7.426  0.0000E+00  0.0000E+00
     -7.421  0.0000E+00  0.0000E+00
     -7.416  0.0000E+00  0.0000E+00
     -7.411  0.0000E+00  0.0000E+00
     -7.405  0.0000E+00  0.0000E+00
     -7.400  0.0000E+00  0.0000E+00
     -7.395  0.0000E+00  0.0000E+00
     -7.390  0.0000E+00  0.0000E+00
     -7.385  0.0000E+00  0.0000E+00
     -7.380  0.0000E+00  0.0000E+00
     -7.375  0.1006E-15  0.5140E-18
     -7.370  0.0000E+00  0.5140E-18
     -7.365  0.0000E+00  0.5140E-18
     -7.360  0.0000E+00  0.5140E-18
     -7.354  0.1006E-15  0.1028E-17
     -7.349  0.0000E+00  0.1028E-17
     -7.344  0.1006E-15  0.1542E-17
     -7.339  0.1006E-15  0.2056E-17
     -7.334  0.2013E-15  0.3084E-17
     -7.329  0.2013E-15  0.4112E-17
     -7.324  0.3019E-15  0.5654E-17
     -7.319  0.4026E-15  0.7710E-17
     -7.314  0.5032E-15  0.1028E-16
     -7.308  0.6039E-15  0.1336E-16
     -7.303  0.9058E-15  0.1799E-16
     -7.298  0.1208E-14  0.2416E-16
     -7.293  0.1510E-14  0.3187E-16
     -7.288  0.2013E-14  0.4215E-16
     -7.283  0.2718E-14  0.5603E-16
     -7.278  0.3623E-14  0.7453E-16
     -7.273  0.4731E-14  0.9869E-16
     -7.268  0.6240E-14  0.1306E-15
     -7.262  0.8253E-14  0.1727E-15
     -7.257  0.1137E-13  0.2308E-15
     -7.252  0.1419E-13  0.3033E-15
     -7.247  0.1862E-13  0.3983E-15
     -7.242  0.2436E-13  0.5227E-15
     -7.237  0.3241E-13  0.6882E-15
     -7.232  0.4157E-13  0.9005E-15
     -7.227  0.5475E-13  0.1180E-14
     -7.222  0.7126E-13  0.1544E-14
     -7.217  0.9300E-13  0.2019E-14
     -7.211  0.1205E-12  0.2634E-14
     -7.206  0.1565E-12  0.3433E-14
     -7.201  0.2022E-12  0.4466E-14
     -7.196  0.2624E-12  0.5806E-14
     -7.191  0.3395E-12  0.7540E-14
     -7.186  0.4373E-12  0.9773E-14
     -7.181  0.5647E-12  0.1266E-13
     -7.176  0.7267E-12  0.1637E-13
     -7.171  0.9346E-12  0.2114E-13
     -7.165  0.1201E-11  0.2727E-13
     -7.160  0.1540E-11  0.3514E-13
     -7.155  0.1973E-11  0.4521E-13
     -7.150  0.2524E-11  0.5810E-13
     -7.145  0.3225E-11  0.7457E-13
     -7.140  0.4116E-11  0.9559E-13
     -7.135  0.5245E-11  0.1224E-12
     -7.130  0.6675E-11  0.1565E-12
     -7.125  0.8486E-11  0.1998E-12
     -7.119  0.1077E-10  0.2548E-12
     -7.114  0.1366E-10  0.3246E-12
     -7.109  0.1729E-10  0.4129E-12
     -7.104  0.2187E-10  0.5246E-12
     -7.099  0.2763E-10  0.6657E-12
     -7.094  0.3485E-10  0.8436E-12
     -7.089  0.4390E-10  0.1068E-11
     -7.084  0.5523E-10  0.1350E-11
     -7.079  0.6940E-10  0.1704E-11
     -7.074  0.8709E-10  0.2149E-11
     -7.068  0.1092E-09  0.2706E-11
     -7.063  0.1366E-09  0.3404E-11
     -7.058  0.1708E-09  0.4276E-11
     -7.053  0.2132E-09  0.5365E-11
     -7.048  0.2659E-09  0.6723E-11
     -7.043  0.3311E-09  0.8414E-11
     -7.038  0.4118E-09  0.1052E-10
     -7.033  0.5115E-09  0.1313E-10
     -7.028  0.6346E-09  0.1637E-10
     -7.022  0.7862E-09  0.2038E-10
     -7.017  0.9728E-09  0.2535E-10
     -7.012  0.1202E-08  0.3149E-10
     -7.007  0.1484E-08  0.3907E-10
     -7.002  0.1829E-08  0.4841E-10
     -6.997  0.2252E-08  0.5991E-10
     -6.992  0.2768E-08  0.7405E-10
     -6.987  0.3400E-08  0.9141E-10
     -6.982  0.4169E-08  0.1127E-09
     -6.977  0.5107E-08  0.1388E-09
     -6.971  0.6247E-08  0.1707E-09
     -6.966  0.7632E-08  0.2096E-09
     -6.961  0.9312E-08  0.2572E-09
     -6.956  0.1135E-07  0.3152E-09
     -6.951  0.1381E-07  0.3857E-09
     -6.946  0.1679E-07  0.4714E-09
     -6.941  0.2038E-07  0.5755E-09
     -6.936  0.2472E-07  0.7018E-09
     -6.931  0.2993E-07  0.8546E-09
     -6.925  0.3620E-07  0.1039E-08
     -6.920  0.4373E-07  0.1263E-08
     -6.915  0.5275E-07  0.1532E-08
     -6.910  0.6356E-07  0.1857E-08
     -6.905  0.7649E-07  0.2247E-08
     -6.900  0.9194E-07  0.2717E-08
     -6.895  0.1104E-06  0.3281E-08
     -6.890  0.1323E-06  0.3956E-08
     -6.885  0.1584E-06  0.4765E-08
     -6.879  0.1895E-06  0.5733E-08
     -6.874  0.2263E-06  0.6889E-08
     -6.869  0.2700E-06  0.8267E-08
     -6.864  0.3217E-06  0.9910E-08
     -6.859  0.3828E-06  0.1187E-07
     -6.854  0.4550E-06  0.1419E-07
     -6.849  0.5401E-06  0.1695E-07
     -6.844  0.6403E-06  0.2022E-07
     -6.839  0.7582E-06  0.2409E-07
     -6.834  0.8967E-06  0.2867E-07
     -6.828  0.1059E-05  0.3408E-07
     -6.823  0.1250E-05  0.4046E-07
     -6.818  0.1473E-05  0.4798E-07
     -6.813  0.1733E-05  0.5683E-07
     -6.808  0.2037E-05  0.6723E-07
     -6.803  0.2392E-05  0.7945E-07
     -6.798  0.2805E-05  0.9377E-07
     -6.793  0.3285E-05  0.1105E-06
     -6.788  0.3843E-05  0.1302E-06
     -6.782  0.4490E-05  0.1531E-06
     -6.777  0.5239E-05  0.1799E-06
     -6.772  0.6107E-05  0.2110E-06
     -6.767  0.7109E-05  0.2473E-06
     -6.762  0.8267E-05  0.2896E-06
     -6.757  0.9601E-05  0.3386E-06
     -6.752  0.1114E-04  0.3955E-06
     -6.747  0.1290E-04  0.4614E-06
     -6.742  0.1493E-04  0.5376E-06
     -6.736  0.1726E-04  0.6258E-06
     -6.731  0.1993E-04  0.7276E-06
     -6.726  0.2298E-04  0.8449E-06
     -6.721  0.2647E-04  0.9801E-06
     -6.716  0.3045E-04  0.1136E-05
     -6.711  0.3500E-04  0.1314E-05
     -6.706  0.4017E-04  0.1519E-05
     -6.701  0.4605E-04  0.1755E-05
     -6.696  0.5274E-04  0.2024E-05
     -6.691  0.6032E-04  0.2332E-05
     -6.685  0.6892E-04  0.2684E-05
     -6.680  0.7865E-04  0.3086E-05
     -6.675  0.8966E-04  0.3543E-05
     -6.670  0.1021E-03  0.4065E-05
     -6.665  0.1161E-03  0.4658E-05
     -6.660  0.1319E-03  0.5331E-05
     -6.655  0.1497E-03  0.6096E-05
     -6.650  0.1696E-03  0.6962E-05
     -6.645  0.1921E-03  0.7943E-05
     -6.639  0.2172E-03  0.9052E-05
     -6.634  0.2454E-03  0.1031E-04
     -6.629  0.2769E-03  0.1172E-04
     -6.624  0.3121E-03  0.1331E-04
     -6.619  0.3514E-03  0.1511E-04
     -6.614  0.3953E-03  0.1713E-04
     -6.609  0.4441E-03  0.1939E-04
     -6.604  0.4984E-03  0.2194E-04
     -6.599  0.5587E-03  0.2479E-04
     -6.593  0.6257E-03  0.2799E-04
     -6.588  0.6999E-03  0.3156E-04
     -6.583  0.7821E-03  0.3556E-04
     -6.578  0.8730E-03  0.4001E-04
     -6.573  0.9735E-03  0.4499E-04
     -6.568  0.1084E-02  0.5052E-04
     -6.563  0.1207E-02  0.5669E-04
     -6.558  0.1341E-02  0.6353E-04
     -6.553  0.1489E-02  0.7114E-04
     -6.548  0.1652E-02  0.7958E-04
     -6.542  0.1831E-02  0.8893E-04
     -6.537  0.2026E-02  0.9927E-04
     -6.532  0.2241E-02  0.1107E-03
     -6.527  0.2475E-02  0.1234E-03
     -6.522  0.2732E-02  0.1373E-03
     -6.517  0.3012E-02  0.1527E-03
     -6.512  0.3317E-02  0.1696E-03
     -6.507  0.3650E-02  0.1883E-03
     -6.502  0.4011E-02  0.2088E-03
     -6.496  0.4405E-02  0.2312E-03
     -6.491  0.4832E-02  0.2559E-03
     -6.486  0.5295E-02  0.2830E-03
     -6.481  0.5797E-02  0.3126E-03
     -6.476  0.6341E-02  0.3450E-03
     -6.471  0.6929E-02  0.3803E-03
     -6.466  0.7563E-02  0.4190E-03
     -6.461  0.8248E-02  0.4611E-03
     -6.456  0.8987E-02  0.5070E-03
     -6.451  0.9782E-02  0.5569E-03
     -6.445  0.1064E-01  0.6113E-03
     -6.440  0.1156E-01  0.6703E-03
     -6.435  0.1254E-01  0.7343E-03
     -6.430  0.1360E-01  0.8038E-03
     -6.425  0.1474E-01  0.8791E-03
     -6.420  0.1595E-01  0.9605E-03
     -6.415  0.1725E-01  0.1049E-02
     -6.410  0.1863E-01  0.1144E-02
     -6.405  0.2011E-01  0.1246E-02
     -6.399  0.2169E-01  0.1357E-02
     -6.394  0.2337E-01  0.1477E-02
     -6.389  0.2515E-01  0.1605E-02
     -6.384  0.2705E-01  0.1743E-02
     -6.379  0.2907E-01  0.1892E-02
     -6.374  0.3120E-01  0.2051E-02
     -6.369  0.3347E-01  0.2222E-02
     -6.364  0.3586E-01  0.2405E-02
     -6.359  0.3840E-01  0.2601E-02
     -6.353  0.4107E-01  0.2811E-02
     -6.348  0.4389E-01  0.3035E-02
     -6.343  0.4687E-01  0.3274E-02
     -6.338  0.5001E-01  0.3530E-02
     -6.333  0.5330E-01  0.3802E-02
     -6.328  0.5677E-01  0.4092E-02
     -6.323  0.6041E-01  0.4400E-02
     -6.318  0.6422E-01  0.4728E-02
     -6.313  0.6822E-01  0.5077E-02
     -6.308  0.7241E-01  0.5446E-02
     -6.302  0.7678E-01  0.5838E-02
     -6.297  0.8135E-01  0.6254E-02
     -6.292  0.8612E-01  0.6694E-02
     -6.287  0.9109E-01  0.7159E-02
     -6.282  0.9627E-01  0.7651E-02
     -6.277  0.1017E+00  0.8170E-02
     -6.272  0.1073E+00  0.8717E-02
     -6.267  0.1131E+00  0.9295E-02
     -6.262  0.1191E+00  0.9903E-02
     -6.256  0.1253E+00  0.1054E-01
     -6.251  0.1318E+00  0.1122E-01
     -6.246  0.1385E+00  0.1192E-01
     -6.241  0.1453E+00  0.1267E-01
     -6.236  0.1525E+00  0.1344E-01
     -6.231  0.1598E+00  0.1426E-01
     -6.226  0.1673E+00  0.1511E-01
     -6.221  0.1751E+00  0.1601E-01
     -6.216  0.1830E+00  0.1694E-01
     -6.210  0.1912E+00  0.1792E-01
     -6.205  0.1996E+00  0.1894E-01
     -6.200  0.2081E+00  0.2000E-01
     -6.195  0.2169E+00  0.2111E-01
     -6.190  0.2259E+00  0.2226E-01
     -6.185  0.2350E+00  0.2346E-01
     -6.180  0.2443E+00  0.2471E-01
     -6.175  0.2537E+00  0.2601E-01
     -6.170  0.2634E+00  0.2735E-01
     -6.165  0.2731E+00  0.2875E-01
     -6.159  0.2830E+00  0.3019E-01
     -6.154  0.2931E+00  0.3169E-01
     -6.149  0.3032E+00  0.3324E-01
     -6.144  0.3135E+00  0.3484E-01
     -6.139  0.3238E+00  0.3649E-01
     -6.134  0.3343E+00  0.3820E-01
     -6.129  0.3448E+00  0.3996E-01
     -6.124  0.3554E+00  0.4177E-01
     -6.119  0.3660E+00  0.4364E-01
     -6.113  0.3766E+00  0.4557E-01
     -6.108  0.3873E+00  0.4754E-01
     -6.103  0.3979E+00  0.4958E-01
     -6.098  0.4086E+00  0.5166E-01
     -6.093  0.4192E+00  0.5380E-01
     -6.088  0.4298E+00  0.5600E-01
     -6.083  0.4403E+00  0.5825E-01
     -6.078  0.4508E+00  0.6055E-01
     -6.073  0.4612E+00  0.6290E-01
     -6.068  0.4715E+00  0.6531E-01
     -6.062  0.4817E+00  0.6777E-01
     -6.057  0.4917E+00  0.7028E-01
     -6.052  0.5017E+00  0.7284E-01
     -6.047  0.5114E+00  0.7546E-01
     -6.042  0.5211E+00  0.7812E-01
     -6.037  0.5305E+00  0.8083E-01
     -6.032  0.5398E+00  0.8358E-01
     -6.027  0.5489E+00  0.8639E-01
     -6.022  0.5579E+00  0.8924E-01
     -6.016  0.5666E+00  0.9213E-01
     -6.011  0.5751E+00  0.9507E-01
     -6.006  0.5834E+00  0.9804E-01
     -6.001  0.5915E+00  0.1011E+00
     -5.996  0.5994E+00  0.1041E+00
     -5.991  0.6071E+00  0.1072E+00
     -5.986  0.6145E+00  0.1104E+00
     -5.981  0.6217E+00  0.1135E+00
     -5.976  0.6288E+00  0.1168E+00
     -5.970  0.6356E+00  0.1200E+00
     -5.965  0.6422E+00  0.1233E+00
     -5.960  0.6487E+00  0.1266E+00
     -5.955  0.6549E+00  0.1299E+00
     -5.950  0.6610E+00  0.1333E+00
     -5.945  0.6669E+00  0.1367E+00
     -5.940  0.6727E+00  0.1401E+00
     -5.935  0.6783E+00  0.1436E+00
     -5.930  0.6838E+00  0.1471E+00
     -5.925  0.6892E+00  0.1506E+00
     -5.919  0.6945E+00  0.1542E+00
     -5.914  0.6997E+00  0.1577E+00
     -5.909  0.7049E+00  0.1613E+00
     -5.904  0.7101E+00  0.1650E+00
     -5.899  0.7152E+00  0.1686E+00
     -5.894  0.7203E+00  0.1723E+00
     -5.889  0.7255E+00  0.1760E+00
     -5.884  0.7307E+00  0.1797E+00
     -5.879  0.7361E+00  0.1835E+00
     -5.873  0.7415E+00  0.1873E+00
     -5.868  0.7470E+00  0.1911E+00
     -5.863  0.7527E+00  0.1949E+00
     -5.858  0.7585E+00  0.1988E+00
     -5.853  0.7645E+00  0.2027E+00
     -5.848  0.7708E+00  0.2067E+00
     -5.843  0.7772E+00  0.2106E+00
     -5.838  0.7839E+00  0.2146E+00
     -5.833  0.7909E+00  0.2187E+00
     -5.827  0.7981E+00  0.2227E+00
     -5.822  0.8057E+00  0.2269E+00
     -5.817  0.8136E+00  0.2310E+00
     -5.812  0.8217E+00  0.2352E+00
     -5.807  0.8303E+00  0.2394E+00
     -5.802  0.8391E+00  0.2437E+00
     -5.797  0.8484E+00  0.2481E+00
     -5.792  0.8579E+00  0.2524E+00
     -5.787  0.8679E+00  0.2569E+00
     -5.782  0.8782E+00  0.2614E+00
     -5.776  0.8888E+00  0.2659E+00
     -5.771  0.8998E+00  0.2705E+00
     -5.766  0.9111E+00  0.2751E+00
     -5.761  0.9228E+00  0.2799E+00
     -5.756  0.9348E+00  0.2846E+00
     -5.751  0.9471E+00  0.2895E+00
     -5.746  0.9597E+00  0.2944E+00
     -5.741  0.9726E+00  0.2993E+00
     -5.736  0.9857E+00  0.3044E+00
     -5.730  0.9991E+00  0.3095E+00
     -5.725  0.1013E+01  0.3146E+00
     -5.720  0.1026E+01  0.3199E+00
     -5.715  0.1040E+01  0.3252E+00
     -5.710  0.1054E+01  0.3306E+00
     -5.705  0.1068E+01  0.3360E+00
     -5.700  0.1082E+01  0.3416E+00
     -5.695  0.1096E+01  0.3472E+00
     -5.690  0.1110E+01  0.3528E+00
     -5.684  0.1124E+01  0.3586E+00
     -5.679  0.1138E+01  0.3644E+00
     -5.674  0.1152E+01  0.3703E+00
     -5.669  0.1165E+01  0.3762E+00
     -5.664  0.1178E+01  0.3822E+00
     -5.659  0.1191E+01  0.3883E+00
     -5.654  0.1204E+01  0.3945E+00
     -5.649  0.1216E+01  0.4007E+00
     -5.644  0.1228E+01  0.4069E+00
     -5.639  0.1239E+01  0.4133E+00
     -5.633  0.1250E+01  0.4197E+00
     -5.628  0.1260E+01  0.4261E+00
     -5.623  0.1270E+01  0.4326E+00
     -5.618  0.1279E+01  0.4391E+00
     -5.613  0.1287E+01  0.4457E+00
     -5.608  0.1295E+01  0.4523E+00
     -5.603  0.1302E+01  0.4589E+00
     -5.598  0.1308E+01  0.4656E+00
     -5.593  0.1314E+01  0.4723E+00
     -5.587  0.1319E+01  0.4791E+00
     -5.582  0.1323E+01  0.4858E+00
     -5.577  0.1326E+01  0.4926E+00
     -5.572  0.1329E+01  0.4994E+00
     -5.567  0.1331E+01  0.5062E+00
     -5.562  0.1332E+01  0.5130E+00
     -5.557  0.1332E+01  0.5198E+00
     -5.552  0.1332E+01  0.5266E+00
     -5.547  0.1331E+01  0.5334E+00
     -5.542  0.1329E+01  0.5402E+00
     -5.536  0.1326E+01  0.5469E+00
     -5.531  0.1323E+01  0.5537E+00
     -5.526  0.1319E+01  0.5604E+00
     -5.521  0.1314E+01  0.5671E+00
     -5.516  0.1309E+01  0.5738E+00
     -5.511  0.1303E+01  0.5805E+00
     -5.506  0.1297E+01  0.5871E+00
     -5.501  0.1290E+01  0.5937E+00
     -5.496  0.1283E+01  0.6002E+00
     -5.490  0.1276E+01  0.6068E+00
     -5.485  0.1268E+01  0.6132E+00
     -5.480  0.1260E+01  0.6197E+00
     -5.475  0.1252E+01  0.6261E+00
     -5.470  0.1244E+01  0.6324E+00
     -5.465  0.1235E+01  0.6387E+00
     -5.460  0.1227E+01  0.6450E+00
     -5.455  0.1219E+01  0.6512E+00
     -5.450  0.1211E+01  0.6574E+00
     -5.444  0.1202E+01  0.6635E+00
     -5.439  0.1195E+01  0.6696E+00
     -5.434  0.1187E+01  0.6757E+00
     -5.429  0.1180E+01  0.6817E+00
     -5.424  0.1173E+01  0.6877E+00
     -5.419  0.1167E+01  0.6937E+00
     -5.414  0.1161E+01  0.6996E+00
     -5.409  0.1156E+01  0.7055E+00
     -5.404  0.1151E+01  0.7114E+00
     -5.399  0.1147E+01  0.7172E+00
     -5.393  0.1143E+01  0.7231E+00
     -5.388  0.1141E+01  0.7289E+00
     -5.383  0.1139E+01  0.7347E+00
     -5.378  0.1138E+01  0.7405E+00
     -5.373  0.1137E+01  0.7463E+00
     -5.368  0.1138E+01  0.7521E+00
     -5.363  0.1139E+01  0.7580E+00
     -5.358  0.1142E+01  0.7638E+00
     -5.353  0.1145E+01  0.7696E+00
     -5.347  0.1149E+01  0.7755E+00
     -5.342  0.1154E+01  0.7814E+00
     -5.337  0.1159E+01  0.7873E+00
     -5.332  0.1166E+01  0.7933E+00
     -5.327  0.1173E+01  0.7993E+00
     -5.322  0.1182E+01  0.8053E+00
     -5.317  0.1191E+01  0.8114E+00
     -5.312  0.1201E+01  0.8175E+00
     -5.307  0.1212E+01  0.8237E+00
     -5.301  0.1223E+01  0.8299E+00
     -5.296  0.1235E+01  0.8363E+00
     -5.291  0.1248E+01  0.8426E+00
     -5.286  0.1262E+01  0.8491E+00
     -5.281  0.1276E+01  0.8556E+00
     -5.276  0.1291E+01  0.8622E+00
     -5.271  0.1306E+01  0.8689E+00
     -5.266  0.1322E+01  0.8756E+00
     -5.261  0.1338E+01  0.8824E+00
     -5.256  0.1355E+01  0.8894E+00
     -5.250  0.1372E+01  0.8964E+00
     -5.245  0.1389E+01  0.9035E+00
     -5.240  0.1407E+01  0.9106E+00
     -5.235  0.1425E+01  0.9179E+00
     -5.230  0.1443E+01  0.9253E+00
     -5.225  0.1461E+01  0.9327E+00
     -5.220  0.1479E+01  0.9403E+00
     -5.215  0.1497E+01  0.9479E+00
     -5.210  0.1515E+01  0.9557E+00
     -5.204  0.1533E+01  0.9635E+00
     -5.199  0.1550E+01  0.9714E+00
     -5.194  0.1568E+01  0.9794E+00
     -5.189  0.1586E+01  0.9875E+00
     -5.184  0.1603E+01  0.9957E+00
     -5.179  0.1620E+01  0.1004E+01
     -5.174  0.1636E+01  0.1012E+01
     -5.169  0.1652E+01  0.1021E+01
     -5.164  0.1668E+01  0.1029E+01
     -5.159  0.1684E+01  0.1038E+01
     -5.153  0.1698E+01  0.1047E+01
     -5.148  0.1713E+01  0.1055E+01
     -5.143  0.1727E+01  0.1064E+01
     -5.138  0.1740E+01  0.1073E+01
     -5.133  0.1753E+01  0.1082E+01
     -5.128  0.1765E+01  0.1091E+01
     -5.123  0.1777E+01  0.1100E+01
     -5.118  0.1788E+01  0.1109E+01
     -5.113  0.1799E+01  0.1118E+01
     -5.107  0.1809E+01  0.1128E+01
     -5.102  0.1818E+01  0.1137E+01
     -5.097  0.1827E+01  0.1146E+01
     -5.092  0.1835E+01  0.1156E+01
     -5.087  0.1842E+01  0.1165E+01
     -5.082  0.1849E+01  0.1174E+01
     -5.077  0.1855E+01  0.1184E+01
     -5.072  0.1861E+01  0.1193E+01
     -5.067  0.1866E+01  0.1203E+01
     -5.061  0.1871E+01  0.1213E+01
     -5.056  0.1875E+01  0.1222E+01
     -5.051  0.1878E+01  0.1232E+01
     -5.046  0.1881E+01  0.1241E+01
     -5.041  0.1883E+01  0.1251E+01
     -5.036  0.1885E+01  0.1261E+01
     -5.031  0.1886E+01  0.1270E+01
     -5.026  0.1887E+01  0.1280E+01
     -5.021  0.1887E+01  0.1289E+01
     -5.016  0.1887E+01  0.1299E+01
     -5.010  0.1887E+01  0.1309E+01
     -5.005  0.1886E+01  0.1318E+01
     -5.000  0.1885E+01  0.1328E+01
     -4.995  0.1884E+01  0.1338E+01
     -4.990  0.1882E+01  0.1347E+01
     -4.985  0.1880E+01  0.1357E+01
     -4.980  0.1878E+01  0.1366E+01
     -4.975  0.1876E+01  0.1376E+01
     -4.970  0.1874E+01  0.1386E+01
     -4.964  0.1871E+01  0.1395E+01
     -4.959  0.1869E+01  0.1405E+01
     -4.954  0.1866E+01  0.1414E+01
     -4.949  0.1864E+01  0.1424E+01
     -4.944  0.1862E+01  0.1433E+01
     -4.939  0.1860E+01  0.1443E+01
     -4.934  0.1858E+01  0.1452E+01
     -4.929  0.1856E+01  0.1462E+01
     -4.924  0.1854E+01  0.1471E+01
     -4.918  0.1853E+01  0.1481E+01
     -4.913  0.1852E+01  0.1490E+01
     -4.908  0.1851E+01  0.1499E+01
     -4.903  0.1851E+01  0.1509E+01
     -4.898  0.1851E+01  0.1518E+01
     -4.893  0.1851E+01  0.1528E+01
     -4.888  0.1852E+01  0.1537E+01
     -4.883  0.1854E+01  0.1547E+01
     -4.878  0.1855E+01  0.1556E+01
     -4.873  0.1858E+01  0.1566E+01
     -4.867  0.1861E+01  0.1575E+01
     -4.862  0.1864E+01  0.1585E+01
     -4.857  0.1868E+01  0.1594E+01
     -4.852  0.1873E+01  0.1604E+01
     -4.847  0.1878E+01  0.1613E+01
     -4.842  0.1883E+01  0.1623E+01
     -4.837  0.1889E+01  0.1633E+01
     -4.832  0.1896E+01  0.1642E+01
     -4.827  0.1903E+01  0.1652E+01
     -4.821  0.1911E+01  0.1662E+01
     -4.816  0.1919E+01  0.1672E+01
     -4.811  0.1927E+01  0.1682E+01
     -4.806  0.1936E+01  0.1691E+01
     -4.801  0.1945E+01  0.1701E+01
     -4.796  0.1954E+01  0.1711E+01
     -4.791  0.1964E+01  0.1721E+01
     -4.786  0.1973E+01  0.1731E+01
     -4.781  0.1983E+01  0.1742E+01
     -4.775  0.1993E+01  0.1752E+01
     -4.770  0.2003E+01  0.1762E+01
     -4.765  0.2013E+01  0.1772E+01
     -4.760  0.2023E+01  0.1783E+01
     -4.755  0.2032E+01  0.1793E+01
     -4.750  0.2041E+01  0.1803E+01
     -4.745  0.2050E+01  0.1814E+01
     -4.740  0.2059E+01  0.1824E+01
     -4.735  0.2067E+01  0.1835E+01
     -4.730  0.2075E+01  0.1845E+01
     -4.724  0.2082E+01  0.1856E+01
     -4.719  0.2089E+01  0.1867E+01
     -4.714  0.2095E+01  0.1877E+01
     -4.709  0.2100E+01  0.1888E+01
     -4.704  0.2105E+01  0.1899E+01
     -4.699  0.2108E+01  0.1910E+01
     -4.694  0.2111E+01  0.1921E+01
     -4.689  0.2113E+01  0.1931E+01
     -4.684  0.2114E+01  0.1942E+01
     -4.678  0.2114E+01  0.1953E+01
     -4.673  0.2114E+01  0.1964E+01
     -4.668  0.2112E+01  0.1974E+01
     -4.663  0.2109E+01  0.1985E+01
     -4.658  0.2106E+01  0.1996E+01
     -4.653  0.2101E+01  0.2007E+01
     -4.648  0.2095E+01  0.2017E+01
     -4.643  0.2089E+01  0.2028E+01
     -4.638  0.2082E+01  0.2039E+01
     -4.633  0.2074E+01  0.2049E+01
     -4.627  0.2065E+01  0.2060E+01
     -4.622  0.2055E+01  0.2070E+01
     -4.617  0.2044E+01  0.2081E+01
     -4.612  0.2033E+01  0.2091E+01
     -4.607  0.2022E+01  0.2102E+01
     -4.602  0.2010E+01  0.2112E+01
     -4.597  0.1997E+01  0.2122E+01
     -4.592  0.1984E+01  0.2132E+01
     -4.587  0.1971E+01  0.2142E+01
     -4.581  0.1957E+01  0.2152E+01
     -4.576  0.1944E+01  0.2162E+01
     -4.571  0.1930E+01  0.2172E+01
     -4.566  0.1917E+01  0.2182E+01
     -4.561  0.1903E+01  0.2191E+01
     -4.556  0.1890E+01  0.2201E+01
     -4.551  0.1877E+01  0.2211E+01
     -4.546  0.1865E+01  0.2220E+01
     -4.541  0.1853E+01  0.2230E+01
     -4.535  0.1842E+01  0.2239E+01
     -4.530  0.1831E+01  0.2248E+01
     -4.525  0.1821E+01  0.2258E+01
     -4.520  0.1813E+01  0.2267E+01
     -4.515  0.1805E+01  0.2276E+01
     -4.510  0.1798E+01  0.2285E+01
     -4.505  0.1792E+01  0.2295E+01
     -4.500  0.1787E+01  0.2304E+01
     -4.495  0.1784E+01  0.2313E+01
     -4.490  0.1781E+01  0.2322E+01
     -4.484  0.1780E+01  0.2331E+01
     -4.479  0.1781E+01  0.2340E+01
     -4.474  0.1783E+01  0.2349E+01
     -4.469  0.1786E+01  0.2358E+01
     -4.464  0.1791E+01  0.2367E+01
     -4.459  0.1797E+01  0.2377E+01
     -4.454  0.1805E+01  0.2386E+01
     -4.449  0.1814E+01  0.2395E+01
     -4.444  0.1824E+01  0.2404E+01
     -4.438  0.1836E+01  0.2414E+01
     -4.433  0.1850E+01  0.2423E+01
     -4.428  0.1865E+01  0.2433E+01
     -4.423  0.1882E+01  0.2442E+01
     -4.418  0.1900E+01  0.2452E+01
     -4.413  0.1919E+01  0.2462E+01
     -4.408  0.1939E+01  0.2472E+01
     -4.403  0.1961E+01  0.2482E+01
     -4.398  0.1984E+01  0.2492E+01
     -4.392  0.2009E+01  0.2502E+01
     -4.387  0.2034E+01  0.2513E+01
     -4.382  0.2061E+01  0.2523E+01
     -4.377  0.2089E+01  0.2534E+01
     -4.372  0.2117E+01  0.2545E+01
     -4.367  0.2147E+01  0.2556E+01
     -4.362  0.2177E+01  0.2567E+01
     -4.357  0.2208E+01  0.2578E+01
     -4.352  0.2240E+01  0.2589E+01
     -4.347  0.2272E+01  0.2601E+01
     -4.341  0.2305E+01  0.2613E+01
     -4.336  0.2338E+01  0.2625E+01
     -4.331  0.2372E+01  0.2637E+01
     -4.326  0.2406E+01  0.2649E+01
     -4.321  0.2440E+01  0.2662E+01
     -4.316  0.2474E+01  0.2674E+01
     -4.311  0.2509E+01  0.2687E+01
     -4.306  0.2544E+01  0.2700E+01
     -4.301  0.2578E+01  0.2713E+01
     -4.295  0.2612E+01  0.2726E+01
     -4.290  0.2647E+01  0.2740E+01
     -4.285  0.2681E+01  0.2754E+01
     -4.280  0.2714E+01  0.2768E+01
     -4.275  0.2748E+01  0.2782E+01
     -4.270  0.2781E+01  0.2796E+01
     -4.265  0.2813E+01  0.2810E+01
     -4.260  0.2845E+01  0.2825E+01
     -4.255  0.2877E+01  0.2839E+01
     -4.250  0.2908E+01  0.2854E+01
     -4.244  0.2938E+01  0.2869E+01
     -4.239  0.2968E+01  0.2884E+01
     -4.234  0.2997E+01  0.2900E+01
     -4.229  0.3025E+01  0.2915E+01
     -4.224  0.3053E+01  0.2931E+01
     -4.219  0.3080E+01  0.2946E+01
     -4.214  0.3106E+01  0.2962E+01
     -4.209  0.3131E+01  0.2978E+01
     -4.204  0.3156E+01  0.2994E+01
     -4.198  0.3180E+01  0.3011E+01
     -4.193  0.3203E+01  0.3027E+01
     -4.188  0.3226E+01  0.3043E+01
     -4.183  0.3247E+01  0.3060E+01
     -4.178  0.3268E+01  0.3077E+01
     -4.173  0.3288E+01  0.3094E+01
     -4.168  0.3308E+01  0.3110E+01
     -4.163  0.3327E+01  0.3127E+01
     -4.158  0.3345E+01  0.3144E+01
     -4.152  0.3362E+01  0.3162E+01
     -4.147  0.3379E+01  0.3179E+01
     -4.142  0.3395E+01  0.3196E+01
     -4.137  0.3411E+01  0.3214E+01
     -4.132  0.3426E+01  0.3231E+01
     -4.127  0.3440E+01  0.3249E+01
     -4.122  0.3454E+01  0.3266E+01
     -4.117  0.3467E+01  0.3284E+01
     -4.112  0.3480E+01  0.3302E+01
     -4.107  0.3492E+01  0.3320E+01
     -4.101  0.3503E+01  0.3338E+01
     -4.096  0.3514E+01  0.3356E+01
     -4.091  0.3524E+01  0.3374E+01
     -4.086  0.3534E+01  0.3392E+01
     -4.081  0.3543E+01  0.3410E+01
     -4.076  0.3552E+01  0.3428E+01
     -4.071  0.3560E+01  0.3446E+01
     -4.066  0.3568E+01  0.3464E+01
     -4.061  0.3575E+01  0.3482E+01
     -4.055  0.3581E+01  0.3501E+01
     -4.050  0.3587E+01  0.3519E+01
     -4.045  0.3592E+01  0.3537E+01
     -4.040  0.3597E+01  0.3556E+01
     -4.035  0.3601E+01  0.3574E+01
     -4.030  0.3604E+01  0.3593E+01
     -4.025  0.3606E+01  0.3611E+01
     -4.020  0.3608E+01  0.3629E+01
     -4.015  0.3609E+01  0.3648E+01
     -4.009  0.3610E+01  0.3666E+01
     -4.004  0.3609E+01  0.3685E+01
     -3.999  0.3608E+01  0.3703E+01
     -3.994  0.3606E+01  0.3722E+01
     -3.989  0.3603E+01  0.3740E+01
     -3.984  0.3600E+01  0.3758E+01
     -3.979  0.3595E+01  0.3777E+01