    8    8    1    1
  0.2072476E+02  0.5493635E-09  0.5493635E-09  0.5493635E-09  0.1500000E-16
  1.000000000000000E-004
  CAR 
 unknown system                          
   32   20   32
 
  0.0000000E+00  0.0000000E+00  0.0000000E+00  0.4629630E-02
   1       -6.191903
   2       -2.206388
   3       -2.194605
   4       -2.182758
   5       -2.182743
   6       -2.171028
   7       -2.159057
   8        2.725041
   9        2.734484
  10        2.735795
  11        2.735940
  12        2.737078
  13        2.746541
  14        5.441186
  15        5.458874
  16        5.476761
  17        6.289420
  18        6.295443
  19        6.306601
  20        6.306667
  21        6.317630
  22        6.323640
  23        8.063341
  24        8.074281
  25        8.085100
  26        8.529923
  27       13.213856
  28       13.214012
  29       13.348412
  30       15.321177
  31       15.331367
  32       15.336661
 
  0.1666667E+00  0.0000000E+00  0.0000000E+00  0.2777778E-01
   1       -6.074239
   2       -3.353044
   3       -2.160243
   4       -2.148186
   5       -2.148069
   6       -2.136044
   7       -0.872980
   8        2.448795
   9        2.451789
  10        2.451916
  11        2.454810
  12        2.835088
  13        2.848160
  14        4.755996
  15        5.044878
  16        5.072568
  17        6.162472
  18        6.769377
  19        6.877252
  20        6.891803
  21        6.891980
  22        6.906546
  23        7.809623
  24        8.612058
  25        8.625923
  26        9.186607
  27       12.466919
  28       13.345089
  29       13.847061
  30       14.115675
  31       14.117961
  32       14.221436
 
  0.3333333E+00  0.0000000E+00  0.0000000E+00  0.2777778E-01
   1       -5.723110
   2       -4.348446
   3       -2.087042
   4       -2.074276
   5       -2.074154
   6       -2.061415
   7        0.531148
   8        1.996833
   9        1.997070
  10        1.997183
  11        1.997371
  12        3.148481
  13        3.162579
  14        3.426452
  15        4.323853
  16        4.343931
  17        6.305521
  18        7.244547
  19        7.568324
  20        8.253989
  21        8.265775
  22        8.265814
  23        8.277503
  24        9.670740
  25        9.767860
  26        9.774172
  27       11.955510
  28       12.132092
  29       12.141530
  30       12.143220
  31       12.151032
  32       12.598832
 
  0.5000000E+00  0.0000000E+00  0.0000000E+00  0.1388889E-01
   1       -5.156829
   2       -5.131607
   3       -2.047893
   4       -2.034717
   5       -2.034591
   6       -2.021437
   7        1.800578
   8        1.802012
   9        1.802043
  10        1.803573
  11        1.976822
  12        1.986411
  13        3.641105
  14        3.657260
  15        3.671773
  16        3.687929
  17        6.684639
  18        6.697761
  19        8.655854
  20        8.668710
  21        9.752826
  22        9.764202
  23        9.764284
  24        9.775246
  25       10.398609
  26       10.407159
  27       10.407272
  28       10.416140
  29       11.126234
  30       11.128865
  31       11.142537
  32       11.145382
 
  0.1666667E+00  0.1666667E+00  0.0000000E+00  0.5555556E-01
   1       -5.957619
   2       -3.286365
   3       -3.272992
   4       -2.328424
   5       -1.926592
   6       -0.918856
   7       -0.901894
   8        1.804436
   9        2.483939
  10        2.486438
  11        2.670440
  12        2.679304
  13        2.921300
  14        3.897433
  15        4.652425
  16        5.344261
  17        6.520541
  18        6.776448
  19        6.789435
  20        7.300093
  21        7.302450
  22        8.066617
  23        8.315778
  24        8.346638
  25        8.438258
  26       10.067496
  27       12.344931
  28       12.780472
  29       12.787109
  30       13.057032
  31       13.852138
  32       14.110077
 
  0.3333333E+00  0.1666667E+00  0.0000000E+00  0.1111111E+00
   1       -5.609917
   2       -4.253883
   3       -3.077246
   4       -2.534023
   5       -1.637609
   6       -1.051830
   7        0.363452
   8        1.421025
   9        1.875500
  10        2.471298
  11        2.754593
  12        2.782506
  13        2.821197
  14        3.166398
  15        3.918402
  16        4.783618
  17        6.940819
  18        7.302907
  19        7.847418
  20        8.033104
  21        8.191842
  22        8.604846
  23        8.933094
  24        9.589495
  25        9.648307
  26       10.353904
  27       10.790214
  28       11.434209
  29       12.036927
  30       12.229487
  31       12.422952
  32       12.550554
 
  0.5000000E+00  0.1666667E+00  0.0000000E+00  0.5555556E-01
   1       -5.050253
   2       -5.025164
   3       -2.810054
   4       -2.791511
   5       -1.320280
   6       -1.313241
   7        1.457111
   8        1.460350
   9        1.598985
  10        1.606325
  11        2.534813
  12        2.541663
  13        3.244851
  14        3.254283
  15        3.906501
  16        3.915563
  17        7.314310
  18        7.327730
  19        8.820751
  20        8.829160
  21        9.022508
  22        9.033485
  23        9.936343
  24        9.936593
  25       10.230982
  26       10.234608
  27       10.427703
  28       10.433376
  29       11.018057
  30       11.025361
  31       11.640425
  32       11.641642
 
  0.3333333E+00  0.3333333E+00  0.0000000E+00  0.5555556E-01
   1       -5.273365
   2       -3.986036
   3       -3.973119
   4       -3.046342
   5       -1.162254
   6       -0.084349
   7       -0.064347
   8        1.263207
   9        1.816856
  10        2.061718
  11        2.066954
  12        3.173648
  13        3.278247
  14        3.286744
  15        3.446030
  16        4.917492
  17        7.127447
  18        8.341245
  19        8.358321
  20        8.463725
  21        9.042946
  22        9.231111
  23        9.235246
  24        9.276883
  25        9.651693
  26        9.657919
  27       11.044031
  28       11.246954
  29       11.639868
  30       11.878488
  31       12.388765
  32       12.414265
 
  0.5000000E+00  0.3333333E+00  0.0000000E+00  0.5555556E-01
   1       -4.735627
   2       -4.710986
   3       -3.567582
   4       -3.545690
   5       -0.626552
   6       -0.624678
   7        0.863600
   8        0.868211
   9        1.507052
  10        1.513297
  11        2.511426
  12        2.520306
  13        3.480569
  14        3.491427
  15        4.242873
  16        4.253389
  17        8.041812
  18        8.046866
  19        8.686024
  20        8.700220
  21        8.799808
  22        8.800677
  23       10.087851
  24       10.090297
  25       10.151874
  26       10.163543
  27       10.732920
  28       10.739536
  29       10.930722
  30       10.933199
  31       12.201683
  32       12.222529
 
  0.5000000E+00  0.5000000E+00  0.0000000E+00  0.1388889E-01
   1       -4.236221
   2       -4.223389
   3       -4.212474
   4       -4.199727
   5        0.085316
   6        0.086980
   7        0.105761
   8        0.107737
   9        1.882630
  10        1.888417
  11        1.890539
  12        1.896347
  13        4.182731
  14        4.191874
  15        4.194947
  16        4.204117
  17        7.950332
  18        7.952857
  19        7.956527
  20        7.958946
  21       10.228473
  22       10.233997
  23       10.247179
  24       10.252483
  25       10.508751
  26       10.524601
  27       10.528355
  28       10.544614
  29       11.490065
  30       11.493755
  31       11.493926
  32       11.497690
 
  0.1666667E+00  0.1666667E+00  0.1666667E+00  0.3703704E-01
   1       -5.842474
   2       -3.233221
   3       -3.232051
   4       -3.212583
   5       -0.983849
   6       -0.980065
   7       -0.961320
   8        2.006961
   9        2.007875
  10        2.018459
  11        3.013333
  12        3.021695
  13        3.025232
  14        3.149343
  15        5.020001
  16        5.040466
  17        6.633899
  18        6.636911
  19        6.650779
  20        7.765377
  21        8.230041
  22        8.246743
  23        8.250943
  24        8.686195
  25        8.702113
  26       10.674366
  27       12.597692
  28       12.600479
  29       12.777584
  30       12.781216
  31       12.789500
  32       12.837416
 
  0.3333333E+00  0.1666667E+00  0.1666667E+00  0.1111111E+00
   1       -5.498942
   2       -4.167778
   3       -3.112818
   4       -3.096159
   5       -1.135209
   6       -1.134412
   7        0.115917
   8        1.700987
   9        1.710516
  10        2.121899
  11        2.620032
  12        2.964919
  13        2.965567
  14        3.314148
  15        4.401374
  16        4.577746
  17        6.982674
  18        7.420110
  19        7.433256
  20        7.891400
  21        8.652100
  22        8.774451
  23        9.524177
  24        9.777743
  25        9.788685
  26       10.841584
  27       10.861213
  28       10.870027
  29       11.254649
  30       11.607946
  31       12.694723
  32       12.858455
 
  0.5000000E+00  0.1666667E+00  0.1666667E+00  0.5555556E-01
   1       -4.947685
   2       -4.922763
   3       -3.043801
   4       -3.025791
   5       -1.231736
   6       -1.230230
   7        1.119781
   8        1.133693
   9        1.636991
  10        1.649718
  11        2.834274
  12        2.838896
  13        3.552854
  14        3.565515
  15        3.776391
  16        3.806949
  17        7.472939
  18        7.492349
  19        8.862567
  20        8.877714
  21        9.013208
  22        9.018757
  23        9.483504
  24        9.497064
  25        9.984265
  26        9.996058
  27       10.500384
  28       10.517769
  29       11.506565
  30       11.521569
  31       11.905193
  32       11.912352
 
  0.3333333E+00  0.3333333E+00  0.1666667E+00  0.1111111E+00
   1       -5.169366
   2       -3.928619
   3       -3.916394
   4       -3.259308
   5       -1.172892
   6       -0.431173
   7       -0.411128
   8        1.183130
   9        1.744011
  10        2.378092
  11        2.389618
  12        3.429894
  13        3.437913
  14        3.528391
  15        3.844155
  16        4.806979
  17        7.251496
  18        7.757743
  19        7.771772
  20        7.838871
  21        8.963461
  22        9.224185
  23        9.659088
  24        9.664557
  25       10.248915
  26       10.263641
  27       10.862098
  28       11.077166
  29       11.397264
  30       11.414830
  31       11.541135
  32       11.873998
 
  0.5000000E+00  0.3333333E+00  0.1666667E+00  0.1111111E+00
   1       -4.646542
   2       -4.622189
   3       -3.586800
   4       -3.566036
   5       -0.927221
   6       -0.916296
   7        0.324372
   8        0.340649
   9        2.027143
  10        2.045045
  11        3.122326
  12        3.136217
  13        3.577929
  14        3.586798
  15        4.203454
  16        4.216503
  17        8.100672
  18        8.119048
  19        8.123657
  20        8.128859
  21        8.862862
  22        8.866829
  23        9.217038
  24        9.223527
  25       10.062801
  26       10.075147
  27       10.997138
  28       11.022340
  29       11.205380
  30       11.231043
  31       12.073678
  32       12.076600
 
  0.5000000E+00  0.5000000E+00  0.1666667E+00  0.2777778E-01
   1       -4.177799
   2       -4.165555
   3       -4.154618
   4       -4.142469
   5       -0.401973
   6       -0.386628
   7       -0.381884
   8       -0.366512
   9        2.528617
  10        2.542147
  11        2.546801
  12        2.560130
  13        4.211325
  14        4.219790
  15        4.223043
  16        4.231479
  17        7.930001
  18        7.930838
  19        7.932982
  20        7.933717
  21        9.539871
  22        9.551871
  23        9.560546
  24        9.571200
  25        9.703771
  26        9.720083
  27        9.722350
  28        9.740204
  29       12.618943
  30       12.631249
  31       12.632521
  32       12.643256
 
  0.3333333E+00  0.3333333E+00  0.3333333E+00  0.3703704E-01
   1       -4.863541
   2       -3.798386
   3       -3.798037
   4       -3.778735
   5       -0.973101
   6       -0.961794
   7       -0.947645
   8        0.288588
   9        2.795501
  10        2.797336
  11        2.813626
  12        3.753935
  13        3.765226
  14        3.768107
  15        4.492360
  16        4.511156
  17        7.172987
  18        7.548574
  19        7.556862
  20        7.567040
  21        9.003570
  22        9.025576
  23        9.523144
  24        9.530028
  25        9.541291
  26       10.103157
  27       10.112268
  28       10.116844
  29       11.821044
  30       11.838614
  31       11.845088
  32       13.229465
 
  0.5000000E+00  0.3333333E+00  0.3333333E+00  0.5555556E-01
   1       -4.394272
   2       -4.370919
   3       -3.723383
   4       -3.703946
   5       -1.208244
   6       -1.196687
   7       -0.459225
   8       -0.441579
   9        2.963284
  10        2.986973
  11        3.883130
  12        3.886370
  13        3.949709
  14        3.953063
  15        4.093130
  16        4.122973
  17        7.542170
  18        7.550222
  19        8.013096
  20        8.019347
  21        8.640888
  22        8.658307
  23        8.765436
  24        8.776128
  25        9.394102
  26        9.412008
  27        9.955834
  28        9.983427
  29       12.431759
  30       12.456003
  31       13.452131
  32       13.467954
 
  0.5000000E+00  0.5000000E+00  0.3333333E+00  0.2777778E-01
   1       -4.044490
   2       -4.034144
   3       -4.023104
   4       -4.012882
   5       -1.041153
   6       -1.025987
   7       -1.022166
   8       -1.006919
   9        3.641349
  10        3.657081
  11        3.662813
  12        3.677673
  13        4.271735
  14        4.278508
  15        4.282421
  16        4.288670
  17        7.482350
  18        7.485007
  19        7.491266
  20        7.493981
  21        8.893908
  22        8.896367
  23        8.914423
  24        8.916736
  25        9.089191
  26        9.106884
  27        9.108156
  28        9.126209
  29       13.449528
  30       13.457268
  31       13.468303
  32       13.475843
 
  0.5000000E+00  0.5000000E+00  0.5000000E+00  0.4629630E-02
   1       -3.966435
   2       -3.957839
   3       -3.946606
   4       -3.938153
   5       -1.303861
   6       -1.290893
   7       -1.285523
   8       -1.272406
   9        4.280071
  10        4.302485
  11        4.307650
  12        4.309543
  13        4.312448
  14        4.314294
  15        4.319808
  16        4.341923
  17        6.946706
  18        6.948970
  19        6.952463
  20        6.954994
  21        8.850942
  22        8.853498
  23        8.874943
  24        8.874995
  25        8.875223
  26        8.875298
  27        8.896867
  28        8.899566
  29       13.198925
  30       13.205651
  31       13.221962
  32       13.228777
