<?xml version="1.0" encoding="ISO-8859-1"?>
<modeling>
 <generator>
  <i name="program" type="string">vasp </i>
  <i name="version" type="string">5.3.3  </i>
  <i name="subversion" type="string">18Dez12 (build Jan 30 2013 10:57:47) complex                          parallel </i>
  <i name="platform" type="string">LinuxIFC </i>
  <i name="date" type="string">2016 06 21 </i>
  <i name="time" type="string">20:44:07 </i>
 </generator>
 <incar>
  <i type="string" name="PREC">accurate</i>
  <i type="int" name="NELM">   400</i>
  <i type="int" name="IBRION">     6</i>
  <i name="EDIFF">      0.00000010</i>
  <i type="int" name="ISIF">     3</i>
  <i name="ENCUT">    650.00000000</i>
  <i name="POTIM">      0.01500000</i>
  <i type="int" name="NEDOS">  5000</i>
  <i type="int" name="ISMEAR">     0</i>
  <i type="logical" name="LWAVE"> F  </i>
  <i type="int" name="NELM">   400</i>
  <i type="string" name="GGA"> BO</i>
  <i name="PARAM1">      0.18333333</i>
  <i name="PARAM2">      0.22000000</i>
  <i type="logical" name="LUSE_VDW"> T  </i>
  <i name="AGGAC">      0.00000000</i>
 </incar>
 <kpoints>
  <generation param="Gamma">
   <v type="int" name="divisions">       6        6        6 </v>
   <v name="usershift">      0.00000000       0.00000000       0.00000000 </v>
   <v name="genvec1">      0.16666667       0.00000000       0.00000000 </v>
   <v name="genvec2">      0.00000000       0.16666667       0.00000000 </v>
   <v name="genvec3">      0.00000000       0.00000000       0.16666667 </v>
   <v name="shift">      0.00000000       0.00000000       0.00000000 </v>
  </generation>
  <varray name="kpointlist" >
   <v>       0.00000000       0.00000000       0.00000000 </v>
   <v>       0.16666667       0.00000000       0.00000000 </v>
   <v>       0.33333333       0.00000000       0.00000000 </v>
   <v>       0.50000000       0.00000000       0.00000000 </v>
   <v>       0.16666667       0.16666667       0.00000000 </v>
   <v>       0.33333333       0.16666667       0.00000000 </v>
   <v>       0.50000000       0.16666667       0.00000000 </v>
   <v>       0.33333333       0.33333333       0.00000000 </v>
   <v>       0.50000000       0.33333333       0.00000000 </v>
   <v>       0.50000000       0.50000000       0.00000000 </v>
   <v>       0.16666667       0.16666667       0.16666667 </v>
   <v>       0.33333333       0.16666667       0.16666667 </v>
   <v>       0.50000000       0.16666667       0.16666667 </v>
   <v>       0.33333333       0.33333333       0.16666667 </v>
   <v>       0.50000000       0.33333333       0.16666667 </v>
   <v>       0.50000000       0.50000000       0.16666667 </v>
   <v>       0.33333333       0.33333333       0.33333333 </v>
   <v>       0.50000000       0.33333333       0.33333333 </v>
   <v>       0.50000000       0.50000000       0.33333333 </v>
   <v>       0.50000000       0.50000000       0.50000000 </v>
  </varray>
  <varray name="weights" >
   <v>       0.00462963 </v>
   <v>       0.02777778 </v>
   <v>       0.02777778 </v>
   <v>       0.01388889 </v>
   <v>       0.05555556 </v>
   <v>       0.11111111 </v>
   <v>       0.05555556 </v>
   <v>       0.05555556 </v>
   <v>       0.05555556 </v>
   <v>       0.01388889 </v>
   <v>       0.03703704 </v>
   <v>       0.11111111 </v>
   <v>       0.05555556 </v>
   <v>       0.11111111 </v>
   <v>       0.11111111 </v>
   <v>       0.02777778 </v>
   <v>       0.03703704 </v>
   <v>       0.05555556 </v>
   <v>       0.02777778 </v>
   <v>       0.00462963 </v>
  </varray>
 </kpoints>
 <parameters>
  <separator name="general" >
   <i type="string" name="SYSTEM">unknown system</i>
   <i type="logical" name="LCOMPAT"> F  </i>
  </separator>
  <separator name="electronic" >
   <i type="string" name="PREC">accura</i>
   <i name="ENMAX">    650.00000000</i>
   <i name="ENAUG">    322.06900000</i>
   <i name="EDIFF">      0.00000010</i>
   <i type="int" name="IALGO">    38</i>
   <i type="int" name="IWAVPR">    11</i>
   <i type="int" name="NBANDS">    32</i>
   <i name="NELECT">     32.00000000</i>
   <i type="int" name="TURBO">     0</i>
   <i type="int" name="IRESTART">     0</i>
   <i type="int" name="NREBOOT">     0</i>
   <i type="int" name="NMIN">     0</i>
   <i name="EREF">      0.00000000</i>
   <separator name="electronic smearing" >
    <i type="int" name="ISMEAR">     0</i>
    <i name="SIGMA">      0.20000000</i>
    <i name="KSPACING">      0.50000000</i>
    <i type="logical" name="KGAMMA"> T  </i>
   </separator>
   <separator name="electronic projectors" >
    <i type="logical" name="LREAL"> F  </i>
    <v name="ROPT">      0.00000000</v>
    <i type="int" name="LMAXPAW">  -100</i>
    <i type="int" name="LMAXMIX">     2</i>
    <i type="logical" name="NLSPLINE"> F  </i>
   </separator>
   <separator name="electronic startup" >
    <i type="int" name="ISTART">     0</i>
    <i type="int" name="ICHARG">     2</i>
    <i type="int" name="INIWAV">     1</i>
   </separator>
   <separator name="electronic spin" >
    <i type="int" name="ISPIN">     1</i>
    <i type="logical" name="LNONCOLLINEAR"> F  </i>
    <v name="MAGMOM">      1.00000000      1.00000000      1.00000000      1.00000000      1.00000000      1.00000000      1.00000000      1.00000000</v>
    <i name="NUPDOWN">     -1.00000000</i>
    <i type="logical" name="LSORBIT"> F  </i>
    <v name="SAXIS">      0.00000000      0.00000000      1.00000000</v>
    <i type="logical" name="LSPIRAL"> F  </i>
    <v name="QSPIRAL">      0.00000000      0.00000000      0.00000000</v>
    <i type="logical" name="LZEROZ"> F  </i>
   </separator>
   <separator name="electronic exchange-correlation" >
    <i type="logical" name="LASPH"> F  </i>
    <i type="logical" name="LMETAGGA"> F  </i>
   </separator>
   <separator name="electronic convergence" >
    <i type="int" name="NELM">   400</i>
    <i type="int" name="NELMDL">    -5</i>
    <i type="int" name="NELMIN">     2</i>
    <i name="ENINI">    650.00000000</i>
    <separator name="electronic convergence detail" >
     <i type="logical" name="LDIAG"> T  </i>
     <i type="logical" name="LSUBROT"> T  </i>
     <i name="WEIMIN">      0.00100000</i>
     <i name="EBREAK">      0.00000000</i>
     <i name="DEPER">      0.30000000</i>
     <i type="int" name="NRMM">     4</i>
     <i name="TIME">      0.40000000</i>
    </separator>
   </separator>
   <separator name="electronic mixer" >
    <i name="AMIX">      0.40000000</i>
    <i name="BMIX">      1.00000000</i>
    <i name="AMIN">      0.10000000</i>
    <i name="AMIX_MAG">      1.60000000</i>
    <i name="BMIX_MAG">      1.00000000</i>
    <separator name="electronic mixer details" >
     <i type="int" name="IMIX">     4</i>
     <i type="int" name="MAXMIX">   -45</i>
     <i name="WC">    100.00000000</i>
     <i type="int" name="INIMIX">     1</i>
     <i type="int" name="MIXPRE">     1</i>
     <i type="int" name="MREMOVE">     5</i>
    </separator>
   </separator>
   <separator name="electronic dipolcorrection" >
    <i type="logical" name="LDIPOL"> F  </i>
    <i type="logical" name="LMONO"> F  </i>
    <i type="int" name="IDIPOL">     0</i>
    <i name="EPSILON">      1.00000000</i>
    <v name="DIPOL">   -100.00000000   -100.00000000   -100.00000000</v>
    <i name="EFIELD">      0.00000000</i>
   </separator>
  </separator>
  <separator name="grids" >
   <i type="int" name="NGX">    48</i>
   <i type="int" name="NGY">    48</i>
   <i type="int" name="NGZ">    48</i>
   <i type="int" name="NGXF">    96</i>
   <i type="int" name="NGYF">    96</i>
   <i type="int" name="NGZF">    96</i>
   <i type="logical" name="ADDGRID"> F  </i>
  </separator>
  <separator name="ionic" >
   <i type="int" name="NSW">   133</i>
   <i type="int" name="IBRION">     6</i>
   <i type="int" name="ISIF">     3</i>
   <i name="PSTRESS">      0.00000000</i>
   <i name="EDIFFG">      0.00000100</i>
   <i type="int" name="NFREE">     2</i>
   <i name="POTIM">      0.01500000</i>
   <i name="SMASS">     -3.00000000</i>
   <i name="SCALEE">      1.00000000</i>
  </separator>
  <separator name="ionic md" >
   <i name="TEBEG">      0.00010000</i>
   <i name="TEEND">      0.00010000</i>
   <i type="int" name="NBLOCK">     1</i>
   <i type="int" name="KBLOCK">     1</i>
   <i type="int" name="NPACO">   256</i>
   <i name="APACO">     16.00000000</i>
  </separator>
  <separator name="symmetry" >
   <i type="int" name="ISYM">     2</i>
   <i name="SYMPREC">      0.00001000</i>
  </separator>
  <separator name="dos" >
   <i type="logical" name="LORBIT"> F  </i>
   <v name="RWIGS">     -1.00000000</v>
   <i type="int" name="NEDOS">  5000</i>
   <i name="EMIN">     10.00000000</i>
   <i name="EMAX">    -10.00000000</i>
   <i name="EFERMI">      0.00000000</i>
  </separator>
  <separator name="writing" >
   <i type="int" name="NWRITE">     2</i>
   <i type="logical" name="LWAVE"> F  </i>
   <i type="logical" name="LCHARG"> T  </i>
   <i type="logical" name="LPARD"> F  </i>
   <i type="logical" name="LVTOT"> F  </i>
   <i type="logical" name="LVHAR"> F  </i>
   <i type="logical" name="LELF"> F  </i>
   <i type="logical" name="LOPTICS"> F  </i>
   <v name="STM">      0.00000000      0.00000000      0.00000000      0.00000000      0.00000000      0.00000000      0.00000000</v>
  </separator>
  <separator name="performance" >
   <i type="int" name="NPAR">    16</i>
   <i type="int" name="NSIM">     4</i>
   <i type="int" name="NBLK">    -1</i>
   <i type="logical" name="LPLANE"> T  </i>
   <i type="logical" name="LSCALAPACK"> F  </i>
   <i type="logical" name="LSCAAWARE"> F  </i>
   <i type="logical" name="LSCALU"> F  </i>
   <i type="logical" name="LASYNC"> F  </i>
   <i type="logical" name="LORBITALREAL"> F  </i>
  </separator>
  <separator name="miscellaneous" >
   <i type="int" name="IDIOT">     3</i>
   <i type="logical" name="LMUSIC"> F  </i>
   <v name="POMASS">     28.08500000</v>
   <v name="DARWINR">      0.00000000</v>
   <v name="DARWINV">      1.00000000</v>
   <i type="logical" name="LCORR"> T  </i>
  </separator>
  <i type="logical" name="GGA_COMPAT"> T  </i>
  <i type="logical" name="LBERRY"> F  </i>
  <i type="int" name="ICORELEVEL">     0</i>
  <i type="logical" name="LDAU"> F  </i>
  <i type="int" name="I_CONSTRAINED_M">     0</i>
  <separator name="electronic exchange-correlation" >
   <i type="string" name="GGA">BO</i>
   <i type="int" name="VOSKOWN">     0</i>
   <i type="logical" name="LHFCALC"> F  </i>
   <i type="string" name="PRECFOCK"></i>
   <i type="logical" name="LSYMGRAD"> F  </i>
   <i type="logical" name="LHFONE"> F  </i>
   <i type="logical" name="LRHFCALC"> F  </i>
   <i type="logical" name="LTHOMAS"> F  </i>
   <i type="logical" name="LMODELHF"> F  </i>
   <i name="ENCUT4O">     -1.00000000</i>
   <i type="int" name="EXXOEP">     0</i>
   <i type="int" name="FOURORBIT">     0</i>
   <i name="AEXX">      0.00000000</i>
   <i name="HFALPHA">      0.00000000</i>
   <i name="MCALPHA">      0.00000000</i>
   <i name="ALDAX">      1.00000000</i>
   <i name="AGGAX">      1.00000000</i>
   <i name="ALDAC">      1.00000000</i>
   <i name="AGGAC">      0.00000000</i>
   <i type="int" name="NKREDX">     1</i>
   <i type="int" name="NKREDY">     1</i>
   <i type="int" name="NKREDZ">     1</i>
   <i type="logical" name="SHIFTRED"> F  </i>
   <i type="logical" name="ODDONLY"> F  </i>
   <i type="logical" name="EVENONLY"> F  </i>
   <i type="int" name="LMAXFOCK">     0</i>
   <i type="int" name="NMAXFOCKAE">     0</i>
   <i type="logical" name="LFOCKAEDFT"> F  </i>
   <i name="HFSCREEN">      0.00000000</i>
   <i name="HFSCREENC">      0.00000000</i>
   <i type="int" name="NBANDSGWLOW">     0</i>
  </separator>
  <separator name="vdW DFT" >
   <i type="logical" name="LUSE_VDW"> T  </i>
   <i name="Zab_VDW">     -0.84910000</i>
   <i name="PARAM1">      0.18333333</i>
   <i name="PARAM2">      0.22000000</i>
   <i name="PARAM3">      0.00000000</i>
  </separator>
  <separator name="model GW" >
   <i type="int" name="MODEL_GW">     0</i>
   <i name="MODEL_EPS0">     12.43485333</i>
   <i name="MODEL_ALPHA">      1.00000000</i>
  </separator>
  <separator name="linear response parameters" >
   <i type="logical" name="LEPSILON"> F  </i>
   <i type="logical" name="LRPA"> F  </i>
   <i type="logical" name="LNABLA"> F  </i>
   <i type="logical" name="LVEL"> F  </i>
   <i type="int" name="KINTER">     0</i>
   <i name="CSHIFT">      0.10000000</i>
   <i name="OMEGAMAX">     -1.00000000</i>
   <i name="DEG_THRESHOLD">      0.00200000</i>
  </separator>
  <separator name="orbital magnetization" >
   <i type="logical" name="NUCIND"> F  </i>
   <v name="MAGPOS">      0.00000000      0.00000000      0.00000000</v>
   <i type="logical" name="LNICSALL"> T  </i>
   <i type="logical" name="ORBITALMAG"> F  </i>
   <i type="logical" name="LMAGBLOCH"> F  </i>
   <i type="logical" name="LCHIMAG"> F  </i>
   <i type="logical" name="LGAUGE"> T  </i>
   <i type="int" name="MAGATOM">     0</i>
   <v name="MAGDIPOL">      0.00000000      0.00000000      0.00000000</v>
   <v name="AVECCONST">      0.00000000      0.00000000      0.00000000</v>
  </separator>
  <separator name="response functions" >
   <i type="logical" name="LADDER"> F  </i>
   <i type="logical" name="LFXC"> F  </i>
   <i type="logical" name="LHARTREE"> T  </i>
   <i type="int" name="IBSE">     0</i>
   <i type="logical" name="LTCTE"> F  </i>
   <i type="logical" name="LTETE"> F  </i>
   <i type="logical" name="LTRIPLET"> F  </i>
   <i type="logical" name="LFXCEPS"> F  </i>
   <i type="logical" name="L2ORDER"> F  </i>
   <i type="logical" name="LUSEW"> F  </i>
   <i name="ENCUTGW">     -2.00000000</i>
   <i name="ENCUTGWSOFT">     -2.00000000</i>
   <i name="ENCUTLF">     -1.00000000</i>
   <i type="int" name="LMAXMP2">    -1</i>
   <i name="SCISSOR">      0.00000000</i>
   <i type="int" name="NOMEGA">     0</i>
   <i type="int" name="NOMEGAR">     0</i>
   <i type="int" name="NBANDSGW">    -1</i>
   <i type="int" name="NBANDSO">    -1</i>
   <i type="int" name="NBANDSV">    -1</i>
   <i type="int" name="NELM">   400</i>
   <i type="int" name="DIM">     3</i>
   <i type="int" name="ANTIRES">     0</i>
   <i name="OMEGAMAX">    -30.00000000</i>
   <i name="OMEGATL">   -200.00000000</i>
   <i type="int" name="OMEGAGRID">     0</i>
   <i name="CSHIFT">     -0.10000000</i>
   <i type="logical" name="SELFENERGY"> F  </i>
   <i type="logical" name="LSPECTRAL"> F  </i>
   <i type="logical" name="ODDONLYGW"> F  </i>
   <i type="logical" name="EVENONLYGW"> F  </i>
   <i type="int" name="NKREDLFX">     1</i>
   <i type="int" name="NKREDLFY">     1</i>
   <i type="int" name="NKREDLFZ">     1</i>
   <i type="int" name="MAXMEM">  1800</i>
   <i type="int" name="TELESCOPE">     0</i>
  </separator>
 </parameters>
 <atominfo>
  <atoms>       8 </atoms>
  <types>       1 </types>
  <array name="atoms" >
   <dimension dim="1">ion</dimension>
   <field type="string">element</field>
   <field type="int">atomtype</field>
   <set>
    <rc><c>Si</c><c>   1</c></rc>
    <rc><c>Si</c><c>   1</c></rc>
    <rc><c>Si</c><c>   1</c></rc>
    <rc><c>Si</c><c>   1</c></rc>
    <rc><c>Si</c><c>   1</c></rc>
    <rc><c>Si</c><c>   1</c></rc>
    <rc><c>Si</c><c>   1</c></rc>
    <rc><c>Si</c><c>   1</c></rc>
   </set>
  </array>
  <array name="atomtypes" >
   <dimension dim="1">type</dimension>
   <field type="int">atomspertype</field>
   <field type="string">element</field>
   <field>mass</field>
   <field>valence</field>
   <field type="string">pseudopotential</field>
   <set>
    <rc><c>   8</c><c>Si</c><c>     28.08500000</c><c>      4.00000000</c><c>  PAW_PBE Si 05Jan2001                  </c></rc>
   </set>
  </array>
 </atominfo>
 <structure name="initialpos" >
  <crystal>
   <varray name="basis" >
    <v>       5.49363500       0.00000000       0.00000000 </v>
    <v>       0.00000000       5.49363500       0.00000000 </v>
    <v>       0.00000000       0.00000000       5.49363500 </v>
   </varray>
   <i name="volume">    165.79804446 </i>
   <varray name="rec_basis" >
    <v>       0.18202884       0.00000000       0.00000000 </v>
    <v>       0.00000000       0.18202884       0.00000000 </v>
    <v>       0.00000000       0.00000000       0.18202884 </v>
   </varray>
  </crystal>
  <varray name="positions" >
   <v>       0.50000000       0.00000000       0.00000000 </v>
   <v>       0.75000000       0.75000000       0.75000000 </v>
   <v>       0.50000000       0.50000000       0.50000000 </v>
   <v>       0.75000000       0.25000000       0.25000000 </v>
   <v>       0.00000000       0.00000000       0.50000000 </v>
   <v>       0.25000000       0.75000000       0.25000000 </v>
   <v>       0.00000000       0.50000000       0.00000000 </v>
   <v>       0.25000000       0.25000000       0.75000000 </v>
  </varray>
 </structure>
 <calculation>
  <scstep>
   <time name="dav">    2.56    2.56</time>
   <time name="total">    8.89    9.24</time>
   <energy>
    <i name="alphaZ">     12.99436539 </i>
    <i name="ewald">   -903.66395651 </i>
    <i name="hartreedc">    -46.12764247 </i>
    <i name="XCdc">    -81.18289153 </i>
    <i name="pawpsdc">    757.60897001 </i>
    <i name="pawaedc">   -610.45953049 </i>
    <i name="eentropy">     -0.03126031 </i>
    <i name="bandstr">    108.97486475 </i>
    <i name="atom">    834.37766373 </i>
    <i name="e_fr_energy">     72.49058258 </i>
    <i name="e_wo_entrp">     72.52184289 </i>
    <i name="e_0_energy">     72.50621273 </i>
   </energy>
  </scstep>
  <scstep>
   <time name="dav">    3.21    3.21</time>
   <time name="total">    3.22    3.34</time>
   <energy>
    <i name="e_fr_energy">    -29.41101275 </i>
    <i name="e_wo_entrp">    -29.41099180 </i>
    <i name="e_0_energy">    -29.41100228 </i>
   </energy>
  </scstep>
  <scstep>
   <time name="dav">    3.31    3.31</time>
   <time name="total">    3.32    3.52</time>
   <energy>
    <i name="e_fr_energy">    -33.58418412 </i>
    <i name="e_wo_entrp">    -33.58417153 </i>
    <i name="e_0_energy">    -33.58417783 </i>
   </energy>
  </scstep>
  <scstep>
   <time name="dav">    2.92    2.92</time>
   <time name="total">    2.93    5.64</time>
   <energy>
    <i name="e_fr_energy">    -33.63599639 </i>
    <i name="e_wo_entrp">    -33.63598395 </i>
    <i name="e_0_energy">    -33.63599017 </i>
   </energy>
  </scstep>
  <scstep>
   <time name="dav">    3.58    3.81</time>
   <time name="total">    3.76    5.15</time>
   <energy>
    <i name="e_fr_energy">    -33.63696964 </i>
    <i name="e_wo_entrp">    -33.63695720 </i>
    <i name="e_0_energy">    -33.63696342 </i>
   </energy>
  </scstep>
  <scstep>
   <time name="dav">    3.41    3.41</time>
   <time name="total">    8.29    8.81</time>
   <energy>
    <i name="e_fr_energy">    -33.43853313 </i>
    <i name="e_wo_entrp">    -33.43848295 </i>
    <i name="e_0_energy">    -33.43850804 </i>
   </energy>
  </scstep>
  <scstep>
   <time name="dav">    3.77    3.78</time>
   <time name="total">    8.44    8.61</time>
   <energy>
    <i name="e_fr_energy">    -33.41755898 </i>
    <i name="e_wo_entrp">    -33.41722756 </i>
    <i name="e_0_energy">    -33.41739327 </i>
   </energy>
  </scstep>
  <scstep>
   <time name="dav">    3.40    3.41</time>
   <time name="total">    8.08    8.43</time>
   <energy>
    <i name="e_fr_energy">    -33.34896907 </i>
    <i name="e_wo_entrp">    -33.34873975 </i>
    <i name="e_0_energy">    -33.34885441 </i>
   </energy>
  </scstep>
  <scstep>
   <time name="dav">    3.70    3.70</time>
   <time name="total">    8.67    9.35</time>
   <energy>
    <i name="e_fr_energy">    -33.35611615 </i>
    <i name="e_wo_entrp">    -33.35586634 </i>
    <i name="e_0_energy">    -33.35599125 </i>
   </energy>
  </scstep>
  <scstep>
   <time name="dav">    3.41    3.41</time>
   <time name="total">    8.14    8.25</time>
   <energy>
    <i name="e_fr_energy">    -33.35380087 </i>
    <i name="e_wo_entrp">    -33.35355413 </i>
    <i name="e_0_energy">    -33.35367750 </i>
   </energy>
  </scstep>
  <scstep>
   <time name="dav">    2.94    2.94</time>
   <time name="total">    7.65    8.53</time>
   <energy>
    <i name="e_fr_energy">    -33.35360451 </i>
    <i name="e_wo_entrp">    -33.35335703 </i>
    <i name="e_0_energy">    -33.35348077 </i>
   </energy>
  </scstep>
  <scstep>
   <time name="dav">    4.04    4.04</time>
   <time name="total">    8.82    9.10</time>
   <energy>
    <i name="e_fr_energy">    -33.35362883 </i>
    <i name="e_wo_entrp">    -33.35338150 </i>
    <i name="e_0_energy">    -33.35350516 </i>
   </energy>
  </scstep>
  <scstep>
   <time name="dav">    3.41    3.42</time>
   <time name="total">    8.59    9.89</time>
   <energy>
    <i name="e_fr_energy">    -33.35358035 </i>
    <i name="e_wo_entrp">    -33.35333311 </i>
    <i name="e_0_energy">    -33.35345673 </i>
   </energy>
  </scstep>
  <scstep>
   <time name="dav">    2.66    2.66</time>
   <time name="total">    7.82    8.00</time>
   <energy>
    <i name="e_fr_energy">    -33.35358414 </i>
    <i name="e_wo_entrp">    -33.35333689 </i>
    <i name="e_0_energy">    -33.35346051 </i>
   </energy>
  </scstep>
  <scstep>
   <time name="dav">    3.08    3.37</time>
   <time name="total">    8.37   10.59</time>
   <energy>
    <i name="e_fr_energy">    -33.35358075 </i>
    <i name="e_wo_entrp">    -33.35333351 </i>
    <i name="e_0_energy">    -33.35345713 </i>
   </energy>
  </scstep>
  <scstep>
   <time name="dav">    2.76    2.76</time>
   <time name="total">    7.98    8.62</time>
   <energy>
    <i name="e_fr_energy">    -33.35358162 </i>
    <i name="e_wo_entrp">    -33.35333438 </i>
    <i name="e_0_energy">    -33.35345800 </i>
   </energy>
  </scstep>
  <scstep>
   <time name="dav">    2.26    2.26</time>
   <time name="total">    7.46    7.63</time>
   <energy>
    <i name="e_fr_energy">    -33.35358150 </i>
    <i name="e_wo_entrp">    -33.35333425 </i>
    <i name="e_0_energy">    -33.35345788 </i>
   </energy>
  </scstep>
  <scstep>
   <time name="dav">    2.64    2.64</time>
   <time name="total">    7.87    8.03</time>
   <energy>
    <i name="e_fr_energy">    -33.35358179 </i>
    <i name="e_wo_entrp">    -33.35333455 </i>
    <i name="e_0_energy">    -33.35345817 </i>
   </energy>
  </scstep>
  <scstep>
   <time name="dav">    2.63    2.66</time>
   <time name="total">    7.84    9.87</time>
   <energy>
    <i name="e_fr_energy">    -33.35358148 </i>
    <i name="e_wo_entrp">    -33.35333424 </i>
    <i name="e_0_energy">    -33.35345786 </i>
   </energy>
  </scstep>
  <scstep>
   <time name="dav">    2.32    2.34</time>
   <time name="total">    7.33    7.73</time>
   <energy>
    <i name="alphaZ">     12.99436539 </i>
    <i name="ewald">   -903.66395651 </i>
    <i name="hartreedc">    -62.12928568 </i>
    <i name="XCdc">    -78.54735207 </i>
    <i name="pawpsdc">   2090.29492271 </i>
    <i name="pawaedc">  -1944.08514285 </i>
    <i name="eentropy">     -0.00024725 </i>
    <i name="bandstr">     17.40545104 </i>
    <i name="atom">    834.37766373 </i>
    <i name="e_fr_energy">    -33.35358148 </i>
    <i name="e_wo_entrp">    -33.35333424 </i>
    <i name="e_0_energy">    -33.35345786 </i>
   </energy>
  </scstep>
  <structure>
   <crystal>
    <varray name="basis" >
     <v>       5.49363500       0.00000000       0.00000000 </v>
     <v>       0.00000000       5.49363500       0.00000000 </v>
     <v>       0.00000000       0.00000000       5.49363500 </v>
    </varray>
    <i name="volume">    165.79804446 </i>
    <varray name="rec_basis" >
     <v>       0.18202884       0.00000000       0.00000000 </v>
     <v>       0.00000000       0.18202884       0.00000000 </v>
     <v>       0.00000000       0.00000000       0.18202884 </v>
    </varray>
   </crystal>
   <varray name="positions" >
    <v>       0.50000000       0.00000000       0.00000000 </v>
    <v>       0.75000000       0.75000000       0.75000000 </v>
    <v>       0.50000000       0.50000000       0.50000000 </v>
    <v>       0.75000000       0.25000000       0.25000000 </v>
    <v>       0.00000000       0.00000000       0.50000000 </v>
    <v>       0.25000000       0.75000000       0.25000000 </v>
    <v>       0.00000000       0.50000000       0.00000000 </v>
    <v>       0.25000000       0.25000000       0.75000000 </v>
   </varray>
  </structure>
  <varray name="forces" >
   <v>       0.00000000       0.00000000       0.00000000 </v>
   <v>       0.00000000       0.00000000       0.00000000 </v>
   <v>       0.00000000       0.00000000       0.00000000 </v>
   <v>       0.00000000       0.00000000       0.00000000 </v>
   <v>       0.00000000       0.00000000       0.00000000 </v>
   <v>       0.00000000       0.00000000       0.00000000 </v>
   <v>       0.00000000       0.00000000       0.00000000 </v>
   <v>       0.00000000       0.00000000       0.00000000 </v>
  </varray>
  <varray name="stress" >
   <v>       0.08279053       0.00000000       0.00000000 </v>
   <v>       0.00000000       0.08279053       0.00000000 </v>
   <v>       0.00000000       0.00000000       0.08279053 </v>
  </varray>
  <energy>
   <i name="e_fr_energy">    -33.35358148 </i>
   <i name="e_wo_entrp">    -33.35345786 </i>
   <i name="e_0_energy">     -0.00024725 </i>
  </energy>
  <kpoints>
   <generation param="Gamma">
    <v type="int" name="divisions">       6        6        6 </v>
    <v name="usershift">      0.00000000       0.00000000       0.00000000 </v>
    <v name="genvec1">      0.16666667       0.00000000       0.00000000 </v>
    <v name="genvec2">      0.00000000       0.16666667       0.00000000 </v>
    <v name="genvec3">      0.00000000       0.00000000       0.16666667 </v>
    <v name="shift">      0.00000000       0.00000000       0.00000000 </v>
   </generation>
   <varray name="kpointlist" >
    <v>       0.00000000       0.00000000       0.00000000 </v>
    <v>       0.16666667       0.00000000       0.00000000 </v>
    <v>       0.33333333       0.00000000       0.00000000 </v>
    <v>       0.50000000       0.00000000       0.00000000 </v>
    <v>       0.00000000       0.16666667       0.00000000 </v>
    <v>       0.16666667       0.16666667       0.00000000 </v>
    <v>       0.33333333       0.16666667       0.00000000 </v>
    <v>       0.50000000       0.16666667       0.00000000 </v>
    <v>       0.00000000       0.33333333       0.00000000 </v>
    <v>       0.16666667       0.33333333       0.00000000 </v>
    <v>       0.33333333       0.33333333       0.00000000 </v>
    <v>       0.50000000       0.33333333       0.00000000 </v>
    <v>       0.00000000       0.50000000       0.00000000 </v>
    <v>       0.16666667       0.50000000       0.00000000 </v>
    <v>       0.33333333       0.50000000       0.00000000 </v>
    <v>       0.50000000       0.50000000       0.00000000 </v>
    <v>       0.00000000       0.16666667       0.16666667 </v>
    <v>       0.16666667       0.16666667       0.16666667 </v>
    <v>       0.33333333       0.16666667       0.16666667 </v>
    <v>       0.50000000       0.16666667       0.16666667 </v>
    <v>       0.00000000       0.33333333       0.16666667 </v>
    <v>       0.16666667       0.33333333       0.16666667 </v>
    <v>       0.33333333       0.33333333       0.16666667 </v>
    <v>       0.50000000       0.33333333       0.16666667 </v>
    <v>       0.00000000       0.50000000       0.16666667 </v>
    <v>       0.16666667       0.50000000       0.16666667 </v>
    <v>       0.33333333       0.50000000       0.16666667 </v>
    <v>       0.50000000       0.50000000       0.16666667 </v>
    <v>       0.00000000       0.33333333       0.33333333 </v>
    <v>       0.16666667       0.33333333       0.33333333 </v>
    <v>       0.33333333       0.33333333       0.33333333 </v>
    <v>       0.50000000       0.33333333       0.33333333 </v>
    <v>       0.00000000       0.50000000       0.33333333 </v>
    <v>       0.16666667       0.50000000       0.33333333 </v>
    <v>       0.33333333       0.50000000       0.33333333 </v>
    <v>       0.50000000       0.50000000       0.33333333 </v>
    <v>       0.00000000       0.50000000       0.50000000 </v>
    <v>       0.16666667       0.50000000       0.50000000 </v>
    <v>       0.33333333       0.50000000       0.50000000 </v>
    <v>       0.50000000       0.50000000       0.50000000 </v>
   </varray>
   <varray name="weights" >
    <v>       0.00462963 </v>
    <v>       0.00925926 </v>
    <v>       0.00925926 </v>
    <v>       0.00462963 </v>
    <v>       0.01851852 </v>
    <v>       0.03703704 </v>
    <v>       0.03703704 </v>
    <v>       0.01851852 </v>
    <v>       0.01851852 </v>
    <v>       0.03703704 </v>
    <v>       0.03703704 </v>
    <v>       0.01851852 </v>
    <v>       0.00925926 </v>
    <v>       0.01851852 </v>
    <v>       0.01851852 </v>
    <v>       0.00925926 </v>
    <v>       0.01851852 </v>
    <v>       0.03703704 </v>
    <v>       0.03703704 </v>
    <v>       0.01851852 </v>
    <v>       0.03703704 </v>
    <v>       0.07407407 </v>
    <v>       0.07407407 </v>
    <v>       0.03703704 </v>
    <v>       0.01851852 </v>
    <v>       0.03703704 </v>
    <v>       0.03703704 </v>
    <v>       0.01851852 </v>
    <v>       0.01851852 </v>
    <v>       0.03703704 </v>
    <v>       0.03703704 </v>
    <v>       0.01851852 </v>
    <v>       0.01851852 </v>
    <v>       0.03703704 </v>
    <v>       0.03703704 </v>
    <v>       0.01851852 </v>
    <v>       0.00462963 </v>
    <v>       0.00925926 </v>
    <v>       0.00925926 </v>
    <v>       0.00462963 </v>
   </varray>
  </kpoints>
  <time name="totalsc">  159.02  177.82</time>
 </calculation>
 <calculation>
  <scstep>
   <time name="dav">    6.56    6.56</time>
   <time name="total">   12.16   12.40</time>
   <energy>
    <i name="alphaZ">     12.80233044 </i>
    <i name="ewald">   -899.22075293 </i>
    <i name="hartreedc">    -61.81596165 </i>
    <i name="XCdc">    -78.81385363 </i>
    <i name="pawpsdc">   2090.29491440 </i>
    <i name="pawaedc">  -1944.08513454 </i>
    <i name="eentropy">     -0.00021883 </i>
    <i name="bandstr">     13.12145614 </i>
    <i name="atom">    834.37766373 </i>
    <i name="e_fr_energy">    -33.33955687 </i>
    <i name="e_wo_entrp">    -33.33933804 </i>
    <i name="e_0_energy">    -33.33944746 </i>
   </energy>
  </scstep>
  <scstep>
   <time name="dav">    6.21    6.21</time>
   <time name="total">   11.49   11.72</time>
   <energy>
    <i name="e_fr_energy">    -33.33272494 </i>
    <i name="e_wo_entrp">    -33.33248100 </i>
    <i name="e_0_energy">    -33.33260297 </i>
   </energy>
  </scstep>
  <scstep>
   <time name="dav">    7.14    7.27</time>
   <time name="total">   12.42   13.95</time>
   <energy>
    <i name="e_fr_energy">    -33.32239369 </i>
    <i name="e_wo_entrp">    -33.32211271 </i>
    <i name="e_0_energy">    -33.32225320 </i>
   </energy>
  </scstep>
  <scstep>
   <time name="dav">    7.06    7.07</time>
   <time name="total">   12.03   12.31</time>
   <energy>
    <i name="e_fr_energy">    -33.32108745 </i>
    <i name="e_wo_entrp">    -33.32080736 </i>
    <i name="e_0_energy">    -33.32094741 </i>
   </energy>
  </scstep>
  <scstep>
   <time name="dav">    7.03    7.30</time>
   <time name="total">   12.30   14.24</time>
   <energy>
    <i name="e_fr_energy">    -33.31829024 </i>
    <i name="e_wo_entrp">    -33.31801099 </i>
    <i name="e_0_energy">    -33.31815061 </i>
   </energy>
  </scstep>
  <scstep>
   <time name="dav">    6.61    6.61</time>
   <time name="total">   11.57   11.71</time>
   <energy>
    <i name="e_fr_energy">    -33.31874478 </i>
    <i name="e_wo_entrp">    -33.31846508 </i>
    <i name="e_0_energy">    -33.31860493 </i>
   </energy>
  </scstep>
  <scstep>
   <time name="dav">    5.42    5.42</time>
   <time name="total">   10.32   11.76</time>
   <energy>
    <i name="e_fr_energy">    -33.31892840 </i>
    <i name="e_wo_entrp">    -33.31864870 </i>
    <i name="e_0_energy">    -33.31878855 </i>
   </energy>
  </scstep>
  <scstep>
   <time name="dav">    5.48    5.67</time>
   <time name="total">   10.43   10.82</time>
   <energy>
    <i name="e_fr_energy">    -33.31894298 </i>
    <i name="e_wo_entrp">    -33.31866328 </i>
    <i name="e_0_energy">    -33.31880313 </i>
   </energy>
  </scstep>
  <scstep>
   <time name="dav">    5.22    5.23</time>
   <time name="total">   10.53   10.67</time>
   <energy>
    <i name="e_fr_energy">    -33.31893521 </i>
    <i name="e_wo_entrp">    -33.31865551 </i>
    <i name="e_0_energy">    -33.31879536 </i>
   </energy>
  </scstep>
  <scstep>
   <time name="dav">    4.90    4.90</time>
   <time name="total">   10.24   13.45</time>
   <energy>
    <i name="e_fr_energy">    -33.31893665 </i>
    <i name="e_wo_entrp">    -33.31865696 </i>
    <i name="e_0_energy">    -33.31879680 </i>
   </energy>
  </scstep>
  <scstep>
   <time name="dav">    5.18    5.19</time>
   <time name="total">   10.23   10.54</time>
   <energy>
    <i name="alphaZ">     12.80233044 </i>
    <i name="ewald">   -899.22075293 </i>
    <i name="hartreedc">    -62.80484658 </i>
    <i name="XCdc">    -78.81228160 </i>
    <i name="pawpsdc">   2024.87411836 </i>
    <i name="pawaedc">  -1878.59770750 </i>
    <i name="eentropy">     -0.00027970 </i>
    <i name="bandstr">     14.06281910 </i>
    <i name="atom">    834.37766373 </i>
    <i name="e_fr_energy">    -33.31893668 </i>
    <i name="e_wo_entrp">    -33.31865698 </i>
    <i name="e_0_energy">    -33.31879683 </i>
   </energy>
  </scstep>
  <structure>
   <crystal>
    <varray name="basis" >
     <v>       5.57603952       0.00000000       0.00000000 </v>
     <v>       0.00000000       5.49363500       0.00000000 </v>
     <v>       0.00000000       0.00000000       5.49363500 </v>
    </varray>
    <i name="volume">    168.28501513 </i>
    <varray name="rec_basis" >
     <v>       0.17933876       0.00000000       0.00000000 </v>
     <v>       0.00000000       0.18202884       0.00000000 </v>
     <v>       0.00000000       0.00000000       0.18202884 </v>
    </varray>
   </crystal>
   <varray name="positions" >
    <v>       0.50000000       0.00000000       0.00000000 </v>
    <v>       0.75000000       0.75000000       0.75000000 </v>
    <v>       0.50000000       0.50000000       0.50000000 </v>
    <v>       0.75000000       0.25000000       0.25000000 </v>
    <v>       0.00000000       0.00000000       0.50000000 </v>
    <v>       0.25000000       0.75000000       0.25000000 </v>
    <v>       0.00000000       0.50000000       0.00000000 </v>
    <v>       0.25000000       0.25000000       0.75000000 </v>
   </varray>
  </structure>
  <varray name="forces" >
   <v>       0.00000000       0.00000000       0.00000000 </v>
   <v>       0.00000000       0.00000000       0.00000000 </v>
   <v>       0.00000000       0.00000000       0.00000000 </v>
   <v>       0.00000000       0.00000000       0.00000000 </v>
   <v>       0.00000000       0.00000000       0.00000000 </v>
   <v>       0.00000000       0.00000000       0.00000000 </v>
   <v>       0.00000000       0.00000000       0.00000000 </v>
   <v>       0.00000000       0.00000000       0.00000000 </v>
  </varray>
  <varray name="stress" >
   <v>     -22.09113201       0.00000000       0.00000000 </v>
   <v>       0.00000000      -7.77035399       0.00000000 </v>
   <v>       0.00000000       0.00000000      -7.77035399 </v>
  </varray>
  <energy>
   <i name="e_fr_energy">    -33.31893668 </i>
   <i name="e_wo_entrp">    -33.31879683 </i>
   <i name="e_0_energy">     -0.00027970 </i>
  </energy>
  <kpoints>
   <generation param="Gamma">
    <v type="int" name="divisions">       6        6        6 </v>
    <v name="usershift">      0.00000000       0.00000000       0.00000000 </v>
    <v name="genvec1">      0.16666667       0.00000000       0.00000000 </v>
    <v name="genvec2">      0.00000000       0.16666667       0.00000000 </v>
    <v name="genvec3">      0.00000000       0.00000000       0.16666667 </v>
    <v name="shift">      0.00000000       0.00000000       0.00000000 </v>
   </generation>
   <varray name="kpointlist" >
    <v>       0.00000000       0.00000000       0.00000000 </v>
    <v>       0.16666667       0.00000000       0.00000000 </v>
    <v>       0.33333333       0.00000000       0.00000000 </v>
    <v>       0.50000000       0.00000000       0.00000000 </v>
    <v>       0.00000000       0.16666667       0.00000000 </v>
    <v>       0.16666667       0.16666667       0.00000000 </v>
    <v>       0.33333333       0.16666667       0.00000000 </v>
    <v>       0.50000000       0.16666667       0.00000000 </v>
    <v>       0.00000000       0.33333333       0.00000000 </v>
    <v>       0.16666667       0.33333333       0.00000000 </v>
    <v>       0.33333333       0.33333333       0.00000000 </v>
    <v>       0.50000000       0.33333333       0.00000000 </v>
    <v>       0.00000000       0.50000000       0.00000000 </v>
    <v>       0.16666667       0.50000000       0.00000000 </v>
    <v>       0.33333333       0.50000000       0.00000000 </v>
    <v>       0.50000000       0.50000000       0.00000000 </v>
    <v>       0.00000000       0.16666667       0.16666667 </v>
    <v>       0.16666667       0.16666667       0.16666667 </v>
    <v>       0.33333333       0.16666667       0.16666667 </v>
    <v>       0.50000000       0.16666667       0.16666667 </v>
    <v>       0.00000000       0.33333333       0.16666667 </v>
    <v>       0.16666667       0.33333333       0.16666667 </v>
    <v>       0.33333333       0.33333333       0.16666667 </v>
    <v>       0.50000000       0.33333333       0.16666667 </v>
    <v>       0.00000000       0.50000000       0.16666667 </v>
    <v>       0.16666667       0.50000000       0.16666667 </v>
    <v>       0.33333333       0.50000000       0.16666667 </v>
    <v>       0.50000000       0.50000000       0.16666667 </v>
    <v>       0.00000000       0.33333333       0.33333333 </v>
    <v>       0.16666667       0.33333333       0.33333333 </v>
    <v>       0.33333333       0.33333333       0.33333333 </v>
    <v>       0.50000000       0.33333333       0.33333333 </v>
    <v>       0.00000000       0.50000000       0.33333333 </v>
    <v>       0.16666667       0.50000000       0.33333333 </v>
    <v>       0.33333333       0.50000000       0.33333333 </v>
    <v>       0.50000000       0.50000000       0.33333333 </v>
    <v>       0.00000000       0.50000000       0.50000000 </v>
    <v>       0.16666667       0.50000000       0.50000000 </v>
    <v>       0.33333333       0.50000000       0.50000000 </v>
    <v>       0.50000000       0.50000000       0.50000000 </v>
   </varray>
   <varray name="weights" >
    <v>       0.00462963 </v>
    <v>       0.00925926 </v>
    <v>       0.00925926 </v>
    <v>       0.00462963 </v>
    <v>       0.01851852 </v>
    <v>       0.03703704 </v>
    <v>       0.03703704 </v>
    <v>       0.01851852 </v>
    <v>       0.01851852 </v>
    <v>       0.03703704 </v>
    <v>       0.03703704 </v>
    <v>       0.01851852 </v>
    <v>       0.00925926 </v>
    <v>       0.01851852 </v>
    <v>       0.01851852 </v>
    <v>       0.00925926 </v>
    <v>       0.01851852 </v>
    <v>       0.03703704 </v>
    <v>       0.03703704 </v>
    <v>       0.01851852 </v>
    <v>       0.03703704 </v>
    <v>       0.07407407 </v>
    <v>       0.07407407 </v>
    <v>       0.03703704 </v>
    <v>       0.01851852 </v>
    <v>       0.03703704 </v>
    <v>       0.03703704 </v>
    <v>       0.01851852 </v>
    <v>       0.01851852 </v>
    <v>       0.03703704 </v>
    <v>       0.03703704 </v>
    <v>       0.01851852 </v>
    <v>       0.01851852 </v>
    <v>       0.03703704 </v>
    <v>       0.03703704 </v>
    <v>       0.01851852 </v>
    <v>       0.00462963 </v>
    <v>       0.00925926 </v>
    <v>       0.00925926 </v>
    <v>       0.00462963 </v>
   </varray>
  </kpoints>
  <time name="totalsc">  139.83  153.42</time>
 </calculation>
 <calculation>
  <scstep>
   <time name="dav">    7.54    7.54</time>
   <time name="total">   13.11   13.39</time>
   <energy>
    <i name="alphaZ">     13.19224913 </i>
    <i name="ewald">   -908.25970069 </i>
    <i name="hartreedc">    -63.43523195 </i>
    <i name="XCdc">    -78.27830443 </i>
    <i name="pawpsdc">   2024.87391150 </i>
    <i name="pawaedc">  -1878.59749935 </i>
    <i name="eentropy">     -0.00067237 </i>
    <i name="bandstr">     22.79488502 </i>
    <i name="atom">    834.37766373 </i>
    <i name="e_fr_energy">    -33.33269941 </i>
    <i name="e_wo_entrp">    -33.33202704 </i>
    <i name="e_0_energy">    -33.33236322 </i>
   </energy>
  </scstep>
  <scstep>
   <time name="dav">    7.04    7.05</time>
   <time name="total">   12.48   14.93</time>
   <energy>
    <i name="e_fr_energy">    -33.33392740 </i>
    <i name="e_wo_entrp">    -33.33336755 </i>
    <i name="e_0_energy">    -33.33364748 </i>
   </energy>
  </scstep>
  <scstep>
   <time name="dav">    7.52    7.52</time>
   <time name="total">   13.06   14.50</time>
   <energy>
    <i name="e_fr_energy">    -33.34703614 </i>
    <i name="e_wo_entrp">    -33.34659717 </i>
    <i name="e_0_energy">    -33.34681666 </i>
   </energy>
  </scstep>
  <scstep>
   <time name="dav">    7.62    7.62</time>
   <time name="total">   12.98   14.99</time>
   <energy>
    <i name="e_fr_energy">    -33.34925338 </i>
    <i name="e_wo_entrp">    -33.34880933 </i>
    <i name="e_0_energy">    -33.34903135 </i>
   </energy>
  </scstep>
  <scstep>
   <time name="dav">    7.66    7.97</time>
   <time name="total">   13.10   13.85</time>
   <energy>
    <i name="e_fr_energy">    -33.35517612 </i>
    <i name="e_wo_entrp">    -33.35472741 </i>
    <i name="e_0_energy">    -33.35495176 </i>
   </energy>
  </scstep>
  <scstep>
   <time name="dav">    7.10    7.10</time>
   <time name="total">   12.48   12.63</time>
   <energy>
    <i name="e_fr_energy">    -33.35419168 </i>
    <i name="e_wo_entrp">    -33.35374455 </i>
    <i name="e_0_energy">    -33.35396812 </i>
   </energy>
  </scstep>
  <scstep>
   <time name="dav">    7.57    7.58</time>
   <time name="total">   13.00   13.33</time>
   <energy>
    <i name="e_fr_energy">    -33.35388927 </i>
    <i name="e_wo_entrp">    -33.35344212 </i>
    <i name="e_0_energy">    -33.35366570 </i>
   </energy>
  </scstep>
  <scstep>
   <time name="dav">    5.41    5.41</time>
   <time name="total">   10.80   11.69</time>
   <energy>
    <i name="e_fr_energy">    -33.35381910 </i>
    <i name="e_wo_entrp">    -33.35337190 </i>
    <i name="e_0_energy">    -33.35359550 </i>
   </energy>
  </scstep>
  <scstep>
   <time name="dav">    5.38    5.39</time>
   <time name="total">   10.77   12.80</time>
   <energy>
    <i name="e_fr_energy">    -33.35382067 </i>
    <i name="e_wo_entrp">    -33.35337348 </i>
    <i name="e_0_energy">    -33.35359708 </i>
   </energy>
  </scstep>
  <scstep>
   <time name="dav">    5.43    5.43</time>
   <time name="total">   10.99   11.65</time>
   <energy>
    <i name="e_fr_energy">    -33.35382262 </i>
    <i name="e_wo_entrp">    -33.35337541 </i>
    <i name="e_0_energy">    -33.35359902 </i>
   </energy>
  </scstep>
  <scstep>
   <time name="dav">    5.06    5.06</time>
   <time name="total">   10.62   13.11</time>
   <energy>
    <i name="e_fr_energy">    -33.35382366 </i>
    <i name="e_wo_entrp">    -33.35337646 </i>
    <i name="e_0_energy">    -33.35360006 </i>
   </energy>
  </scstep>
  <scstep>
   <time name="dav">    5.32    5.33</time>
   <time name="total">   10.84   11.27</time>
   <energy>
    <i name="e_fr_energy">    -33.35382456 </i>
    <i name="e_wo_entrp">    -33.35337735 </i>
    <i name="e_0_energy">    -33.35360096 </i>
   </energy>
  </scstep>
  <scstep>
   <time name="dav">    5.25    5.25</time>
   <time name="total">   10.78   12.22</time>
   <energy>
    <i name="e_fr_energy">    -33.35382433 </i>
    <i name="e_wo_entrp">    -33.35337713 </i>
    <i name="e_0_energy">    -33.35360073 </i>
   </energy>
  </scstep>
  <scstep>
   <time name="dav">    5.25    5.25</time>
   <time name="total">   10.81   10.99</time>
   <energy>
    <i name="e_fr_energy">    -33.35382423 </i>
    <i name="e_wo_entrp">    -33.35337703 </i>
    <i name="e_0_energy">    -33.35360063 </i>
   </energy>
  </scstep>
  <scstep>
   <time name="dav">    4.84    4.84</time>
   <time name="total">    9.65   11.69</time>
   <energy>
    <i name="alphaZ">     13.19224913 </i>
    <i name="ewald">   -908.25970069 </i>
    <i name="hartreedc">    -61.40040793 </i>
    <i name="XCdc">    -78.28101536 </i>
    <i name="pawpsdc">   2157.88282455 </i>
    <i name="pawaedc">  -2011.74159955 </i>
    <i name="eentropy">     -0.00044720 </i>
    <i name="bandstr">     20.87660910 </i>
    <i name="atom">    834.37766373 </i>
    <i name="e_fr_energy">    -33.35382421 </i>
    <i name="e_wo_entrp">    -33.35337701 </i>
    <i name="e_0_energy">    -33.35360061 </i>
   </energy>
  </scstep>
  <structure>
   <crystal>
    <varray name="basis" >
     <v>       5.41123047       0.00000000       0.00000000 </v>
     <v>       0.00000000       5.49363500       0.00000000 </v>
     <v>       0.00000000       0.00000000       5.49363500 </v>
    </varray>
    <i name="volume">    163.31107379 </i>
    <varray name="rec_basis" >
     <v>       0.18480085       0.00000000       0.00000000 </v>
     <v>       0.00000000       0.18202884       0.00000000 </v>
     <v>       0.00000000       0.00000000       0.18202884 </v>
    </varray>
   </crystal>
   <varray name="positions" >
    <v>       0.50000000       0.00000000       0.00000000 </v>
    <v>       0.75000000       0.75000000       0.75000000 </v>
    <v>       0.50000000       0.50000000       0.50000000 </v>
    <v>       0.75000000       0.25000000       0.25000000 </v>
    <v>       0.00000000       0.00000000       0.50000000 </v>
    <v>       0.25000000       0.75000000       0.25000000 </v>
    <v>       0.00000000       0.50000000       0.00000000 </v>
    <v>       0.25000000       0.25000000       0.75000000 </v>
   </varray>
  </structure>
  <varray name="forces" >
   <v>       0.00000000       0.00000000       0.00000000 </v>
   <v>       0.00000000       0.00000000       0.00000000 </v>
   <v>       0.00000000       0.00000000       0.00000000 </v>
   <v>       0.00000000       0.00000000       0.00000000 </v>
   <v>       0.00000000       0.00000000       0.00000000 </v>
   <v>       0.00000000       0.00000000       0.00000000 </v>
   <v>       0.00000000       0.00000000       0.00000000 </v>
   <v>       0.00000000       0.00000000       0.00000000 </v>
  </varray>
  <varray name="stress" >
   <v>      22.92465518       0.00000000       0.00000000 </v>
   <v>       0.00000000       9.02024726       0.00000000 </v>
   <v>       0.00000000       0.00000000       9.02024726 </v>
  </varray>
  <energy>
   <i name="e_fr_energy">    -33.35382421 </i>
   <i name="e_wo_entrp">    -33.35360061 </i>
   <i name="e_0_energy">     -0.00044720 </i>
  </energy>
  <kpoints>
   <generation param="Gamma">
    <v type="int" name="divisions">       6        6        6 </v>
    <v name="usershift">      0.00000000       0.00000000       0.00000000 </v>
    <v name="genvec1">      0.16666667       0.00000000       0.00000000 </v>
    <v name="genvec2">      0.00000000       0.16666667       0.00000000 </v>
    <v name="genvec3">      0.00000000       0.00000000       0.16666667 </v>
    <v name="shift">      0.00000000       0.00000000       0.00000000 </v>
   </generation>
   <varray name="kpointlist" >
    <v>       0.00000000       0.00000000       0.00000000 </v>
    <v>       0.16666667       0.00000000       0.00000000 </v>
    <v>       0.33333333       0.00000000       0.00000000 </v>
    <v>       0.50000000       0.00000000       0.00000000 </v>
    <v>       0.00000000       0.16666667       0.00000000 </v>
    <v>       0.16666667       0.16666667       0.00000000 </v>
    <v>       0.33333333       0.16666667       0.00000000 </v>
    <v>       0.50000000       0.16666667       0.00000000 </v>
    <v>       0.00000000       0.33333333       0.00000000 </v>
    <v>       0.16666667       0.33333333       0.00000000 </v>
    <v>       0.33333333       0.33333333       0.00000000 </v>
    <v>       0.50000000       0.33333333       0.00000000 </v>
    <v>       0.00000000       0.50000000       0.00000000 </v>
    <v>       0.16666667       0.50000000       0.00000000 </v>
    <v>       0.33333333       0.50000000       0.00000000 </v>
    <v>       0.50000000       0.50000000       0.00000000 </v>
    <v>       0.16666667       0.00000000       0.16666667 </v>
    <v>       0.33333333       0.00000000       0.16666667 </v>
    <v>       0.50000000       0.00000000       0.16666667 </v>
    <v>       0.16666667       0.16666667       0.16666667 </v>
    <v>       0.33333333       0.16666667       0.16666667 </v>
    <v>       0.50000000       0.16666667       0.16666667 </v>
    <v>       0.16666667       0.33333333       0.16666667 </v>
    <v>       0.33333333       0.33333333       0.16666667 </v>
    <v>       0.50000000       0.33333333       0.16666667 </v>
    <v>       0.16666667       0.50000000       0.16666667 </v>
    <v>       0.33333333       0.50000000       0.16666667 </v>
    <v>       0.50000000       0.50000000       0.16666667 </v>
    <v>       0.33333333       0.00000000       0.33333333 </v>
    <v>       0.50000000       0.00000000       0.33333333 </v>
    <v>       0.33333333       0.16666667       0.33333333 </v>
    <v>       0.50000000       0.16666667       0.33333333 </v>
    <v>       0.33333333       0.33333333       0.33333333 </v>
    <v>       0.50000000       0.33333333       0.33333333 </v>
    <v>       0.33333333       0.50000000       0.33333333 </v>
    <v>       0.50000000       0.50000000       0.33333333 </v>
    <v>       0.50000000       0.00000000       0.50000000 </v>
    <v>       0.50000000       0.16666667       0.50000000 </v>
    <v>       0.50000000       0.33333333       0.50000000 </v>
    <v>       0.50000000       0.50000000       0.50000000 </v>
   </varray>
   <varray name="weights" >
    <v>       0.00462963 </v>
    <v>       0.01851852 </v>
    <v>       0.01851852 </v>
    <v>       0.00925926 </v>
    <v>       0.00925926 </v>
    <v>       0.03703704 </v>
    <v>       0.03703704 </v>
    <v>       0.01851852 </v>
    <v>       0.00925926 </v>
    <v>       0.03703704 </v>
    <v>       0.03703704 </v>
    <v>       0.01851852 </v>
    <v>       0.00462963 </v>
    <v>       0.01851852 </v>
    <v>       0.01851852 </v>
    <v>       0.00925926 </v>
    <v>       0.01851852 </v>
    <v>       0.03703704 </v>
    <v>       0.01851852 </v>
    <v>       0.03703704 </v>
    <v>       0.07407407 </v>
    <v>       0.03703704 </v>
    <v>       0.03703704 </v>
    <v>       0.07407407 </v>
    <v>       0.03703704 </v>
    <v>       0.01851852 </v>
    <v>       0.03703704 </v>
    <v>       0.01851852 </v>
    <v>       0.01851852 </v>
    <v>       0.01851852 </v>
    <v>       0.03703704 </v>
    <v>       0.03703704 </v>
    <v>       0.03703704 </v>
    <v>       0.03703704 </v>
    <v>       0.01851852 </v>
    <v>       0.01851852 </v>
    <v>       0.00462963 </v>
    <v>       0.00925926 </v>
    <v>       0.00925926 </v>
    <v>       0.00462963 </v>
   </varray>
  </kpoints>
  <time name="totalsc">  190.56  213.50</time>
 </calculation>
 <calculation>
  <scstep>
   <time name="dav">    7.08    7.09</time>
   <time name="total">   12.20   12.52</time>
   <energy>
    <i name="alphaZ">     12.80233044 </i>
    <i name="ewald">   -899.22075293 </i>
    <i name="hartreedc">    -60.78945471 </i>
    <i name="XCdc">    -78.81959646 </i>
    <i name="pawpsdc">   2157.88275318 </i>
    <i name="pawaedc">  -2011.74152819 </i>
    <i name="eentropy">     -0.00017210 </i>
    <i name="bandstr">     12.13694923 </i>
    <i name="atom">    834.37766373 </i>
    <i name="e_fr_energy">    -33.37180781 </i>
    <i name="e_wo_entrp">    -33.37163571 </i>
    <i name="e_0_energy">    -33.37172176 </i>
   </energy>
  </scstep>
  <scstep>
   <time name="dav">    7.14    7.15</time>
   <time name="total">   12.50   12.91</time>
   <energy>
    <i name="e_fr_energy">    -33.35128555 </i>
    <i name="e_wo_entrp">    -33.35107068 </i>
    <i name="e_0_energy">    -33.35117812 </i>
   </energy>
  </scstep>
  <scstep>
   <time name="dav">    7.36    7.41</time>
   <time name="total">   12.75   13.10</time>
   <energy>
    <i name="e_fr_energy">    -33.32549183 </i>
    <i name="e_wo_entrp">    -33.32520623 </i>
    <i name="e_0_energy">    -33.32534903 </i>
   </energy>
  </scstep>
  <scstep>
   <time name="dav">    7.48    7.54</time>
   <time name="total">   12.49   14.18</time>
   <energy>
    <i name="e_fr_energy">    -33.32367924 </i>
    <i name="e_wo_entrp">    -33.32339787 </i>
    <i name="e_0_energy">    -33.32353855 </i>
   </energy>
  </scstep>
  <scstep>
   <time name="dav">    7.23    7.30</time>
   <time name="total">   12.14   12.48</time>
   <energy>
    <i name="e_fr_energy">    -33.31781514 </i>
    <i name="e_wo_entrp">    -33.31753596 </i>
    <i name="e_0_energy">    -33.31767555 </i>
   </energy>
  </scstep>
  <scstep>
   <time name="dav">    6.99    7.04</time>
   <time name="total">   12.02   13.69</time>
   <energy>
    <i name="e_fr_energy">    -33.31867537 </i>
    <i name="e_wo_entrp">    -33.31839567 </i>
    <i name="e_0_energy">    -33.31853552 </i>
   </energy>
  </scstep>
  <scstep>
   <time name="dav">    6.66    6.71</time>
   <time name="total">   11.72   13.04</time>
   <energy>
    <i name="e_fr_energy">    -33.31889606 </i>
    <i name="e_wo_entrp">    -33.31861636 </i>
    <i name="e_0_energy">    -33.31875621 </i>
   </energy>
  </scstep>
  <scstep>
   <time name="dav">    5.10    5.14</time>
   <time name="total">   10.24   10.71</time>
   <energy>
    <i name="e_fr_energy">    -33.31892932 </i>
    <i name="e_wo_entrp">    -33.31864962 </i>
    <i name="e_0_energy">    -33.31878947 </i>
   </energy>
  </scstep>
  <scstep>
   <time name="dav">    5.25    5.26</time>
   <time name="total">   10.07   10.93</time>
   <energy>
    <i name="e_fr_energy">    -33.31893613 </i>
    <i name="e_wo_entrp">    -33.31865642 </i>
    <i name="e_0_energy">    -33.31879627 </i>
   </energy>
  </scstep>
  <scstep>
   <time name="dav">    5.64    5.64</time>
   <time name="total">   10.68   12.64</time>
   <energy>
    <i name="e_fr_energy">    -33.31893732 </i>
    <i name="e_wo_entrp">    -33.31865762 </i>
    <i name="e_0_energy">    -33.31879747 </i>
   </energy>
  </scstep>
  <scstep>
   <time name="dav">    4.88    4.88</time>
   <time name="total">    9.81   10.19</time>
   <energy>
    <i name="e_fr_energy">    -33.31893718 </i>
    <i name="e_wo_entrp">    -33.31865748 </i>
    <i name="e_0_energy">    -33.31879733 </i>
   </energy>
  </scstep>
  <scstep>
   <time name="dav">    4.89    4.89</time>
   <time name="total">    9.83   11.26</time>
   <energy>
    <i name="e_fr_energy">    -33.31893666 </i>
    <i name="e_wo_entrp">    -33.31865696 </i>
    <i name="e_0_energy">    -33.31879681 </i>
   </energy>
  </scstep>
  <scstep>
   <time name="dav">    4.88    4.89</time>
   <time name="total">    9.79   10.00</time>
   <energy>
    <i name="e_fr_energy">    -33.31893638 </i>
    <i name="e_wo_entrp">    -33.31865668 </i>
    <i name="e_0_energy">    -33.31879653 </i>
   </energy>
  </scstep>
  <scstep>
   <time name="dav">    4.72    4.73</time>
   <time name="total">    9.44   10.24</time>
   <energy>
    <i name="alphaZ">     12.80233044 </i>
    <i name="ewald">   -899.22075293 </i>
    <i name="hartreedc">    -62.80484543 </i>
    <i name="XCdc">    -78.81228144 </i>
    <i name="pawpsdc">   2024.87688946 </i>
    <i name="pawaedc">  -1878.60047741 </i>
    <i name="eentropy">     -0.00027970 </i>
    <i name="bandstr">     14.06281684 </i>
    <i name="atom">    834.37766373 </i>
    <i name="e_fr_energy">    -33.31893645 </i>
    <i name="e_wo_entrp">    -33.31865675 </i>
    <i name="e_0_energy">    -33.31879660 </i>
   </energy>
  </scstep>
  <structure>
   <crystal>
    <varray name="basis" >
     <v>       5.49363500       0.00000000       0.00000000 </v>
     <v>       0.00000000       5.57603952       0.00000000 </v>
     <v>       0.00000000       0.00000000       5.49363500 </v>
    </varray>
    <i name="volume">    168.28501513 </i>
    <varray name="rec_basis" >
     <v>       0.18202884       0.00000000       0.00000000 </v>
     <v>       0.00000000       0.17933876       0.00000000 </v>
     <v>       0.00000000       0.00000000       0.18202884 </v>
    </varray>
   </crystal>
   <varray name="positions" >
    <v>       0.50000000       0.00000000       0.00000000 </v>
    <v>       0.75000000       0.75000000       0.75000000 </v>
    <v>       0.50000000       0.50000000       0.50000000 </v>
    <v>       0.75000000       0.25000000       0.25000000 </v>
    <v>       0.00000000       0.00000000       0.50000000 </v>
    <v>       0.25000000       0.75000000       0.25000000 </v>
    <v>       0.00000000       0.50000000       0.00000000 </v>
    <v>       0.25000000       0.25000000       0.75000000 </v>
   </varray>
  </structure>
  <varray name="forces" >
   <v>       0.00000000       0.00000000       0.00000000 </v>
   <v>       0.00000000       0.00000000       0.00000000 </v>
   <v>       0.00000000       0.00000000       0.00000000 </v>
   <v>       0.00000000       0.00000000       0.00000000 </v>
   <v>       0.00000000       0.00000000       0.00000000 </v>
   <v>       0.00000000       0.00000000       0.00000000 </v>
   <v>       0.00000000       0.00000000       0.00000000 </v>
   <v>       0.00000000       0.00000000       0.00000000 </v>
  </varray>
  <varray name="stress" >
   <v>      -7.77029241       0.00000000       0.00000000 </v>
   <v>       0.00000000     -22.09105211       0.00000000 </v>
   <v>       0.00000000       0.00000000      -7.77029241 </v>
  </varray>
  <energy>
   <i name="e_fr_energy">    -33.31893645 </i>
   <i name="e_wo_entrp">    -33.31879660 </i>
   <i name="e_0_energy">     -0.00027970 </i>
  </energy>
  <kpoints>
   <generation param="Gamma">
    <v type="int" name="divisions">       6        6        6 </v>
    <v name="usershift">      0.00000000       0.00000000       0.00000000 </v>
    <v name="genvec1">      0.16666667       0.00000000       0.00000000 </v>
    <v name="genvec2">      0.00000000       0.16666667       0.00000000 </v>
    <v name="genvec3">      0.00000000       0.00000000       0.16666667 </v>
    <v name="shift">      0.00000000       0.00000000       0.00000000 </v>
   </generation>
   <varray name="kpointlist" >
    <v>       0.00000000       0.00000000       0.00000000 </v>
    <v>       0.16666667       0.00000000       0.00000000 </v>
    <v>       0.33333333       0.00000000       0.00000000 </v>
    <v>       0.50000000       0.00000000       0.00000000 </v>
    <v>       0.00000000       0.16666667       0.00000000 </v>
    <v>       0.16666667       0.16666667       0.00000000 </v>
    <v>       0.33333333       0.16666667       0.00000000 </v>
    <v>       0.50000000       0.16666667       0.00000000 </v>
    <v>       0.00000000       0.33333333       0.00000000 </v>
    <v>       0.16666667       0.33333333       0.00000000 </v>
    <v>       0.33333333       0.33333333       0.00000000 </v>
    <v>       0.50000000       0.33333333       0.00000000 </v>
    <v>       0.00000000       0.50000000       0.00000000 </v>
    <v>       0.16666667       0.50000000       0.00000000 </v>
    <v>       0.33333333       0.50000000       0.00000000 </v>
    <v>       0.50000000       0.50000000       0.00000000 </v>
    <v>       0.16666667       0.00000000       0.16666667 </v>
    <v>       0.33333333       0.00000000       0.16666667 </v>
    <v>       0.50000000       0.00000000       0.16666667 </v>
    <v>       0.16666667       0.16666667       0.16666667 </v>
    <v>       0.33333333       0.16666667       0.16666667 </v>
    <v>       0.50000000       0.16666667       0.16666667 </v>
    <v>       0.16666667       0.33333333       0.16666667 </v>
    <v>       0.33333333       0.33333333       0.16666667 </v>
    <v>       0.50000000       0.33333333       0.16666667 </v>
    <v>       0.16666667       0.50000000       0.16666667 </v>
    <v>       0.33333333       0.50000000       0.16666667 </v>
    <v>       0.50000000       0.50000000       0.16666667 </v>
    <v>       0.33333333       0.00000000       0.33333333 </v>
    <v>       0.50000000       0.00000000       0.33333333 </v>
    <v>       0.33333333       0.16666667       0.33333333 </v>
    <v>       0.50000000       0.16666667       0.33333333 </v>
    <v>       0.33333333       0.33333333       0.33333333 </v>
    <v>       0.50000000       0.33333333       0.33333333 </v>
    <v>       0.33333333       0.50000000       0.33333333 </v>
    <v>       0.50000000       0.50000000       0.33333333 </v>
    <v>       0.50000000       0.00000000       0.50000000 </v>
    <v>       0.50000000       0.16666667       0.50000000 </v>
    <v>       0.50000000       0.33333333       0.50000000 </v>
    <v>       0.50000000       0.50000000       0.50000000 </v>
   </varray>
   <varray name="weights" >
    <v>       0.00462963 </v>
    <v>       0.01851852 </v>
    <v>       0.01851852 </v>
    <v>       0.00925926 </v>
    <v>       0.00925926 </v>
    <v>       0.03703704 </v>
    <v>       0.03703704 </v>
    <v>       0.01851852 </v>
    <v>       0.00925926 </v>
    <v>       0.03703704 </v>
    <v>       0.03703704 </v>
    <v>       0.01851852 </v>
    <v>       0.00462963 </v>
    <v>       0.01851852 </v>
    <v>       0.01851852 </v>
    <v>       0.00925926 </v>
    <v>       0.01851852 </v>
    <v>       0.03703704 </v>
    <v>       0.01851852 </v>
    <v>       0.03703704 </v>
    <v>       0.07407407 </v>
    <v>       0.03703704 </v>
    <v>       0.03703704 </v>
    <v>       0.07407407 </v>
    <v>       0.03703704 </v>
    <v>       0.01851852 </v>
    <v>       0.03703704 </v>
    <v>       0.01851852 </v>
    <v>       0.01851852 </v>
    <v>       0.01851852 </v>
    <v>       0.03703704 </v>
    <v>       0.03703704 </v>
    <v>       0.03703704 </v>
    <v>       0.03703704 </v>
    <v>       0.01851852 </v>
    <v>       0.01851852 </v>
    <v>       0.00462963 </v>
    <v>       0.00925926 </v>
    <v>       0.00925926 </v>
    <v>       0.00462963 </v>
   </varray>
  </kpoints>
  <time name="totalsc">  170.28  183.49</time>
 </calculation>
 <calculation>
  <scstep>
   <time name="dav">    7.25    7.25</time>
   <time name="total">   12.34   12.82</time>
   <energy>
    <i name="alphaZ">     13.19224913 </i>
    <i name="ewald">   -908.25970069 </i>
    <i name="hartreedc">    -63.43523762 </i>
    <i name="XCdc">    -78.27830329 </i>
    <i name="pawpsdc">   2024.87657885 </i>
    <i name="pawaedc">  -1878.60016687 </i>
    <i name="eentropy">     -0.00067227 </i>
    <i name="bandstr">     22.79503903 </i>
    <i name="atom">    834.37766373 </i>
    <i name="e_fr_energy">    -33.33255001 </i>
    <i name="e_wo_entrp">    -33.33187774 </i>
    <i name="e_0_energy">    -33.33221388 </i>
   </energy>
  </scstep>
  <scstep>
   <time name="dav">    7.14    7.14</time>
   <time name="total">   12.29   12.67</time>
   <energy>
    <i name="e_fr_energy">    -33.33407950 </i>
    <i name="e_wo_entrp">    -33.33351932 </i>
    <i name="e_0_energy">    -33.33379941 </i>
   </energy>
  </scstep>
  <scstep>
   <time name="dav">    7.50    7.51</time>
   <time name="total">   12.55   13.94</time>
   <energy>
    <i name="e_fr_energy">    -33.34705350 </i>
    <i name="e_wo_entrp">    -33.34661448 </i>
    <i name="e_0_energy">    -33.34683399 </i>
   </energy>
  </scstep>
  <scstep>
   <time name="dav">    7.82    7.83</time>
   <time name="total">   12.88   14.14</time>
   <energy>
    <i name="e_fr_energy">    -33.34928225 </i>
    <i name="e_wo_entrp">    -33.34883806 </i>
    <i name="e_0_energy">    -33.34906016 </i>
   </energy>
  </scstep>
  <scstep>
   <time name="dav">    8.00    8.14</time>
   <time name="total">   13.11   13.46</time>
   <energy>
    <i name="e_fr_energy">    -33.35518757 </i>
    <i name="e_wo_entrp">    -33.35473892 </i>
    <i name="e_0_energy">    -33.35496324 </i>
   </energy>
  </scstep>
  <scstep>
   <time name="dav">    6.23    6.29</time>
   <time name="total">   11.22   12.54</time>
   <energy>
    <i name="e_fr_energy">    -33.35419759 </i>
    <i name="e_wo_entrp">    -33.35375047 </i>
    <i name="e_0_energy">    -33.35397403 </i>
   </energy>
  </scstep>
  <scstep>
   <time name="dav">    7.51    7.51</time>
   <time name="total">   12.99   14.36</time>
   <energy>
    <i name="e_fr_energy">    -33.35387952 </i>
    <i name="e_wo_entrp">    -33.35343237 </i>
    <i name="e_0_energy">    -33.35365594 </i>
   </energy>
  </scstep>
  <scstep>
   <time name="dav">    5.18    5.18</time>
   <time name="total">   10.64   13.36</time>
   <energy>
    <i name="e_fr_energy">    -33.35381828 </i>
    <i name="e_wo_entrp">    -33.35337108 </i>
    <i name="e_0_energy">    -33.35359468 </i>
   </energy>
  </scstep>
  <scstep>
   <time name="dav">    4.86    4.86</time>
   <time name="total">    9.78   11.67</time>
   <energy>
    <i name="e_fr_energy">    -33.35382131 </i>
    <i name="e_wo_entrp">    -33.35337411 </i>
    <i name="e_0_energy">    -33.35359771 </i>
   </energy>
  </scstep>
  <scstep>
   <time name="dav">    5.14    5.14</time>
   <time name="total">   10.57   10.75</time>
   <energy>
    <i name="e_fr_energy">    -33.35382277 </i>
    <i name="e_wo_entrp">    -33.35337557 </i>
    <i name="e_0_energy">    -33.35359917 </i>
   </energy>
  </scstep>
  <scstep>
   <time name="dav">    5.17    5.17</time>
   <time name="total">   10.64   11.10</time>
   <energy>
    <i name="e_fr_energy">    -33.35382370 </i>
    <i name="e_wo_entrp">    -33.35337650 </i>
    <i name="e_0_energy">    -33.35360010 </i>
   </energy>
  </scstep>
  <scstep>
   <time name="dav">    4.56    4.57</time>
   <time name="total">    9.89   13.66</time>
   <energy>
    <i name="e_fr_energy">    -33.35382461 </i>
    <i name="e_wo_entrp">    -33.35337740 </i>
    <i name="e_0_energy">    -33.35360100 </i>
   </energy>
  </scstep>
  <scstep>
   <time name="dav">    5.21    5.31</time>
   <time name="total">   10.58   11.15</time>
   <energy>
    <i name="e_fr_energy">    -33.35382431 </i>
    <i name="e_wo_entrp">    -33.35337711 </i>
    <i name="e_0_energy">    -33.35360071 </i>
   </energy>
  </scstep>
  <scstep>
   <time name="dav">    4.76    4.77</time>
   <time name="total">    9.81   12.21</time>
   <energy>
    <i name="alphaZ">     13.19224913 </i>
    <i name="ewald">   -908.25970069 </i>
    <i name="hartreedc">    -61.40040715 </i>
    <i name="XCdc">    -78.28101548 </i>
    <i name="pawpsdc">   2157.88265799 </i>
    <i name="pawaedc">  -2011.74143306 </i>
    <i name="eentropy">     -0.00044720 </i>
    <i name="bandstr">     20.87660850 </i>
    <i name="atom">    834.37766373 </i>
    <i name="e_fr_energy">    -33.35382422 </i>
    <i name="e_wo_entrp">    -33.35337702 </i>
    <i name="e_0_energy">    -33.35360062 </i>
   </energy>
  </scstep>
  <structure>
   <crystal>
    <varray name="basis" >
     <v>       5.49363500       0.00000000       0.00000000 </v>
     <v>       0.00000000       5.41123047       0.00000000 </v>
     <v>       0.00000000       0.00000000       5.49363500 </v>
    </varray>
    <i name="volume">    163.31107379 </i>
    <varray name="rec_basis" >
     <v>       0.18202884       0.00000000       0.00000000 </v>
     <v>       0.00000000       0.18480085       0.00000000 </v>
     <v>       0.00000000       0.00000000       0.18202884 </v>
    </varray>
   </crystal>
   <varray name="positions" >
    <v>       0.50000000       0.00000000       0.00000000 </v>
    <v>       0.75000000       0.75000000       0.75000000 </v>
    <v>       0.50000000       0.50000000       0.50000000 </v>
    <v>       0.75000000       0.25000000       0.25000000 </v>
    <v>       0.00000000       0.00000000       0.50000000 </v>
    <v>       0.25000000       0.75000000       0.25000000 </v>
    <v>       0.00000000       0.50000000       0.00000000 </v>
    <v>       0.25000000       0.25000000       0.75000000 </v>
   </varray>
  </structure>
  <varray name="forces" >
   <v>       0.00000000       0.00000000       0.00000000 </v>
   <v>       0.00000000       0.00000000       0.00000000 </v>
   <v>       0.00000000       0.00000000       0.00000000 </v>
   <v>       0.00000000       0.00000000       0.00000000 </v>
   <v>       0.00000000       0.00000000       0.00000000 </v>
   <v>       0.00000000       0.00000000       0.00000000 </v>
   <v>       0.00000000       0.00000000       0.00000000 </v>
   <v>       0.00000000       0.00000000       0.00000000 </v>
  </varray>
  <varray name="stress" >
   <v>       9.02024431       0.00000000       0.00000000 </v>
   <v>       0.00000000      22.92465334       0.00000000 </v>
   <v>       0.00000000       0.00000000       9.02024431 </v>
  </varray>
  <energy>
   <i name="e_fr_energy">    -33.35382422 </i>
   <i name="e_wo_entrp">    -33.35360062 </i>
   <i name="e_0_energy">     -0.00044720 </i>
  </energy>
  <kpoints>
   <generation param="Gamma">
    <v type="int" name="divisions">       6        6        6 </v>
    <v name="usershift">      0.00000000       0.00000000       0.00000000 </v>
    <v name="genvec1">      0.16666667       0.00000000       0.00000000 </v>
    <v name="genvec2">      0.00000000       0.16666667       0.00000000 </v>
    <v name="genvec3">      0.00000000       0.00000000       0.16666667 </v>
    <v name="shift">      0.00000000       0.00000000       0.00000000 </v>
   </generation>
   <varray name="kpointlist" >
    <v>       0.00000000       0.00000000       0.00000000 </v>
    <v>       0.16666667       0.00000000       0.00000000 </v>
    <v>       0.33333333       0.00000000       0.00000000 </v>
    <v>       0.50000000       0.00000000       0.00000000 </v>
    <v>       0.16666667       0.16666667       0.00000000 </v>
    <v>       0.33333333       0.16666667       0.00000000 </v>
    <v>       0.50000000       0.16666667       0.00000000 </v>
    <v>       0.33333333       0.33333333       0.00000000 </v>
    <v>       0.50000000       0.33333333       0.00000000 </v>
    <v>       0.50000000       0.50000000       0.00000000 </v>
    <v>       0.00000000       0.00000000       0.16666667 </v>
    <v>       0.16666667       0.00000000       0.16666667 </v>
    <v>       0.33333333       0.00000000       0.16666667 </v>
    <v>       0.50000000       0.00000000       0.16666667 </v>
    <v>       0.16666667       0.16666667       0.16666667 </v>
    <v>       0.33333333       0.16666667       0.16666667 </v>
    <v>       0.50000000       0.16666667       0.16666667 </v>
    <v>       0.33333333       0.33333333       0.16666667 </v>
    <v>       0.50000000       0.33333333       0.16666667 </v>
    <v>       0.50000000       0.50000000       0.16666667 </v>
    <v>       0.00000000       0.00000000       0.33333333 </v>
    <v>       0.16666667       0.00000000       0.33333333 </v>
    <v>       0.33333333       0.00000000       0.33333333 </v>
    <v>       0.50000000       0.00000000       0.33333333 </v>
    <v>       0.16666667       0.16666667       0.33333333 </v>
    <v>       0.33333333       0.16666667       0.33333333 </v>
    <v>       0.50000000       0.16666667       0.33333333 </v>
    <v>       0.33333333       0.33333333       0.33333333 </v>
    <v>       0.50000000       0.33333333       0.33333333 </v>
    <v>       0.50000000       0.50000000       0.33333333 </v>
    <v>       0.00000000       0.00000000       0.50000000 </v>
    <v>       0.16666667       0.00000000       0.50000000 </v>
    <v>       0.33333333       0.00000000       0.50000000 </v>
    <v>       0.50000000       0.00000000       0.50000000 </v>
    <v>       0.16666667       0.16666667       0.50000000 </v>
    <v>       0.33333333       0.16666667       0.50000000 </v>
    <v>       0.50000000       0.16666667       0.50000000 </v>
    <v>       0.33333333       0.33333333       0.50000000 </v>
    <v>       0.50000000       0.33333333       0.50000000 </v>
    <v>       0.50000000       0.50000000       0.50000000 </v>
   </varray>
   <varray name="weights" >
    <v>       0.00462963 </v>
    <v>       0.01851852 </v>
    <v>       0.01851852 </v>
    <v>       0.00925926 </v>
    <v>       0.01851852 </v>
    <v>       0.03703704 </v>
    <v>       0.01851852 </v>
    <v>       0.01851852 </v>
    <v>       0.01851852 </v>
    <v>       0.00462963 </v>
    <v>       0.00925926 </v>
    <v>       0.03703704 </v>
    <v>       0.03703704 </v>
    <v>       0.01851852 </v>
    <v>       0.03703704 </v>
    <v>       0.07407407 </v>
    <v>       0.03703704 </v>
    <v>       0.03703704 </v>
    <v>       0.03703704 </v>
    <v>       0.00925926 </v>
    <v>       0.00925926 </v>
    <v>       0.03703704 </v>
    <v>       0.03703704 </v>
    <v>       0.01851852 </v>
    <v>       0.03703704 </v>
    <v>       0.07407407 </v>
    <v>       0.03703704 </v>
    <v>       0.03703704 </v>
    <v>       0.03703704 </v>
    <v>       0.00925926 </v>
    <v>       0.00462963 </v>
    <v>       0.01851852 </v>
    <v>       0.01851852 </v>
    <v>       0.00925926 </v>
    <v>       0.01851852 </v>
    <v>       0.03703704 </v>
    <v>       0.01851852 </v>
    <v>       0.01851852 </v>
    <v>       0.01851852 </v>
    <v>       0.00462963 </v>
   </varray>
  </kpoints>
  <time name="totalsc">  175.11  198.98</time>
 </calculation>
 <calculation>
  <scstep>
   <time name="dav">    7.27    7.27</time>
   <time name="total">   12.24   12.29</time>
   <energy>
    <i name="alphaZ">     12.80233044 </i>
    <i name="ewald">   -899.22075293 </i>
    <i name="hartreedc">    -60.78945441 </i>
    <i name="XCdc">    -78.81959648 </i>
    <i name="pawpsdc">   2157.88276486 </i>
    <i name="pawaedc">  -2011.74153985 </i>
    <i name="eentropy">     -0.00016715 </i>
    <i name="bandstr">     12.13668849 </i>
    <i name="atom">    834.37766373 </i>
    <i name="e_fr_energy">    -33.37206331 </i>
    <i name="e_wo_entrp">    -33.37189616 </i>
    <i name="e_0_energy">    -33.37197973 </i>
   </energy>
  </scstep>
  <scstep>
   <time name="dav">    7.02    7.02</time>
   <time name="total">   12.20   13.64</time>
   <energy>
    <i name="e_fr_energy">    -33.35119252 </i>
    <i name="e_wo_entrp">    -33.35098132 </i>
    <i name="e_0_energy">    -33.35108692 </i>
   </energy>
  </scstep>
  <scstep>
   <time name="dav">    7.50    7.50</time>
   <time name="total">   12.71   15.77</time>
   <energy>
    <i name="e_fr_energy">    -33.32548065 </i>
    <i name="e_wo_entrp">    -33.32519576 </i>
    <i name="e_0_energy">    -33.32533821 </i>
   </energy>
  </scstep>
  <scstep>
   <time name="dav">    7.18    7.18</time>
   <time name="total">   12.42   17.53</time>
   <energy>
    <i name="e_fr_energy">    -33.32373835 </i>
    <i name="e_wo_entrp">    -33.32345750 </i>
    <i name="e_0_energy">    -33.32359792 </i>
   </energy>
  </scstep>
  <scstep>
   <time name="dav">    7.64    7.95</time>
   <time name="total">   12.88   13.76</time>
   <energy>
    <i name="e_fr_energy">    -33.31780393 </i>
    <i name="e_wo_entrp">    -33.31752456 </i>
    <i name="e_0_energy">    -33.31766425 </i>
   </energy>
  </scstep>
  <scstep>
   <time name="dav">    7.36    7.37</time>
   <time name="total">   12.61   13.94</time>
   <energy>
    <i name="e_fr_energy">    -33.31870762 </i>
    <i name="e_wo_entrp">    -33.31842792 </i>
    <i name="e_0_energy">    -33.31856777 </i>
   </energy>
  </scstep>
  <scstep>
   <time name="dav">    6.22    6.46</time>
   <time name="total">   11.41   14.12</time>
   <energy>
    <i name="e_fr_energy">    -33.31889053 </i>
    <i name="e_wo_entrp">    -33.31861083 </i>
    <i name="e_0_energy">    -33.31875068 </i>
   </energy>
  </scstep>
  <scstep>
   <time name="dav">    5.59    5.62</time>
   <time name="total">   10.83   12.48</time>
   <energy>
    <i name="e_fr_energy">    -33.31892257 </i>
    <i name="e_wo_entrp">    -33.31864287 </i>
    <i name="e_0_energy">    -33.31878272 </i>
   </energy>
  </scstep>
  <scstep>
   <time name="dav">    5.23    5.27</time>
   <time name="total">   10.68   12.92</time>
   <energy>
    <i name="e_fr_energy">    -33.31893565 </i>
    <i name="e_wo_entrp">    -33.31865594 </i>
    <i name="e_0_energy">    -33.31879579 </i>
   </energy>
  </scstep>
  <scstep>
   <time name="dav">    5.36    5.40</time>
   <time name="total">   10.85   12.38</time>
   <energy>
    <i name="e_fr_energy">    -33.31893854 </i>
    <i name="e_wo_entrp">    -33.31865884 </i>
    <i name="e_0_energy">    -33.31879869 </i>
   </energy>
  </scstep>
  <scstep>
   <time name="dav">    4.37    4.39</time>
   <time name="total">    9.24   10.54</time>
   <energy>
    <i name="e_fr_energy">    -33.31893768 </i>
    <i name="e_wo_entrp">    -33.31865798 </i>
    <i name="e_0_energy">    -33.31879783 </i>
   </energy>
  </scstep>
  <scstep>
   <time name="dav">    4.23    4.23</time>
   <time name="total">    9.17   13.20</time>
   <energy>
    <i name="e_fr_energy">    -33.31893669 </i>
    <i name="e_wo_entrp">    -33.31865699 </i>
    <i name="e_0_energy">    -33.31879684 </i>
   </energy>
  </scstep>
  <scstep>
   <time name="dav">    4.26    4.26</time>
   <time name="total">    9.26    9.80</time>
   <energy>
    <i name="e_fr_energy">    -33.31893637 </i>
    <i name="e_wo_entrp">    -33.31865667 </i>
    <i name="e_0_energy">    -33.31879652 </i>
   </energy>
  </scstep>
  <scstep>
   <time name="dav">    4.29    4.29</time>
   <time name="total">    8.94    9.39</time>
   <energy>
    <i name="alphaZ">     12.80233044 </i>
    <i name="ewald">   -899.22075293 </i>
    <i name="hartreedc">    -62.80484507 </i>
    <i name="XCdc">    -78.81228153 </i>
    <i name="pawpsdc">   2024.87635065 </i>
    <i name="pawaedc">  -1878.59993861 </i>
    <i name="eentropy">     -0.00027970 </i>
    <i name="bandstr">     14.06281659 </i>
    <i name="atom">    834.37766373 </i>
    <i name="e_fr_energy">    -33.31893644 </i>
    <i name="e_wo_entrp">    -33.31865674 </i>
    <i name="e_0_energy">    -33.31879659 </i>
   </energy>
  </scstep>
  <structure>
   <crystal>
    <varray name="basis" >
     <v>       5.49363500       0.00000000       0.00000000 </v>
     <v>       0.00000000       5.49363500       0.00000000 </v>
     <v>       0.00000000       0.00000000       5.57603952 </v>
    </varray>
    <i name="volume">    168.28501513 </i>
    <varray name="rec_basis" >
     <v>       0.18202884       0.00000000       0.00000000 </v>
     <v>       0.00000000       0.18202884       0.00000000 </v>
     <v>       0.00000000       0.00000000       0.17933876 </v>
    </varray>
   </crystal>
   <varray name="positions" >
    <v>       0.50000000       0.00000000       0.00000000 </v>
    <v>       0.75000000       0.75000000       0.75000000 </v>
    <v>       0.50000000       0.50000000       0.50000000 </v>
    <v>       0.75000000       0.25000000       0.25000000 </v>
    <v>       0.00000000       0.00000000       0.50000000 </v>
    <v>       0.25000000       0.75000000       0.25000000 </v>
    <v>       0.00000000       0.50000000       0.00000000 </v>
    <v>       0.25000000       0.25000000       0.75000000 </v>
   </varray>
  </structure>
  <varray name="forces" >
   <v>       0.00000000       0.00000000       0.00000000 </v>
   <v>       0.00000000       0.00000000       0.00000000 </v>
[...]
       <r>    15.3859     0.0729    63.9904 </r>
       <r>    15.3910     0.0718    63.9908 </r>
       <r>    15.3961     0.0707    63.9911 </r>
       <r>    15.4012     0.0695    63.9915 </r>
       <r>    15.4063     0.0683    63.9918 </r>
       <r>    15.4114     0.0670    63.9922 </r>
       <r>    15.4165     0.0656    63.9925 </r>
       <r>    15.4216     0.0641    63.9928 </r>
       <r>    15.4267     0.0627    63.9932 </r>
       <r>    15.4318     0.0611    63.9935 </r>
       <r>    15.4370     0.0596    63.9938 </r>
       <r>    15.4421     0.0580    63.9941 </r>
       <r>    15.4472     0.0563    63.9943 </r>
       <r>    15.4523     0.0547    63.9946 </r>
       <r>    15.4574     0.0530    63.9949 </r>
       <r>    15.4625     0.0513    63.9952 </r>
       <r>    15.4676     0.0496    63.9954 </r>
       <r>    15.4727     0.0479    63.9957 </r>
       <r>    15.4778     0.0462    63.9959 </r>
       <r>    15.4829     0.0444    63.9961 </r>
       <r>    15.4880     0.0427    63.9963 </r>
       <r>    15.4931     0.0411    63.9965 </r>
       <r>    15.4982     0.0394    63.9968 </r>
       <r>    15.5033     0.0377    63.9969 </r>
       <r>    15.5084     0.0361    63.9971 </r>
       <r>    15.5136     0.0345    63.9973 </r>
       <r>    15.5187     0.0329    63.9975 </r>
       <r>    15.5238     0.0314    63.9976 </r>
       <r>    15.5289     0.0298    63.9978 </r>
       <r>    15.5340     0.0284    63.9979 </r>
       <r>    15.5391     0.0269    63.9981 </r>
       <r>    15.5442     0.0255    63.9982 </r>
       <r>    15.5493     0.0242    63.9983 </r>
       <r>    15.5544     0.0229    63.9984 </r>
       <r>    15.5595     0.0216    63.9985 </r>
       <r>    15.5646     0.0204    63.9987 </r>
       <r>    15.5697     0.0192    63.9987 </r>
       <r>    15.5748     0.0180    63.9988 </r>
       <r>    15.5799     0.0169    63.9989 </r>
       <r>    15.5851     0.0159    63.9990 </r>
       <r>    15.5902     0.0149    63.9991 </r>
       <r>    15.5953     0.0139    63.9992 </r>
       <r>    15.6004     0.0130    63.9992 </r>
       <r>    15.6055     0.0122    63.9993 </r>
       <r>    15.6106     0.0113    63.9993 </r>
       <r>    15.6157     0.0106    63.9994 </r>
       <r>    15.6208     0.0098    63.9994 </r>
       <r>    15.6259     0.0091    63.9995 </r>
       <r>    15.6310     0.0084    63.9995 </r>
       <r>    15.6361     0.0078    63.9996 </r>
       <r>    15.6412     0.0072    63.9996 </r>
       <r>    15.6463     0.0067    63.9996 </r>
       <r>    15.6514     0.0062    63.9997 </r>
       <r>    15.6565     0.0057    63.9997 </r>
       <r>    15.6617     0.0052    63.9997 </r>
       <r>    15.6668     0.0048    63.9998 </r>
       <r>    15.6719     0.0044    63.9998 </r>
       <r>    15.6770     0.0040    63.9998 </r>
       <r>    15.6821     0.0037    63.9998 </r>
       <r>    15.6872     0.0034    63.9998 </r>
       <r>    15.6923     0.0031    63.9999 </r>
       <r>    15.6974     0.0028    63.9999 </r>
       <r>    15.7025     0.0026    63.9999 </r>
       <r>    15.7076     0.0023    63.9999 </r>
       <r>    15.7127     0.0021    63.9999 </r>
       <r>    15.7178     0.0019    63.9999 </r>
       <r>    15.7229     0.0017    63.9999 </r>
       <r>    15.7280     0.0016    63.9999 </r>
       <r>    15.7331     0.0014    63.9999 </r>
       <r>    15.7383     0.0013    63.9999 </r>
       <r>    15.7434     0.0012    64.0000 </r>
       <r>    15.7485     0.0010    64.0000 </r>
       <r>    15.7536     0.0009    64.0000 </r>
       <r>    15.7587     0.0008    64.0000 </r>
       <r>    15.7638     0.0008    64.0000 </r>
       <r>    15.7689     0.0007    64.0000 </r>
       <r>    15.7740     0.0006    64.0000 </r>
       <r>    15.7791     0.0005    64.0000 </r>
       <r>    15.7842     0.0005    64.0000 </r>
       <r>    15.7893     0.0004    64.0000 </r>
       <r>    15.7944     0.0004    64.0000 </r>
       <r>    15.7995     0.0003    64.0000 </r>
       <r>    15.8046     0.0003    64.0000 </r>
       <r>    15.8097     0.0003    64.0000 </r>
       <r>    15.8149     0.0002    64.0000 </r>
       <r>    15.8200     0.0002    64.0000 </r>
       <r>    15.8251     0.0002    64.0000 </r>
       <r>    15.8302     0.0002    64.0000 </r>
       <r>    15.8353     0.0001    64.0000 </r>
       <r>    15.8404     0.0001    64.0000 </r>
       <r>    15.8455     0.0001    64.0000 </r>
       <r>    15.8506     0.0001    64.0000 </r>
       <r>    15.8557     0.0001    64.0000 </r>
       <r>    15.8608     0.0001    64.0000 </r>
       <r>    15.8659     0.0001    64.0000 </r>
       <r>    15.8710     0.0001    64.0000 </r>
       <r>    15.8761     0.0000    64.0000 </r>
       <r>    15.8812     0.0000    64.0000 </r>
       <r>    15.8863     0.0000    64.0000 </r>
       <r>    15.8915     0.0000    64.0000 </r>
       <r>    15.8966     0.0000    64.0000 </r>
       <r>    15.9017     0.0000    64.0000 </r>
       <r>    15.9068     0.0000    64.0000 </r>
       <r>    15.9119     0.0000    64.0000 </r>
       <r>    15.9170     0.0000    64.0000 </r>
       <r>    15.9221     0.0000    64.0000 </r>
       <r>    15.9272     0.0000    64.0000 </r>
       <r>    15.9323     0.0000    64.0000 </r>
       <r>    15.9374     0.0000    64.0000 </r>
       <r>    15.9425     0.0000    64.0000 </r>
       <r>    15.9476     0.0000    64.0000 </r>
       <r>    15.9527     0.0000    64.0000 </r>
       <r>    15.9578     0.0000    64.0000 </r>
       <r>    15.9629     0.0000    64.0000 </r>
       <r>    15.9681     0.0000    64.0000 </r>
       <r>    15.9732     0.0000    64.0000 </r>
       <r>    15.9783     0.0000    64.0000 </r>
       <r>    15.9834     0.0000    64.0000 </r>
       <r>    15.9885     0.0000    64.0000 </r>
       <r>    15.9936     0.0000    64.0000 </r>
       <r>    15.9987     0.0000    64.0000 </r>
       <r>    16.0038     0.0000    64.0000 </r>
       <r>    16.0089     0.0000    64.0000 </r>
       <r>    16.0140     0.0000    64.0000 </r>
       <r>    16.0191     0.0000    64.0000 </r>
       <r>    16.0242     0.0000    64.0000 </r>
       <r>    16.0293     0.0000    64.0000 </r>
       <r>    16.0344     0.0000    64.0000 </r>
       <r>    16.0396     0.0000    64.0000 </r>
       <r>    16.0447     0.0000    64.0000 </r>
       <r>    16.0498     0.0000    64.0000 </r>
       <r>    16.0549     0.0000    64.0000 </r>
       <r>    16.0600     0.0000    64.0000 </r>
       <r>    16.0651     0.0000    64.0000 </r>
       <r>    16.0702     0.0000    64.0000 </r>
       <r>    16.0753     0.0000    64.0000 </r>
       <r>    16.0804     0.0000    64.0000 </r>
       <r>    16.0855     0.0000    64.0000 </r>
       <r>    16.0906     0.0000    64.0000 </r>
       <r>    16.0957     0.0000    64.0000 </r>
       <r>    16.1008     0.0000    64.0000 </r>
       <r>    16.1059     0.0000    64.0000 </r>
       <r>    16.1110     0.0000    64.0000 </r>
       <r>    16.1162     0.0000    64.0000 </r>
       <r>    16.1213     0.0000    64.0000 </r>
       <r>    16.1264     0.0000    64.0000 </r>
       <r>    16.1315     0.0000    64.0000 </r>
       <r>    16.1366     0.0000    64.0000 </r>
       <r>    16.1417     0.0000    64.0000 </r>
       <r>    16.1468     0.0000    64.0000 </r>
       <r>    16.1519     0.0000    64.0000 </r>
       <r>    16.1570     0.0000    64.0000 </r>
       <r>    16.1621     0.0000    64.0000 </r>
       <r>    16.1672     0.0000    64.0000 </r>
       <r>    16.1723     0.0000    64.0000 </r>
       <r>    16.1774     0.0000    64.0000 </r>
       <r>    16.1825     0.0000    64.0000 </r>
       <r>    16.1876     0.0000    64.0000 </r>
       <r>    16.1928     0.0000    64.0000 </r>
       <r>    16.1979     0.0000    64.0000 </r>
       <r>    16.2030     0.0000    64.0000 </r>
       <r>    16.2081     0.0000    64.0000 </r>
       <r>    16.2132     0.0000    64.0000 </r>
       <r>    16.2183     0.0000    64.0000 </r>
       <r>    16.2234     0.0000    64.0000 </r>
       <r>    16.2285     0.0000    64.0000 </r>
       <r>    16.2336     0.0000    64.0000 </r>
       <r>    16.2387     0.0000    64.0000 </r>
       <r>    16.2438     0.0000    64.0000 </r>
       <r>    16.2489     0.0000    64.0000 </r>
       <r>    16.2540     0.0000    64.0000 </r>
       <r>    16.2591     0.0000    64.0000 </r>
       <r>    16.2642     0.0000    64.0000 </r>
       <r>    16.2694     0.0000    64.0000 </r>
       <r>    16.2745     0.0000    64.0000 </r>
       <r>    16.2796     0.0000    64.0000 </r>
       <r>    16.2847     0.0000    64.0000 </r>
       <r>    16.2898     0.0000    64.0000 </r>
       <r>    16.2949     0.0000    64.0000 </r>
       <r>    16.3000     0.0000    64.0000 </r>
       <r>    16.3051     0.0000    64.0000 </r>
       <r>    16.3102     0.0000    64.0000 </r>
       <r>    16.3153     0.0000    64.0000 </r>
       <r>    16.3204     0.0000    64.0000 </r>
       <r>    16.3255     0.0000    64.0000 </r>
       <r>    16.3306     0.0000    64.0000 </r>
       <r>    16.3357     0.0000    64.0000 </r>
       <r>    16.3408     0.0000    64.0000 </r>
       <r>    16.3460     0.0000    64.0000 </r>
       <r>    16.3511     0.0000    64.0000 </r>
       <r>    16.3562     0.0000    64.0000 </r>
       <r>    16.3613     0.0000    64.0000 </r>
       <r>    16.3664     0.0000    64.0000 </r>
       <r>    16.3715     0.0000    64.0000 </r>
       <r>    16.3766     0.0000    64.0000 </r>
       <r>    16.3817     0.0000    64.0000 </r>
       <r>    16.3868     0.0000    64.0000 </r>
       <r>    16.3919     0.0000    64.0000 </r>
       <r>    16.3970     0.0000    64.0000 </r>
       <r>    16.4021     0.0000    64.0000 </r>
       <r>    16.4072     0.0000    64.0000 </r>
       <r>    16.4123     0.0000    64.0000 </r>
       <r>    16.4174     0.0000    64.0000 </r>
       <r>    16.4226     0.0000    64.0000 </r>
       <r>    16.4277     0.0000    64.0000 </r>
       <r>    16.4328     0.0000    64.0000 </r>
       <r>    16.4379     0.0000    64.0000 </r>
       <r>    16.4430     0.0000    64.0000 </r>
       <r>    16.4481     0.0000    64.0000 </r>
       <r>    16.4532     0.0000    64.0000 </r>
       <r>    16.4583     0.0000    64.0000 </r>
       <r>    16.4634     0.0000    64.0000 </r>
       <r>    16.4685     0.0000    64.0000 </r>
       <r>    16.4736     0.0000    64.0000 </r>
       <r>    16.4787     0.0000    64.0000 </r>
       <r>    16.4838     0.0000    64.0000 </r>
       <r>    16.4889     0.0000    64.0000 </r>
       <r>    16.4940     0.0000    64.0000 </r>
       <r>    16.4992     0.0000    64.0000 </r>
       <r>    16.5043     0.0000    64.0000 </r>
       <r>    16.5094     0.0000    64.0000 </r>
       <r>    16.5145     0.0000    64.0000 </r>
       <r>    16.5196     0.0000    64.0000 </r>
       <r>    16.5247     0.0000    64.0000 </r>
       <r>    16.5298     0.0000    64.0000 </r>
       <r>    16.5349     0.0000    64.0000 </r>
       <r>    16.5400     0.0000    64.0000 </r>
       <r>    16.5451     0.0000    64.0000 </r>
       <r>    16.5502     0.0000    64.0000 </r>
       <r>    16.5553     0.0000    64.0000 </r>
       <r>    16.5604     0.0000    64.0000 </r>
       <r>    16.5655     0.0000    64.0000 </r>
       <r>    16.5707     0.0000    64.0000 </r>
       <r>    16.5758     0.0000    64.0000 </r>
       <r>    16.5809     0.0000    64.0000 </r>
       <r>    16.5860     0.0000    64.0000 </r>
       <r>    16.5911     0.0000    64.0000 </r>
       <r>    16.5962     0.0000    64.0000 </r>
       <r>    16.6013     0.0000    64.0000 </r>
       <r>    16.6064     0.0000    64.0000 </r>
       <r>    16.6115     0.0000    64.0000 </r>
       <r>    16.6166     0.0000    64.0000 </r>
       <r>    16.6217     0.0000    64.0000 </r>
       <r>    16.6268     0.0000    64.0000 </r>
       <r>    16.6319     0.0000    64.0000 </r>
       <r>    16.6370     0.0000    64.0000 </r>
       <r>    16.6421     0.0000    64.0000 </r>
       <r>    16.6473     0.0000    64.0000 </r>
       <r>    16.6524     0.0000    64.0000 </r>
       <r>    16.6575     0.0000    64.0000 </r>
       <r>    16.6626     0.0000    64.0000 </r>
       <r>    16.6677     0.0000    64.0000 </r>
       <r>    16.6728     0.0000    64.0000 </r>
       <r>    16.6779     0.0000    64.0000 </r>
       <r>    16.6830     0.0000    64.0000 </r>
       <r>    16.6881     0.0000    64.0000 </r>
       <r>    16.6932     0.0000    64.0000 </r>
       <r>    16.6983     0.0000    64.0000 </r>
       <r>    16.7034     0.0000    64.0000 </r>
       <r>    16.7085     0.0000    64.0000 </r>
       <r>    16.7136     0.0000    64.0000 </r>
       <r>    16.7187     0.0000    64.0000 </r>
       <r>    16.7239     0.0000    64.0000 </r>
       <r>    16.7290     0.0000    64.0000 </r>
       <r>    16.7341     0.0000    64.0000 </r>
       <r>    16.7392     0.0000    64.0000 </r>
       <r>    16.7443     0.0000    64.0000 </r>
       <r>    16.7494     0.0000    64.0000 </r>
       <r>    16.7545     0.0000    64.0000 </r>
       <r>    16.7596     0.0000    64.0000 </r>
       <r>    16.7647     0.0000    64.0000 </r>
       <r>    16.7698     0.0000    64.0000 </r>
       <r>    16.7749     0.0000    64.0000 </r>
       <r>    16.7800     0.0000    64.0000 </r>
       <r>    16.7851     0.0000    64.0000 </r>
       <r>    16.7902     0.0000    64.0000 </r>
       <r>    16.7953     0.0000    64.0000 </r>
       <r>    16.8005     0.0000    64.0000 </r>
       <r>    16.8056     0.0000    64.0000 </r>
       <r>    16.8107     0.0000    64.0000 </r>
       <r>    16.8158     0.0000    64.0000 </r>
       <r>    16.8209     0.0000    64.0000 </r>
       <r>    16.8260     0.0000    64.0000 </r>
       <r>    16.8311     0.0000    64.0000 </r>
       <r>    16.8362     0.0000    64.0000 </r>
       <r>    16.8413     0.0000    64.0000 </r>
       <r>    16.8464     0.0000    64.0000 </r>
       <r>    16.8515     0.0000    64.0000 </r>
       <r>    16.8566     0.0000    64.0000 </r>
       <r>    16.8617     0.0000    64.0000 </r>
       <r>    16.8668     0.0000    64.0000 </r>
       <r>    16.8719     0.0000    64.0000 </r>
       <r>    16.8771     0.0000    64.0000 </r>
       <r>    16.8822     0.0000    64.0000 </r>
       <r>    16.8873     0.0000    64.0000 </r>
       <r>    16.8924     0.0000    64.0000 </r>
       <r>    16.8975     0.0000    64.0000 </r>
       <r>    16.9026     0.0000    64.0000 </r>
       <r>    16.9077     0.0000    64.0000 </r>
       <r>    16.9128     0.0000    64.0000 </r>
       <r>    16.9179     0.0000    64.0000 </r>
       <r>    16.9230     0.0000    64.0000 </r>
       <r>    16.9281     0.0000    64.0000 </r>
       <r>    16.9332     0.0000    64.0000 </r>
       <r>    16.9383     0.0000    64.0000 </r>
       <r>    16.9434     0.0000    64.0000 </r>
       <r>    16.9485     0.0000    64.0000 </r>
       <r>    16.9537     0.0000    64.0000 </r>
       <r>    16.9588     0.0000    64.0000 </r>
       <r>    16.9639     0.0000    64.0000 </r>
       <r>    16.9690     0.0000    64.0000 </r>
       <r>    16.9741     0.0000    64.0000 </r>
       <r>    16.9792     0.0000    64.0000 </r>
       <r>    16.9843     0.0000    64.0000 </r>
       <r>    16.9894     0.0000    64.0000 </r>
       <r>    16.9945     0.0000    64.0000 </r>
       <r>    16.9996     0.0000    64.0000 </r>
       <r>    17.0047     0.0000    64.0000 </r>
       <r>    17.0098     0.0000    64.0000 </r>
       <r>    17.0149     0.0000    64.0000 </r>
       <r>    17.0200     0.0000    64.0000 </r>
       <r>    17.0251     0.0000    64.0000 </r>
       <r>    17.0303     0.0000    64.0000 </r>
       <r>    17.0354     0.0000    64.0000 </r>
       <r>    17.0405     0.0000    64.0000 </r>
       <r>    17.0456     0.0000    64.0000 </r>
       <r>    17.0507     0.0000    64.0000 </r>
       <r>    17.0558     0.0000    64.0000 </r>
       <r>    17.0609     0.0000    64.0000 </r>
       <r>    17.0660     0.0000    64.0000 </r>
       <r>    17.0711     0.0000    64.0000 </r>
       <r>    17.0762     0.0000    64.0000 </r>
       <r>    17.0813     0.0000    64.0000 </r>
       <r>    17.0864     0.0000    64.0000 </r>
       <r>    17.0915     0.0000    64.0000 </r>
       <r>    17.0966     0.0000    64.0000 </r>
       <r>    17.1018     0.0000    64.0000 </r>
       <r>    17.1069     0.0000    64.0000 </r>
       <r>    17.1120     0.0000    64.0000 </r>
       <r>    17.1171     0.0000    64.0000 </r>
       <r>    17.1222     0.0000    64.0000 </r>
       <r>    17.1273     0.0000    64.0000 </r>
       <r>    17.1324     0.0000    64.0000 </r>
       <r>    17.1375     0.0000    64.0000 </r>
       <r>    17.1426     0.0000    64.0000 </r>
       <r>    17.1477     0.0000    64.0000 </r>
       <r>    17.1528     0.0000    64.0000 </r>
       <r>    17.1579     0.0000    64.0000 </r>
       <r>    17.1630     0.0000    64.0000 </r>
       <r>    17.1681     0.0000    64.0000 </r>
       <r>    17.1732     0.0000    64.0000 </r>
       <r>    17.1784     0.0000    64.0000 </r>
       <r>    17.1835     0.0000    64.0000 </r>
       <r>    17.1886     0.0000    64.0000 </r>
       <r>    17.1937     0.0000    64.0000 </r>
       <r>    17.1988     0.0000    64.0000 </r>
       <r>    17.2039     0.0000    64.0000 </r>
       <r>    17.2090     0.0000    64.0000 </r>
       <r>    17.2141     0.0000    64.0000 </r>
       <r>    17.2192     0.0000    64.0000 </r>
       <r>    17.2243     0.0000    64.0000 </r>
       <r>    17.2294     0.0000    64.0000 </r>
       <r>    17.2345     0.0000    64.0000 </r>
       <r>    17.2396     0.0000    64.0000 </r>
       <r>    17.2447     0.0000    64.0000 </r>
       <r>    17.2498     0.0000    64.0000 </r>
       <r>    17.2550     0.0000    64.0000 </r>
       <r>    17.2601     0.0000    64.0000 </r>
       <r>    17.2652     0.0000    64.0000 </r>
       <r>    17.2703     0.0000    64.0000 </r>
       <r>    17.2754     0.0000    64.0000 </r>
       <r>    17.2805     0.0000    64.0000 </r>
       <r>    17.2856     0.0000    64.0000 </r>
       <r>    17.2907     0.0000    64.0000 </r>
       <r>    17.2958     0.0000    64.0000 </r>
       <r>    17.3009     0.0000    64.0000 </r>
       <r>    17.3060     0.0000    64.0000 </r>
       <r>    17.3111     0.0000    64.0000 </r>
       <r>    17.3162     0.0000    64.0000 </r>
       <r>    17.3213     0.0000    64.0000 </r>
       <r>    17.3264     0.0000    64.0000 </r>
       <r>    17.3316     0.0000    64.0000 </r>
       <r>    17.3367     0.0000    64.0000 </r>
      </set>
     </set>
    </array>
   </total>
  </dos>
 </calculation>
 <structure name="finalpos" >
  <crystal>
   <varray name="basis" >
    <v>       5.49363500       0.00000000       0.00000000 </v>
    <v>       0.00000000       5.49363500       0.00000000 </v>
    <v>       0.00000000       0.00000000       5.49363500 </v>
   </varray>
   <i name="volume">    165.79804446 </i>
   <varray name="rec_basis" >
    <v>       0.18202884       0.00000000       0.00000000 </v>
    <v>       0.00000000       0.18202884       0.00000000 </v>
    <v>       0.00000000       0.00000000       0.18202884 </v>
   </varray>
  </crystal>
  <varray name="positions" >
   <v>       0.49726957       0.00000000       0.00000000 </v>
   <v>       0.75000000       0.75000000       0.75000000 </v>
   <v>       0.50000000       0.50000000       0.50000000 </v>
   <v>       0.75000000       0.25000000       0.25000000 </v>
   <v>       0.00000000       0.00000000       0.50000000 </v>
   <v>       0.25000000       0.75000000       0.25000000 </v>
   <v>       0.00000000       0.50000000       0.00000000 </v>
   <v>       0.25000000       0.25000000       0.75000000 </v>
  </varray>
 </structure>
</modeling>
