 running on   16 total cores
 distrk:  each k-point on   16 cores,    1 groups
 distr:  one band on    1 cores,   16 groups
 using from now: INCAR     
 vasp.5.3.3 18Dez12 (build Jan 30 2013 10:57:47) complex                        
  
 POSCAR found type information on POSCAR  Si
 POSCAR found :  1 types and       8 ions

 ----------------------------------------------------------------------------- 
|                                                                             |
|           W    W    AA    RRRRR   N    N  II  N    N   GGGG   !!!           |
|           W    W   A  A   R    R  NN   N  II  NN   N  G    G  !!!           |
|           W    W  A    A  R    R  N N  N  II  N N  N  G       !!!           |
|           W WW W  AAAAAA  RRRRR   N  N N  II  N  N N  G  GGG   !            |
|           WW  WW  A    A  R   R   N   NN  II  N   NN  G    G                |
|           W    W  A    A  R    R  N    N  II  N    N   GGGG   !!!           |
|                                                                             |
|      For optimal performance we recommend that you set                      |
|        NPAR = 4 - approx SQRT( number of cores)                             |
|      (number of cores/NPAR must be integer)                                 |
|      This setting will greatly improve the performance of VASP for DFT.     |
|      The default NPAR=number of cores might be grossly inefficient          |
|      on modern multi-core architectures or massively parallel machines.     |
|      Do your own testing.                                                   |
|      Unfortunately you need to use the default for hybrid, GW and RPA       |
|      calculations.                                                          |
|                                                                             |
 ----------------------------------------------------------------------------- 


 ----------------------------------------------------------------------------- 
|                                                                             |
|  ADVICE TO THIS USER RUNNING 'VASP/VAMP'   (HEAR YOUR MASTER'S VOICE ...):  |
|                                                                             |
|      You have switched on vdW-DFT.                                          |
|      This routine was written and supplied by Jiri Klimes.                  |
|      We recommed that you carefully read and cite the following             |
|      publication                                                            |
|      J. Klimes, D.R. Bowler, A. Michelides                                  |
|        J. Phys.: Cond Matt. 22 022201 (2010)                                |
|      J. Klimes, D.R. Bowler, A. Michelides                                  |
|        Phys. Rev. B. 83, 195131 (2011)                                      |
|      and references therein.                                                |
|                                                                             |
 ----------------------------------------------------------------------------- 


 ----------------------------------------------------------------------------- 
|                                                                             |
|  ADVICE TO THIS USER RUNNING 'VASP/VAMP'   (HEAR YOUR MASTER'S VOICE ...):  |
|                                                                             |
|      You enforced a specific xc-type in the INCAR file,                     |
|      a different type was found on the POTCAR file                          |
|          I HOPE YOU KNOW, WHAT YOU ARE  DOING                               |
|                                                                             |
 ----------------------------------------------------------------------------- 

 LDA part: xc-table for Pade appr. of Perdew
 POSCAR, INCAR and KPOINTS ok, starting setup
 FFT: planning ...
 WAVECAR not read
 entering main loop
       N       E                     dE             d eps       ncg     rms          rms(c)
Total vdW correction in eV:      4.3605210
DAV:   1     0.724905825756E+02    0.72491E+02   -0.13474E+04  1280   0.980E+02
DAV:   2    -0.294110127522E+02   -0.10190E+03   -0.92642E+02  1712   0.129E+02
DAV:   3    -0.335841841226E+02   -0.41732E+01   -0.41427E+01  1792   0.250E+01
DAV:   4    -0.336359963943E+02   -0.51812E-01   -0.51806E-01  1568   0.356E+00
DAV:   5    -0.336369696399E+02   -0.97325E-03   -0.97320E-03  1872   0.466E-01    0.734E+00
Total vdW correction in eV:      4.5502502
DAV:   6    -0.334385331263E+02    0.19844E+00   -0.24070E-01  1520   0.173E+00    0.450E+00
Total vdW correction in eV:      4.9154325
DAV:   7    -0.334175589754E+02    0.20974E-01   -0.55753E-01  1632   0.264E+00    0.361E-01
Total vdW correction in eV:      4.8913512
DAV:   8    -0.333489690733E+02    0.68590E-01   -0.31739E-02  1552   0.637E-01    0.198E-01
Total vdW correction in eV:      4.9112956
DAV:   9    -0.333561161463E+02   -0.71471E-02   -0.15805E-03  1712   0.161E-01    0.143E-01
Total vdW correction in eV:      4.9179819
DAV:  10    -0.333538008741E+02    0.23153E-02   -0.30018E-04  1584   0.774E-02    0.129E-01
Total vdW correction in eV:      4.9165501
DAV:  11    -0.333536045051E+02    0.19637E-03   -0.19445E-05  1600   0.230E-02    0.684E-03
Total vdW correction in eV:      4.9165209
DAV:  12    -0.333536288262E+02   -0.24321E-04   -0.28366E-07  1696   0.279E-03    0.288E-03
Total vdW correction in eV:      4.9165754
DAV:  13    -0.333535803515E+02    0.48475E-04   -0.56463E-08  1296   0.109E-03    0.914E-05
Total vdW correction in eV:      4.9165751
DAV:  14    -0.333535841384E+02   -0.37869E-05   -0.33665E-09  1168   0.296E-04    0.762E-05
Total vdW correction in eV:      4.9165715
DAV:  15    -0.333535807501E+02    0.33883E-05   -0.73982E-10  1072   0.150E-04    0.842E-05
Total vdW correction in eV:      4.9165765
DAV:  16    -0.333535816243E+02   -0.87413E-06   -0.18399E-10  1008   0.717E-05    0.248E-05
Total vdW correction in eV:      4.9165763
DAV:  17    -0.333535815005E+02    0.12375E-06   -0.34063E-11  1024   0.280E-05    0.280E-05
Total vdW correction in eV:      4.9165767
DAV:  18    -0.333535817925E+02   -0.29195E-06   -0.11786E-11   992   0.137E-05    0.113E-05
Total vdW correction in eV:      4.9165767
DAV:  19    -0.333535814850E+02    0.30749E-06   -0.16635E-11   944   0.710E-06    0.575E-06
Total vdW correction in eV:      4.9165767
DAV:  20    -0.333535814809E+02    0.40422E-08   -0.24126E-12   928   0.368E-06
Total vdW correction in eV:      4.9165766
Total vdW correction in eV:      4.9165767
   1 F= -.33353581E+02 E0= -.33353458E+02  d E =-.247246E-03
 Found     1 degrees of freedom:
 Adding 6 more for cell shape distortion
 Finite differences POTIM= 0.01500 DOF=   7
 bond charge predicted
       N       E                     dE             d eps       ncg     rms          rms(c)
Total vdW correction in eV:      4.9167064
DAV:   1    -0.333395568705E+02    0.14025E-01   -0.25728E-01  3104   0.184E+00    0.353E-01
Total vdW correction in eV:      4.9339511
DAV:   2    -0.333327249426E+02    0.68319E-02   -0.13203E-02  3184   0.418E-01    0.238E-01
Total vdW correction in eV:      4.9568033
DAV:   3    -0.333223936903E+02    0.10331E-01   -0.28574E-03  3248   0.180E-01    0.547E-02
Total vdW correction in eV:      4.9565915
DAV:   4    -0.333210874485E+02    0.13062E-02   -0.13294E-04  3328   0.454E-02    0.467E-02
Total vdW correction in eV:      4.9569672
DAV:   5    -0.333182902406E+02    0.27972E-02   -0.17045E-05  3312   0.181E-02    0.145E-02
Total vdW correction in eV:      4.9570957
DAV:   6    -0.333187447762E+02   -0.45454E-03   -0.85228E-07  3168   0.365E-03    0.222E-03
Total vdW correction in eV:      4.9570961
DAV:   7    -0.333189283997E+02   -0.18362E-03   -0.41430E-08  2320   0.996E-04    0.295E-04
Total vdW correction in eV:      4.9570984
DAV:   8    -0.333189429824E+02   -0.14583E-04   -0.52550E-09  1920   0.392E-04    0.241E-04
Total vdW correction in eV:      4.9571020
DAV:   9    -0.333189352130E+02    0.77693E-05   -0.74810E-10  1856   0.131E-04    0.340E-05
Total vdW correction in eV:      4.9571002
DAV:  10    -0.333189366539E+02   -0.14409E-05   -0.22776E-10  1760   0.687E-05    0.761E-06
Total vdW correction in eV:      4.9571003
DAV:  11    -0.333189366829E+02   -0.29013E-07   -0.48974E-11  1776   0.342E-05
Total vdW correction in eV:      4.9570999
Total vdW correction in eV:      4.9571000
   2 F= -.33318937E+02 E0= -.33318797E+02  d E =-.279699E-03
 Finite differences progress:
  Degree of freedom:   1/  7
  Displacement:        1/  2
  Total:               1/ 14
 bond charge predicted
       N       E                     dE             d eps       ncg     rms          rms(c)
Total vdW correction in eV:      4.9575708
DAV:   1    -0.333326994073E+02   -0.13763E-01   -0.88018E-01  3184   0.337E+00    0.732E-01
Total vdW correction in eV:      4.9208980
DAV:   2    -0.333339274018E+02   -0.12280E-02   -0.45736E-02  3088   0.756E-01    0.476E-01
Total vdW correction in eV:      4.8738461
DAV:   3    -0.333470361417E+02   -0.13109E-01   -0.12061E-02  3280   0.369E-01    0.122E-01
Total vdW correction in eV:      4.8752079
DAV:   4    -0.333492533814E+02   -0.22172E-02   -0.55086E-04  3280   0.920E-02    0.998E-02
Total vdW correction in eV:      4.8747335
DAV:   5    -0.333551761186E+02   -0.59227E-02   -0.75952E-05  3472   0.386E-02    0.348E-02
Total vdW correction in eV:      4.8744515
DAV:   6    -0.333541916823E+02    0.98444E-03   -0.41655E-06  3168   0.809E-03    0.583E-03
Total vdW correction in eV:      4.8744500
DAV:   7    -0.333538892722E+02    0.30241E-03   -0.16886E-07  3168   0.192E-03    0.502E-04
Total vdW correction in eV:      4.8744502
DAV:   8    -0.333538190960E+02    0.70176E-04   -0.18498E-08  2080   0.667E-04    0.654E-04
Total vdW correction in eV:      4.8744439
DAV:   9    -0.333538206731E+02   -0.15771E-05   -0.21728E-09  1952   0.246E-04    0.850E-05
Total vdW correction in eV:      4.8744458
DAV:  10    -0.333538226171E+02   -0.19440E-05   -0.37482E-10  1872   0.873E-05    0.326E-05
Total vdW correction in eV:      4.8744456
DAV:  11    -0.333538236575E+02   -0.10404E-05   -0.82403E-11  1808   0.402E-05    0.730E-06
Total vdW correction in eV:      4.8744460
DAV:  12    -0.333538245578E+02   -0.90027E-06   -0.23433E-11  1776   0.203E-05    0.103E-05
Total vdW correction in eV:      4.8744459
DAV:  13    -0.333538243292E+02    0.22858E-06    0.36965E-12  1840   0.105E-05    0.300E-06
Total vdW correction in eV:      4.8744460
DAV:  14    -0.333538242282E+02    0.10096E-06    0.10528E-12  1760   0.522E-06    0.751E-07
Total vdW correction in eV:      4.8744460
DAV:  15    -0.333538242091E+02    0.19112E-07    0.13379E-12  1744   0.283E-06
Total vdW correction in eV:      4.8744461
Total vdW correction in eV:      4.8744460
   3 F= -.33353824E+02 E0= -.33353601E+02  d E =-.447203E-03
 Finite differences progress:
  Degree of freedom:   1/  7
  Displacement:        2/  2
  Total:               2/ 14
 bond charge predicted
       N       E                     dE             d eps       ncg     rms          rms(c)
Total vdW correction in eV:      4.8745944
DAV:   1    -0.333718078146E+02   -0.17984E-01   -0.75926E-01  3072   0.305E+00    0.682E-01
Total vdW correction in eV:      4.9101446
DAV:   2    -0.333512855538E+02    0.20522E-01   -0.32799E-02  3152   0.647E-01    0.447E-01
Total vdW correction in eV:      4.9579519
DAV:   3    -0.333254918302E+02    0.25794E-01   -0.11735E-02  3104   0.351E-01    0.112E-01
Total vdW correction in eV:      4.9561217
DAV:   4    -0.333236792387E+02    0.18126E-02   -0.51074E-04  3488   0.873E-02    0.904E-02
Total vdW correction in eV:      4.9570543
DAV:   5    -0.333178151381E+02    0.58641E-02   -0.41760E-05  3312   0.275E-02    0.263E-02
Total vdW correction in eV:      4.9570682
DAV:   6    -0.333186753688E+02   -0.86023E-03   -0.18834E-06  3104   0.583E-03    0.501E-03
Total vdW correction in eV:      4.9570752
DAV:   7    -0.333188960647E+02   -0.22070E-03   -0.62218E-08  2800   0.125E-03    0.621E-04
Total vdW correction in eV:      4.9570938
DAV:   8    -0.333189293232E+02   -0.33258E-04   -0.14212E-08  1968   0.666E-04    0.605E-04
Total vdW correction in eV:      4.9571029
DAV:   9    -0.333189361269E+02   -0.68037E-05   -0.18367E-09  2016   0.210E-04    0.813E-05
Total vdW correction in eV:      4.9571004
DAV:  10    -0.333189373208E+02   -0.11939E-05   -0.66118E-10  1824   0.114E-04    0.574E-05
Total vdW correction in eV:      4.9571005
DAV:  11    -0.333189371756E+02    0.14524E-06   -0.11879E-10  1824   0.547E-05    0.130E-05
Total vdW correction in eV:      4.9571004
DAV:  12    -0.333189366552E+02    0.52038E-06   -0.26227E-11  1808   0.236E-05    0.130E-05
Total vdW correction in eV:      4.9571004
DAV:  13    -0.333189363829E+02    0.27229E-06   -0.27234E-12  1648   0.127E-05    0.735E-06
Total vdW correction in eV:      4.9571002
DAV:  14    -0.333189364476E+02   -0.64729E-07   -0.37270E-12  1648   0.657E-06
Total vdW correction in eV:      4.9571001
Total vdW correction in eV:      4.9571002
   4 F= -.33318936E+02 E0= -.33318797E+02  d E =-.279699E-03
 Finite differences progress:
  Degree of freedom:   2/  7
  Displacement:        1/  2
  Total:               3/ 14
 bond charge predicted
       N       E                     dE             d eps       ncg     rms          rms(c)
Total vdW correction in eV:      4.9575710
DAV:   1    -0.333325500135E+02   -0.13614E-01   -0.93473E-01  3056   0.346E+00    0.735E-01
Total vdW correction in eV:      4.9211425
DAV:   2    -0.333340795026E+02   -0.15295E-02   -0.46516E-02  3152   0.767E-01    0.476E-01
Total vdW correction in eV:      4.8739235
DAV:   3    -0.333470535003E+02   -0.12974E-01   -0.12055E-02  3152   0.369E-01    0.122E-01
Total vdW correction in eV:      4.8752975
DAV:   4    -0.333492822467E+02   -0.22287E-02   -0.55130E-04  3376   0.929E-02    0.100E-01
Total vdW correction in eV:      4.8747075
DAV:   5    -0.333551875696E+02   -0.59053E-02   -0.75435E-05  3376   0.386E-02    0.344E-02
Total vdW correction in eV:      4.8744502
DAV:   6    -0.333541975902E+02    0.98998E-03   -0.39928E-06  3152   0.804E-03    0.567E-03
Total vdW correction in eV:      4.8744494
DAV:   7    -0.333538795164E+02    0.31807E-03   -0.16962E-07  3152   0.194E-03    0.471E-04
Total vdW correction in eV:      4.8744502
DAV:   8    -0.333538182783E+02    0.61238E-04   -0.15258E-08  2096   0.602E-04    0.596E-04
Total vdW correction in eV:      4.8744441
DAV:   9    -0.333538213104E+02   -0.30321E-05   -0.20624E-09  2000   0.240E-04    0.460E-05
Total vdW correction in eV:      4.8744458
DAV:  10    -0.333538227692E+02   -0.14587E-05   -0.33168E-10  1824   0.831E-05    0.326E-05
Total vdW correction in eV:      4.8744457
DAV:  11    -0.333538236990E+02   -0.92986E-06   -0.76382E-11  1840   0.380E-05    0.781E-06
Total vdW correction in eV:      4.8744460
DAV:  12    -0.333538246058E+02   -0.90679E-06   -0.15407E-11  1776   0.197E-05    0.103E-05
Total vdW correction in eV:      4.8744459
DAV:  13    -0.333538243121E+02    0.29370E-06   -0.53578E-12  1872   0.100E-05    0.249E-06
Total vdW correction in eV:      4.8744460
DAV:  14    -0.333538242218E+02    0.90328E-07    0.74076E-13  1776   0.505E-06
Total vdW correction in eV:      4.8744461
Total vdW correction in eV:      4.8744460
   5 F= -.33353824E+02 E0= -.33353601E+02  d E =-.447203E-03
 Finite differences progress:
  Degree of freedom:   2/  7
  Displacement:        2/  2
  Total:               4/ 14
 bond charge predicted
       N       E                     dE             d eps       ncg     rms          rms(c)
Total vdW correction in eV:      4.8745944
DAV:   1    -0.333720633095E+02   -0.18239E-01   -0.73701E-01  3040   0.297E+00    0.690E-01
Total vdW correction in eV:      4.9101058
DAV:   2    -0.333511925212E+02    0.20871E-01   -0.28349E-02  3120   0.605E-01    0.444E-01
Total vdW correction in eV:      4.9578838
DAV:   3    -0.333254806530E+02    0.25712E-01   -0.11707E-02  3056   0.349E-01    0.111E-01
Total vdW correction in eV:      4.9561106
DAV:   4    -0.333237383531E+02    0.17423E-02   -0.50248E-04  3408   0.869E-02    0.917E-02
Total vdW correction in eV:      4.9571593
DAV:   5    -0.333178039328E+02    0.59344E-02   -0.42573E-05  3360   0.280E-02    0.293E-02
Total vdW correction in eV:      4.9570763
DAV:   6    -0.333187076155E+02   -0.90368E-03   -0.18104E-06  3232   0.599E-03    0.614E-03
Total vdW correction in eV:      4.9570779
DAV:   7    -0.333188905338E+02   -0.18292E-03   -0.60516E-08  2416   0.125E-03    0.635E-04
Total vdW correction in eV:      4.9570931
DAV:   8    -0.333189225667E+02   -0.32033E-04   -0.16155E-08  2048   0.713E-04    0.720E-04
Total vdW correction in eV:      4.9571027
DAV:   9    -0.333189356470E+02   -0.13080E-04   -0.19028E-09  1888   0.218E-04    0.128E-04
Total vdW correction in eV:      4.9571005
DAV:  10    -0.333189385358E+02   -0.28888E-05   -0.68015E-10  1824   0.118E-04    0.106E-04
Total vdW correction in eV:      4.9571005
DAV:  11    -0.333189376795E+02    0.85630E-06   -0.12429E-10  1712   0.559E-05    0.222E-05
Total vdW correction in eV:      4.9571004
DAV:  12    -0.333189366855E+02    0.99396E-06   -0.36144E-11  1728   0.251E-05    0.148E-05
Total vdW correction in eV:      4.9571004
DAV:  13    -0.333189363684E+02    0.31712E-06   -0.18647E-11  1600   0.130E-05    0.873E-06
Total vdW correction in eV:      4.9571002
DAV:  14    -0.333189364384E+02   -0.70043E-07   -0.79729E-13  1584   0.696E-06
Total vdW correction in eV:      4.9571001
Total vdW correction in eV:      4.9571002
   6 F= -.33318936E+02 E0= -.33318797E+02  d E =-.279699E-03
 Finite differences progress:
  Degree of freedom:   3/  7
  Displacement:        1/  2
  Total:               5/ 14
 bond charge predicted
       N       E                     dE             d eps       ncg     rms          rms(c)
Total vdW correction in eV:      4.9575710
DAV:   1    -0.333331068662E+02   -0.14170E-01   -0.87679E-01  2960   0.335E+00    0.736E-01
Total vdW correction in eV:      4.9212367
DAV:   2    -0.333340791602E+02   -0.97229E-03   -0.40730E-02  3280   0.730E-01    0.475E-01
Total vdW correction in eV:      4.8736603
DAV:   3    -0.333471599744E+02   -0.13081E-01   -0.12101E-02  3024   0.369E-01    0.123E-01
Total vdW correction in eV:      4.8752201
DAV:   4    -0.333492655992E+02   -0.21056E-02   -0.55669E-04  3488   0.931E-02    0.101E-01
Total vdW correction in eV:      4.8746447
DAV:   5    -0.333551201567E+02   -0.58546E-02   -0.75440E-05  3072   0.386E-02    0.343E-02
Total vdW correction in eV:      4.8744450
DAV:   6    -0.333541864025E+02    0.93375E-03   -0.36210E-06  3184   0.778E-03    0.661E-03
Total vdW correction in eV:      4.8744473
DAV:   7    -0.333538752398E+02    0.31116E-03   -0.16657E-07  3040   0.196E-03    0.463E-04
Total vdW correction in eV:      4.8744498
DAV:   8    -0.333538223961E+02    0.52844E-04   -0.12939E-08  1984   0.559E-04    0.693E-04
Total vdW correction in eV:      4.8744441
DAV:   9    -0.333538212868E+02    0.11092E-05   -0.20728E-09  1824   0.240E-04    0.204E-05
Total vdW correction in eV:      4.8744458
DAV:  10    -0.333538223576E+02   -0.10708E-05   -0.32911E-10  1728   0.827E-05    0.456E-05
Total vdW correction in eV:      4.8744457
DAV:  11    -0.333538237996E+02   -0.14420E-05   -0.75028E-11  1808   0.379E-05    0.978E-06
Total vdW correction in eV:      4.8744460
DAV:  12    -0.333538246753E+02   -0.87572E-06   -0.17730E-11  1680   0.195E-05    0.105E-05
Total vdW correction in eV:      4.8744459
DAV:  13    -0.333538242631E+02    0.41222E-06    0.26550E-12  1808   0.975E-06    0.228E-06
Total vdW correction in eV:      4.8744460
DAV:  14    -0.333538241661E+02    0.96955E-07   -0.96403E-12  1760   0.501E-06
Total vdW correction in eV:      4.8744461
Total vdW correction in eV:      4.8744460


 VERY BAD NEWS! internal error in subroutine IBZKPT:
 Reciprocal lattice and k-lattice belong to different class of lattices. Often results are still useful...      96


 VERY BAD NEWS! internal error in subroutine IBZKPT:
 Reciprocal lattice and k-lattice belong to different class of lattices. Often results are still useful...      96


 VERY BAD NEWS! internal error in subroutine IBZKPT:
 Reciprocal lattice and k-lattice belong to different class of lattices. Often results are still useful...      96


 VERY BAD NEWS! internal error in subroutine IBZKPT:
 Reciprocal lattice and k-lattice belong to different class of lattices. Often results are still useful...      96


 VERY BAD NEWS! internal error in subroutine IBZKPT:
 Reciprocal lattice and k-lattice belong to different class of lattices. Often results are still useful...      96


 VERY BAD NEWS! internal error in subroutine IBZKPT:
 Reciprocal lattice and k-lattice belong to different class of lattices. Often results are still useful...      96


 VERY BAD NEWS! internal error in subroutine IBZKPT:
 Reciprocal lattice and k-lattice belong to different class of lattices. Often results are still useful...      96


 VERY BAD NEWS! internal error in subroutine IBZKPT:
 Reciprocal lattice and k-lattice belong to different class of lattices. Often results are still useful...      96


 VERY BAD NEWS! internal error in subroutine IBZKPT:
 Reciprocal lattice and k-lattice belong to different class of lattices. Often results are still useful...      96


 VERY BAD NEWS! internal error in subroutine IBZKPT:
 Reciprocal lattice and k-lattice belong to different class of lattices. Often results are still useful...      96


 VERY BAD NEWS! internal error in subroutine IBZKPT:
 Reciprocal lattice and k-lattice belong to different class of lattices. Often results are still useful...      96


 VERY BAD NEWS! internal error in subroutine IBZKPT:
 Reciprocal lattice and k-lattice belong to different class of lattices. Often results are still useful...      96


 VERY BAD NEWS! internal error in subroutine IBZKPT:
 Reciprocal lattice and k-lattice belong to different class of lattices. Often results are still useful...      96


 VERY BAD NEWS! internal error in subroutine IBZKPT:
 Reciprocal lattice and k-lattice belong to different class of lattices. Often results are still useful...      96


 VERY BAD NEWS! internal error in subroutine IBZKPT:
 Reciprocal lattice and k-lattice belong to different class of lattices. Often results are still useful...      96
   7 F= -.33353824E+02 E0= -.33353601E+02  d E =-.447203E-03
 Finite differences progress:
  Degree of freedom:   3/  7
  Displacement:        2/  2
  Total:               6/ 14


 VERY BAD NEWS! internal error in subroutine IBZKPT:
 Reciprocal lattice and k-lattice belong to different class of lattices. Often results are still useful...      96
 bond charge predicted
       N       E                     dE             d eps       ncg     rms          rms(c)
Total vdW correction in eV:      4.8743822
DAV:   1    -0.333743562847E+02   -0.20532E-01   -0.61311E-01  6496   0.283E+00    0.586E-01
Total vdW correction in eV:      4.8921354
DAV:   2    -0.333603273643E+02    0.14029E-01   -0.40467E-02  6800   0.785E-01    0.345E-01
Total vdW correction in eV:      4.9128312
DAV:   3    -0.333473313113E+02    0.12996E-01   -0.11530E-02  6672   0.415E-01    0.733E-02
Total vdW correction in eV:      4.9147576
DAV:   4    -0.333451435130E+02    0.21878E-02   -0.18476E-03  6432   0.160E-01    0.521E-02
Total vdW correction in eV:      4.9168064
DAV:   5    -0.333424870913E+02    0.26564E-02   -0.63418E-05  6912   0.340E-02    0.139E-02
Total vdW correction in eV:      4.9164013
DAV:   6    -0.333424121932E+02    0.74898E-04   -0.10852E-05  6544   0.128E-02    0.466E-03
Total vdW correction in eV:      4.9163923
DAV:   7    -0.333424187715E+02   -0.65783E-05   -0.19287E-06  6896   0.582E-03    0.185E-03
Total vdW correction in eV:      4.9163864
DAV:   8    -0.333424456851E+02   -0.26914E-04   -0.46830E-08  4464   0.956E-04    0.657E-04
Total vdW correction in eV:      4.9164065
DAV:   9    -0.333424628403E+02   -0.17155E-04   -0.11644E-08  3840   0.475E-04    0.109E-04
Total vdW correction in eV:      4.9164018
DAV:  10    -0.333424688397E+02   -0.59994E-05   -0.24471E-09  3888   0.234E-04    0.113E-04
Total vdW correction in eV:      4.9164028
DAV:  11    -0.333424677411E+02    0.10986E-05   -0.41448E-10  3696   0.103E-04    0.465E-05
Total vdW correction in eV:      4.9164021
DAV:  12    -0.333424670219E+02    0.71920E-06   -0.89576E-11  3600   0.462E-05    0.139E-05
Total vdW correction in eV:      4.9164028
DAV:  13    -0.333424670898E+02   -0.67907E-07   -0.32527E-11  3584   0.255E-05
Total vdW correction in eV:      4.9164027
Total vdW correction in eV:      4.9164028


 VERY BAD NEWS! internal error in subroutine IBZKPT:
 Reciprocal lattice and k-lattice belong to different class of lattices. Often results are still useful...      96


 VERY BAD NEWS! internal error in subroutine IBZKPT:
 Reciprocal lattice and k-lattice belong to different class of lattices. Often results are still useful...      96


 VERY BAD NEWS! internal error in subroutine IBZKPT:
 Reciprocal lattice and k-lattice belong to different class of lattices. Often results are still useful...      96


 VERY BAD NEWS! internal error in subroutine IBZKPT:
 Reciprocal lattice and k-lattice belong to different class of lattices. Often results are still useful...      96


 VERY BAD NEWS! internal error in subroutine IBZKPT:
 Reciprocal lattice and k-lattice belong to different class of lattices. Often results are still useful...      96


 VERY BAD NEWS! internal error in subroutine IBZKPT:
 Reciprocal lattice and k-lattice belong to different class of lattices. Often results are still useful...      96


 VERY BAD NEWS! internal error in subroutine IBZKPT:
 Reciprocal lattice and k-lattice belong to different class of lattices. Often results are still useful...      96


 VERY BAD NEWS! internal error in subroutine IBZKPT:
 Reciprocal lattice and k-lattice belong to different class of lattices. Often results are still useful...      96


 VERY BAD NEWS! internal error in subroutine IBZKPT:


 VERY BAD NEWS! internal error in subroutine IBZKPT:
 Reciprocal lattice and k-lattice belong to different class of lattices. Often results are still useful...      96
 Reciprocal lattice and k-lattice belong to different class of lattices. Often results are still useful...      96


 VERY BAD NEWS! internal error in subroutine IBZKPT:
 Reciprocal lattice and k-lattice belong to different class of lattices. Often results are still useful...      96


 VERY BAD NEWS! internal error in subroutine IBZKPT:
 Reciprocal lattice and k-lattice belong to different class of lattices. Often results are still useful...      96


 VERY BAD NEWS! internal error in subroutine IBZKPT:


 Reciprocal lattice and k-lattice belong to different class of lattices. Often results are still useful...      96
 VERY BAD NEWS! internal error in subroutine IBZKPT:
 Reciprocal lattice and k-lattice belong to different class of lattices. Often results are still useful...      96


 VERY BAD NEWS! internal error in subroutine IBZKPT:
 Reciprocal lattice and k-lattice belong to different class of lattices. Often results are still useful...      96
   8 F= -.33342467E+02 E0= -.33342337E+02  d E =-.259719E-03
 Finite differences progress:
  Degree of freedom:   4/  7
  Displacement:        1/  2
  Total:               7/ 14


 VERY BAD NEWS! internal error in subroutine IBZKPT:
 Reciprocal lattice and k-lattice belong to different class of lattices. Often results are still useful...      96
 bond charge predicted
       N       E                     dE             d eps       ncg     rms          rms(c)
Total vdW correction in eV:      4.9171037
DAV:   1    -0.333889212669E+02   -0.46454E-01   -0.81323E-01  6368   0.316E+00    0.915E-01
Total vdW correction in eV:      4.9163585
DAV:   2    -0.333573264162E+02    0.31595E-01   -0.69906E-02  6928   0.109E+00    0.472E-01
Total vdW correction in eV:      4.9163224
DAV:   3    -0.333421310613E+02    0.15195E-01   -0.38247E-02  6624   0.758E-01    0.111E-01
Total vdW correction in eV:      4.9163172
DAV:   4    -0.333425777547E+02   -0.44669E-03   -0.63656E-03  6272   0.295E-01    0.640E-02
Total vdW correction in eV:      4.9163880
DAV:   5    -0.333424951815E+02    0.82573E-04   -0.19238E-04  7136   0.567E-02    0.199E-02
Total vdW correction in eV:      4.9163831
DAV:   6    -0.333424689321E+02    0.26249E-04   -0.39806E-05  6464   0.263E-02    0.739E-03
Total vdW correction in eV:      4.9164030
DAV:   7    -0.333424659861E+02    0.29460E-05   -0.92755E-06  6928   0.110E-02    0.196E-03
Total vdW correction in eV:      4.9164032
DAV:   8    -0.333424669321E+02   -0.94593E-06   -0.39046E-07  6512   0.279E-03    0.427E-04
Total vdW correction in eV:      4.9164027
DAV:   9    -0.333424666955E+02    0.23655E-06   -0.42675E-08  3952   0.827E-04    0.255E-04
Total vdW correction in eV:      4.9164027
DAV:  10    -0.333424667800E+02   -0.84490E-07   -0.39348E-09  3536   0.314E-04
Total vdW correction in eV:      4.9164028
Total vdW correction in eV:      4.9164027


 VERY BAD NEWS! internal error in subroutine IBZKPT:
 Reciprocal lattice and k-lattice belong to different class of lattices. Often results are still useful...      96


 VERY BAD NEWS! internal error in subroutine IBZKPT:
 Reciprocal lattice and k-lattice belong to different class of lattices. Often results are still useful...      96


 VERY BAD NEWS! internal error in subroutine IBZKPT:
 Reciprocal lattice and k-lattice belong to different class of lattices. Often results are still useful...      96


 VERY BAD NEWS! internal error in subroutine IBZKPT:
 Reciprocal lattice and k-lattice belong to different class of lattices. Often results are still useful...      96


 VERY BAD NEWS! internal error in subroutine IBZKPT:
 Reciprocal lattice and k-lattice belong to different class of lattices. Often results are still useful...      96


 VERY BAD NEWS! internal error in subroutine IBZKPT:
 Reciprocal lattice and k-lattice belong to different class of lattices. Often results are still useful...      96


 VERY BAD NEWS! internal error in subroutine IBZKPT:
 Reciprocal lattice and k-lattice belong to different class of lattices. Often results are still useful...      96


 VERY BAD NEWS! internal error in subroutine IBZKPT:
 Reciprocal lattice and k-lattice belong to different class of lattices. Often results are still useful...      96


 VERY BAD NEWS! internal error in subroutine IBZKPT:


 VERY BAD NEWS! internal error in subroutine IBZKPT:
 Reciprocal lattice and k-lattice belong to different class of lattices. Often results are still useful...      96


 VERY BAD NEWS! internal error in subroutine IBZKPT:
 Reciprocal lattice and k-lattice belong to different class of lattices. Often results are still useful...      96
 Reciprocal lattice and k-lattice belong to different class of lattices. Often results are still useful...      96


 VERY BAD NEWS! internal error in subroutine IBZKPT:
 Reciprocal lattice and k-lattice belong to different class of lattices. Often results are still useful...      96


 VERY BAD NEWS! internal error in subroutine IBZKPT:
 Reciprocal lattice and k-lattice belong to different class of lattices. Often results are still useful...      96


 VERY BAD NEWS! internal error in subroutine IBZKPT:
 Reciprocal lattice and k-lattice belong to different class of lattices. Often results are still useful...      96


 VERY BAD NEWS! internal error in subroutine IBZKPT:
 Reciprocal lattice and k-lattice belong to different class of lattices. Often results are still useful...      96
   9 F= -.33342467E+02 E0= -.33342337E+02  d E =-.259721E-03
 Finite differences progress:
  Degree of freedom:   4/  7
  Displacement:        2/  2
  Total:               8/ 14


 VERY BAD NEWS! internal error in subroutine IBZKPT:
 Reciprocal lattice and k-lattice belong to different class of lattices. Often results are still useful...      96
 bond charge predicted
       N       E                     dE             d eps       ncg     rms          rms(c)
Total vdW correction in eV:      4.9167532
DAV:   1    -0.333642682305E+02   -0.21802E-01   -0.65301E-01  6720   0.283E+00    0.566E-01
Total vdW correction in eV:      4.9163764
DAV:   2    -0.333524153153E+02    0.11853E-01   -0.46712E-02  6944   0.845E-01    0.317E-01
Total vdW correction in eV:      4.9163359
DAV:   3    -0.333429318906E+02    0.94834E-02   -0.15542E-02  6976   0.502E-01    0.834E-02
Total vdW correction in eV:      4.9163396
DAV:   4    -0.333427061417E+02    0.22575E-03   -0.35112E-03  6752   0.206E-01    0.482E-02
Total vdW correction in eV:      4.9163845
DAV:   5    -0.333424606064E+02    0.24554E-03   -0.52581E-04  7024   0.925E-02    0.751E-03
Total vdW correction in eV:      4.9163891
DAV:   6    -0.333424689320E+02   -0.83256E-05   -0.11795E-04  6528   0.400E-02    0.700E-03
Total vdW correction in eV:      4.9164018
DAV:   7    -0.333424668538E+02    0.20782E-05   -0.31756E-06  7168   0.749E-03    0.221E-03
Total vdW correction in eV:      4.9164024
DAV:   8    -0.333424673471E+02   -0.49325E-06   -0.31480E-07  6160   0.226E-03    0.129E-03
Total vdW correction in eV:      4.9164026
DAV:   9    -0.333424671823E+02    0.16480E-06   -0.15366E-08  4272   0.540E-04    0.215E-04
Total vdW correction in eV:      4.9164027
DAV:  10    -0.333424671115E+02    0.70771E-07   -0.13833E-09  3952   0.194E-04
Total vdW correction in eV:      4.9164028
Total vdW correction in eV:      4.9164028
  10 F= -.33342467E+02 E0= -.33342337E+02  d E =-.259718E-03
 Finite differences progress:
  Degree of freedom:   5/  7
  Displacement:        1/  2
  Total:               9/ 14


 VERY BAD NEWS! internal error in subroutine IBZKPT:
 Reciprocal lattice and k-lattice belong to different class of lattices. Often results are still useful...      96


 VERY BAD NEWS! internal error in subroutine IBZKPT:
 Reciprocal lattice and k-lattice belong to different class of lattices. Often results are still useful...      96


 VERY BAD NEWS! internal error in subroutine IBZKPT:
 Reciprocal lattice and k-lattice belong to different class of lattices. Often results are still useful...      96


 VERY BAD NEWS! internal error in subroutine IBZKPT:
 Reciprocal lattice and k-lattice belong to different class of lattices. Often results are still useful...      96


 VERY BAD NEWS! internal error in subroutine IBZKPT:
 Reciprocal lattice and k-lattice belong to different class of lattices. Often results are still useful...      96


 VERY BAD NEWS! internal error in subroutine IBZKPT:
 Reciprocal lattice and k-lattice belong to different class of lattices. Often results are still useful...      96


 VERY BAD NEWS! internal error in subroutine IBZKPT:
 Reciprocal lattice and k-lattice belong to different class of lattices. Often results are still useful...      96


 VERY BAD NEWS! internal error in subroutine IBZKPT:
 Reciprocal lattice and k-lattice belong to different class of lattices. Often results are still useful...      96


 VERY BAD NEWS! internal error in subroutine IBZKPT:
 Reciprocal lattice and k-lattice belong to different class of lattices. Often results are still useful...      96


 VERY BAD NEWS! internal error in subroutine IBZKPT:
 Reciprocal lattice and k-lattice belong to different class of lattices. Often results are still useful...      96


 VERY BAD NEWS! internal error in subroutine IBZKPT:
 Reciprocal lattice and k-lattice belong to different class of lattices. Often results are still useful...      96


 VERY BAD NEWS! internal error in subroutine IBZKPT:
 Reciprocal lattice and k-lattice belong to different class of lattices. Often results are still useful...      96


 VERY BAD NEWS! internal error in subroutine IBZKPT:
 Reciprocal lattice and k-lattice belong to different class of lattices. Often results are still useful...      96


 VERY BAD NEWS! internal error in subroutine IBZKPT:
 Reciprocal lattice and k-lattice belong to different class of lattices. Often results are still useful...      96


 VERY BAD NEWS! internal error in subroutine IBZKPT:
 Reciprocal lattice and k-lattice belong to different class of lattices. Often results are still useful...      96


 VERY BAD NEWS! internal error in subroutine IBZKPT:
 Reciprocal lattice and k-lattice belong to different class of lattices. Often results are still useful...      96
 bond charge predicted
       N       E                     dE             d eps       ncg     rms          rms(c)
Total vdW correction in eV:      4.9171037
DAV:   1    -0.333885700006E+02   -0.46103E-01   -0.84329E-01  6544   0.324E+00    0.915E-01
Total vdW correction in eV:      4.9162263
DAV:   2    -0.333572816471E+02    0.31288E-01   -0.72615E-02  6832   0.110E+00    0.473E-01
Total vdW correction in eV:      4.9162371
DAV:   3    -0.333421033009E+02    0.15178E-01   -0.37647E-02  6752   0.754E-01    0.110E-01
Total vdW correction in eV:      4.9162614
DAV:   4    -0.333425622976E+02   -0.45900E-03   -0.63802E-03  6384   0.295E-01    0.645E-02
Total vdW correction in eV:      4.9163851
DAV:   5    -0.333425065527E+02    0.55745E-04   -0.18213E-04  7168   0.555E-02    0.185E-02
Total vdW correction in eV:      4.9163837
DAV:   6    -0.333424761379E+02    0.30415E-04   -0.38351E-05  6448   0.257E-02    0.715E-03
Total vdW correction in eV:      4.9164011
DAV:   7    -0.333424651795E+02    0.10958E-04   -0.82635E-06  6640   0.106E-02    0.208E-03
Total vdW correction in eV:      4.9164021
DAV:   8    -0.333424657121E+02   -0.53267E-06   -0.17827E-07  6144   0.203E-03    0.313E-04
Total vdW correction in eV:      4.9164027
DAV:   9    -0.333424668293E+02   -0.11172E-05   -0.34350E-08  4240   0.765E-04    0.183E-04
Total vdW correction in eV:      4.9164028
DAV:  10    -0.333424669598E+02   -0.13045E-06   -0.30101E-09  3984   0.271E-04    0.835E-05
Total vdW correction in eV:      4.9164028
DAV:  11    -0.333424670077E+02   -0.47918E-07   -0.41323E-10  4016   0.106E-04
Total vdW correction in eV:      4.9164028
Total vdW correction in eV:      4.9164028


 VERY BAD NEWS! internal error in subroutine IBZKPT:
 Reciprocal lattice and k-lattice belong to different class of lattices. Often results are still useful...      96


 VERY BAD NEWS! internal error in subroutine IBZKPT:
 Reciprocal lattice and k-lattice belong to different class of lattices. Often results are still useful...      96


 VERY BAD NEWS! internal error in subroutine IBZKPT:
 Reciprocal lattice and k-lattice belong to different class of lattices. Often results are still useful...      96


 VERY BAD NEWS! internal error in subroutine IBZKPT:
 Reciprocal lattice and k-lattice belong to different class of lattices. Often results are still useful...      96


 VERY BAD NEWS! internal error in subroutine IBZKPT:
 Reciprocal lattice and k-lattice belong to different class of lattices. Often results are still useful...      96


 VERY BAD NEWS! internal error in subroutine IBZKPT:
 Reciprocal lattice and k-lattice belong to different class of lattices. Often results are still useful...      96
  11 F= -.33342467E+02 E0= -.33342337E+02  d E =-.259720E-03
 Finite differences progress:
  Degree of freedom:   5/  7
  Displacement:        2/  2
  Total:              10/ 14


 VERY BAD NEWS! internal error in subroutine IBZKPT:
 Reciprocal lattice and k-lattice belong to different class of lattices. Often results are still useful...      96


 VERY BAD NEWS! internal error in subroutine IBZKPT:
 Reciprocal lattice and k-lattice belong to different class of lattices. Often results are still useful...      96


 VERY BAD NEWS! internal error in subroutine IBZKPT:
 Reciprocal lattice and k-lattice belong to different class of lattices. Often results are still useful...      96


 VERY BAD NEWS! internal error in subroutine IBZKPT:
 Reciprocal lattice and k-lattice belong to different class of lattices. Often results are still useful...      96


 VERY BAD NEWS! internal error in subroutine IBZKPT:
 Reciprocal lattice and k-lattice belong to different class of lattices. Often results are still useful...      96


 VERY BAD NEWS! internal error in subroutine IBZKPT:
 Reciprocal lattice and k-lattice belong to different class of lattices. Often results are still useful...      96


 VERY BAD NEWS! internal error in subroutine IBZKPT:
 Reciprocal lattice and k-lattice belong to different class of lattices. Often results are still useful...      96


 VERY BAD NEWS! internal error in subroutine IBZKPT:
 Reciprocal lattice and k-lattice belong to different class of lattices. Often results are still useful...      96


 VERY BAD NEWS! internal error in subroutine IBZKPT:
 Reciprocal lattice and k-lattice belong to different class of lattices. Often results are still useful...      96


 VERY BAD NEWS! internal error in subroutine IBZKPT:
 Reciprocal lattice and k-lattice belong to different class of lattices. Often results are still useful...      96
 bond charge predicted
       N       E                     dE             d eps       ncg     rms          rms(c)
Total vdW correction in eV:      4.9167533
DAV:   1    -0.333609625048E+02   -0.18496E-01   -0.64654E-01  6672   0.281E+00    0.565E-01
Total vdW correction in eV:      4.9164428
DAV:   2    -0.333505495262E+02    0.10413E-01   -0.48723E-02  6784   0.848E-01    0.317E-01
Total vdW correction in eV:      4.9163832
DAV:   3    -0.333423675768E+02    0.81819E-02   -0.15482E-02  7152   0.500E-01    0.838E-02
Total vdW correction in eV:      4.9163657
DAV:   4    -0.333423951906E+02   -0.27614E-04   -0.35150E-03  6864   0.206E-01    0.479E-02
Total vdW correction in eV:      4.9163744
DAV:   5    -0.333424430250E+02   -0.47834E-04   -0.50507E-04  6976   0.911E-02    0.732E-03
Total vdW correction in eV:      4.9163806
DAV:   6    -0.333424527791E+02   -0.97541E-05   -0.11433E-04  6640   0.393E-02    0.670E-03
Total vdW correction in eV:      4.9164005
DAV:   7    -0.333424692568E+02   -0.16478E-04   -0.30264E-06  7184   0.735E-03    0.198E-03
Total vdW correction in eV:      4.9164016
DAV:   8    -0.333424694835E+02   -0.22667E-06   -0.31768E-07  6160   0.227E-03    0.110E-03
Total vdW correction in eV:      4.9164022
DAV:   9    -0.333424676419E+02    0.18416E-05   -0.17227E-08  4368   0.567E-04    0.178E-04
Total vdW correction in eV:      4.9164025
DAV:  10    -0.333424672411E+02    0.40076E-06   -0.14916E-09  4080   0.203E-04    0.276E-05
Total vdW correction in eV:      4.9164027
DAV:  11    -0.333424670739E+02    0.16725E-06   -0.43847E-10  3984   0.979E-05    0.160E-05
Total vdW correction in eV:      4.9164028
DAV:  12    -0.333424670460E+02    0.27918E-07   -0.78254E-11  3904   0.414E-05
Total vdW correction in eV:      4.9164028
Total vdW correction in eV:      4.9164028


 VERY BAD NEWS! internal error in subroutine IBZKPT:
 Reciprocal lattice and k-lattice belong to different class of lattices. Often results are still useful...      96


 VERY BAD NEWS! internal error in subroutine IBZKPT:
 Reciprocal lattice and k-lattice belong to different class of lattices. Often results are still useful...      96


 VERY BAD NEWS! internal error in subroutine IBZKPT:
 Reciprocal lattice and k-lattice belong to different class of lattices. Often results are still useful...      96


 VERY BAD NEWS! internal error in subroutine IBZKPT:
 Reciprocal lattice and k-lattice belong to different class of lattices. Often results are still useful...      96


 VERY BAD NEWS! internal error in subroutine IBZKPT:
 Reciprocal lattice and k-lattice belong to different class of lattices. Often results are still useful...      96


 VERY BAD NEWS! internal error in subroutine IBZKPT:
 Reciprocal lattice and k-lattice belong to different class of lattices. Often results are still useful...      96


 VERY BAD NEWS! internal error in subroutine IBZKPT:
 Reciprocal lattice and k-lattice belong to different class of lattices. Often results are still useful...      96


 VERY BAD NEWS! internal error in subroutine IBZKPT:
 Reciprocal lattice and k-lattice belong to different class of lattices. Often results are still useful...      96


 VERY BAD NEWS! internal error in subroutine IBZKPT:
 Reciprocal lattice and k-lattice belong to different class of lattices. Often results are still useful...      96


 VERY BAD NEWS! internal error in subroutine IBZKPT:
 Reciprocal lattice and k-lattice belong to different class of lattices. Often results are still useful...      96


 VERY BAD NEWS! internal error in subroutine IBZKPT:
 Reciprocal lattice and k-lattice belong to different class of lattices. Often results are still useful...      96


 VERY BAD NEWS! internal error in subroutine IBZKPT:
 Reciprocal lattice and k-lattice belong to different class of lattices. Often results are still useful...      96


 VERY BAD NEWS! internal error in subroutine IBZKPT:
 Reciprocal lattice and k-lattice belong to different class of lattices. Often results are still useful...      96


 VERY BAD NEWS! internal error in subroutine IBZKPT:
 Reciprocal lattice and k-lattice belong to different class of lattices. Often results are still useful...      96


 VERY BAD NEWS! internal error in subroutine IBZKPT:
 Reciprocal lattice and k-lattice belong to different class of lattices. Often results are still useful...      96
  12 F= -.33342467E+02 E0= -.33342337E+02  d E =-.259719E-03
 Finite differences progress:
  Degree of freedom:   6/  7
  Displacement:        1/  2
  Total:              11/ 14


 VERY BAD NEWS! internal error in subroutine IBZKPT:
 Reciprocal lattice and k-lattice belong to different class of lattices. Often results are still useful...      96
 bond charge predicted
       N       E                     dE             d eps       ncg     rms          rms(c)
Total vdW correction in eV:      4.9171037
DAV:   1    -0.333879352087E+02   -0.45468E-01   -0.90795E-01  6752   0.340E+00    0.916E-01
Total vdW correction in eV:      4.9163049
DAV:   2    -0.333574251748E+02    0.30510E-01   -0.77092E-02  6992   0.113E+00    0.474E-01
Total vdW correction in eV:      4.9162870
DAV:   3    -0.333421188824E+02    0.15306E-01   -0.37158E-02  6848   0.752E-01    0.111E-01
Total vdW correction in eV:      4.9162938
DAV:   4    -0.333425769504E+02   -0.45807E-03   -0.64058E-03  6464   0.295E-01    0.641E-02
Total vdW correction in eV:      4.9163896
DAV:   5    -0.333425000645E+02    0.76886E-04   -0.18421E-04  7072   0.559E-02    0.183E-02
Total vdW correction in eV:      4.9163856
DAV:   6    -0.333424726297E+02    0.27435E-04   -0.37081E-05  6544   0.253E-02    0.686E-03
Total vdW correction in eV:      4.9164022
DAV:   7    -0.333424656527E+02    0.69771E-05   -0.82863E-06  6864   0.106E-02    0.210E-03
Total vdW correction in eV:      4.9164027
DAV:   8    -0.333424664782E+02   -0.82554E-06   -0.22686E-07  6384   0.221E-03    0.463E-04
Total vdW correction in eV:      4.9164026
DAV:   9    -0.333424667632E+02   -0.28497E-06   -0.30723E-08  4320   0.721E-04    0.218E-04
Total vdW correction in eV:      4.9164027
DAV:  10    -0.333424668859E+02   -0.12271E-06   -0.31547E-09  3824   0.272E-04    0.156E-04
Total vdW correction in eV:      4.9164027
DAV:  11    -0.333424669786E+02   -0.92718E-07   -0.58265E-10  4048   0.118E-04
Total vdW correction in eV:      4.9164028
Total vdW correction in eV:      4.9164028
  13 F= -.33342467E+02 E0= -.33342337E+02  d E =-.259720E-03
 Finite differences progress:
  Degree of freedom:   6/  7
  Displacement:        2/  2
  Total:              12/ 14
 bond charge predicted
       N       E                     dE             d eps       ncg     rms          rms(c)
Total vdW correction in eV:      4.9167316
DAV:   1    -0.333599515997E+02   -0.17485E-01   -0.30938E-01  4592   0.205E+00    0.325E-01
Total vdW correction in eV:      4.9165583
DAV:   2    -0.333562285377E+02    0.37231E-02   -0.23930E-02  4448   0.604E-01    0.208E-01
Total vdW correction in eV:      4.9164986
DAV:   3    -0.333518075864E+02    0.44210E-02   -0.10164E-02  4544   0.428E-01    0.230E-02
Total vdW correction in eV:      4.9164971
DAV:   4    -0.333521141048E+02   -0.30652E-03   -0.28936E-03  4384   0.186E-01    0.148E-02
Total vdW correction in eV:      4.9165290
DAV:   5    -0.333521550674E+02   -0.40963E-04   -0.48658E-05  4688   0.326E-02    0.600E-03
Total vdW correction in eV:      4.9165381
DAV:   6    -0.333521520973E+02    0.29701E-05   -0.66402E-06  4400   0.942E-03    0.287E-03
Total vdW correction in eV:      4.9165447
DAV:   7    -0.333521495517E+02    0.25456E-05   -0.21415E-07  4480   0.204E-03    0.112E-03
Total vdW correction in eV:      4.9165476
DAV:   8    -0.333521484329E+02    0.11188E-05   -0.31704E-08  2928   0.814E-04    0.250E-04
Total vdW correction in eV:      4.9165491
DAV:   9    -0.333521481975E+02    0.23540E-06   -0.11662E-08  2928   0.447E-04    0.906E-05
Total vdW correction in eV:      4.9165496
DAV:  10    -0.333521480592E+02    0.13831E-06   -0.13842E-09  2768   0.180E-04    0.533E-05
Total vdW correction in eV:      4.9165499
DAV:  11    -0.333521479807E+02    0.78470E-07   -0.21624E-10  2816   0.792E-05
Total vdW correction in eV:      4.9165501
Total vdW correction in eV:      4.9165500
  14 F= -.33352148E+02 E0= -.33352022E+02  d E =-.251183E-03
 Finite differences progress:
  Degree of freedom:   7/  7
  Displacement:        1/  2
  Total:              13/ 14
 bond charge predicted
       N       E                     dE             d eps       ncg     rms          rms(c)
Total vdW correction in eV:      4.9165966
DAV:   1    -0.333515837050E+02    0.56435E-03   -0.10597E-01  3408   0.122E+00    0.152E-01
Total vdW correction in eV:      4.9165327
DAV:   2    -0.333521135452E+02   -0.52984E-03   -0.59437E-03  4880   0.337E-01    0.721E-02
Total vdW correction in eV:      4.9165384
DAV:   3    -0.333521354000E+02   -0.21855E-04   -0.19243E-04  3824   0.684E-02    0.270E-02
Total vdW correction in eV:      4.9165477
DAV:   4    -0.333521520539E+02   -0.16654E-04   -0.59969E-05  4864   0.296E-02    0.140E-02
Total vdW correction in eV:      4.9165505
DAV:   5    -0.333521507343E+02    0.13195E-05   -0.34465E-06  3856   0.902E-03    0.340E-03
Total vdW correction in eV:      4.9165498
DAV:   6    -0.333521488615E+02    0.18728E-05   -0.84363E-07  4832   0.376E-03    0.117E-03
Total vdW correction in eV:      4.9165500
DAV:   7    -0.333521483058E+02    0.55569E-06   -0.14105E-07  3600   0.150E-03    0.555E-04
Total vdW correction in eV:      4.9165501
DAV:   8    -0.333521479870E+02    0.31884E-06   -0.69054E-09  2960   0.385E-04    0.197E-04
Total vdW correction in eV:      4.9165501
DAV:   9    -0.333521478843E+02    0.10270E-06   -0.12415E-09  2704   0.186E-04    0.735E-05
Total vdW correction in eV:      4.9165501
DAV:  10    -0.333521478788E+02    0.55099E-08   -0.16815E-10  2816   0.711E-05
Total vdW correction in eV:      4.9165501
Total vdW correction in eV:      4.9165501
  15 F= -.33352148E+02 E0= -.33352022E+02  d E =-.251183E-03
 Finite differences progress:
  Degree of freedom:   7/  7
  Displacement:        2/  2
  Total:              14/ 14
