LAMMPS data file via write_data, version 13 Jan 2016, timestep = 4

4 atoms
1 atom types

-1.6794119368838611e-11 4.0499999675167935e+00 xlo xhi
-1.6794060189673696e-11 4.0499999675167935e+00 ylo yhi
-6.6794476591560899e-11 4.0499999674667944e+00 zlo zhi
0.0000000000000000e+00 0.0000000000000000e+00 0.0000000000000000e+00 xy xz yz

Masses

1 26.982

Atoms # charge

1 1 0.0000000000000000e+00 8.2060742641532933e-12 8.2059167846954316e-12 -1.6794471938379675e-11 0 0 0
2 1 0.0000000000000000e+00 8.2060738308916369e-12 2.0249999837749995e+00 2.0249999837499995e+00 0 0 0
3 1 0.0000000000000000e+00 2.0249999837749995e+00 8.2058817738819765e-12 2.0249999837499999e+00 0 0 0
4 1 0.0000000000000000e+00 2.0249999837749995e+00 2.0249999837749995e+00 -1.6794633301110946e-11 0 0 0

Velocities

1 0.0000000000000000e+00 0.0000000000000000e+00 0.0000000000000000e+00
2 0.0000000000000000e+00 0.0000000000000000e+00 0.0000000000000000e+00
3 0.0000000000000000e+00 0.0000000000000000e+00 0.0000000000000000e+00
4 0.0000000000000000e+00 0.0000000000000000e+00 0.0000000000000000e+00
