LAMMPS (13 Jan 2016)
include /users/knc6/inelast.mod
# Compute elastic constant tensor for a crystal
#
# Written by Aidan Thompson (Sandia, athomps@sandia.gov)
#
#  This script uses the following three include files.
#
#   init.mod      (must be modified for different crystal structures)
# 	       	  Define units, deformation parameters and initial
#		  configuration of the atoms and simulation cell.
#
#
#   potential.mod    (must be modified for different pair styles)
# 		     Define pair style and other attributes
#		     not stored in restart file
#
#
#   displace.mod    (displace.mod should not need to be modified)
# 		    Perform positive and negative box displacements
# 		    in direction ${dir} and size ${up}.
# 		    It uses the resultant changes
#		    in stress to compute one
# 		    row of the elastic stiffness tensor
#
#		    Inputs variables:
#		    	   dir = the Voigt deformation component
#		    		    (1,2,3,4,5,6)
#		    Global constants:
#       	    	   up = the deformation magnitude (strain units)
#       		   cfac = conversion from LAMMPS pressure units to
#               	   output units for elastic constants
#
#
#  To run this on a different system, it should only be necessary to
#  modify the files init.mod and potential.mod. In order to calculate
#  the elastic constants correctly, care must be taken to specify
#  the correct units in init.mod (units, cfac and cunits). It is also
#  important to verify that the minimization of energy w.r.t atom
#  positions in the deformed cell is fully converged.
#  One indication of this is that the elastic constants are insensitive
#  to the choice of the variable ${up} in init.mod. Another is to check
#  the final max and two-norm forces reported in the log file. If you know
#  that minimization is not required, you can set maxiter = 0.0 in
#  init.mod.
#
#  There are two alternate versions of displace.mod provided.
#  They are displace_restart.mod and displace_reverse.mod.
#  The former resets the box using a restart file while
#  the latter reverses the deformation. Copy whichever
#  one you like best to displace.mod.
#

include init.mod
variable dump_file string "None"
variable up  equal 1.0e-6
variable cfac  equal 1.0e-4
variable cunits  string GPa
variable etol  equal 0
variable ftol  equal 1.0e-10
variable maxiter equal 1000
variable maxeval equal 10000
variable dmax equal 1.0e-2
variable data_file string "data"
units metal
atom_style charge
boundary p p p
atom_modify sort 0 0.0

read_data data
  triclinic box = (0 0 0) to (4.05 4.05 4.05) with tilt (0 0 0)
  1 by 1 by 1 MPI processor grid
  reading atoms ...
  4 atoms

### interactions
mass 1 26.98154
include potential.mod
pair_style eam/alloy
pair_coeff * * /users/knc6/Software/jarvis/jarvis/lammps/examples/Al03.eam.alloy  Al
neighbor 1.0 nsq
neigh_modify once no every 1 delay 0 check yes
min_style  cg
min_modify           dmax ${dmax} line quadratic
min_modify           dmax 0.01 line quadratic
thermo          1
thermo_style custom step temp press cpu pxx pyy pzz pxy pxz pyz ke pe etotal vol lx ly lz atoms
thermo_modify norm no
#fix 3 all nph aniso 0.0 0.0 1.0
#fix langevin all langevin 0.0 0.0 1.0 12233

#fix 3 all box/relax tri 0.0 vmax 0.001
fix            3 all box/relax aniso 0.0 vmax 0.001
#fix 3 all box/relax  aniso 0.0
#dump            2a all cfg 100 *.cfg mass type xs ys zs  vx vy vz fx fy fz
#dump_modify     2a element  Mo S

#fix 1a all qeq/comb 1 0.0001 file fq.out
#fix             2 all qeq/reax 1 0.0 10.0 1e-6 /scratch/lfs/kamal/JARVIS/All2/ReaxFF/param.qeq
minimize ${etol} ${ftol} ${maxiter} ${maxeval}
minimize 0 ${ftol} ${maxiter} ${maxeval}
minimize 0 1e-10 ${maxiter} ${maxeval}
minimize 0 1e-10 1000 ${maxeval}
minimize 0 1e-10 1000 10000
Neighbor list info ...
  1 neighbor list requests
  update every 1 steps, delay 0 steps, check yes
  max neighbors/atom: 2000, page size: 100000
  master list distance cutoff = 7.72488
  ghost atom cutoff = 7.72488
Memory usage per processor = 3.31879 Mbytes
Step Temp Press CPU Pxx Pyy Pzz Pxy Pxz Pyz KinEng PotEng TotEng Volume Lx Ly Lz Atoms 
       0            0 3.9168212e-05            0 3.4501652e-05 3.4501649e-05 4.8501335e-05 -2.4057107e-13 3.9537332e-12 -1.2969919e-12            0       -13.44       -13.44    66.430123         4.05         4.05         4.05        4 
       1            0 -8.9474292e-06 6.8902969e-05 -1.2242847e-05 -1.2242777e-05 -2.3566631e-06 -2.8784851e-11 3.583463e-11 -2.8408305e-11            0       -13.44       -13.44    66.430123         4.05         4.05         4.05        4 
       2            0 1.0876183e-07 0.0001449585 3.3518634e-06 3.3517451e-06 -6.377323e-06 -1.9559474e-12 1.0877996e-12 -3.4684072e-11            0       -13.44       -13.44    66.430123         4.05         4.05         4.05        4 
       3            0 -1.3982758e-09 0.00024008751 -1.3085393e-09 -1.426963e-09 -1.459325e-09 6.275767e-13 -7.6564358e-12 -7.112536e-12            0       -13.44       -13.44    66.430123         4.05         4.05         4.05        4 
Loop time of 0.000252962 on 1 procs for 3 steps with 4 atoms

0.0% CPU use with 1 MPI tasks x no OpenMP threads

Minimization stats:
  Stopping criterion = force tolerance
  Energy initial, next-to-last, final = 
        -13.4400000916     -13.4400000916     -13.4400000916
  Force two-norm initial, final = 3.17132e-09 1.01063e-13
  Force max component initial, final = 2.01098e-09 6.05072e-14
  Final line search alpha, max atom move = 1 6.05072e-14
  Iterations, force evaluations = 3 6

MPI task timing breakdown:
Section |  min time  |  avg time  |  max time  |%varavg| %total
---------------------------------------------------------------
Pair    | 0.00013185 | 0.00013185 | 0.00013185 |   0.0 | 52.12
Neigh   | 0          | 0          | 0          |   0.0 |  0.00
Comm    | 1.4305e-05 | 1.4305e-05 | 1.4305e-05 |   0.0 |  5.66
Output  | 3.2902e-05 | 3.2902e-05 | 3.2902e-05 |   0.0 | 13.01
Modify  | 0          | 0          | 0          |   0.0 |  0.00
Other   |            | 7.391e-05  |            |       | 29.22

Nlocal:    4 ave 4 max 4 min
Histogram: 1 0 0 0 0 0 0 0 0 0
Nghost:    360 ave 360 max 360 min
Histogram: 1 0 0 0 0 0 0 0 0 0
Neighs:    268 ave 268 max 268 min
Histogram: 1 0 0 0 0 0 0 0 0 0

Total # of neighbors = 268
Ave neighs/atom = 67
Neighbor list builds = 0
Dangerous builds = 0
#minimize ${etol} ${ftol} ${maxiter} ${maxeval}
#minimize ${etol} ${ftol} ${maxiter} ${maxeval}

variable tmp equal pxx
variable pxx0 equal ${tmp}
variable pxx0 equal -1.30853926367953e-09
variable tmp equal pyy
variable pyy0 equal ${tmp}
variable pyy0 equal -1.42696298748836e-09
variable tmp equal pzz
variable pzz0 equal ${tmp}
variable pzz0 equal -1.4593250261268e-09
variable tmp equal pyz
variable pyz0 equal ${tmp}
variable pyz0 equal -7.11253596449417e-12
variable tmp equal pxz
variable pxz0 equal ${tmp}
variable pxz0 equal -7.65643577354373e-12
variable tmp equal pxy
variable pxy0 equal ${tmp}
variable pxy0 equal 6.27576702749486e-13

variable tmp equal lx
variable lx0 equal ${tmp}
variable lx0 equal 4.04999996753359
variable tmp equal ly
variable ly0 equal ${tmp}
variable ly0 equal 4.04999996753359
variable tmp equal lz
variable lz0 equal ${tmp}
variable lz0 equal 4.04999996753359

# These formulas define the derivatives w.r.t. strain components
# Constants uses $, variables use v_
variable d1 equal -(v_pxx1-${pxx0})/(v_delta/v_len0)*${cfac}
variable d1 equal -(v_pxx1--1.30853926367953e-09)/(v_delta/v_len0)*${cfac}
variable d1 equal -(v_pxx1--1.30853926367953e-09)/(v_delta/v_len0)*0.0001
variable d2 equal -(v_pyy1-${pyy0})/(v_delta/v_len0)*${cfac}
variable d2 equal -(v_pyy1--1.42696298748836e-09)/(v_delta/v_len0)*${cfac}
variable d2 equal -(v_pyy1--1.42696298748836e-09)/(v_delta/v_len0)*0.0001
variable d3 equal -(v_pzz1-${pzz0})/(v_delta/v_len0)*${cfac}
variable d3 equal -(v_pzz1--1.4593250261268e-09)/(v_delta/v_len0)*${cfac}
variable d3 equal -(v_pzz1--1.4593250261268e-09)/(v_delta/v_len0)*0.0001
variable d4 equal -(v_pyz1-${pyz0})/(v_delta/v_len0)*${cfac}
variable d4 equal -(v_pyz1--7.11253596449417e-12)/(v_delta/v_len0)*${cfac}
variable d4 equal -(v_pyz1--7.11253596449417e-12)/(v_delta/v_len0)*0.0001
variable d5 equal -(v_pxz1-${pxz0})/(v_delta/v_len0)*${cfac}
variable d5 equal -(v_pxz1--7.65643577354373e-12)/(v_delta/v_len0)*${cfac}
variable d5 equal -(v_pxz1--7.65643577354373e-12)/(v_delta/v_len0)*0.0001
variable d6 equal -(v_pxy1-${pxy0})/(v_delta/v_len0)*${cfac}
variable d6 equal -(v_pxy1-6.27576702749486e-13)/(v_delta/v_len0)*${cfac}
variable d6 equal -(v_pxy1-6.27576702749486e-13)/(v_delta/v_len0)*0.0001

# Write restart
unfix 3
minimize ${etol} ${ftol} ${maxiter} ${maxeval}
minimize 0 ${ftol} ${maxiter} ${maxeval}
minimize 0 1e-10 ${maxiter} ${maxeval}
minimize 0 1e-10 1000 ${maxeval}
minimize 0 1e-10 1000 10000
Memory usage per processor = 3.31879 Mbytes
Step Temp Press CPU Pxx Pyy Pzz Pxy Pxz Pyz KinEng PotEng TotEng Volume Lx Ly Lz Atoms 
       3            0 -1.3801737e-09            0 -1.3158819e-09 -1.4041401e-09 -1.4204989e-09 -1.7153763e-12 -5.0624521e-12 -3.1629866e-11            0       -13.44       -13.44    66.430123         4.05         4.05         4.05        4 
       4            0 -1.5344948e-09 6.9856644e-05 -1.4843444e-09 -1.4797422e-09 -1.6393977e-09 -2.2174377e-12 -1.2969919e-12 -4.5185523e-12            0       -13.44       -13.44    66.430123         4.05         4.05         4.05        4 
Loop time of 8.29697e-05 on 1 procs for 1 steps with 4 atoms

0.0% CPU use with 1 MPI tasks x no OpenMP threads

Minimization stats:
  Stopping criterion = force tolerance
  Energy initial, next-to-last, final = 
        -13.4400000916     -13.4400000916     -13.4400000916
  Force two-norm initial, final = 1.03037e-14 3.48578e-15
  Force max component initial, final = 4.74273e-15 2.81025e-15
  Final line search alpha, max atom move = 1 2.81025e-15
  Iterations, force evaluations = 1 2

MPI task timing breakdown:
Section |  min time  |  avg time  |  max time  |%varavg| %total
---------------------------------------------------------------
Pair    | 5.6982e-05 | 5.6982e-05 | 5.6982e-05 |   0.0 | 68.68
Neigh   | 0          | 0          | 0          |   0.0 |  0.00
Comm    | 7.1526e-06 | 7.1526e-06 | 7.1526e-06 |   0.0 |  8.62
Output  | 0          | 0          | 0          |   0.0 |  0.00
Modify  | 0          | 0          | 0          |   0.0 |  0.00
Other   |            | 1.884e-05  |            |       | 22.70

Nlocal:    4 ave 4 max 4 min
Histogram: 1 0 0 0 0 0 0 0 0 0
Nghost:    360 ave 360 max 360 min
Histogram: 1 0 0 0 0 0 0 0 0 0
Neighs:    268 ave 268 max 268 min
Histogram: 1 0 0 0 0 0 0 0 0 0

Total # of neighbors = 268
Ave neighs/atom = 67
Neighbor list builds = 0
Dangerous builds = 0
#fix 1a all qeq/comb 1 0.0001 file fq.out
write_restart restart.equil
write_data data0

# uxx Perturbation

variable dir equal 1
include /users/knc6/displace.mod
# NOTE: This script should not need to be
# modified. See in.elastic for more info.
#
# Find which reference length to use

if "${dir} == 1" then    "variable len0 equal ${lx0}"
variable len0 equal ${lx0}
variable len0 equal 4.04999996753359
if "${dir} == 2" then    "variable len0 equal ${ly0}"
if "${dir} == 3" then    "variable len0 equal ${lz0}"
if "${dir} == 4" then    "variable len0 equal ${lz0}"
if "${dir} == 5" then    "variable len0 equal ${lz0}"
if "${dir} == 6" then    "variable len0 equal ${ly0}"

# Reset box and simulation parameters

clear
box tilt large
read_restart restart.equil
  triclinic box = (-1.67941e-11 -1.67941e-11 -6.67945e-11) to (4.05 4.05 4.05) with tilt (0 0 0)
  1 by 1 by 1 MPI processor grid
  4 atoms
include potential.mod
pair_style eam/alloy
pair_coeff * * /users/knc6/Software/jarvis/jarvis/lammps/examples/Al03.eam.alloy  Al
neighbor 1.0 nsq
neigh_modify once no every 1 delay 0 check yes
min_style  cg
min_modify           dmax ${dmax} line quadratic
min_modify           dmax 0.01 line quadratic
thermo          1
thermo_style custom step temp press cpu pxx pyy pzz pxy pxz pyz ke pe etotal vol lx ly lz atoms
thermo_modify norm no
# Negative deformation

variable delta equal -${up}*${len0}
variable delta equal -1e-06*${len0}
variable delta equal -1e-06*4.04999996753359
if "${dir} == 1" then    "change_box all x delta 0 ${delta} remap units box"
change_box all x delta 0 ${delta} remap units box
change_box all x delta 0 -4.04999996753359e-06 remap units box
  triclinic box = (-1.67941e-11 -1.67941e-11 -6.67945e-11) to (4.05 4.05 4.05) with tilt (0 0 0)
if "${dir} == 2" then    "change_box all y delta 0 ${delta} remap units box"
if "${dir} == 3" then    "change_box all z delta 0 ${delta} remap units box"
if "${dir} == 4" then    "change_box all yz delta ${delta} remap units box"
if "${dir} == 5" then    "change_box all xz delta ${delta} remap units box"
if "${dir} == 6" then    "change_box all xy delta ${delta} remap units box"

# Relax atoms positions

minimize ${etol} ${ftol} ${maxiter} ${maxeval}
minimize 0 ${ftol} ${maxiter} ${maxeval}
minimize 0 1e-10 ${maxiter} ${maxeval}
minimize 0 1e-10 1000 ${maxeval}
minimize 0 1e-10 1000 10000
Neighbor list info ...
  1 neighbor list requests
  update every 1 steps, delay 0 steps, check yes
  max neighbors/atom: 2000, page size: 100000
  master list distance cutoff = 7.72488
  ghost atom cutoff = 7.72488
Memory usage per processor = 3.31879 Mbytes
Step Temp Press CPU Pxx Pyy Pzz Pxy Pxz Pyz KinEng PotEng TotEng Volume Lx Ly Lz Atoms 
       4            0   0.79016912            0    1.1681595   0.60117394   0.60117393 -1.7781358e-12 1.7781358e-12 1.4643471e-12            0       -13.44       -13.44    66.430057    4.0499959         4.05         4.05        4 
       5            0   0.79016912 7.1048737e-05    1.1681595   0.60117394   0.60117393 5.648196e-13 -3.1588059e-12 3.514433e-12            0       -13.44       -13.44    66.430057    4.0499959         4.05         4.05        4 
Loop time of 8.79765e-05 on 1 procs for 1 steps with 4 atoms

0.0% CPU use with 1 MPI tasks x no OpenMP threads

Minimization stats:
  Stopping criterion = force tolerance
  Energy initial, next-to-last, final = 
        -13.4400000916     -13.4400000916     -13.4400000916
  Force two-norm initial, final = 4.40785e-15 2.59987e-15
  Force max component initial, final = 3.48332e-15 2.16493e-15
  Final line search alpha, max atom move = 1 2.16493e-15
  Iterations, force evaluations = 1 2

MPI task timing breakdown:
Section |  min time  |  avg time  |  max time  |%varavg| %total
---------------------------------------------------------------
Pair    | 5.6982e-05 | 5.6982e-05 | 5.6982e-05 |   0.0 | 64.77
Neigh   | 0          | 0          | 0          |   0.0 |  0.00
Comm    | 7.1526e-06 | 7.1526e-06 | 7.1526e-06 |   0.0 |  8.13
Output  | 0          | 0          | 0          |   0.0 |  0.00
Modify  | 0          | 0          | 0          |   0.0 |  0.00
Other   |            | 2.384e-05  |            |       | 27.10

Nlocal:    4 ave 4 max 4 min
Histogram: 1 0 0 0 0 0 0 0 0 0
Nghost:    360 ave 360 max 360 min
Histogram: 1 0 0 0 0 0 0 0 0 0
Neighs:    268 ave 268 max 268 min
Histogram: 1 0 0 0 0 0 0 0 0 0

Total # of neighbors = 268
Ave neighs/atom = 67
Neighbor list builds = 0
Dangerous builds = 0

# Obtain new stress tensor

variable tmp equal pxx
variable pxx1 equal ${tmp}
variable pxx1 equal 1.1681594975813
variable tmp equal pyy
variable pyy1 equal ${tmp}
variable pyy1 equal 0.601173935072801
variable tmp equal pzz
variable pzz1 equal ${tmp}
variable pzz1 equal 0.601173934507145
variable tmp equal pxy
variable pxy1 equal ${tmp}
variable pxy1 equal 5.64819597294135e-13
variable tmp equal pxz
variable pxz1 equal ${tmp}
variable pxz1 equal -3.15880589597831e-12
variable tmp equal pyz
variable pyz1 equal ${tmp}
variable pyz1 equal 3.51443304983017e-12

# Compute elastic constant from pressure tensor

variable C1neg equal ${d1}
variable C1neg equal 116.815949888984
variable C2neg equal ${d2}
variable C2neg equal 60.1173936499764
variable C3neg equal ${d3}
variable C3neg equal 60.117393596647
variable C4neg equal ${d4}
variable C4neg equal 1.06269690143243e-09
variable C5neg equal ${d5}
variable C5neg equal 4.49762987756542e-10
variable C6neg equal ${d6}
variable C6neg equal -6.2757105455351e-12

# Reset box and simulation parameters

clear
box tilt large
read_restart restart.equil
  triclinic box = (-1.67941e-11 -1.67941e-11 -6.67945e-11) to (4.05 4.05 4.05) with tilt (0 0 0)
  1 by 1 by 1 MPI processor grid
  4 atoms
include potential.mod
pair_style eam/alloy
pair_coeff * * /users/knc6/Software/jarvis/jarvis/lammps/examples/Al03.eam.alloy  Al
neighbor 1.0 nsq
neigh_modify once no every 1 delay 0 check yes
min_style  cg
min_modify           dmax ${dmax} line quadratic
min_modify           dmax 0.01 line quadratic
thermo          1
thermo_style custom step temp press cpu pxx pyy pzz pxy pxz pyz ke pe etotal vol lx ly lz atoms
thermo_modify norm no

# Positive deformation

variable delta equal ${up}*${len0}
variable delta equal 1e-06*${len0}
variable delta equal 1e-06*4.04999996753359
if "${dir} == 1" then    "change_box all x delta 0 ${delta} remap units box"
change_box all x delta 0 ${delta} remap units box
change_box all x delta 0 4.04999996753359e-06 remap units box
  triclinic box = (-1.67941e-11 -1.67941e-11 -6.67945e-11) to (4.05 4.05 4.05) with tilt (0 0 0)
if "${dir} == 2" then    "change_box all y delta 0 ${delta} remap units box"
if "${dir} == 3" then    "change_box all z delta 0 ${delta} remap units box"
if "${dir} == 4" then    "change_box all yz delta ${delta} remap units box"
if "${dir} == 5" then    "change_box all xz delta ${delta} remap units box"
if "${dir} == 6" then    "change_box all xy delta ${delta} remap units box"

# Relax atoms positions

minimize ${etol} ${ftol} ${maxiter} ${maxeval}
minimize 0 ${ftol} ${maxiter} ${maxeval}
minimize 0 1e-10 ${maxiter} ${maxeval}
minimize 0 1e-10 1000 ${maxeval}
minimize 0 1e-10 1000 10000
Neighbor list info ...
  1 neighbor list requests
  update every 1 steps, delay 0 steps, check yes
  max neighbors/atom: 2000, page size: 100000
  master list distance cutoff = 7.72488
  ghost atom cutoff = 7.72488
Memory usage per processor = 3.31879 Mbytes
Step Temp Press CPU Pxx Pyy Pzz Pxy Pxz Pyz KinEng PotEng TotEng Volume Lx Ly Lz Atoms 
       4            0  -0.79016372            0   -1.1681501  -0.60117055  -0.60117055 -6.7987408e-12 -1.0438682e-11 2.2174355e-12            0       -13.44       -13.44     66.43019     4.050004         4.05         4.05        4 
       5            0  -0.79016372 6.9141388e-05   -1.1681501  -0.60117055  -0.60117055 -7.7401049e-13 1.443425e-12 5.0206086e-13            0       -13.44       -13.44     66.43019     4.050004         4.05         4.05        4 
Loop time of 8.29697e-05 on 1 procs for 1 steps with 4 atoms

0.0% CPU use with 1 MPI tasks x no OpenMP threads

Minimization stats:
  Stopping criterion = force tolerance
  Energy initial, next-to-last, final = 
        -13.4400000916     -13.4400000916     -13.4400000916
  Force two-norm initial, final = 3.99149e-15 2.75554e-16
  Force max component initial, final = 2.32106e-15 1.8735e-16
  Final line search alpha, max atom move = 1 1.8735e-16
  Iterations, force evaluations = 1 2

MPI task timing breakdown:
Section |  min time  |  avg time  |  max time  |%varavg| %total
---------------------------------------------------------------
Pair    | 5.6267e-05 | 5.6267e-05 | 5.6267e-05 |   0.0 | 67.82
Neigh   | 0          | 0          | 0          |   0.0 |  0.00
Comm    | 6.6757e-06 | 6.6757e-06 | 6.6757e-06 |   0.0 |  8.05
Output  | 0          | 0          | 0          |   0.0 |  0.00
Modify  | 0          | 0          | 0          |   0.0 |  0.00
Other   |            | 2.003e-05  |            |       | 24.14

Nlocal:    4 ave 4 max 4 min
Histogram: 1 0 0 0 0 0 0 0 0 0
Nghost:    360 ave 360 max 360 min
Histogram: 1 0 0 0 0 0 0 0 0 0
Neighs:    268 ave 268 max 268 min
Histogram: 1 0 0 0 0 0 0 0 0 0

Total # of neighbors = 268
Ave neighs/atom = 67
Neighbor list builds = 0
Dangerous builds = 0

# Obtain new stress tensor

variable tmp equal pe
variable e1 equal ${tmp}
variable e1 equal -13.4400000915966
variable tmp equal press
variable p1 equal ${tmp}
variable p1 equal -0.790163720554841
variable tmp equal pxx
variable pxx1 equal ${tmp}
variable pxx1 equal -1.16815005233607
variable tmp equal pyy
variable pyy1 equal ${tmp}
variable pyy1 equal -0.601170554630023
variable tmp equal pzz
variable pzz1 equal ${tmp}
variable pzz1 equal -0.601170554698429
variable tmp equal pxy
variable pxy1 equal ${tmp}
variable pxy1 equal -7.74010492713873e-13
variable tmp equal pxz
variable pxz1 equal ${tmp}
variable pxz1 equal 1.44342497289884e-12
variable tmp equal pyz
variable pyz1 equal ${tmp}
variable pyz1 equal 5.02060860138729e-13

# Compute elastic constant from pressure tensor

variable C1pos equal ${d1}
variable C1pos equal 116.815005102753
variable C2pos equal ${d2}
variable C2pos equal 60.117055320306
variable C3pos equal ${d3}
variable C3pos equal 60.1170553239104
variable C4pos equal ${d4}
variable C4pos equal -7.6145968246329e-10
variable C5pos equal ${d5}
variable C5pos equal -9.09986074644257e-10
variable C6pos equal ${d6}
variable C6pos equal 1.40158719546336e-10

# Combine positive and negative

variable C1${dir} equal 0.5*(${C1neg}+${C1pos})
variable C11 equal 0.5*(${C1neg}+${C1pos})
variable C11 equal 0.5*(116.815949888984+${C1pos})
variable C11 equal 0.5*(116.815949888984+116.815005102753)
variable C2${dir} equal 0.5*(${C2neg}+${C2pos})
variable C21 equal 0.5*(${C2neg}+${C2pos})
variable C21 equal 0.5*(60.1173936499764+${C2pos})
variable C21 equal 0.5*(60.1173936499764+60.117055320306)
variable C3${dir} equal 0.5*(${C3neg}+${C3pos})
variable C31 equal 0.5*(${C3neg}+${C3pos})
variable C31 equal 0.5*(60.117393596647+${C3pos})
variable C31 equal 0.5*(60.117393596647+60.1170553239104)
variable C4${dir} equal 0.5*(${C4neg}+${C4pos})
variable C41 equal 0.5*(${C4neg}+${C4pos})
variable C41 equal 0.5*(1.06269690143243e-09+${C4pos})
variable C41 equal 0.5*(1.06269690143243e-09+-7.6145968246329e-10)
variable C5${dir} equal 0.5*(${C5neg}+${C5pos})
variable C51 equal 0.5*(${C5neg}+${C5pos})
variable C51 equal 0.5*(4.49762987756542e-10+${C5pos})
variable C51 equal 0.5*(4.49762987756542e-10+-9.09986074644257e-10)
variable C6${dir} equal 0.5*(${C6neg}+${C6pos})
variable C61 equal 0.5*(${C6neg}+${C6pos})
variable C61 equal 0.5*(-6.2757105455351e-12+${C6pos})
variable C61 equal 0.5*(-6.2757105455351e-12+1.40158719546336e-10)

# Delete dir to make sure it is not reused

variable dir delete

# uyy Perturbation

variable dir equal 2
include /users/knc6/displace.mod
# NOTE: This script should not need to be
# modified. See in.elastic for more info.
#
# Find which reference length to use

if "${dir} == 1" then    "variable len0 equal ${lx0}"
if "${dir} == 2" then    "variable len0 equal ${ly0}"
variable len0 equal ${ly0}
variable len0 equal 4.04999996753359
if "${dir} == 3" then    "variable len0 equal ${lz0}"
if "${dir} == 4" then    "variable len0 equal ${lz0}"
if "${dir} == 5" then    "variable len0 equal ${lz0}"
if "${dir} == 6" then    "variable len0 equal ${ly0}"

# Reset box and simulation parameters

clear
box tilt large
read_restart restart.equil
  triclinic box = (-1.67941e-11 -1.67941e-11 -6.67945e-11) to (4.05 4.05 4.05) with tilt (0 0 0)
  1 by 1 by 1 MPI processor grid
  4 atoms
include potential.mod
pair_style eam/alloy
pair_coeff * * /users/knc6/Software/jarvis/jarvis/lammps/examples/Al03.eam.alloy  Al
neighbor 1.0 nsq
neigh_modify once no every 1 delay 0 check yes
min_style  cg
min_modify           dmax ${dmax} line quadratic
min_modify           dmax 0.01 line quadratic
thermo          1
thermo_style custom step temp press cpu pxx pyy pzz pxy pxz pyz ke pe etotal vol lx ly lz atoms
thermo_modify norm no
# Negative deformation

variable delta equal -${up}*${len0}
variable delta equal -1e-06*${len0}
variable delta equal -1e-06*4.04999996753359
if "${dir} == 1" then    "change_box all x delta 0 ${delta} remap units box"
if "${dir} == 2" then    "change_box all y delta 0 ${delta} remap units box"
change_box all y delta 0 ${delta} remap units box
change_box all y delta 0 -4.04999996753359e-06 remap units box
  triclinic box = (-1.67941e-11 -1.67941e-11 -6.67945e-11) to (4.05 4.05 4.05) with tilt (0 0 0)
if "${dir} == 3" then    "change_box all z delta 0 ${delta} remap units box"
if "${dir} == 4" then    "change_box all yz delta ${delta} remap units box"
if "${dir} == 5" then    "change_box all xz delta ${delta} remap units box"
if "${dir} == 6" then    "change_box all xy delta ${delta} remap units box"

# Relax atoms positions

minimize ${etol} ${ftol} ${maxiter} ${maxeval}
minimize 0 ${ftol} ${maxiter} ${maxeval}
minimize 0 1e-10 ${maxiter} ${maxeval}
minimize 0 1e-10 1000 ${maxeval}
minimize 0 1e-10 1000 10000
Neighbor list info ...
  1 neighbor list requests
  update every 1 steps, delay 0 steps, check yes
  max neighbors/atom: 2000, page size: 100000
  master list distance cutoff = 7.72488
  ghost atom cutoff = 7.72488
Memory usage per processor = 3.31879 Mbytes
Step Temp Press CPU Pxx Pyy Pzz Pxy Pxz Pyz KinEng PotEng TotEng Volume Lx Ly Lz Atoms 
       4            0   0.79016912            0   0.60117394    1.1681595   0.60117393 -4.6022338e-13 1.2760739e-12 2.9286942e-12            0       -13.44       -13.44    66.430057         4.05    4.0499959         4.05        4 
       5            0   0.79016912 6.8902969e-05   0.60117393    1.1681595   0.60117393 -7.9493129e-13 1.3597509e-12 2.5103093e-12            0       -13.44       -13.44    66.430057         4.05    4.0499959         4.05        4 
Loop time of 8.29697e-05 on 1 procs for 1 steps with 4 atoms

0.0% CPU use with 1 MPI tasks x no OpenMP threads

Minimization stats:
  Stopping criterion = force tolerance
  Energy initial, next-to-last, final = 
        -13.4400000916     -13.4400000916     -13.4400000916
  Force two-norm initial, final = 4.45634e-15 3.58933e-16
  Force max component initial, final = 3.5319e-15 2.42861e-16
  Final line search alpha, max atom move = 1 2.42861e-16
  Iterations, force evaluations = 1 2

MPI task timing breakdown:
Section |  min time  |  avg time  |  max time  |%varavg| %total
---------------------------------------------------------------
Pair    | 5.579e-05  | 5.579e-05  | 5.579e-05  |   0.0 | 67.24
Neigh   | 0          | 0          | 0          |   0.0 |  0.00
Comm    | 7.1526e-06 | 7.1526e-06 | 7.1526e-06 |   0.0 |  8.62
Output  | 0          | 0          | 0          |   0.0 |  0.00
Modify  | 0          | 0          | 0          |   0.0 |  0.00
Other   |            | 2.003e-05  |            |       | 24.14

Nlocal:    4 ave 4 max 4 min
Histogram: 1 0 0 0 0 0 0 0 0 0
Nghost:    360 ave 360 max 360 min
Histogram: 1 0 0 0 0 0 0 0 0 0
Neighs:    268 ave 268 max 268 min
Histogram: 1 0 0 0 0 0 0 0 0 0

Total # of neighbors = 268
Ave neighs/atom = 67
Neighbor list builds = 0
Dangerous builds = 0

# Obtain new stress tensor

variable tmp equal pxx
variable pxx1 equal ${tmp}
variable pxx1 equal 0.601173934998433
variable tmp equal pyy
variable pyy1 equal ${tmp}
variable pyy1 equal 1.16815949760584
variable tmp equal pzz
variable pzz1 equal ${tmp}
variable pzz1 equal 0.60117393450681
variable tmp equal pxy
variable pxy1 equal ${tmp}
variable pxy1 equal -7.94931285080634e-13
variable tmp equal pxz
variable pxz1 equal ${tmp}
variable pxz1 equal 1.35975088237477e-12
variable tmp equal pyz
variable pyz1 equal ${tmp}
variable pyz1 equal 2.51030932130727e-12

# Compute elastic constant from pressure tensor

variable C1neg equal ${d1}
variable C1neg equal 60.1173936306972
variable C2neg equal ${d2}
variable C2neg equal 116.81594990328
variable C3neg equal ${d3}
variable C3neg equal 60.1173935966135
variable C4neg equal ${d4}
variable C4neg equal 9.62284528580144e-10
variable C5neg equal ${d5}
variable C5neg equal 9.0161866559185e-10
variable C6neg equal ${d6}
variable C6neg equal -1.42250798783012e-10

# Reset box and simulation parameters

clear
box tilt large
read_restart restart.equil
  triclinic box = (-1.67941e-11 -1.67941e-11 -6.67945e-11) to (4.05 4.05 4.05) with tilt (0 0 0)
  1 by 1 by 1 MPI processor grid
  4 atoms
include potential.mod
pair_style eam/alloy
pair_coeff * * /users/knc6/Software/jarvis/jarvis/lammps/examples/Al03.eam.alloy  Al
neighbor 1.0 nsq
neigh_modify once no every 1 delay 0 check yes
min_style  cg
min_modify           dmax ${dmax} line quadratic
min_modify           dmax 0.01 line quadratic
thermo          1
thermo_style custom step temp press cpu pxx pyy pzz pxy pxz pyz ke pe etotal vol lx ly lz atoms
thermo_modify norm no

# Positive deformation

variable delta equal ${up}*${len0}
variable delta equal 1e-06*${len0}
variable delta equal 1e-06*4.04999996753359
if "${dir} == 1" then    "change_box all x delta 0 ${delta} remap units box"
if "${dir} == 2" then    "change_box all y delta 0 ${delta} remap units box"
change_box all y delta 0 ${delta} remap units box
change_box all y delta 0 4.04999996753359e-06 remap units box
  triclinic box = (-1.67941e-11 -1.67941e-11 -6.67945e-11) to (4.05 4.05 4.05) with tilt (0 0 0)
if "${dir} == 3" then    "change_box all z delta 0 ${delta} remap units box"
if "${dir} == 4" then    "change_box all yz delta ${delta} remap units box"
if "${dir} == 5" then    "change_box all xz delta ${delta} remap units box"
if "${dir} == 6" then    "change_box all xy delta ${delta} remap units box"

# Relax atoms positions

minimize ${etol} ${ftol} ${maxiter} ${maxeval}
minimize 0 ${ftol} ${maxiter} ${maxeval}
minimize 0 1e-10 ${maxiter} ${maxeval}
minimize 0 1e-10 1000 ${maxeval}
minimize 0 1e-10 1000 10000
Neighbor list info ...
  1 neighbor list requests
  update every 1 steps, delay 0 steps, check yes
  max neighbors/atom: 2000, page size: 100000
  master list distance cutoff = 7.72488
  ghost atom cutoff = 7.72488
Memory usage per processor = 3.31879 Mbytes
Step Temp Press CPU Pxx Pyy Pzz Pxy Pxz Pyz KinEng PotEng TotEng Volume Lx Ly Lz Atoms 
       4            0  -0.79016372            0  -0.60117055   -1.1681501  -0.60117055 -3.3261532e-12 -7.0706904e-12 -8.8697419e-12            0       -13.44       -13.44     66.43019         4.05     4.050004         4.05        4 
       5            0  -0.79016372 6.9141388e-05  -0.60117055   -1.1681501  -0.60117055 1.9768646e-12 -6.2757608e-12 -2.5103043e-13            0       -13.44       -13.44     66.43019         4.05     4.050004         4.05        4 
Loop time of 8.82149e-05 on 1 procs for 1 steps with 4 atoms

0.0% CPU use with 1 MPI tasks x no OpenMP threads

Minimization stats:
  Stopping criterion = force tolerance
  Energy initial, next-to-last, final = 
        -13.4400000916     -13.4400000916     -13.4400000916
  Force two-norm initial, final = 5.40032e-15 3.50535e-15
  Force max component initial, final = 3.36883e-15 2.25514e-15
  Final line search alpha, max atom move = 1 2.25514e-15
  Iterations, force evaluations = 1 2

MPI task timing breakdown:
Section |  min time  |  avg time  |  max time  |%varavg| %total
---------------------------------------------------------------
Pair    | 5.4836e-05 | 5.4836e-05 | 5.4836e-05 |   0.0 | 62.16
Neigh   | 0          | 0          | 0          |   0.0 |  0.00
Comm    | 7.6294e-06 | 7.6294e-06 | 7.6294e-06 |   0.0 |  8.65
Output  | 0          | 0          | 0          |   0.0 |  0.00
Modify  | 0          | 0          | 0          |   0.0 |  0.00
Other   |            | 2.575e-05  |            |       | 29.19

Nlocal:    4 ave 4 max 4 min
Histogram: 1 0 0 0 0 0 0 0 0 0
Nghost:    360 ave 360 max 360 min
Histogram: 1 0 0 0 0 0 0 0 0 0
Neighs:    268 ave 268 max 268 min
Histogram: 1 0 0 0 0 0 0 0 0 0

Total # of neighbors = 268
Ave neighs/atom = 67
Neighbor list builds = 0
Dangerous builds = 0

# Obtain new stress tensor

variable tmp equal pe
variable e1 equal ${tmp}
variable e1 equal -13.4400000915966
variable tmp equal press
variable p1 equal ${tmp}
variable p1 equal -0.790163720608973
variable tmp equal pxx
variable pxx1 equal ${tmp}
variable pxx1 equal -0.601170554590841
variable tmp equal pyy
variable pyy1 equal ${tmp}
variable pyy1 equal -1.16815005248217
variable tmp equal pzz
variable pzz1 equal ${tmp}
variable pzz1 equal -0.601170554753907
variable tmp equal pxy
variable pxy1 equal ${tmp}
variable pxy1 equal 1.97686463679624e-12
variable tmp equal pxz
variable pxz1 equal ${tmp}
variable pxz1 equal -6.27576075173411e-12
variable tmp equal pyz
variable pyz1 equal ${tmp}
variable pyz1 equal -2.51030430069364e-13

# Compute elastic constant from pressure tensor

variable C1pos equal ${d1}
variable C1pos equal 60.1170553282302
variable C2pos equal ${d2}
variable C2pos equal 116.815005105521
variable C3pos equal ${d3}
variable C3pos equal 60.1170553294582
variable C4pos equal ${d4}
variable C4pos equal -6.86150553442481e-10
variable C5pos equal ${d5}
variable C5pos equal -1.38067502180962e-10
variable C6pos equal ${d6}
variable C6pos equal -1.34928793404675e-10

# Combine positive and negative

variable C1${dir} equal 0.5*(${C1neg}+${C1pos})
variable C12 equal 0.5*(${C1neg}+${C1pos})
variable C12 equal 0.5*(60.1173936306972+${C1pos})
variable C12 equal 0.5*(60.1173936306972+60.1170553282302)
variable C2${dir} equal 0.5*(${C2neg}+${C2pos})
variable C22 equal 0.5*(${C2neg}+${C2pos})
variable C22 equal 0.5*(116.81594990328+${C2pos})
variable C22 equal 0.5*(116.81594990328+116.815005105521)
variable C3${dir} equal 0.5*(${C3neg}+${C3pos})
variable C32 equal 0.5*(${C3neg}+${C3pos})
variable C32 equal 0.5*(60.1173935966135+${C3pos})
variable C32 equal 0.5*(60.1173935966135+60.1170553294582)
variable C4${dir} equal 0.5*(${C4neg}+${C4pos})
variable C42 equal 0.5*(${C4neg}+${C4pos})
variable C42 equal 0.5*(9.62284528580144e-10+${C4pos})
variable C42 equal 0.5*(9.62284528580144e-10+-6.86150553442481e-10)
variable C5${dir} equal 0.5*(${C5neg}+${C5pos})
variable C52 equal 0.5*(${C5neg}+${C5pos})
variable C52 equal 0.5*(9.0161866559185e-10+${C5pos})
variable C52 equal 0.5*(9.0161866559185e-10+-1.38067502180962e-10)
variable C6${dir} equal 0.5*(${C6neg}+${C6pos})
variable C62 equal 0.5*(${C6neg}+${C6pos})
variable C62 equal 0.5*(-1.42250798783012e-10+${C6pos})
variable C62 equal 0.5*(-1.42250798783012e-10+-1.34928793404675e-10)

# Delete dir to make sure it is not reused

variable dir delete

# uzz Perturbation

variable dir equal 3
include /users/knc6/displace.mod
# NOTE: This script should not need to be
# modified. See in.elastic for more info.
#
# Find which reference length to use

if "${dir} == 1" then    "variable len0 equal ${lx0}"
if "${dir} == 2" then    "variable len0 equal ${ly0}"
if "${dir} == 3" then    "variable len0 equal ${lz0}"
variable len0 equal ${lz0}
variable len0 equal 4.04999996753359
if "${dir} == 4" then    "variable len0 equal ${lz0}"
if "${dir} == 5" then    "variable len0 equal ${lz0}"
if "${dir} == 6" then    "variable len0 equal ${ly0}"

# Reset box and simulation parameters

clear
box tilt large
read_restart restart.equil
  triclinic box = (-1.67941e-11 -1.67941e-11 -6.67945e-11) to (4.05 4.05 4.05) with tilt (0 0 0)
  1 by 1 by 1 MPI processor grid
  4 atoms
include potential.mod
pair_style eam/alloy
pair_coeff * * /users/knc6/Software/jarvis/jarvis/lammps/examples/Al03.eam.alloy  Al
neighbor 1.0 nsq
neigh_modify once no every 1 delay 0 check yes
min_style  cg
min_modify           dmax ${dmax} line quadratic
min_modify           dmax 0.01 line quadratic
thermo          1
thermo_style custom step temp press cpu pxx pyy pzz pxy pxz pyz ke pe etotal vol lx ly lz atoms
thermo_modify norm no
# Negative deformation

variable delta equal -${up}*${len0}
variable delta equal -1e-06*${len0}
variable delta equal -1e-06*4.04999996753359
if "${dir} == 1" then    "change_box all x delta 0 ${delta} remap units box"
if "${dir} == 2" then    "change_box all y delta 0 ${delta} remap units box"
if "${dir} == 3" then    "change_box all z delta 0 ${delta} remap units box"
change_box all z delta 0 ${delta} remap units box
change_box all z delta 0 -4.04999996753359e-06 remap units box
  triclinic box = (-1.67941e-11 -1.67941e-11 -6.67945e-11) to (4.05 4.05 4.05) with tilt (0 0 0)
if "${dir} == 4" then    "change_box all yz delta ${delta} remap units box"
if "${dir} == 5" then    "change_box all xz delta ${delta} remap units box"
if "${dir} == 6" then    "change_box all xy delta ${delta} remap units box"

# Relax atoms positions

minimize ${etol} ${ftol} ${maxiter} ${maxeval}
minimize 0 ${ftol} ${maxiter} ${maxeval}
minimize 0 1e-10 ${maxiter} ${maxeval}
minimize 0 1e-10 1000 ${maxeval}
minimize 0 1e-10 1000 10000
Neighbor list info ...
  1 neighbor list requests
  update every 1 steps, delay 0 steps, check yes
  max neighbors/atom: 2000, page size: 100000
  master list distance cutoff = 7.72488
  ghost atom cutoff = 7.72488
Memory usage per processor = 3.31879 Mbytes
Step Temp Press CPU Pxx Pyy Pzz Pxy Pxz Pyz KinEng PotEng TotEng Volume Lx Ly Lz Atoms 
       4            0   0.79016912            0   0.60117393   0.60117393    1.1681595 1.0878007e-12 -3.7236255e-12 -1.6735395e-13            0       -13.44       -13.44    66.430057         4.05         4.05    4.0499959        4 
       5            0   0.79016912 6.9856644e-05   0.60117393   0.60117393    1.1681595 2.4266323e-12 -6.5268042e-12 -2.8868557e-12            0       -13.44       -13.44    66.430057         4.05         4.05    4.0499959        4 
Loop time of 9.20296e-05 on 1 procs for 1 steps with 4 atoms

0.0% CPU use with 1 MPI tasks x no OpenMP threads

Minimization stats:
  Stopping criterion = force tolerance
  Energy initial, next-to-last, final = 
        -13.4400000916     -13.4400000916     -13.4400000916
  Force two-norm initial, final = 6.0608e-15 7.56048e-15
  Force max component initial, final = 4.92661e-15 4.97172e-15
  Final line search alpha, max atom move = 1 4.97172e-15
  Iterations, force evaluations = 1 2

MPI task timing breakdown:
Section |  min time  |  avg time  |  max time  |%varavg| %total
---------------------------------------------------------------
Pair    | 5.6744e-05 | 5.6744e-05 | 5.6744e-05 |   0.0 | 61.66
Neigh   | 0          | 0          | 0          |   0.0 |  0.00
Comm    | 6.9141e-06 | 6.9141e-06 | 6.9141e-06 |   0.0 |  7.51
Output  | 0          | 0          | 0          |   0.0 |  0.00
Modify  | 0          | 0          | 0          |   0.0 |  0.00
Other   |            | 2.837e-05  |            |       | 30.83

Nlocal:    4 ave 4 max 4 min
Histogram: 1 0 0 0 0 0 0 0 0 0
Nghost:    360 ave 360 max 360 min
Histogram: 1 0 0 0 0 0 0 0 0 0
Neighs:    268 ave 268 max 268 min
Histogram: 1 0 0 0 0 0 0 0 0 0

Total # of neighbors = 268
Ave neighs/atom = 67
Neighbor list builds = 0
Dangerous builds = 0

# Obtain new stress tensor

variable tmp equal pxx
variable pxx1 equal ${tmp}
variable pxx1 equal 0.601173934726514
variable tmp equal pyy
variable pyy1 equal ${tmp}
variable pyy1 equal 0.601173934724579
variable tmp equal pzz
variable pzz1 equal ${tmp}
variable pzz1 equal 1.16815949716549
variable tmp equal pxy
variable pxy1 equal ${tmp}
variable pxy1 equal 2.42663234393036e-12
variable tmp equal pxz
variable pxz1 equal ${tmp}
variable pxz1 equal -6.52680423539889e-12
variable tmp equal pyz
variable pyz1 equal ${tmp}
variable pyz1 equal -2.88685571950335e-12

# Compute elastic constant from pressure tensor

variable C1neg equal ${d1}
variable C1neg equal 60.1173936035053
variable C2neg equal ${d2}
variable C2neg equal 60.1173936151542
variable C3neg equal ${d3}
variable C3neg equal 116.815949862482
variable C4neg equal ${d4}
variable C4neg equal 4.22568024499082e-10
variable C5neg equal ${d5}
variable C5neg equal 1.12963153814484e-10
variable C6neg equal ${d6}
variable C6neg equal 1.79905564118087e-10

# Reset box and simulation parameters

clear
box tilt large
read_restart restart.equil
  triclinic box = (-1.67941e-11 -1.67941e-11 -6.67945e-11) to (4.05 4.05 4.05) with tilt (0 0 0)
  1 by 1 by 1 MPI processor grid
  4 atoms
include potential.mod
pair_style eam/alloy
pair_coeff * * /users/knc6/Software/jarvis/jarvis/lammps/examples/Al03.eam.alloy  Al
neighbor 1.0 nsq
neigh_modify once no every 1 delay 0 check yes
min_style  cg
min_modify           dmax ${dmax} line quadratic
min_modify           dmax 0.01 line quadratic
thermo          1
thermo_style custom step temp press cpu pxx pyy pzz pxy pxz pyz ke pe etotal vol lx ly lz atoms
thermo_modify norm no

# Positive deformation

variable delta equal ${up}*${len0}
variable delta equal 1e-06*${len0}
variable delta equal 1e-06*4.04999996753359
if "${dir} == 1" then    "change_box all x delta 0 ${delta} remap units box"
if "${dir} == 2" then    "change_box all y delta 0 ${delta} remap units box"
if "${dir} == 3" then    "change_box all z delta 0 ${delta} remap units box"
change_box all z delta 0 ${delta} remap units box
change_box all z delta 0 4.04999996753359e-06 remap units box
  triclinic box = (-1.67941e-11 -1.67941e-11 -6.67945e-11) to (4.05 4.05 4.05) with tilt (0 0 0)
if "${dir} == 4" then    "change_box all yz delta ${delta} remap units box"
if "${dir} == 5" then    "change_box all xz delta ${delta} remap units box"
if "${dir} == 6" then    "change_box all xy delta ${delta} remap units box"

# Relax atoms positions

minimize ${etol} ${ftol} ${maxiter} ${maxeval}
minimize 0 ${ftol} ${maxiter} ${maxeval}
minimize 0 1e-10 ${maxiter} ${maxeval}
minimize 0 1e-10 1000 ${maxeval}
minimize 0 1e-10 1000 10000
Neighbor list info ...
  1 neighbor list requests
  update every 1 steps, delay 0 steps, check yes
  max neighbors/atom: 2000, page size: 100000
  master list distance cutoff = 7.72488
  ghost atom cutoff = 7.72488
Memory usage per processor = 3.31879 Mbytes
Step Temp Press CPU Pxx Pyy Pzz Pxy Pxz Pyz KinEng PotEng TotEng Volume Lx Ly Lz Atoms 
       4            0  -0.79016372            0  -0.60117055  -0.60117055   -1.1681501 1.7362938e-12 -3.1797188e-12 3.2633956e-12            0       -13.44       -13.44     66.43019         4.05         4.05     4.050004        4 
       5            0  -0.79016372 7.0095062e-05  -0.60117055  -0.60117055   -1.1681501 1.7362938e-12 -3.1797188e-12 1.2551522e-12            0       -13.44       -13.44     66.43019         4.05         4.05     4.050004        4 
Loop time of 8.39233e-05 on 1 procs for 1 steps with 4 atoms

0.0% CPU use with 1 MPI tasks x no OpenMP threads

Minimization stats:
  Stopping criterion = quadratic factors are zero
  Energy initial, next-to-last, final = 
        -13.4400000916     -13.4400000916     -13.4400000916
  Force two-norm initial, final = 3.26646e-15 3.07308e-15
  Force max component initial, final = 2.62984e-15 2.36616e-15
  Final line search alpha, max atom move = 1 2.36616e-15
  Iterations, force evaluations = 1 2

MPI task timing breakdown:
Section |  min time  |  avg time  |  max time  |%varavg| %total
---------------------------------------------------------------
Pair    | 5.6267e-05 | 5.6267e-05 | 5.6267e-05 |   0.0 | 67.05
Neigh   | 0          | 0          | 0          |   0.0 |  0.00
Comm    | 5.722e-06  | 5.722e-06  | 5.722e-06  |   0.0 |  6.82
Output  | 0          | 0          | 0          |   0.0 |  0.00
Modify  | 0          | 0          | 0          |   0.0 |  0.00
Other   |            | 2.193e-05  |            |       | 26.14

Nlocal:    4 ave 4 max 4 min
Histogram: 1 0 0 0 0 0 0 0 0 0
Nghost:    360 ave 360 max 360 min
Histogram: 1 0 0 0 0 0 0 0 0 0
Neighs:    268 ave 268 max 268 min
Histogram: 1 0 0 0 0 0 0 0 0 0

Total # of neighbors = 268
Ave neighs/atom = 67
Neighbor list builds = 0
Dangerous builds = 0

# Obtain new stress tensor

variable tmp equal pe
variable e1 equal ${tmp}
variable e1 equal -13.4400000915966
variable tmp equal press
variable p1 equal ${tmp}
variable p1 equal -0.790163720695759
variable tmp equal pxx
variable pxx1 equal ${tmp}
variable pxx1 equal -0.601170554635211
variable tmp equal pyy
variable pyy1 equal ${tmp}
variable pyy1 equal -0.601170554665753
variable tmp equal pzz
variable pzz1 equal ${tmp}
variable pzz1 equal -1.16815005278631
variable tmp equal pxy
variable pxy1 equal ${tmp}
variable pxy1 equal 1.73629380797977e-12
variable tmp equal pxz
variable pxz1 equal ${tmp}
variable pxz1 equal -3.17971878087861e-12
variable tmp equal pyz
variable pyz1 equal ${tmp}
variable pyz1 equal 1.25515215034682e-12

# Compute elastic constant from pressure tensor

variable C1pos equal ${d1}
variable C1pos equal 60.1170553326672
variable C2pos equal ${d2}
variable C2pos equal 60.117055323879
variable C3pos equal ${d3}
variable C3pos equal 116.815005132699
variable C4pos equal ${d4}
variable C4pos equal -8.36768811484099e-10
variable C5pos equal ${d5}
variable C5pos equal -4.47671699266512e-10
variable C6pos equal ${d6}
variable C6pos equal -1.10871710523028e-10

# Combine positive and negative

variable C1${dir} equal 0.5*(${C1neg}+${C1pos})
variable C13 equal 0.5*(${C1neg}+${C1pos})
variable C13 equal 0.5*(60.1173936035053+${C1pos})
variable C13 equal 0.5*(60.1173936035053+60.1170553326672)
variable C2${dir} equal 0.5*(${C2neg}+${C2pos})
variable C23 equal 0.5*(${C2neg}+${C2pos})
variable C23 equal 0.5*(60.1173936151542+${C2pos})
variable C23 equal 0.5*(60.1173936151542+60.117055323879)
variable C3${dir} equal 0.5*(${C3neg}+${C3pos})
variable C33 equal 0.5*(${C3neg}+${C3pos})
variable C33 equal 0.5*(116.815949862482+${C3pos})
variable C33 equal 0.5*(116.815949862482+116.815005132699)
variable C4${dir} equal 0.5*(${C4neg}+${C4pos})
variable C43 equal 0.5*(${C4neg}+${C4pos})
variable C43 equal 0.5*(4.22568024499082e-10+${C4pos})
variable C43 equal 0.5*(4.22568024499082e-10+-8.36768811484099e-10)
variable C5${dir} equal 0.5*(${C5neg}+${C5pos})
variable C53 equal 0.5*(${C5neg}+${C5pos})
variable C53 equal 0.5*(1.12963153814484e-10+${C5pos})
variable C53 equal 0.5*(1.12963153814484e-10+-4.47671699266512e-10)
variable C6${dir} equal 0.5*(${C6neg}+${C6pos})
variable C63 equal 0.5*(${C6neg}+${C6pos})
variable C63 equal 0.5*(1.79905564118087e-10+${C6pos})
variable C63 equal 0.5*(1.79905564118087e-10+-1.10871710523028e-10)

# Delete dir to make sure it is not reused

variable dir delete

# uyz Perturbation

variable dir equal 4
include /users/knc6/displace.mod
# NOTE: This script should not need to be
# modified. See in.elastic for more info.
#
# Find which reference length to use

if "${dir} == 1" then    "variable len0 equal ${lx0}"
if "${dir} == 2" then    "variable len0 equal ${ly0}"
if "${dir} == 3" then    "variable len0 equal ${lz0}"
if "${dir} == 4" then    "variable len0 equal ${lz0}"
variable len0 equal ${lz0}
variable len0 equal 4.04999996753359
if "${dir} == 5" then    "variable len0 equal ${lz0}"
if "${dir} == 6" then    "variable len0 equal ${ly0}"

# Reset box and simulation parameters

clear
box tilt large
read_restart restart.equil
  triclinic box = (-1.67941e-11 -1.67941e-11 -6.67945e-11) to (4.05 4.05 4.05) with tilt (0 0 0)
  1 by 1 by 1 MPI processor grid
  4 atoms
include potential.mod
pair_style eam/alloy
pair_coeff * * /users/knc6/Software/jarvis/jarvis/lammps/examples/Al03.eam.alloy  Al
neighbor 1.0 nsq
neigh_modify once no every 1 delay 0 check yes
min_style  cg
min_modify           dmax ${dmax} line quadratic
min_modify           dmax 0.01 line quadratic
thermo          1
thermo_style custom step temp press cpu pxx pyy pzz pxy pxz pyz ke pe etotal vol lx ly lz atoms
thermo_modify norm no
# Negative deformation

variable delta equal -${up}*${len0}
variable delta equal -1e-06*${len0}
variable delta equal -1e-06*4.04999996753359
if "${dir} == 1" then    "change_box all x delta 0 ${delta} remap units box"
if "${dir} == 2" then    "change_box all y delta 0 ${delta} remap units box"
if "${dir} == 3" then    "change_box all z delta 0 ${delta} remap units box"
if "${dir} == 4" then    "change_box all yz delta ${delta} remap units box"
change_box all yz delta ${delta} remap units box
change_box all yz delta -4.04999996753359e-06 remap units box
  triclinic box = (-1.67941e-11 -1.67941e-11 -6.67945e-11) to (4.05 4.05 4.05) with tilt (0 0 -4.05e-06)
if "${dir} == 5" then    "change_box all xz delta ${delta} remap units box"
if "${dir} == 6" then    "change_box all xy delta ${delta} remap units box"

# Relax atoms positions

minimize ${etol} ${ftol} ${maxiter} ${maxeval}
minimize 0 ${ftol} ${maxiter} ${maxeval}
minimize 0 1e-10 ${maxiter} ${maxeval}
minimize 0 1e-10 1000 ${maxeval}
minimize 0 1e-10 1000 10000
Neighbor list info ...
  1 neighbor list requests
  update every 1 steps, delay 0 steps, check yes
  max neighbors/atom: 2000, page size: 100000
  master list distance cutoff = 7.72488
  ghost atom cutoff = 7.72488
Memory usage per processor = 3.31879 Mbytes
Step Temp Press CPU Pxx Pyy Pzz Pxy Pxz Pyz KinEng PotEng TotEng Volume Lx Ly Lz Atoms 
       4            0 7.030644e-07            0 6.7303606e-08 8.4616895e-07 1.1957206e-06 -4.1838447e-14 -3.4516719e-12   0.31659621            0       -13.44       -13.44    66.430123         4.05         4.05         4.05        4 
       5            0 7.0293758e-07 7.0095062e-05 6.7167819e-08 8.4612477e-07 1.1955201e-06 -3.5458084e-12 -7.3217282e-13   0.31659621            0       -13.44       -13.44    66.430123         4.05         4.05         4.05        4 
Loop time of 8.41618e-05 on 1 procs for 1 steps with 4 atoms

0.0% CPU use with 1 MPI tasks x no OpenMP threads

Minimization stats:
  Stopping criterion = force tolerance
  Energy initial, next-to-last, final = 
        -13.4400000916     -13.4400000916     -13.4400000916
  Force two-norm initial, final = 5.22559e-15 2.7482e-15
  Force max component initial, final = 4.14946e-15 1.79717e-15
  Final line search alpha, max atom move = 1 1.79717e-15
  Iterations, force evaluations = 1 2

MPI task timing breakdown:
Section |  min time  |  avg time  |  max time  |%varavg| %total
---------------------------------------------------------------
Pair    | 5.6267e-05 | 5.6267e-05 | 5.6267e-05 |   0.0 | 66.86
Neigh   | 0          | 0          | 0          |   0.0 |  0.00
Comm    | 7.6294e-06 | 7.6294e-06 | 7.6294e-06 |   0.0 |  9.07
Output  | 0          | 0          | 0          |   0.0 |  0.00
Modify  | 0          | 0          | 0          |   0.0 |  0.00
Other   |            | 2.027e-05  |            |       | 24.08

Nlocal:    4 ave 4 max 4 min
Histogram: 1 0 0 0 0 0 0 0 0 0
Nghost:    360 ave 360 max 360 min
Histogram: 1 0 0 0 0 0 0 0 0 0
Neighs:    268 ave 268 max 268 min
Histogram: 1 0 0 0 0 0 0 0 0 0

Total # of neighbors = 268
Ave neighs/atom = 67
Neighbor list builds = 0
Dangerous builds = 0

# Obtain new stress tensor

variable tmp equal pxx
variable pxx1 equal ${tmp}
variable pxx1 equal 6.71678191189566e-08
variable tmp equal pyy
variable pyy1 equal ${tmp}
variable pyy1 equal 8.4612476680701e-07
variable tmp equal pzz
variable pzz1 equal ${tmp}
variable pzz1 equal 1.19552014675788e-06
variable tmp equal pxy
variable pxy1 equal ${tmp}
variable pxy1 equal -3.5458083705346e-12
variable tmp equal pxz
variable pxz1 equal ${tmp}
variable pxz1 equal -7.321728198744e-13
variable tmp equal pyz
variable pyz1 equal ${tmp}
variable pyz1 equal 0.316596214407824

# Compute elastic constant from pressure tensor

variable C1neg equal ${d1}
variable C1neg equal 6.84763583826361e-06
variable C2neg equal ${d2}
variable C2neg equal 8.47551729794498e-05
variable C3neg equal ${d3}
variable C3neg equal 0.000119697947178401
variable C4neg equal ${d4}
variable C4neg equal 31.6596214414937
variable C5neg equal ${d5}
variable C5neg equal 6.92426295366933e-10
variable C6neg equal ${d6}
variable C6neg equal -4.17338507328409e-10

# Reset box and simulation parameters

clear
box tilt large
read_restart restart.equil
  triclinic box = (-1.67941e-11 -1.67941e-11 -6.67945e-11) to (4.05 4.05 4.05) with tilt (0 0 0)
  1 by 1 by 1 MPI processor grid
  4 atoms
include potential.mod
pair_style eam/alloy
pair_coeff * * /users/knc6/Software/jarvis/jarvis/lammps/examples/Al03.eam.alloy  Al
neighbor 1.0 nsq
neigh_modify once no every 1 delay 0 check yes
min_style  cg
min_modify           dmax ${dmax} line quadratic
min_modify           dmax 0.01 line quadratic
thermo          1
thermo_style custom step temp press cpu pxx pyy pzz pxy pxz pyz ke pe etotal vol lx ly lz atoms
thermo_modify norm no

# Positive deformation

variable delta equal ${up}*${len0}
variable delta equal 1e-06*${len0}
variable delta equal 1e-06*4.04999996753359
if "${dir} == 1" then    "change_box all x delta 0 ${delta} remap units box"
if "${dir} == 2" then    "change_box all y delta 0 ${delta} remap units box"
if "${dir} == 3" then    "change_box all z delta 0 ${delta} remap units box"
if "${dir} == 4" then    "change_box all yz delta ${delta} remap units box"
change_box all yz delta ${delta} remap units box
change_box all yz delta 4.04999996753359e-06 remap units box
  triclinic box = (-1.67941e-11 -1.67941e-11 -6.67945e-11) to (4.05 4.05 4.05) with tilt (0 0 4.05e-06)
if "${dir} == 5" then    "change_box all xz delta ${delta} remap units box"
if "${dir} == 6" then    "change_box all xy delta ${delta} remap units box"

# Relax atoms positions

minimize ${etol} ${ftol} ${maxiter} ${maxeval}
minimize 0 ${ftol} ${maxiter} ${maxeval}
minimize 0 1e-10 ${maxiter} ${maxeval}
minimize 0 1e-10 1000 ${maxeval}
minimize 0 1e-10 1000 10000
Neighbor list info ...
  1 neighbor list requests
  update every 1 steps, delay 0 steps, check yes
  max neighbors/atom: 2000, page size: 100000
  master list distance cutoff = 7.72488
  ghost atom cutoff = 7.72488
Memory usage per processor = 3.31879 Mbytes
Step Temp Press CPU Pxx Pyy Pzz Pxy Pxz Pyz KinEng PotEng TotEng Volume Lx Ly Lz Atoms 
       4            0 7.030784e-07            0 6.7300426e-08 8.4619104e-07 1.1957437e-06 2.7613375e-12 -1.6316994e-12  -0.31659621            0       -13.44       -13.44    66.430123         4.05         4.05         4.05        4 
       5            0 7.0296692e-07 7.0095062e-05 6.7167903e-08 8.4616853e-07 1.1955643e-06 -1.3597495e-12 -5.3134827e-12  -0.31659621            0       -13.44       -13.44    66.430123         4.05         4.05         4.05        4 
Loop time of 8.41618e-05 on 1 procs for 1 steps with 4 atoms

0.0% CPU use with 1 MPI tasks x no OpenMP threads

Minimization stats:
  Stopping criterion = force tolerance
  Energy initial, next-to-last, final = 
        -13.4400000916     -13.4400000916     -13.4400000916
  Force two-norm initial, final = 4.339e-15 2.55412e-15
  Force max component initial, final = 3.44863e-15 1.80758e-15
  Final line search alpha, max atom move = 1 1.80758e-15
  Iterations, force evaluations = 1 2

MPI task timing breakdown:
Section |  min time  |  avg time  |  max time  |%varavg| %total
---------------------------------------------------------------
Pair    | 5.722e-05  | 5.722e-05  | 5.722e-05  |   0.0 | 67.99
Neigh   | 0          | 0          | 0          |   0.0 |  0.00
Comm    | 7.6294e-06 | 7.6294e-06 | 7.6294e-06 |   0.0 |  9.07
Output  | 0          | 0          | 0          |   0.0 |  0.00
Modify  | 0          | 0          | 0          |   0.0 |  0.00
Other   |            | 1.931e-05  |            |       | 22.95

Nlocal:    4 ave 4 max 4 min
Histogram: 1 0 0 0 0 0 0 0 0 0
Nghost:    360 ave 360 max 360 min
Histogram: 1 0 0 0 0 0 0 0 0 0
Neighs:    268 ave 268 max 268 min
Histogram: 1 0 0 0 0 0 0 0 0 0

Total # of neighbors = 268
Ave neighs/atom = 67
Neighbor list builds = 0
Dangerous builds = 0

# Obtain new stress tensor

variable tmp equal pe
variable e1 equal ${tmp}
variable e1 equal -13.4400000916142
variable tmp equal press
variable p1 equal ${tmp}
variable p1 equal 7.02966920258675e-07
variable tmp equal pxx
variable pxx1 equal ${tmp}
variable pxx1 equal 6.71679027958503e-08
variable tmp equal pyy
variable pyy1 equal ${tmp}
variable pyy1 equal 8.46168529822415e-07
variable tmp equal pzz
variable pzz1 equal ${tmp}
variable pzz1 equal 1.19556432815776e-06
variable tmp equal pxy
variable pxy1 equal ${tmp}
variable pxy1 equal -1.35974952262389e-12
variable tmp equal pxz
variable pxz1 equal ${tmp}
variable pxz1 equal -5.31348274994565e-12
variable tmp equal pyz
variable pyz1 equal ${tmp}
variable pyz1 equal -0.31659621438155

# Compute elastic constant from pressure tensor

variable C1pos equal ${d1}
variable C1pos equal -6.84764420595298e-06
variable C2pos equal ${d2}
variable C2pos equal -8.47595492809903e-05
variable C3pos equal ${d3}
variable C3pos equal -0.000119702365318389
variable C4pos equal ${d4}
variable C4pos equal 31.6596214374437
variable C5pos equal ${d5}
variable C5pos equal -2.34295302359808e-10
variable C6pos equal ${d6}
variable C6pos equal 1.98732622537338e-10

# Combine positive and negative

variable C1${dir} equal 0.5*(${C1neg}+${C1pos})
variable C14 equal 0.5*(${C1neg}+${C1pos})
variable C14 equal 0.5*(6.84763583826361e-06+${C1pos})
variable C14 equal 0.5*(6.84763583826361e-06+-6.84764420595298e-06)
variable C2${dir} equal 0.5*(${C2neg}+${C2pos})
variable C24 equal 0.5*(${C2neg}+${C2pos})
variable C24 equal 0.5*(8.47551729794498e-05+${C2pos})
variable C24 equal 0.5*(8.47551729794498e-05+-8.47595492809903e-05)
variable C3${dir} equal 0.5*(${C3neg}+${C3pos})
variable C34 equal 0.5*(${C3neg}+${C3pos})
variable C34 equal 0.5*(0.000119697947178401+${C3pos})
variable C34 equal 0.5*(0.000119697947178401+-0.000119702365318389)
variable C4${dir} equal 0.5*(${C4neg}+${C4pos})
variable C44 equal 0.5*(${C4neg}+${C4pos})
variable C44 equal 0.5*(31.6596214414937+${C4pos})
variable C44 equal 0.5*(31.6596214414937+31.6596214374437)
variable C5${dir} equal 0.5*(${C5neg}+${C5pos})
variable C54 equal 0.5*(${C5neg}+${C5pos})
variable C54 equal 0.5*(6.92426295366933e-10+${C5pos})
variable C54 equal 0.5*(6.92426295366933e-10+-2.34295302359808e-10)
variable C6${dir} equal 0.5*(${C6neg}+${C6pos})
variable C64 equal 0.5*(${C6neg}+${C6pos})
variable C64 equal 0.5*(-4.17338507328409e-10+${C6pos})
variable C64 equal 0.5*(-4.17338507328409e-10+1.98732622537338e-10)

# Delete dir to make sure it is not reused

variable dir delete

# uxz Perturbation

variable dir equal 5
include /users/knc6/displace.mod
# NOTE: This script should not need to be
# modified. See in.elastic for more info.
#
# Find which reference length to use

if "${dir} == 1" then    "variable len0 equal ${lx0}"
if "${dir} == 2" then    "variable len0 equal ${ly0}"
if "${dir} == 3" then    "variable len0 equal ${lz0}"
if "${dir} == 4" then    "variable len0 equal ${lz0}"
if "${dir} == 5" then    "variable len0 equal ${lz0}"
variable len0 equal ${lz0}
variable len0 equal 4.04999996753359
if "${dir} == 6" then    "variable len0 equal ${ly0}"

# Reset box and simulation parameters

clear
box tilt large
read_restart restart.equil
  triclinic box = (-1.67941e-11 -1.67941e-11 -6.67945e-11) to (4.05 4.05 4.05) with tilt (0 0 0)
  1 by 1 by 1 MPI processor grid
  4 atoms
include potential.mod
pair_style eam/alloy
pair_coeff * * /users/knc6/Software/jarvis/jarvis/lammps/examples/Al03.eam.alloy  Al
neighbor 1.0 nsq
neigh_modify once no every 1 delay 0 check yes
min_style  cg
min_modify           dmax ${dmax} line quadratic
min_modify           dmax 0.01 line quadratic
thermo          1
thermo_style custom step temp press cpu pxx pyy pzz pxy pxz pyz ke pe etotal vol lx ly lz atoms
thermo_modify norm no
# Negative deformation

variable delta equal -${up}*${len0}
variable delta equal -1e-06*${len0}
variable delta equal -1e-06*4.04999996753359
if "${dir} == 1" then    "change_box all x delta 0 ${delta} remap units box"
if "${dir} == 2" then    "change_box all y delta 0 ${delta} remap units box"
if "${dir} == 3" then    "change_box all z delta 0 ${delta} remap units box"
if "${dir} == 4" then    "change_box all yz delta ${delta} remap units box"
if "${dir} == 5" then    "change_box all xz delta ${delta} remap units box"
change_box all xz delta ${delta} remap units box
change_box all xz delta -4.04999996753359e-06 remap units box
  triclinic box = (-1.67941e-11 -1.67941e-11 -6.67945e-11) to (4.05 4.05 4.05) with tilt (0 -4.05e-06 0)
if "${dir} == 6" then    "change_box all xy delta ${delta} remap units box"

# Relax atoms positions

minimize ${etol} ${ftol} ${maxiter} ${maxeval}
minimize 0 ${ftol} ${maxiter} ${maxeval}
minimize 0 1e-10 ${maxiter} ${maxeval}
minimize 0 1e-10 1000 ${maxeval}
minimize 0 1e-10 1000 10000
Neighbor list info ...
  1 neighbor list requests
  update every 1 steps, delay 0 steps, check yes
  max neighbors/atom: 2000, page size: 100000
  master list distance cutoff = 7.72488
  ghost atom cutoff = 7.72488
Memory usage per processor = 3.31879 Mbytes
Step Temp Press CPU Pxx Pyy Pzz Pxy Pxz Pyz KinEng PotEng TotEng Volume Lx Ly Lz Atoms 
       4            0 7.0305195e-07            0 8.4617041e-07 6.7273838e-08 1.1957116e-06 -2.8031759e-12   0.31659621 -7.4054051e-12            0       -13.44       -13.44    66.430123         4.05         4.05         4.05        4 
       5            0 7.0303072e-07 7.0095062e-05 8.4614711e-07 6.7284318e-08 1.1956607e-06 -1.4643456e-12   0.31659621 1.6316994e-12            0       -13.44       -13.44    66.430123         4.05         4.05         4.05        4 
Loop time of 8.41618e-05 on 1 procs for 1 steps with 4 atoms

0.0% CPU use with 1 MPI tasks x no OpenMP threads

Minimization stats:
  Stopping criterion = force tolerance
  Energy initial, next-to-last, final = 
        -13.4400000916     -13.4400000916     -13.4400000916
  Force two-norm initial, final = 5.07116e-15 4.33521e-15
  Force max component initial, final = 4.06619e-15 3.45557e-15
  Final line search alpha, max atom move = 1 3.45557e-15
  Iterations, force evaluations = 1 2

MPI task timing breakdown:
Section |  min time  |  avg time  |  max time  |%varavg| %total
---------------------------------------------------------------
Pair    | 5.722e-05  | 5.722e-05  | 5.722e-05  |   0.0 | 67.99
Neigh   | 0          | 0          | 0          |   0.0 |  0.00
Comm    | 5.722e-06  | 5.722e-06  | 5.722e-06  |   0.0 |  6.80
Output  | 0          | 0          | 0          |   0.0 |  0.00
Modify  | 0          | 0          | 0          |   0.0 |  0.00
Other   |            | 2.122e-05  |            |       | 25.21

Nlocal:    4 ave 4 max 4 min
Histogram: 1 0 0 0 0 0 0 0 0 0
Nghost:    360 ave 360 max 360 min
Histogram: 1 0 0 0 0 0 0 0 0 0
Neighs:    268 ave 268 max 268 min
Histogram: 1 0 0 0 0 0 0 0 0 0

Total # of neighbors = 268
Ave neighs/atom = 67
Neighbor list builds = 0
Dangerous builds = 0

# Obtain new stress tensor

variable tmp equal pxx
variable pxx1 equal ${tmp}
variable pxx1 equal 8.46147109973518e-07
variable tmp equal pyy
variable pyy1 equal ${tmp}
variable pyy1 equal 6.72843182742104e-08
variable tmp equal pzz
variable pzz1 equal ${tmp}
variable pzz1 equal 1.1956607239393e-06
variable tmp equal pxy
variable pxy1 equal ${tmp}
variable pxy1 equal -1.4643456397488e-12
variable tmp equal pxz
variable pxz1 equal ${tmp}
variable pxz1 equal 0.316596214349669
variable tmp equal pyz
variable pyz1 equal ${tmp}
variable pyz1 equal 1.63169942714866e-12

# Compute elastic constant from pressure tensor

variable C1neg equal ${d1}
variable C1neg equal 8.47455649237198e-05
variable C2neg equal ${d2}
variable C2neg equal 6.87112812616988e-06
variable C3neg equal ${d3}
variable C3neg equal 0.000119712004896543
variable C4neg equal ${d4}
variable C4neg equal 8.74423539164283e-10
variable C5neg equal ${d5}
variable C5neg equal 31.6596214357325
variable C6neg equal ${d6}
variable C6neg equal -2.09192234249829e-10

# Reset box and simulation parameters

clear
box tilt large
read_restart restart.equil
  triclinic box = (-1.67941e-11 -1.67941e-11 -6.67945e-11) to (4.05 4.05 4.05) with tilt (0 0 0)
  1 by 1 by 1 MPI processor grid
  4 atoms
include potential.mod
pair_style eam/alloy
pair_coeff * * /users/knc6/Software/jarvis/jarvis/lammps/examples/Al03.eam.alloy  Al
neighbor 1.0 nsq
neigh_modify once no every 1 delay 0 check yes
min_style  cg
min_modify           dmax ${dmax} line quadratic
min_modify           dmax 0.01 line quadratic
thermo          1
thermo_style custom step temp press cpu pxx pyy pzz pxy pxz pyz ke pe etotal vol lx ly lz atoms
thermo_modify norm no

# Positive deformation

variable delta equal ${up}*${len0}
variable delta equal 1e-06*${len0}
variable delta equal 1e-06*4.04999996753359
if "${dir} == 1" then    "change_box all x delta 0 ${delta} remap units box"
if "${dir} == 2" then    "change_box all y delta 0 ${delta} remap units box"
if "${dir} == 3" then    "change_box all z delta 0 ${delta} remap units box"
if "${dir} == 4" then    "change_box all yz delta ${delta} remap units box"
if "${dir} == 5" then    "change_box all xz delta ${delta} remap units box"
change_box all xz delta ${delta} remap units box
change_box all xz delta 4.04999996753359e-06 remap units box
  triclinic box = (-1.67941e-11 -1.67941e-11 -6.67945e-11) to (4.05 4.05 4.05) with tilt (0 4.05e-06 0)
if "${dir} == 6" then    "change_box all xy delta ${delta} remap units box"

# Relax atoms positions

minimize ${etol} ${ftol} ${maxiter} ${maxeval}
minimize 0 ${ftol} ${maxiter} ${maxeval}
minimize 0 1e-10 ${maxiter} ${maxeval}
minimize 0 1e-10 1000 ${maxeval}
minimize 0 1e-10 1000 10000
Neighbor list info ...
  1 neighbor list requests
  update every 1 steps, delay 0 steps, check yes
  max neighbors/atom: 2000, page size: 100000
  master list distance cutoff = 7.72488
  ghost atom cutoff = 7.72488
Memory usage per processor = 3.31879 Mbytes
Step Temp Press CPU Pxx Pyy Pzz Pxy Pxz Pyz KinEng PotEng TotEng Volume Lx Ly Lz Atoms 
       4            0 7.0320278e-07            0 8.4636653e-07 6.7448555e-08 1.1957933e-06 6.275767e-13  -0.31659621 2.5939837e-12            0       -13.44       -13.44    66.430123         4.05         4.05         4.05        4 
       5            0 7.0314309e-07 6.8902969e-05 8.463009e-07 6.7438618e-08 1.1956898e-06 3.3470757e-13  -0.31659621 3.3889142e-12            0       -13.44       -13.44    66.430123         4.05         4.05         4.05        4 
Loop time of 8.29697e-05 on 1 procs for 1 steps with 4 atoms

0.0% CPU use with 1 MPI tasks x no OpenMP threads

Minimization stats:
  Stopping criterion = force tolerance
  Energy initial, next-to-last, final = 
        -13.4400000916     -13.4400000916     -13.4400000916
  Force two-norm initial, final = 8.06014e-15 7.1669e-15
  Force max component initial, final = 4.39926e-15 3.26128e-15
  Final line search alpha, max atom move = 1 3.26128e-15
  Iterations, force evaluations = 1 2

MPI task timing breakdown:
Section |  min time  |  avg time  |  max time  |%varavg| %total
---------------------------------------------------------------
Pair    | 5.8174e-05 | 5.8174e-05 | 5.8174e-05 |   0.0 | 70.11
Neigh   | 0          | 0          | 0          |   0.0 |  0.00
Comm    | 5.9605e-06 | 5.9605e-06 | 5.9605e-06 |   0.0 |  7.18
Output  | 0          | 0          | 0          |   0.0 |  0.00
Modify  | 0          | 0          | 0          |   0.0 |  0.00
Other   |            | 1.884e-05  |            |       | 22.70

Nlocal:    4 ave 4 max 4 min
Histogram: 1 0 0 0 0 0 0 0 0 0
Nghost:    360 ave 360 max 360 min
Histogram: 1 0 0 0 0 0 0 0 0 0
Neighs:    268 ave 268 max 268 min
Histogram: 1 0 0 0 0 0 0 0 0 0

Total # of neighbors = 268
Ave neighs/atom = 67
Neighbor list builds = 0
Dangerous builds = 0

# Obtain new stress tensor

variable tmp equal pe
variable e1 equal ${tmp}
variable e1 equal -13.4400000916142
variable tmp equal press
variable p1 equal ${tmp}
variable p1 equal 7.03143091729139e-07
variable tmp equal pxx
variable pxx1 equal ${tmp}
variable pxx1 equal 8.46300896899809e-07
variable tmp equal pyy
variable pyy1 equal ${tmp}
variable pyy1 equal 6.7438618466193e-08
variable tmp equal pzz
variable pzz1 equal ${tmp}
variable pzz1 equal 1.19568975982141e-06
variable tmp equal pxy
variable pxy1 equal ${tmp}
variable pxy1 equal 3.34707574799726e-13
variable tmp equal pxz
variable pxz1 equal ${tmp}
variable pxz1 equal -0.316596214409456
variable tmp equal pyz
variable pyz1 equal ${tmp}
variable pyz1 equal 3.38891419484722e-12

# Compute elastic constant from pressure tensor

variable C1pos equal ${d1}
variable C1pos equal -8.47609436163489e-05
variable C2pos equal ${d2}
variable C2pos equal -6.88655814536814e-06
variable C3pos equal ${d3}
variable C3pos equal -0.000119714908484754
variable C4pos equal ${d4}
variable C4pos equal -1.05014501593414e-09
variable C5pos equal ${d5}
variable C5pos equal 31.65962144018
variable C6pos equal ${d6}
variable C6pos equal 2.9286912794976e-11

# Combine positive and negative

variable C1${dir} equal 0.5*(${C1neg}+${C1pos})
variable C15 equal 0.5*(${C1neg}+${C1pos})
variable C15 equal 0.5*(8.47455649237198e-05+${C1pos})
variable C15 equal 0.5*(8.47455649237198e-05+-8.47609436163489e-05)
variable C2${dir} equal 0.5*(${C2neg}+${C2pos})
variable C25 equal 0.5*(${C2neg}+${C2pos})
variable C25 equal 0.5*(6.87112812616988e-06+${C2pos})
variable C25 equal 0.5*(6.87112812616988e-06+-6.88655814536814e-06)
variable C3${dir} equal 0.5*(${C3neg}+${C3pos})
variable C35 equal 0.5*(${C3neg}+${C3pos})
variable C35 equal 0.5*(0.000119712004896543+${C3pos})
variable C35 equal 0.5*(0.000119712004896543+-0.000119714908484754)
variable C4${dir} equal 0.5*(${C4neg}+${C4pos})
variable C45 equal 0.5*(${C4neg}+${C4pos})
variable C45 equal 0.5*(8.74423539164283e-10+${C4pos})
variable C45 equal 0.5*(8.74423539164283e-10+-1.05014501593414e-09)
variable C5${dir} equal 0.5*(${C5neg}+${C5pos})
variable C55 equal 0.5*(${C5neg}+${C5pos})
variable C55 equal 0.5*(31.6596214357325+${C5pos})
variable C55 equal 0.5*(31.6596214357325+31.65962144018)
variable C6${dir} equal 0.5*(${C6neg}+${C6pos})
variable C65 equal 0.5*(${C6neg}+${C6pos})
variable C65 equal 0.5*(-2.09192234249829e-10+${C6pos})
variable C65 equal 0.5*(-2.09192234249829e-10+2.9286912794976e-11)

# Delete dir to make sure it is not reused

variable dir delete

# uxy Perturbation

variable dir equal 6
include /users/knc6/displace.mod
# NOTE: This script should not need to be
# modified. See in.elastic for more info.
#
# Find which reference length to use

if "${dir} == 1" then    "variable len0 equal ${lx0}"
if "${dir} == 2" then    "variable len0 equal ${ly0}"
if "${dir} == 3" then    "variable len0 equal ${lz0}"
if "${dir} == 4" then    "variable len0 equal ${lz0}"
if "${dir} == 5" then    "variable len0 equal ${lz0}"
if "${dir} == 6" then    "variable len0 equal ${ly0}"
variable len0 equal ${ly0}
variable len0 equal 4.04999996753359

# Reset box and simulation parameters

clear
box tilt large
read_restart restart.equil
  triclinic box = (-1.67941e-11 -1.67941e-11 -6.67945e-11) to (4.05 4.05 4.05) with tilt (0 0 0)
  1 by 1 by 1 MPI processor grid
  4 atoms
include potential.mod
pair_style eam/alloy
pair_coeff * * /users/knc6/Software/jarvis/jarvis/lammps/examples/Al03.eam.alloy  Al
neighbor 1.0 nsq
neigh_modify once no every 1 delay 0 check yes
min_style  cg
min_modify           dmax ${dmax} line quadratic
min_modify           dmax 0.01 line quadratic
thermo          1
thermo_style custom step temp press cpu pxx pyy pzz pxy pxz pyz ke pe etotal vol lx ly lz atoms
thermo_modify norm no
# Negative deformation

variable delta equal -${up}*${len0}
variable delta equal -1e-06*${len0}
variable delta equal -1e-06*4.04999996753359
if "${dir} == 1" then    "change_box all x delta 0 ${delta} remap units box"
if "${dir} == 2" then    "change_box all y delta 0 ${delta} remap units box"
if "${dir} == 3" then    "change_box all z delta 0 ${delta} remap units box"
if "${dir} == 4" then    "change_box all yz delta ${delta} remap units box"
if "${dir} == 5" then    "change_box all xz delta ${delta} remap units box"
if "${dir} == 6" then    "change_box all xy delta ${delta} remap units box"
change_box all xy delta ${delta} remap units box
change_box all xy delta -4.04999996753359e-06 remap units box
  triclinic box = (-1.67941e-11 -1.67941e-11 -6.67945e-11) to (4.05 4.05 4.05) with tilt (-4.05e-06 0 0)

# Relax atoms positions

minimize ${etol} ${ftol} ${maxiter} ${maxeval}
minimize 0 ${ftol} ${maxiter} ${maxeval}
minimize 0 1e-10 ${maxiter} ${maxeval}
minimize 0 1e-10 1000 ${maxeval}
minimize 0 1e-10 1000 10000
Neighbor list info ...
  1 neighbor list requests
  update every 1 steps, delay 0 steps, check yes
  max neighbors/atom: 2000, page size: 100000
  master list distance cutoff = 7.72488
  ghost atom cutoff = 7.72488
Memory usage per processor = 3.31879 Mbytes
Step Temp Press CPU Pxx Pyy Pzz Pxy Pxz Pyz KinEng PotEng TotEng Volume Lx Ly Lz Atoms 
       4            0 7.0321869e-07            0 8.4638788e-07 1.1960598e-06 6.7208361e-08   0.31659621 1.6526187e-12 -1.1296381e-12            0       -13.44       -13.44    66.430123         4.05         4.05         4.05        4 
       5            0 7.030364e-07 7.0810318e-05 8.4627268e-07 1.1958778e-06 6.6958669e-08   0.31659621 -3.9746525e-13 5.0206136e-13            0       -13.44       -13.44    66.430123         4.05         4.05         4.05        4 
Loop time of 8.4877e-05 on 1 procs for 1 steps with 4 atoms

0.0% CPU use with 1 MPI tasks x no OpenMP threads

Minimization stats:
  Stopping criterion = force tolerance
  Energy initial, next-to-last, final = 
        -13.4400000916     -13.4400000916     -13.4400000916
  Force two-norm initial, final = 4.46354e-15 3.23236e-16
  Force max component initial, final = 3.55965e-15 1.63064e-16
  Final line search alpha, max atom move = 1 1.63064e-16
  Iterations, force evaluations = 1 2

MPI task timing breakdown:
Section |  min time  |  avg time  |  max time  |%varavg| %total
---------------------------------------------------------------
Pair    | 5.7936e-05 | 5.7936e-05 | 5.7936e-05 |   0.0 | 68.26
Neigh   | 0          | 0          | 0          |   0.0 |  0.00
Comm    | 6.9141e-06 | 6.9141e-06 | 6.9141e-06 |   0.0 |  8.15
Output  | 0          | 0          | 0          |   0.0 |  0.00
Modify  | 0          | 0          | 0          |   0.0 |  0.00
Other   |            | 2.003e-05  |            |       | 23.60

Nlocal:    4 ave 4 max 4 min
Histogram: 1 0 0 0 0 0 0 0 0 0
Nghost:    360 ave 360 max 360 min
Histogram: 1 0 0 0 0 0 0 0 0 0
Neighs:    268 ave 268 max 268 min
Histogram: 1 0 0 0 0 0 0 0 0 0

Total # of neighbors = 268
Ave neighs/atom = 67
Neighbor list builds = 0
Dangerous builds = 0

# Obtain new stress tensor

variable tmp equal pxx
variable pxx1 equal ${tmp}
variable pxx1 equal 8.46272680824576e-07
variable tmp equal pyy
variable pyy1 equal ${tmp}
variable pyy1 equal 1.19587784455923e-06
variable tmp equal pzz
variable pzz1 equal ${tmp}
variable pzz1 equal 6.69586687231536e-08
variable tmp equal pxy
variable pxy1 equal ${tmp}
variable pxy1 equal 0.316596214504147
variable tmp equal pxz
variable pxz1 equal ${tmp}
variable pxz1 equal -3.97465245074674e-13
variable tmp equal pyz
variable pyz1 equal ${tmp}
variable pyz1 equal 5.02061362199589e-13

# Compute elastic constant from pressure tensor

variable C1neg equal ${d1}
variable C1neg equal 8.47581220088256e-05
variable C2neg equal ${d2}
variable C2neg equal 0.000119730480754672
variable C3neg equal ${d3}
variable C3neg equal 6.84179937492804e-06
variable C4neg equal ${d4}
variable C4neg equal 7.61459732669376e-10
variable C5neg equal ${d5}
variable C5neg equal 7.25897052846906e-10
variable C6neg equal ${d6}
variable C6neg equal 31.6596214503519

# Reset box and simulation parameters

clear
box tilt large
read_restart restart.equil
  triclinic box = (-1.67941e-11 -1.67941e-11 -6.67945e-11) to (4.05 4.05 4.05) with tilt (0 0 0)
  1 by 1 by 1 MPI processor grid
  4 atoms
include potential.mod
pair_style eam/alloy
pair_coeff * * /users/knc6/Software/jarvis/jarvis/lammps/examples/Al03.eam.alloy  Al
neighbor 1.0 nsq
neigh_modify once no every 1 delay 0 check yes
min_style  cg
min_modify           dmax ${dmax} line quadratic
min_modify           dmax 0.01 line quadratic
thermo          1
thermo_style custom step temp press cpu pxx pyy pzz pxy pxz pyz ke pe etotal vol lx ly lz atoms
thermo_modify norm no

# Positive deformation

variable delta equal ${up}*${len0}
variable delta equal 1e-06*${len0}
variable delta equal 1e-06*4.04999996753359
if "${dir} == 1" then    "change_box all x delta 0 ${delta} remap units box"
if "${dir} == 2" then    "change_box all y delta 0 ${delta} remap units box"
if "${dir} == 3" then    "change_box all z delta 0 ${delta} remap units box"
if "${dir} == 4" then    "change_box all yz delta ${delta} remap units box"
if "${dir} == 5" then    "change_box all xz delta ${delta} remap units box"
if "${dir} == 6" then    "change_box all xy delta ${delta} remap units box"
change_box all xy delta ${delta} remap units box
change_box all xy delta 4.04999996753359e-06 remap units box
  triclinic box = (-1.67941e-11 -1.67941e-11 -6.67945e-11) to (4.05 4.05 4.05) with tilt (4.05e-06 0 0)

# Relax atoms positions

minimize ${etol} ${ftol} ${maxiter} ${maxeval}
minimize 0 ${ftol} ${maxiter} ${maxeval}
minimize 0 1e-10 ${maxiter} ${maxeval}
minimize 0 1e-10 1000 ${maxeval}
minimize 0 1e-10 1000 10000
Neighbor list info ...
  1 neighbor list requests
  update every 1 steps, delay 0 steps, check yes
  max neighbors/atom: 2000, page size: 100000
  master list distance cutoff = 7.72488
  ghost atom cutoff = 7.72488
Memory usage per processor = 3.31879 Mbytes
Step Temp Press CPU Pxx Pyy Pzz Pxy Pxz Pyz KinEng PotEng TotEng Volume Lx Ly Lz Atoms 
       4            0 7.0318514e-07            0 8.4633076e-07 1.1960645e-06 6.7160163e-08  -0.31659621 -2.3910672e-11 4.1838447e-14            0       -13.44       -13.44    66.430123         4.05         4.05         4.05        4 
       5            0 7.0308149e-07 7.1048737e-05 8.4632829e-07 1.195904e-06 6.7012222e-08  -0.31659621 2.8240952e-12 -2.6776606e-12            0       -13.44       -13.44    66.430123         4.05         4.05         4.05        4 
Loop time of 8.4877e-05 on 1 procs for 1 steps with 4 atoms

0.0% CPU use with 1 MPI tasks x no OpenMP threads

Minimization stats:
  Stopping criterion = force tolerance
  Energy initial, next-to-last, final = 
        -13.4400000916     -13.4400000916     -13.4400000916
  Force two-norm initial, final = 3.88025e-15 1.59908e-15
  Force max component initial, final = 2.89352e-15 1.16573e-15
  Final line search alpha, max atom move = 1 1.16573e-15
  Iterations, force evaluations = 1 2

MPI task timing breakdown:
Section |  min time  |  avg time  |  max time  |%varavg| %total
---------------------------------------------------------------
Pair    | 5.6028e-05 | 5.6028e-05 | 5.6028e-05 |   0.0 | 66.01
Neigh   | 0          | 0          | 0          |   0.0 |  0.00
Comm    | 7.8678e-06 | 7.8678e-06 | 7.8678e-06 |   0.0 |  9.27
Output  | 0          | 0          | 0          |   0.0 |  0.00
Modify  | 0          | 0          | 0          |   0.0 |  0.00
Other   |            | 2.098e-05  |            |       | 24.72

Nlocal:    4 ave 4 max 4 min
Histogram: 1 0 0 0 0 0 0 0 0 0
Nghost:    360 ave 360 max 360 min
Histogram: 1 0 0 0 0 0 0 0 0 0
Neighs:    268 ave 268 max 268 min
Histogram: 1 0 0 0 0 0 0 0 0 0

Total # of neighbors = 268
Ave neighs/atom = 67
Neighbor list builds = 0
Dangerous builds = 0

# Obtain new stress tensor

variable tmp equal pe
variable e1 equal ${tmp}
variable e1 equal -13.4400000916142
variable tmp equal press
variable p1 equal ${tmp}
variable p1 equal 7.0308148686781e-07
variable tmp equal pxx
variable pxx1 equal ${tmp}
variable pxx1 equal 8.46328286918245e-07
variable tmp equal pyy
variable pyy1 equal ${tmp}
variable pyy1 equal 1.19590395175006e-06
variable tmp equal pzz
variable pzz1 equal ${tmp}
variable pzz1 equal 6.70122219351216e-08
variable tmp equal pxy
variable pxy1 equal ${tmp}
variable pxy1 equal -0.316596214483604
variable tmp equal pxz
variable pxz1 equal ${tmp}
variable pxz1 equal 2.82409516237269e-12
variable tmp equal pyz
variable pyz1 equal ${tmp}
variable pyz1 equal -2.67766059839781e-12

# Compute elastic constant from pressure tensor

variable C1pos equal ${d1}
variable C1pos equal -8.47636826181925e-05
variable C2pos equal ${d2}
variable C2pos equal -0.000119733091473755
variable C3pos equal ${d3}
variable C3pos equal -6.84715469612484e-06
variable C4pos equal ${d4}
variable C4pos equal -4.43487536609636e-10
variable C5pos equal ${d5}
variable C5pos equal -1.04805309359164e-09
variable C6pos equal ${d6}
variable C6pos equal 31.6596214484232

# Combine positive and negative

variable C1${dir} equal 0.5*(${C1neg}+${C1pos})
variable C16 equal 0.5*(${C1neg}+${C1pos})
variable C16 equal 0.5*(8.47581220088256e-05+${C1pos})
variable C16 equal 0.5*(8.47581220088256e-05+-8.47636826181925e-05)
variable C2${dir} equal 0.5*(${C2neg}+${C2pos})
variable C26 equal 0.5*(${C2neg}+${C2pos})
variable C26 equal 0.5*(0.000119730480754672+${C2pos})
variable C26 equal 0.5*(0.000119730480754672+-0.000119733091473755)
variable C3${dir} equal 0.5*(${C3neg}+${C3pos})
variable C36 equal 0.5*(${C3neg}+${C3pos})
variable C36 equal 0.5*(6.84179937492804e-06+${C3pos})
variable C36 equal 0.5*(6.84179937492804e-06+-6.84715469612484e-06)
variable C4${dir} equal 0.5*(${C4neg}+${C4pos})
variable C46 equal 0.5*(${C4neg}+${C4pos})
variable C46 equal 0.5*(7.61459732669376e-10+${C4pos})
variable C46 equal 0.5*(7.61459732669376e-10+-4.43487536609636e-10)
variable C5${dir} equal 0.5*(${C5neg}+${C5pos})
variable C56 equal 0.5*(${C5neg}+${C5pos})
variable C56 equal 0.5*(7.25897052846906e-10+${C5pos})
variable C56 equal 0.5*(7.25897052846906e-10+-1.04805309359164e-09)
variable C6${dir} equal 0.5*(${C6neg}+${C6pos})
variable C66 equal 0.5*(${C6neg}+${C6pos})
variable C66 equal 0.5*(31.6596214503519+${C6pos})
variable C66 equal 0.5*(31.6596214503519+31.6596214484232)

# Delete dir to make sure it is not reused

variable dir delete

# Output final values

variable C11all equal ${C11}
variable C11all equal 116.815477495868
variable C22all equal ${C22}
variable C22all equal 116.8154775044
variable C33all equal ${C33}
variable C33all equal 116.815477497591

variable C12all equal 0.5*(${C12}+${C21})
variable C12all equal 0.5*(60.1172244794637+${C21})
variable C12all equal 0.5*(60.1172244794637+60.1172244851412)
variable C13all equal 0.5*(${C13}+${C31})
variable C13all equal 0.5*(60.1172244680862+${C31})
variable C13all equal 0.5*(60.1172244680862+60.1172244602787)
variable C23all equal 0.5*(${C23}+${C32})
variable C23all equal 0.5*(60.1172244695166+${C32})
variable C23all equal 0.5*(60.1172244695166+60.1172244630359)

variable C44all equal ${C44}
variable C44all equal 31.6596214394687
variable C55all equal ${C55}
variable C55all equal 31.6596214379563
variable C66all equal ${C66}
variable C66all equal 31.6596214493876

variable C14all equal 0.5*(${C14}+${C41})
variable C14all equal 0.5*(-4.18384468500502e-12+${C41})
variable C14all equal 0.5*(-4.18384468500502e-12+1.5061860948457e-10)
variable C15all equal 0.5*(${C15}+${C51})
variable C15all equal 0.5*(-7.68934631454997e-09+${C51})
variable C15all equal 0.5*(-7.68934631454997e-09+-2.30111543443858e-10)
variable C16all equal 0.5*(${C16}+${C61})
variable C16all equal 0.5*(-2.78030468344793e-09+${C61})
variable C16all equal 0.5*(-2.78030468344793e-09+6.69415045004004e-11)

variable C24all equal 0.5*(${C24}+${C42})
variable C24all equal 0.5*(-2.18815077025042e-09+${C42})
variable C24all equal 0.5*(-2.18815077025042e-09+1.38066987568832e-10)
variable C25all equal 0.5*(${C25}+${C52})
variable C25all equal 0.5*(-7.71500959913019e-09+${C52})
variable C25all equal 0.5*(-7.71500959913019e-09+3.81775581705444e-10)
variable C26all equal 0.5*(${C26}+${C62})
variable C26all equal 0.5*(-1.30535954150134e-09+${C62})
variable C26all equal 0.5*(-1.30535954150134e-09+-1.38589796093843e-10)

variable C34all equal 0.5*(${C34}+${C43})
variable C34all equal 0.5*(-2.20906999400113e-09+${C43})
variable C34all equal 0.5*(-2.20906999400113e-09+-2.07100393492508e-10)
variable C35all equal 0.5*(${C35}+${C53})
variable C35all equal 0.5*(-1.45179410549981e-09+${C53})
variable C35all equal 0.5*(-1.45179410549981e-09+-1.67354272726014e-10)
variable C36all equal 0.5*(${C36}+${C63})
variable C36all equal 0.5*(-2.67766059840025e-09+${C63})
variable C36all equal 0.5*(-2.67766059840025e-09+3.45169267975295e-11)

variable C45all equal 0.5*(${C45}+${C54})
variable C45all equal 0.5*(-8.78607383849285e-11+${C54})
variable C45all equal 0.5*(-8.78607383849285e-11+2.29065496503562e-10)
variable C46all equal 0.5*(${C46}+${C64})
variable C46all equal 0.5*(1.5898609802987e-10+${C64})
variable C46all equal 0.5*(1.5898609802987e-10+-1.09302942395535e-10)
variable C56all equal 0.5*(${C56}+${C65})
variable C56all equal 0.5*(-1.61078020372367e-10+${C65})
variable C56all equal 0.5*(-1.61078020372367e-10+-8.99526607274265e-11)

# For Stillinger-Weber silicon, the analytical results
# are known to be (E. R. Cowley, 1988):
#               C11 = 151.4 GPa
#               C12 = 76.4 GPa
#               C44 = 56.4 GPa

print "Elastic Constant C11all = ${C11all} ${cunits}"
Elastic Constant C11all = 116.815477495868 GPa
print "Elastic Constant C22all = ${C22all} ${cunits}"
Elastic Constant C22all = 116.8154775044 GPa
print "Elastic Constant C33all = ${C33all} ${cunits}"
Elastic Constant C33all = 116.815477497591 GPa

print "Elastic Constant C12all = ${C12all} ${cunits}"
Elastic Constant C12all = 60.1172244823024 GPa
print "Elastic Constant C13all = ${C13all} ${cunits}"
Elastic Constant C13all = 60.1172244641824 GPa
print "Elastic Constant C23all = ${C23all} ${cunits}"
Elastic Constant C23all = 60.1172244662763 GPa

print "Elastic Constant C44all = ${C44all} ${cunits}"
Elastic Constant C44all = 31.6596214394687 GPa
print "Elastic Constant C55all = ${C55all} ${cunits}"
Elastic Constant C55all = 31.6596214379563 GPa
print "Elastic Constant C66all = ${C66all} ${cunits}"
Elastic Constant C66all = 31.6596214493876 GPa

print "Elastic Constant C14all = ${C14all} ${cunits}"
Elastic Constant C14all = 7.32173823997825e-11 GPa
print "Elastic Constant C15all = ${C15all} ${cunits}"
Elastic Constant C15all = -3.95972892899691e-09 GPa
print "Elastic Constant C16all = ${C16all} ${cunits}"
Elastic Constant C16all = -1.35668158947376e-09 GPa

print "Elastic Constant C24all = ${C24all} ${cunits}"
Elastic Constant C24all = -1.02504189134079e-09 GPa
print "Elastic Constant C25all = ${C25all} ${cunits}"
Elastic Constant C25all = -3.66661700871237e-09 GPa
print "Elastic Constant C26all = ${C26all} ${cunits}"
Elastic Constant C26all = -7.21974668797592e-10 GPa

print "Elastic Constant C34all = ${C34all} ${cunits}"
Elastic Constant C34all = -1.20808519374682e-09 GPa
print "Elastic Constant C35all = ${C35all} ${cunits}"
Elastic Constant C35all = -8.09574189112912e-10 GPa
print "Elastic Constant C36all = ${C36all} ${cunits}"
Elastic Constant C36all = -1.32157183580136e-09 GPa

print "Elastic Constant C45all = ${C45all} ${cunits}"
Elastic Constant C45all = 7.06023790593167e-11 GPa
print "Elastic Constant C46all = ${C46all} ${cunits}"
Elastic Constant C46all = 2.48415778171675e-11 GPa
print "Elastic Constant C56all = ${C56all} ${cunits}"
Elastic Constant C56all = -1.25515340549897e-10 GPa

Total wall time: 0:00:00
