LAMMPS data file via write_data, version 13 Jan 2016, timestep = 8

4 atoms
1 atom types

-5.5351371667931703e-03 4.0444648303667936e+00 xlo xhi
-5.5351372167927208e-03 4.0444648303167936e+00 ylo yhi
-5.5351372167932299e-03 4.0444648303167927e+00 zlo zhi
0.0000000000000000e+00 0.0000000000000000e+00 0.0000000000000000e+00 xy xz yz

Masses

1 26.982

Atoms # charge

1 1 0.0000000000000000e+00 -5.5351371667931703e-03 -5.5351371917242865e-03 -5.5351371917248173e-03 0 0 0
2 1 0.0000000000000000e+00 -5.5351371667931703e-03 2.0194648465750689e+00 2.0194648465750684e+00 0 0 0
3 1 0.0000000000000000e+00 2.0194648466000005e+00 -5.5351371917243533e-03 2.0194648465750684e+00 0 0 0
4 1 0.0000000000000000e+00 2.0194648466000005e+00 2.0194648465750689e+00 -5.5351371917247913e-03 0 0 0

Velocities

1 0.0000000000000000e+00 0.0000000000000000e+00 0.0000000000000000e+00
2 0.0000000000000000e+00 0.0000000000000000e+00 0.0000000000000000e+00
3 0.0000000000000000e+00 0.0000000000000000e+00 0.0000000000000000e+00
4 0.0000000000000000e+00 0.0000000000000000e+00 0.0000000000000000e+00
