LAMMPS (13 Jan 2016)
include /users/knc6/inelast.mod
# Compute elastic constant tensor for a crystal
#
# Written by Aidan Thompson (Sandia, athomps@sandia.gov)
#
#  This script uses the following three include files.
#
#   init.mod      (must be modified for different crystal structures)
# 	       	  Define units, deformation parameters and initial
#		  configuration of the atoms and simulation cell.
#
#
#   potential.mod    (must be modified for different pair styles)
# 		     Define pair style and other attributes
#		     not stored in restart file
#
#
#   displace.mod    (displace.mod should not need to be modified)
# 		    Perform positive and negative box displacements
# 		    in direction ${dir} and size ${up}.
# 		    It uses the resultant changes
#		    in stress to compute one
# 		    row of the elastic stiffness tensor
#
#		    Inputs variables:
#		    	   dir = the Voigt deformation component
#		    		    (1,2,3,4,5,6)
#		    Global constants:
#       	    	   up = the deformation magnitude (strain units)
#       		   cfac = conversion from LAMMPS pressure units to
#               	   output units for elastic constants
#
#
#  To run this on a different system, it should only be necessary to
#  modify the files init.mod and potential.mod. In order to calculate
#  the elastic constants correctly, care must be taken to specify
#  the correct units in init.mod (units, cfac and cunits). It is also
#  important to verify that the minimization of energy w.r.t atom
#  positions in the deformed cell is fully converged.
#  One indication of this is that the elastic constants are insensitive
#  to the choice of the variable ${up} in init.mod. Another is to check
#  the final max and two-norm forces reported in the log file. If you know
#  that minimization is not required, you can set maxiter = 0.0 in
#  init.mod.
#
#  There are two alternate versions of displace.mod provided.
#  They are displace_restart.mod and displace_reverse.mod.
#  The former resets the box using a restart file while
#  the latter reverses the deformation. Copy whichever
#  one you like best to displace.mod.
#

include init.mod
variable dump_file string "None"
variable up  equal 1.0e-6
variable cfac  equal 1.0e-4
variable cunits  string GPa
variable etol  equal 0
variable ftol  equal 1.0e-10
variable maxiter equal 1000
variable maxeval equal 10000
variable dmax equal 1.0e-2
variable data_file string "data"
units metal
atom_style charge
boundary p p p
atom_modify sort 0 0.0

read_data data
  triclinic box = (0 0 0) to (4.03893 4.03893 4.03893) with tilt (0 0 0)
  1 by 1 by 1 MPI processor grid
  reading atoms ...
  4 atoms

### interactions
mass 1 26.98154
include potential.mod
pair_style eam/alloy
pair_coeff * * /users/knc6/Software/jarvis/jarvis/lammps/examples/Al03.eam.alloy  Al
neighbor 1.0 nsq
neigh_modify once no every 1 delay 0 check yes
min_style  cg
min_modify           dmax ${dmax} line quadratic
min_modify           dmax 0.01 line quadratic
thermo          1
thermo_style custom step temp press cpu pxx pyy pzz pxy pxz pyz ke pe etotal vol lx ly lz atoms
thermo_modify norm no
#fix 3 all nph aniso 0.0 0.0 1.0
#fix langevin all langevin 0.0 0.0 1.0 12233

#fix 3 all box/relax tri 0.0 vmax 0.001
fix            3 all box/relax aniso 0.0 vmax 0.001
#fix 3 all box/relax  aniso 0.0
#dump            2a all cfg 100 *.cfg mass type xs ys zs  vx vy vz fx fy fz
#dump_modify     2a element  Mo S

#fix 1a all qeq/comb 1 0.0001 file fq.out
#fix             2 all qeq/reax 1 0.0 10.0 1e-6 /scratch/lfs/kamal/JARVIS/All2/ReaxFF/param.qeq
minimize ${etol} ${ftol} ${maxiter} ${maxeval}
minimize 0 ${ftol} ${maxiter} ${maxeval}
minimize 0 1e-10 ${maxiter} ${maxeval}
minimize 0 1e-10 1000 ${maxeval}
minimize 0 1e-10 1000 10000
Neighbor list info ...
  1 neighbor list requests
  update every 1 steps, delay 0 steps, check yes
  max neighbors/atom: 2000, page size: 100000
  master list distance cutoff = 7.72488
  ghost atom cutoff = 7.72488
Memory usage per processor = 3.31879 Mbytes
Step Temp Press CPU Pxx Pyy Pzz Pxy Pxz Pyz KinEng PotEng TotEng Volume Lx Ly Lz Atoms 
       0            0    6601.9048            0    6601.9048    6601.9048    6601.9048 -1.7822493e-12 -5.1463766e-12 -1.012402e-12            0   -13.438889   -13.438889    65.886871    4.0389297    4.0389297    4.0389297        4 
       1            0    4164.5773 3.9815903e-05    4164.5773    4164.5773    4164.5773 -1.429942e-12 -4.4580544e-12 -7.6543953e-12            0   -13.439553   -13.439553    66.084729    4.0429686    4.0429686    4.0429686        4 
       2            0    1760.3222 8.9883804e-05    1760.3222    1760.3222    1760.3222 -1.0482831e-12 1.3208367e-12 -2.2642915e-12            0   -13.439919   -13.439919    66.282983    4.0470076    4.0470076    4.0470076        4 
       3            0   -2.1771454 0.00016498566    -2.177151   -2.1771426   -2.1771426 1.5689374e-12 1.1066239e-11 8.576858e-12            0       -13.44       -13.44    66.430306    4.0500037    4.0500037    4.0500037        4 
       4            0 -0.00087293488 0.00023984909 -0.00087717572 -0.00087081444 -0.00087081448 1.3179111e-12 2.0500839e-12 2.2174377e-12            0       -13.44       -13.44    66.430123         4.05         4.05         4.05        4 
       5            0  6.96795e-08 0.00031304359 -3.1567971e-06 1.6829294e-06 1.6829062e-06 1.0459612e-14 1.9245686e-12 1.7153763e-12            0       -13.44       -13.44    66.430123         4.05         4.05         4.05        4 
       6            0 -8.5745108e-10 0.0003888607 2.8080169e-06 -1.4053494e-06 -1.4052398e-06 2.5730645e-12 3.7863794e-12 1.7697663e-11            0       -13.44       -13.44    66.430123         4.05         4.05         4.05        4 
       7            0 -8.9438048e-10 0.00048899651 -9.1525786e-10 -8.3070236e-10 -9.3718121e-10 2.1651396e-12 -9.2044583e-13 8.3676894e-13            0       -13.44       -13.44    66.430123         4.05         4.05         4.05        4 
Loop time of 0.000504017 on 1 procs for 7 steps with 4 atoms

793.6% CPU use with 1 MPI tasks x no OpenMP threads

Minimization stats:
  Stopping criterion = force tolerance
  Energy initial, next-to-last, final = 
        -13.4388888172     -13.4400000916     -13.4400000916
  Force two-norm initial, final = 0.470239 6.41424e-14
  Force max component initial, final = 0.271492 3.87516e-14
  Final line search alpha, max atom move = 1 3.87516e-14
  Iterations, force evaluations = 7 12

MPI task timing breakdown:
Section |  min time  |  avg time  |  max time  |%varavg| %total
---------------------------------------------------------------
Pair    | 0.00024939 | 0.00024939 | 0.00024939 |   0.0 | 49.48
Neigh   | 0          | 0          | 0          |   0.0 |  0.00
Comm    | 3.171e-05  | 3.171e-05  | 3.171e-05  |   0.0 |  6.29
Output  | 0.00010395 | 0.00010395 | 0.00010395 |   0.0 | 20.62
Modify  | 0          | 0          | 0          |   0.0 |  0.00
Other   |            | 0.000119   |            |       | 23.60

Nlocal:    4 ave 4 max 4 min
Histogram: 1 0 0 0 0 0 0 0 0 0
Nghost:    360 ave 360 max 360 min
Histogram: 1 0 0 0 0 0 0 0 0 0
Neighs:    268 ave 268 max 268 min
Histogram: 1 0 0 0 0 0 0 0 0 0

Total # of neighbors = 268
Ave neighs/atom = 67
Neighbor list builds = 0
Dangerous builds = 0
#minimize ${etol} ${ftol} ${maxiter} ${maxeval}
#minimize ${etol} ${ftol} ${maxiter} ${maxeval}

variable tmp equal pxx
variable pxx0 equal ${tmp}
variable pxx0 equal -9.15257863289851e-10
variable tmp equal pyy
variable pyy0 equal ${tmp}
variable pyy0 equal -8.3070236220607e-10
variable tmp equal pzz
variable pzz0 equal ${tmp}
variable pzz0 equal -9.37181209439233e-10
variable tmp equal pyz
variable pyz0 equal ${tmp}
variable pyz0 equal 8.36768936999315e-13
variable tmp equal pxz
variable pxz0 equal ${tmp}
variable pxz0 equal -9.20445830699247e-13
variable tmp equal pxy
variable pxy0 equal ${tmp}
variable pxy0 equal 2.16513962448573e-12

variable tmp equal lx
variable lx0 equal ${tmp}
variable lx0 equal 4.04999996753359
variable tmp equal ly
variable ly0 equal ${tmp}
variable ly0 equal 4.04999996753359
variable tmp equal lz
variable lz0 equal ${tmp}
variable lz0 equal 4.04999996753359

# These formulas define the derivatives w.r.t. strain components
# Constants uses $, variables use v_
variable d1 equal -(v_pxx1-${pxx0})/(v_delta/v_len0)*${cfac}
variable d1 equal -(v_pxx1--9.15257863289851e-10)/(v_delta/v_len0)*${cfac}
variable d1 equal -(v_pxx1--9.15257863289851e-10)/(v_delta/v_len0)*0.0001
variable d2 equal -(v_pyy1-${pyy0})/(v_delta/v_len0)*${cfac}
variable d2 equal -(v_pyy1--8.3070236220607e-10)/(v_delta/v_len0)*${cfac}
variable d2 equal -(v_pyy1--8.3070236220607e-10)/(v_delta/v_len0)*0.0001
variable d3 equal -(v_pzz1-${pzz0})/(v_delta/v_len0)*${cfac}
variable d3 equal -(v_pzz1--9.37181209439233e-10)/(v_delta/v_len0)*${cfac}
variable d3 equal -(v_pzz1--9.37181209439233e-10)/(v_delta/v_len0)*0.0001
variable d4 equal -(v_pyz1-${pyz0})/(v_delta/v_len0)*${cfac}
variable d4 equal -(v_pyz1-8.36768936999315e-13)/(v_delta/v_len0)*${cfac}
variable d4 equal -(v_pyz1-8.36768936999315e-13)/(v_delta/v_len0)*0.0001
variable d5 equal -(v_pxz1-${pxz0})/(v_delta/v_len0)*${cfac}
variable d5 equal -(v_pxz1--9.20445830699247e-13)/(v_delta/v_len0)*${cfac}
variable d5 equal -(v_pxz1--9.20445830699247e-13)/(v_delta/v_len0)*0.0001
variable d6 equal -(v_pxy1-${pxy0})/(v_delta/v_len0)*${cfac}
variable d6 equal -(v_pxy1-2.16513962448573e-12)/(v_delta/v_len0)*${cfac}
variable d6 equal -(v_pxy1-2.16513962448573e-12)/(v_delta/v_len0)*0.0001

# Write restart
unfix 3
minimize ${etol} ${ftol} ${maxiter} ${maxeval}
minimize 0 ${ftol} ${maxiter} ${maxeval}
minimize 0 1e-10 ${maxiter} ${maxeval}
minimize 0 1e-10 1000 ${maxeval}
minimize 0 1e-10 1000 10000
Memory usage per processor = 3.31879 Mbytes
Step Temp Press CPU Pxx Pyy Pzz Pxy Pxz Pyz KinEng PotEng TotEng Volume Lx Ly Lz Atoms 
       7            0 -8.2264149e-10            0 -8.6869167e-10 -7.3267488e-10 -8.6655791e-10 1.4957245e-12 -1.347198e-11 2.585616e-11            0       -13.44       -13.44    66.430123         4.05         4.05         4.05        4 
       8            0 -8.9438048e-10 6.9856644e-05 -9.1525786e-10 -8.3070236e-10 -9.3718121e-10 2.1651396e-12 -9.2044583e-13 8.3676894e-13            0       -13.44       -13.44    66.430123         4.05         4.05         4.05        4 
Loop time of 8.39233e-05 on 1 procs for 1 steps with 4 atoms

0.0% CPU use with 1 MPI tasks x no OpenMP threads

Minimization stats:
  Stopping criterion = quadratic factors are zero
  Energy initial, next-to-last, final = 
        -13.4400000916     -13.4400000916     -13.4400000916
  Force two-norm initial, final = 2.8951e-15 6.8319e-16
  Force max component initial, final = 2.31065e-15 4.23273e-16
  Final line search alpha, max atom move = 1 4.23273e-16
  Iterations, force evaluations = 1 2

MPI task timing breakdown:
Section |  min time  |  avg time  |  max time  |%varavg| %total
---------------------------------------------------------------
Pair    | 5.6982e-05 | 5.6982e-05 | 5.6982e-05 |   0.0 | 67.90
Neigh   | 0          | 0          | 0          |   0.0 |  0.00
Comm    | 7.1526e-06 | 7.1526e-06 | 7.1526e-06 |   0.0 |  8.52
Output  | 0          | 0          | 0          |   0.0 |  0.00
Modify  | 0          | 0          | 0          |   0.0 |  0.00
Other   |            | 1.979e-05  |            |       | 23.58

Nlocal:    4 ave 4 max 4 min
Histogram: 1 0 0 0 0 0 0 0 0 0
Nghost:    360 ave 360 max 360 min
Histogram: 1 0 0 0 0 0 0 0 0 0
Neighs:    268 ave 268 max 268 min
Histogram: 1 0 0 0 0 0 0 0 0 0

Total # of neighbors = 268
Ave neighs/atom = 67
Neighbor list builds = 0
Dangerous builds = 0
#fix 1a all qeq/comb 1 0.0001 file fq.out
write_restart restart.equil
write_data data0

# uxx Perturbation

variable dir equal 1
include /users/knc6/displace.mod
# NOTE: This script should not need to be
# modified. See in.elastic for more info.
#
# Find which reference length to use

if "${dir} == 1" then    "variable len0 equal ${lx0}"
variable len0 equal ${lx0}
variable len0 equal 4.04999996753359
if "${dir} == 2" then    "variable len0 equal ${ly0}"
if "${dir} == 3" then    "variable len0 equal ${lz0}"
if "${dir} == 4" then    "variable len0 equal ${lz0}"
if "${dir} == 5" then    "variable len0 equal ${lz0}"
if "${dir} == 6" then    "variable len0 equal ${ly0}"

# Reset box and simulation parameters

clear
box tilt large
read_restart restart.equil
  triclinic box = (-0.00553514 -0.00553514 -0.00553514) to (4.04446 4.04446 4.04446) with tilt (0 0 0)
  1 by 1 by 1 MPI processor grid
  4 atoms
include potential.mod
pair_style eam/alloy
pair_coeff * * /users/knc6/Software/jarvis/jarvis/lammps/examples/Al03.eam.alloy  Al
neighbor 1.0 nsq
neigh_modify once no every 1 delay 0 check yes
min_style  cg
min_modify           dmax ${dmax} line quadratic
min_modify           dmax 0.01 line quadratic
thermo          1
thermo_style custom step temp press cpu pxx pyy pzz pxy pxz pyz ke pe etotal vol lx ly lz atoms
thermo_modify norm no
# Negative deformation

variable delta equal -${up}*${len0}
variable delta equal -1e-06*${len0}
variable delta equal -1e-06*4.04999996753359
if "${dir} == 1" then    "change_box all x delta 0 ${delta} remap units box"
change_box all x delta 0 ${delta} remap units box
change_box all x delta 0 -4.04999996753359e-06 remap units box
  triclinic box = (-0.00553514 -0.00553514 -0.00553514) to (4.04446 4.04446 4.04446) with tilt (0 0 0)
if "${dir} == 2" then    "change_box all y delta 0 ${delta} remap units box"
if "${dir} == 3" then    "change_box all z delta 0 ${delta} remap units box"
if "${dir} == 4" then    "change_box all yz delta ${delta} remap units box"
if "${dir} == 5" then    "change_box all xz delta ${delta} remap units box"
if "${dir} == 6" then    "change_box all xy delta ${delta} remap units box"

# Relax atoms positions

minimize ${etol} ${ftol} ${maxiter} ${maxeval}
minimize 0 ${ftol} ${maxiter} ${maxeval}
minimize 0 1e-10 ${maxiter} ${maxeval}
minimize 0 1e-10 1000 ${maxeval}
minimize 0 1e-10 1000 10000
Neighbor list info ...
  1 neighbor list requests
  update every 1 steps, delay 0 steps, check yes
  max neighbors/atom: 2000, page size: 100000
  master list distance cutoff = 7.72488
  ghost atom cutoff = 7.72488
Memory usage per processor = 3.31879 Mbytes
Step Temp Press CPU Pxx Pyy Pzz Pxy Pxz Pyz KinEng PotEng TotEng Volume Lx Ly Lz Atoms 
       8            0   0.79016912            0    1.1681595   0.60117394   0.60117394 2.990406e-11 5.1042956e-12 3.7821994e-11            0       -13.44       -13.44    66.430057    4.0499959         4.05         4.05        4 
       9            0   0.79016912 7.390976e-05    1.1681595   0.60117394   0.60117394 -3.0510718e-11 2.4119889e-11 -3.2843214e-11            0       -13.44       -13.44    66.430057    4.0499959         4.05         4.05        4 
Loop time of 8.70228e-05 on 1 procs for 1 steps with 4 atoms

0.0% CPU use with 1 MPI tasks x no OpenMP threads

Minimization stats:
  Stopping criterion = force tolerance
  Energy initial, next-to-last, final = 
        -13.4400000916     -13.4400000916     -13.4400000916
  Force two-norm initial, final = 4.29254e-15 1.91454e-15
  Force max component initial, final = 3.2821e-15 9.4369e-16
  Final line search alpha, max atom move = 1 9.4369e-16
  Iterations, force evaluations = 1 2

MPI task timing breakdown:
Section |  min time  |  avg time  |  max time  |%varavg| %total
---------------------------------------------------------------
Pair    | 5.6982e-05 | 5.6982e-05 | 5.6982e-05 |   0.0 | 65.48
Neigh   | 0          | 0          | 0          |   0.0 |  0.00
Comm    | 6.9141e-06 | 6.9141e-06 | 6.9141e-06 |   0.0 |  7.95
Output  | 0          | 0          | 0          |   0.0 |  0.00
Modify  | 0          | 0          | 0          |   0.0 |  0.00
Other   |            | 2.313e-05  |            |       | 26.58

Nlocal:    4 ave 4 max 4 min
Histogram: 1 0 0 0 0 0 0 0 0 0
Nghost:    360 ave 360 max 360 min
Histogram: 1 0 0 0 0 0 0 0 0 0
Neighs:    268 ave 268 max 268 min
Histogram: 1 0 0 0 0 0 0 0 0 0

Total # of neighbors = 268
Ave neighs/atom = 67
Neighbor list builds = 0
Dangerous builds = 0

# Obtain new stress tensor

variable tmp equal pxx
variable pxx1 equal ${tmp}
variable pxx1 equal 1.1681594981775
variable tmp equal pyy
variable pyy1 equal ${tmp}
variable pyy1 equal 0.601173935439453
variable tmp equal pzz
variable pzz1 equal ${tmp}
variable pzz1 equal 0.601173935491856
variable tmp equal pxy
variable pxy1 equal ${tmp}
variable pxy1 equal -3.05107178760554e-11
variable tmp equal pxz
variable pxz1 equal ${tmp}
variable pxz1 equal 2.4119888728894e-11
variable tmp equal pyz
variable pyz1 equal ${tmp}
variable pyz1 equal -3.28432136204368e-11

# Compute elastic constant from pressure tensor

variable C1neg equal ${d1}
variable C1neg equal 116.815949909276
variable C2neg equal ${d2}
variable C2neg equal 60.1173936270155
variable C3neg equal ${d3}
variable C3neg equal 60.1173936429037
variable C4neg equal ${d4}
variable C4neg equal -3.36799825574361e-09
variable C5neg equal ${d5}
variable C5neg equal 2.50403345595933e-09
variable C6neg equal ${d6}
variable C6neg equal -3.26758575005411e-09

# Reset box and simulation parameters

clear
box tilt large
read_restart restart.equil
  triclinic box = (-0.00553514 -0.00553514 -0.00553514) to (4.04446 4.04446 4.04446) with tilt (0 0 0)
  1 by 1 by 1 MPI processor grid
  4 atoms
include potential.mod
pair_style eam/alloy
pair_coeff * * /users/knc6/Software/jarvis/jarvis/lammps/examples/Al03.eam.alloy  Al
neighbor 1.0 nsq
neigh_modify once no every 1 delay 0 check yes
min_style  cg
min_modify           dmax ${dmax} line quadratic
min_modify           dmax 0.01 line quadratic
thermo          1
thermo_style custom step temp press cpu pxx pyy pzz pxy pxz pyz ke pe etotal vol lx ly lz atoms
thermo_modify norm no

# Positive deformation

variable delta equal ${up}*${len0}
variable delta equal 1e-06*${len0}
variable delta equal 1e-06*4.04999996753359
if "${dir} == 1" then    "change_box all x delta 0 ${delta} remap units box"
change_box all x delta 0 ${delta} remap units box
change_box all x delta 0 4.04999996753359e-06 remap units box
  triclinic box = (-0.00553514 -0.00553514 -0.00553514) to (4.04447 4.04446 4.04446) with tilt (0 0 0)
if "${dir} == 2" then    "change_box all y delta 0 ${delta} remap units box"
if "${dir} == 3" then    "change_box all z delta 0 ${delta} remap units box"
if "${dir} == 4" then    "change_box all yz delta ${delta} remap units box"
if "${dir} == 5" then    "change_box all xz delta ${delta} remap units box"
if "${dir} == 6" then    "change_box all xy delta ${delta} remap units box"

# Relax atoms positions

minimize ${etol} ${ftol} ${maxiter} ${maxeval}
minimize 0 ${ftol} ${maxiter} ${maxeval}
minimize 0 1e-10 ${maxiter} ${maxeval}
minimize 0 1e-10 1000 ${maxeval}
minimize 0 1e-10 1000 10000
Neighbor list info ...
  1 neighbor list requests
  update every 1 steps, delay 0 steps, check yes
  max neighbors/atom: 2000, page size: 100000
  master list distance cutoff = 7.72488
  ghost atom cutoff = 7.72488
Memory usage per processor = 3.31879 Mbytes
Step Temp Press CPU Pxx Pyy Pzz Pxy Pxz Pyz KinEng PotEng TotEng Volume Lx Ly Lz Atoms 
       8            0  -0.79016372            0   -1.1681501  -0.60117055  -0.60117055 -3.1452021e-11 -1.548021e-12 3.1797188e-11            0       -13.44       -13.44     66.43019     4.050004         4.05         4.05        4 
       9            0  -0.79016372 6.8902969e-05   -1.1681501  -0.60117055  -0.60117055 -3.0113192e-11 1.443425e-12 -3.2508441e-11            0       -13.44       -13.44     66.43019     4.050004         4.05         4.05        4 
Loop time of 8.29697e-05 on 1 procs for 1 steps with 4 atoms

0.0% CPU use with 1 MPI tasks x no OpenMP threads

Minimization stats:
  Stopping criterion = force tolerance
  Energy initial, next-to-last, final = 
        -13.4400000916     -13.4400000916     -13.4400000916
  Force two-norm initial, final = 5.29689e-15 2.6228e-15
  Force max component initial, final = 3.8719e-15 1.27676e-15
  Final line search alpha, max atom move = 1 1.27676e-15
  Iterations, force evaluations = 1 2

MPI task timing breakdown:
Section |  min time  |  avg time  |  max time  |%varavg| %total
---------------------------------------------------------------
Pair    | 5.579e-05  | 5.579e-05  | 5.579e-05  |   0.0 | 67.24
Neigh   | 0          | 0          | 0          |   0.0 |  0.00
Comm    | 7.1526e-06 | 7.1526e-06 | 7.1526e-06 |   0.0 |  8.62
Output  | 0          | 0          | 0          |   0.0 |  0.00
Modify  | 0          | 0          | 0          |   0.0 |  0.00
Other   |            | 2.003e-05  |            |       | 24.14

Nlocal:    4 ave 4 max 4 min
Histogram: 1 0 0 0 0 0 0 0 0 0
Nghost:    360 ave 360 max 360 min
Histogram: 1 0 0 0 0 0 0 0 0 0
Neighs:    268 ave 268 max 268 min
Histogram: 1 0 0 0 0 0 0 0 0 0

Total # of neighbors = 268
Ave neighs/atom = 67
Neighbor list builds = 0
Dangerous builds = 0

# Obtain new stress tensor

variable tmp equal pe
variable e1 equal ${tmp}
variable e1 equal -13.4400000915966
variable tmp equal press
variable p1 equal ${tmp}
variable p1 equal -0.790163720039528
variable tmp equal pxx
variable pxx1 equal ${tmp}
variable pxx1 equal -1.1681500520656
variable tmp equal pyy
variable pyy1 equal ${tmp}
variable pyy1 equal -0.601170554076857
variable tmp equal pzz
variable pzz1 equal ${tmp}
variable pzz1 equal -0.601170553976131
variable tmp equal pxy
variable pxy1 equal ${tmp}
variable pxy1 equal -3.01131920070709e-11
variable tmp equal pxz
variable pxz1 equal ${tmp}
variable pxz1 equal 1.44342497289885e-12
variable tmp equal pyz
variable pyz1 equal ${tmp}
variable pyz1 equal -3.25084406939827e-11

# Compute elastic constant from pressure tensor

variable C1pos equal ${d1}
variable C1pos equal 116.815005115034
variable C2pos equal ${d2}
variable C2pos equal 60.1170553246155
variable C3pos equal ${d3}
variable C3pos equal 60.117055303895
variable C4pos equal ${d4}
variable C4pos equal 3.3345209630982e-09
variable C5pos equal ${d5}
variable C5pos equal -2.3638708035981e-10
variable C6pos equal ${d6}
variable C6pos equal 3.22783316315566e-09

# Combine positive and negative

variable C1${dir} equal 0.5*(${C1neg}+${C1pos})
variable C11 equal 0.5*(${C1neg}+${C1pos})
variable C11 equal 0.5*(116.815949909276+${C1pos})
variable C11 equal 0.5*(116.815949909276+116.815005115034)
variable C2${dir} equal 0.5*(${C2neg}+${C2pos})
variable C21 equal 0.5*(${C2neg}+${C2pos})
variable C21 equal 0.5*(60.1173936270155+${C2pos})
variable C21 equal 0.5*(60.1173936270155+60.1170553246155)
variable C3${dir} equal 0.5*(${C3neg}+${C3pos})
variable C31 equal 0.5*(${C3neg}+${C3pos})
variable C31 equal 0.5*(60.1173936429037+${C3pos})
variable C31 equal 0.5*(60.1173936429037+60.117055303895)
variable C4${dir} equal 0.5*(${C4neg}+${C4pos})
variable C41 equal 0.5*(${C4neg}+${C4pos})
variable C41 equal 0.5*(-3.36799825574361e-09+${C4pos})
variable C41 equal 0.5*(-3.36799825574361e-09+3.3345209630982e-09)
variable C5${dir} equal 0.5*(${C5neg}+${C5pos})
variable C51 equal 0.5*(${C5neg}+${C5pos})
variable C51 equal 0.5*(2.50403345595933e-09+${C5pos})
variable C51 equal 0.5*(2.50403345595933e-09+-2.3638708035981e-10)
variable C6${dir} equal 0.5*(${C6neg}+${C6pos})
variable C61 equal 0.5*(${C6neg}+${C6pos})
variable C61 equal 0.5*(-3.26758575005411e-09+${C6pos})
variable C61 equal 0.5*(-3.26758575005411e-09+3.22783316315566e-09)

# Delete dir to make sure it is not reused

variable dir delete

# uyy Perturbation

variable dir equal 2
include /users/knc6/displace.mod
# NOTE: This script should not need to be
# modified. See in.elastic for more info.
#
# Find which reference length to use

if "${dir} == 1" then    "variable len0 equal ${lx0}"
if "${dir} == 2" then    "variable len0 equal ${ly0}"
variable len0 equal ${ly0}
variable len0 equal 4.04999996753359
if "${dir} == 3" then    "variable len0 equal ${lz0}"
if "${dir} == 4" then    "variable len0 equal ${lz0}"
if "${dir} == 5" then    "variable len0 equal ${lz0}"
if "${dir} == 6" then    "variable len0 equal ${ly0}"

# Reset box and simulation parameters

clear
box tilt large
read_restart restart.equil
  triclinic box = (-0.00553514 -0.00553514 -0.00553514) to (4.04446 4.04446 4.04446) with tilt (0 0 0)
  1 by 1 by 1 MPI processor grid
  4 atoms
include potential.mod
pair_style eam/alloy
pair_coeff * * /users/knc6/Software/jarvis/jarvis/lammps/examples/Al03.eam.alloy  Al
neighbor 1.0 nsq
neigh_modify once no every 1 delay 0 check yes
min_style  cg
min_modify           dmax ${dmax} line quadratic
min_modify           dmax 0.01 line quadratic
thermo          1
thermo_style custom step temp press cpu pxx pyy pzz pxy pxz pyz ke pe etotal vol lx ly lz atoms
thermo_modify norm no
# Negative deformation

variable delta equal -${up}*${len0}
variable delta equal -1e-06*${len0}
variable delta equal -1e-06*4.04999996753359
if "${dir} == 1" then    "change_box all x delta 0 ${delta} remap units box"
if "${dir} == 2" then    "change_box all y delta 0 ${delta} remap units box"
change_box all y delta 0 ${delta} remap units box
change_box all y delta 0 -4.04999996753359e-06 remap units box
  triclinic box = (-0.00553514 -0.00553514 -0.00553514) to (4.04446 4.04446 4.04446) with tilt (0 0 0)
if "${dir} == 3" then    "change_box all z delta 0 ${delta} remap units box"
if "${dir} == 4" then    "change_box all yz delta ${delta} remap units box"
if "${dir} == 5" then    "change_box all xz delta ${delta} remap units box"
if "${dir} == 6" then    "change_box all xy delta ${delta} remap units box"

# Relax atoms positions

minimize ${etol} ${ftol} ${maxiter} ${maxeval}
minimize 0 ${ftol} ${maxiter} ${maxeval}
minimize 0 1e-10 ${maxiter} ${maxeval}
minimize 0 1e-10 1000 ${maxeval}
minimize 0 1e-10 1000 10000
Neighbor list info ...
  1 neighbor list requests
  update every 1 steps, delay 0 steps, check yes
  max neighbors/atom: 2000, page size: 100000
  master list distance cutoff = 7.72488
  ghost atom cutoff = 7.72488
Memory usage per processor = 3.31879 Mbytes
Step Temp Press CPU Pxx Pyy Pzz Pxy Pxz Pyz KinEng PotEng TotEng Volume Lx Ly Lz Atoms 
       8            0   0.79016912            0   0.60117394    1.1681595   0.60117394 3.0134171e-11 1.0166753e-11 1.3806701e-12            0       -13.44       -13.44    66.430057         4.05    4.0499959         4.05        4 
       9            0   0.79016912 7.0095062e-05   0.60117394    1.1681595   0.60117394 1.4748067e-12 8.472294e-12 -3.1378867e-12            0       -13.44       -13.44    66.430057         4.05    4.0499959         4.05        4 
Loop time of 8.29697e-05 on 1 procs for 1 steps with 4 atoms

0.0% CPU use with 1 MPI tasks x no OpenMP threads

Minimization stats:
  Stopping criterion = force tolerance
  Energy initial, next-to-last, final = 
        -13.4400000916     -13.4400000916     -13.4400000916
  Force two-norm initial, final = 3.89825e-15 3.60889e-16
  Force max component initial, final = 1.91513e-15 2.08167e-16
  Final line search alpha, max atom move = 1 2.08167e-16
  Iterations, force evaluations = 1 2

MPI task timing breakdown:
Section |  min time  |  avg time  |  max time  |%varavg| %total
---------------------------------------------------------------
Pair    | 5.6982e-05 | 5.6982e-05 | 5.6982e-05 |   0.0 | 68.68
Neigh   | 0          | 0          | 0          |   0.0 |  0.00
Comm    | 7.1526e-06 | 7.1526e-06 | 7.1526e-06 |   0.0 |  8.62
Output  | 0          | 0          | 0          |   0.0 |  0.00
Modify  | 0          | 0          | 0          |   0.0 |  0.00
Other   |            | 1.884e-05  |            |       | 22.70

Nlocal:    4 ave 4 max 4 min
Histogram: 1 0 0 0 0 0 0 0 0 0
Nghost:    360 ave 360 max 360 min
Histogram: 1 0 0 0 0 0 0 0 0 0
Neighs:    268 ave 268 max 268 min
Histogram: 1 0 0 0 0 0 0 0 0 0

Total # of neighbors = 268
Ave neighs/atom = 67
Neighbor list builds = 0
Dangerous builds = 0

# Obtain new stress tensor

variable tmp equal pxx
variable pxx1 equal ${tmp}
variable pxx1 equal 0.601173935558568
variable tmp equal pyy
variable pyy1 equal ${tmp}
variable pyy1 equal 1.16815949825982
variable tmp equal pzz
variable pzz1 equal ${tmp}
variable pzz1 equal 0.601173935506249
variable tmp equal pxy
variable pxy1 equal ${tmp}
variable pxy1 equal 1.47480672626802e-12
variable tmp equal pxz
variable pxz1 equal ${tmp}
variable pxz1 equal 8.47229395941203e-12
variable tmp equal pyz
variable pyz1 equal ${tmp}
variable pyz1 equal -3.13788665163408e-12

# Compute elastic constant from pressure tensor

variable C1neg equal ${d1}
variable C1neg equal 60.1173936473826
variable C2neg equal ${d2}
variable C2neg equal 116.815949909052
variable C3neg equal ${d3}
variable C3neg equal 60.117393644343
variable C4neg equal ${d4}
variable C4neg equal -3.97465558863339e-10
variable C5neg equal ${d5}
variable C5neg equal 9.39273979011128e-10
variable C6neg equal ${d6}
variable C6neg equal -6.9033289821771e-11

# Reset box and simulation parameters

clear
box tilt large
read_restart restart.equil
  triclinic box = (-0.00553514 -0.00553514 -0.00553514) to (4.04446 4.04446 4.04446) with tilt (0 0 0)
  1 by 1 by 1 MPI processor grid
  4 atoms
include potential.mod
pair_style eam/alloy
pair_coeff * * /users/knc6/Software/jarvis/jarvis/lammps/examples/Al03.eam.alloy  Al
neighbor 1.0 nsq
neigh_modify once no every 1 delay 0 check yes
min_style  cg
min_modify           dmax ${dmax} line quadratic
min_modify           dmax 0.01 line quadratic
thermo          1
thermo_style custom step temp press cpu pxx pyy pzz pxy pxz pyz ke pe etotal vol lx ly lz atoms
thermo_modify norm no

# Positive deformation

variable delta equal ${up}*${len0}
variable delta equal 1e-06*${len0}
variable delta equal 1e-06*4.04999996753359
if "${dir} == 1" then    "change_box all x delta 0 ${delta} remap units box"
if "${dir} == 2" then    "change_box all y delta 0 ${delta} remap units box"
change_box all y delta 0 ${delta} remap units box
change_box all y delta 0 4.04999996753359e-06 remap units box
  triclinic box = (-0.00553514 -0.00553514 -0.00553514) to (4.04446 4.04447 4.04446) with tilt (0 0 0)
if "${dir} == 3" then    "change_box all z delta 0 ${delta} remap units box"
if "${dir} == 4" then    "change_box all yz delta ${delta} remap units box"
if "${dir} == 5" then    "change_box all xz delta ${delta} remap units box"
if "${dir} == 6" then    "change_box all xy delta ${delta} remap units box"

# Relax atoms positions

minimize ${etol} ${ftol} ${maxiter} ${maxeval}
minimize 0 ${ftol} ${maxiter} ${maxeval}
minimize 0 1e-10 ${maxiter} ${maxeval}
minimize 0 1e-10 1000 ${maxeval}
minimize 0 1e-10 1000 10000
Neighbor list info ...
  1 neighbor list requests
  update every 1 steps, delay 0 steps, check yes
  max neighbors/atom: 2000, page size: 100000
  master list distance cutoff = 7.72488
  ghost atom cutoff = 7.72488
Memory usage per processor = 3.31879 Mbytes
Step Temp Press CPU Pxx Pyy Pzz Pxy Pxz Pyz KinEng PotEng TotEng Volume Lx Ly Lz Atoms 
       8            0  -0.79016372            0  -0.60117055   -1.1681501  -0.60117055 -3.2205112e-11 6.2757608e-13 7.4890745e-12            0       -13.44       -13.44     66.43019         4.05     4.050004         4.05        4 
       9            0  -0.79016372 6.9141388e-05  -0.60117055   -1.1681501  -0.60117055 -3.5981028e-11 2.991446e-12 -2.8868499e-12            0       -13.44       -13.44     66.43019         4.05     4.050004         4.05        4 
Loop time of 8.32081e-05 on 1 procs for 1 steps with 4 atoms

0.0% CPU use with 1 MPI tasks x no OpenMP threads

Minimization stats:
  Stopping criterion = quadratic factors are zero
  Energy initial, next-to-last, final = 
        -13.4400000916     -13.4400000916     -13.4400000916
  Force two-norm initial, final = 3.10332e-15 3.2015e-15
  Force max component initial, final = 1.70697e-15 1.84575e-15
  Final line search alpha, max atom move = 1 1.84575e-15
  Iterations, force evaluations = 1 2

MPI task timing breakdown:
Section |  min time  |  avg time  |  max time  |%varavg| %total
---------------------------------------------------------------
Pair    | 5.5313e-05 | 5.5313e-05 | 5.5313e-05 |   0.0 | 66.48
Neigh   | 0          | 0          | 0          |   0.0 |  0.00
Comm    | 5.722e-06  | 5.722e-06  | 5.722e-06  |   0.0 |  6.88
Output  | 0          | 0          | 0          |   0.0 |  0.00
Modify  | 0          | 0          | 0          |   0.0 |  0.00
Other   |            | 2.217e-05  |            |       | 26.65

Nlocal:    4 ave 4 max 4 min
Histogram: 1 0 0 0 0 0 0 0 0 0
Nghost:    360 ave 360 max 360 min
Histogram: 1 0 0 0 0 0 0 0 0 0
Neighs:    268 ave 268 max 268 min
Histogram: 1 0 0 0 0 0 0 0 0 0

Total # of neighbors = 268
Ave neighs/atom = 67
Neighbor list builds = 0
Dangerous builds = 0

# Obtain new stress tensor

variable tmp equal pe
variable e1 equal ${tmp}
variable e1 equal -13.4400000915966
variable tmp equal press
variable p1 equal ${tmp}
variable p1 equal -0.790163719770455
variable tmp equal pxx
variable pxx1 equal ${tmp}
variable pxx1 equal -0.60117055384501
variable tmp equal pyy
variable pyy1 equal ${tmp}
variable pyy1 equal -1.16815005169465
variable tmp equal pzz
variable pzz1 equal ${tmp}
variable pzz1 equal -0.601170553771709
variable tmp equal pxy
variable pxy1 equal ${tmp}
variable pxy1 equal -3.59810283099422e-11
variable tmp equal pxz
variable pxz1 equal ${tmp}
variable pxz1 equal 2.99144595832659e-12
variable tmp equal pyz
variable pyz1 equal ${tmp}
variable pyz1 equal -2.88684994579769e-12

# Compute elastic constant from pressure tensor

variable C1pos equal ${d1}
variable C1pos equal 60.1170552929752
variable C2pos equal ${d2}
variable C2pos equal 116.815005086395
variable C3pos equal ${d3}
variable C3pos equal 60.1170552834528
variable C4pos equal ${d4}
variable C4pos equal 3.72361888279701e-10
variable C5pos equal ${d5}
variable C5pos equal -3.91189178902584e-10
variable C6pos equal ${d6}
variable C6pos equal 3.81461679344279e-09

# Combine positive and negative

variable C1${dir} equal 0.5*(${C1neg}+${C1pos})
variable C12 equal 0.5*(${C1neg}+${C1pos})
variable C12 equal 0.5*(60.1173936473826+${C1pos})
variable C12 equal 0.5*(60.1173936473826+60.1170552929752)
variable C2${dir} equal 0.5*(${C2neg}+${C2pos})
variable C22 equal 0.5*(${C2neg}+${C2pos})
variable C22 equal 0.5*(116.815949909052+${C2pos})
variable C22 equal 0.5*(116.815949909052+116.815005086395)
variable C3${dir} equal 0.5*(${C3neg}+${C3pos})
variable C32 equal 0.5*(${C3neg}+${C3pos})
variable C32 equal 0.5*(60.117393644343+${C3pos})
variable C32 equal 0.5*(60.117393644343+60.1170552834528)
variable C4${dir} equal 0.5*(${C4neg}+${C4pos})
variable C42 equal 0.5*(${C4neg}+${C4pos})
variable C42 equal 0.5*(-3.97465558863339e-10+${C4pos})
variable C42 equal 0.5*(-3.97465558863339e-10+3.72361888279701e-10)
variable C5${dir} equal 0.5*(${C5neg}+${C5pos})
variable C52 equal 0.5*(${C5neg}+${C5pos})
variable C52 equal 0.5*(9.39273979011128e-10+${C5pos})
variable C52 equal 0.5*(9.39273979011128e-10+-3.91189178902584e-10)
variable C6${dir} equal 0.5*(${C6neg}+${C6pos})
variable C62 equal 0.5*(${C6neg}+${C6pos})
variable C62 equal 0.5*(-6.9033289821771e-11+${C6pos})
variable C62 equal 0.5*(-6.9033289821771e-11+3.81461679344279e-09)

# Delete dir to make sure it is not reused

variable dir delete

# uzz Perturbation

variable dir equal 3
include /users/knc6/displace.mod
# NOTE: This script should not need to be
# modified. See in.elastic for more info.
#
# Find which reference length to use

if "${dir} == 1" then    "variable len0 equal ${lx0}"
if "${dir} == 2" then    "variable len0 equal ${ly0}"
if "${dir} == 3" then    "variable len0 equal ${lz0}"
variable len0 equal ${lz0}
variable len0 equal 4.04999996753359
if "${dir} == 4" then    "variable len0 equal ${lz0}"
if "${dir} == 5" then    "variable len0 equal ${lz0}"
if "${dir} == 6" then    "variable len0 equal ${ly0}"

# Reset box and simulation parameters

clear
box tilt large
read_restart restart.equil
  triclinic box = (-0.00553514 -0.00553514 -0.00553514) to (4.04446 4.04446 4.04446) with tilt (0 0 0)
  1 by 1 by 1 MPI processor grid
  4 atoms
include potential.mod
pair_style eam/alloy
pair_coeff * * /users/knc6/Software/jarvis/jarvis/lammps/examples/Al03.eam.alloy  Al
neighbor 1.0 nsq
neigh_modify once no every 1 delay 0 check yes
min_style  cg
min_modify           dmax ${dmax} line quadratic
min_modify           dmax 0.01 line quadratic
thermo          1
thermo_style custom step temp press cpu pxx pyy pzz pxy pxz pyz ke pe etotal vol lx ly lz atoms
thermo_modify norm no
# Negative deformation

variable delta equal -${up}*${len0}
variable delta equal -1e-06*${len0}
variable delta equal -1e-06*4.04999996753359
if "${dir} == 1" then    "change_box all x delta 0 ${delta} remap units box"
if "${dir} == 2" then    "change_box all y delta 0 ${delta} remap units box"
if "${dir} == 3" then    "change_box all z delta 0 ${delta} remap units box"
change_box all z delta 0 ${delta} remap units box
change_box all z delta 0 -4.04999996753359e-06 remap units box
  triclinic box = (-0.00553514 -0.00553514 -0.00553514) to (4.04446 4.04446 4.04446) with tilt (0 0 0)
if "${dir} == 4" then    "change_box all yz delta ${delta} remap units box"
if "${dir} == 5" then    "change_box all xz delta ${delta} remap units box"
if "${dir} == 6" then    "change_box all xy delta ${delta} remap units box"

# Relax atoms positions

minimize ${etol} ${ftol} ${maxiter} ${maxeval}
minimize 0 ${ftol} ${maxiter} ${maxeval}
minimize 0 1e-10 ${maxiter} ${maxeval}
minimize 0 1e-10 1000 ${maxeval}
minimize 0 1e-10 1000 10000
Neighbor list info ...
  1 neighbor list requests
  update every 1 steps, delay 0 steps, check yes
  max neighbors/atom: 2000, page size: 100000
  master list distance cutoff = 7.72488
  ghost atom cutoff = 7.72488
Memory usage per processor = 3.31879 Mbytes
Step Temp Press CPU Pxx Pyy Pzz Pxy Pxz Pyz KinEng PotEng TotEng Volume Lx Ly Lz Atoms 
       8            0   0.79016912            0   0.60117394   0.60117394    1.1681595 -6.3803695e-13 4.1838489e-14 4.3512028e-12            0       -13.44       -13.44    66.430057         4.05         4.05    4.0499959        4 
       9            0   0.79016912 7.0810318e-05   0.60117394   0.60117394    1.1681595 2.9778544e-11 -7.9493129e-13 3.238299e-11            0       -13.44       -13.44    66.430057         4.05         4.05    4.0499959        4 
Loop time of 8.39233e-05 on 1 procs for 1 steps with 4 atoms

0.0% CPU use with 1 MPI tasks x no OpenMP threads

Minimization stats:
  Stopping criterion = force tolerance
  Energy initial, next-to-last, final = 
        -13.4400000916     -13.4400000916     -13.4400000916
  Force two-norm initial, final = 4.07498e-15 2.07057e-15
  Force max component initial, final = 2.68535e-15 1.41206e-15
  Final line search alpha, max atom move = 1 1.41206e-15
  Iterations, force evaluations = 1 2

MPI task timing breakdown:
Section |  min time  |  avg time  |  max time  |%varavg| %total
---------------------------------------------------------------
Pair    | 5.6744e-05 | 5.6744e-05 | 5.6744e-05 |   0.0 | 67.61
Neigh   | 0          | 0          | 0          |   0.0 |  0.00
Comm    | 7.391e-06  | 7.391e-06  | 7.391e-06  |   0.0 |  8.81
Output  | 0          | 0          | 0          |   0.0 |  0.00
Modify  | 0          | 0          | 0          |   0.0 |  0.00
Other   |            | 1.979e-05  |            |       | 23.58

Nlocal:    4 ave 4 max 4 min
Histogram: 1 0 0 0 0 0 0 0 0 0
Nghost:    360 ave 360 max 360 min
Histogram: 1 0 0 0 0 0 0 0 0 0
Neighs:    268 ave 268 max 268 min
Histogram: 1 0 0 0 0 0 0 0 0 0

Total # of neighbors = 268
Ave neighs/atom = 67
Neighbor list builds = 0
Dangerous builds = 0

# Obtain new stress tensor

variable tmp equal pxx
variable pxx1 equal ${tmp}
variable pxx1 equal 0.601173935485371
variable tmp equal pyy
variable pyy1 equal ${tmp}
variable pyy1 equal 0.601173935437654
variable tmp equal pzz
variable pzz1 equal ${tmp}
variable pzz1 equal 1.16815949826568
variable tmp equal pxy
variable pxy1 equal ${tmp}
variable pxy1 equal 2.97785443240075e-11
variable tmp equal pxz
variable pxz1 equal ${tmp}
variable pxz1 equal -7.94931285080634e-13
variable tmp equal pyz
variable pyz1 equal ${tmp}
variable pyz1 equal 3.23829902448637e-11

# Compute elastic constant from pressure tensor

variable C1neg equal ${d1}
variable C1neg equal 60.1173936400629
variable C2neg equal ${d2}
variable C2neg equal 60.1173936268356
variable C3neg equal ${d3}
variable C3neg equal 116.815949920286
variable C4neg equal ${d4}
variable C4neg equal 3.15462213078644e-09
variable C5neg equal ${d5}
variable C5neg equal 1.25514545618613e-11
variable C6neg equal ${d6}
variable C6neg equal 2.76134046995218e-09

# Reset box and simulation parameters

clear
box tilt large
read_restart restart.equil
  triclinic box = (-0.00553514 -0.00553514 -0.00553514) to (4.04446 4.04446 4.04446) with tilt (0 0 0)
  1 by 1 by 1 MPI processor grid
  4 atoms
include potential.mod
pair_style eam/alloy
pair_coeff * * /users/knc6/Software/jarvis/jarvis/lammps/examples/Al03.eam.alloy  Al
neighbor 1.0 nsq
neigh_modify once no every 1 delay 0 check yes
min_style  cg
min_modify           dmax ${dmax} line quadratic
min_modify           dmax 0.01 line quadratic
thermo          1
thermo_style custom step temp press cpu pxx pyy pzz pxy pxz pyz ke pe etotal vol lx ly lz atoms
thermo_modify norm no

# Positive deformation

variable delta equal ${up}*${len0}
variable delta equal 1e-06*${len0}
variable delta equal 1e-06*4.04999996753359
if "${dir} == 1" then    "change_box all x delta 0 ${delta} remap units box"
if "${dir} == 2" then    "change_box all y delta 0 ${delta} remap units box"
if "${dir} == 3" then    "change_box all z delta 0 ${delta} remap units box"
change_box all z delta 0 ${delta} remap units box
change_box all z delta 0 4.04999996753359e-06 remap units box
  triclinic box = (-0.00553514 -0.00553514 -0.00553514) to (4.04446 4.04446 4.04447) with tilt (0 0 0)
if "${dir} == 4" then    "change_box all yz delta ${delta} remap units box"
if "${dir} == 5" then    "change_box all xz delta ${delta} remap units box"
if "${dir} == 6" then    "change_box all xy delta ${delta} remap units box"

# Relax atoms positions

minimize ${etol} ${ftol} ${maxiter} ${maxeval}
minimize 0 ${ftol} ${maxiter} ${maxeval}
minimize 0 1e-10 ${maxiter} ${maxeval}
minimize 0 1e-10 1000 ${maxeval}
minimize 0 1e-10 1000 10000
Neighbor list info ...
  1 neighbor list requests
  update every 1 steps, delay 0 steps, check yes
  max neighbors/atom: 2000, page size: 100000
  master list distance cutoff = 7.72488
  ghost atom cutoff = 7.72488
Memory usage per processor = 3.31879 Mbytes
Step Temp Press CPU Pxx Pyy Pzz Pxy Pxz Pyz KinEng PotEng TotEng Volume Lx Ly Lz Atoms 
       8            0  -0.79016372            0  -0.60117055  -0.60117055   -1.1681501 -3.2320168e-12 -1.1359127e-11 -2.7194963e-12            0       -13.44       -13.44     66.43019         4.05         4.05     4.050004        4 
       9            0  -0.79016372 7.1048737e-05  -0.60117055  -0.60117055   -1.1681501 -5.2402602e-12 -3.9955677e-12 -2.7194963e-12            0       -13.44       -13.44     66.43019         4.05         4.05     4.050004        4 
Loop time of 8.39233e-05 on 1 procs for 1 steps with 4 atoms

0.0% CPU use with 1 MPI tasks x no OpenMP threads

Minimization stats:
  Stopping criterion = quadratic factors are zero
  Energy initial, next-to-last, final = 
        -13.4400000916     -13.4400000916     -13.4400000916
  Force two-norm initial, final = 3.31751e-15 1.5477e-16
  Force max component initial, final = 2.75474e-15 8.32667e-17
  Final line search alpha, max atom move = 1 8.32667e-17
  Iterations, force evaluations = 1 2

MPI task timing breakdown:
Section |  min time  |  avg time  |  max time  |%varavg| %total
---------------------------------------------------------------
Pair    | 5.722e-05  | 5.722e-05  | 5.722e-05  |   0.0 | 68.18
Neigh   | 0          | 0          | 0          |   0.0 |  0.00
Comm    | 5.9605e-06 | 5.9605e-06 | 5.9605e-06 |   0.0 |  7.10
Output  | 0          | 0          | 0          |   0.0 |  0.00
Modify  | 0          | 0          | 0          |   0.0 |  0.00
Other   |            | 2.074e-05  |            |       | 24.72

Nlocal:    4 ave 4 max 4 min
Histogram: 1 0 0 0 0 0 0 0 0 0
Nghost:    360 ave 360 max 360 min
Histogram: 1 0 0 0 0 0 0 0 0 0
Neighs:    268 ave 268 max 268 min
Histogram: 1 0 0 0 0 0 0 0 0 0

Total # of neighbors = 268
Ave neighs/atom = 67
Neighbor list builds = 0
Dangerous builds = 0

# Obtain new stress tensor

variable tmp equal pe
variable e1 equal ${tmp}
variable e1 equal -13.4400000915966
variable tmp equal press
variable p1 equal ${tmp}
variable p1 equal -0.790163719729882
variable tmp equal pxx
variable pxx1 equal ${tmp}
variable pxx1 equal -0.601170553903698
variable tmp equal pyy
variable pyy1 equal ${tmp}
variable pyy1 equal -0.601170553604502
variable tmp equal pzz
variable pzz1 equal ${tmp}
variable pzz1 equal -1.16815005168145
variable tmp equal pxy
variable pxy1 equal ${tmp}
variable pxy1 equal -5.24026022769798e-12
variable tmp equal pxz
variable pxz1 equal ${tmp}
variable pxz1 equal -3.99556767860405e-12
variable tmp equal pyz
variable pyz1 equal ${tmp}
variable pyz1 equal -2.71949632575145e-12

# Compute elastic constant from pressure tensor

variable C1pos equal ${d1}
variable C1pos equal 60.117055298844
variable C2pos equal ${d2}
variable C2pos equal 60.11705527738
variable C3pos equal ${d3}
variable C3pos equal 116.815005074427
variable C4pos equal ${d4}
variable C4pos equal 3.55626526275077e-10
variable C5pos equal ${d5}
variable C5pos equal 3.0751218479048e-10
variable C6pos equal ${d6}
variable C6pos equal 7.40539985218371e-10

# Combine positive and negative

variable C1${dir} equal 0.5*(${C1neg}+${C1pos})
variable C13 equal 0.5*(${C1neg}+${C1pos})
variable C13 equal 0.5*(60.1173936400629+${C1pos})
variable C13 equal 0.5*(60.1173936400629+60.117055298844)
variable C2${dir} equal 0.5*(${C2neg}+${C2pos})
variable C23 equal 0.5*(${C2neg}+${C2pos})
variable C23 equal 0.5*(60.1173936268356+${C2pos})
variable C23 equal 0.5*(60.1173936268356+60.11705527738)
variable C3${dir} equal 0.5*(${C3neg}+${C3pos})
variable C33 equal 0.5*(${C3neg}+${C3pos})
variable C33 equal 0.5*(116.815949920286+${C3pos})
variable C33 equal 0.5*(116.815949920286+116.815005074427)
variable C4${dir} equal 0.5*(${C4neg}+${C4pos})
variable C43 equal 0.5*(${C4neg}+${C4pos})
variable C43 equal 0.5*(3.15462213078644e-09+${C4pos})
variable C43 equal 0.5*(3.15462213078644e-09+3.55626526275077e-10)
variable C5${dir} equal 0.5*(${C5neg}+${C5pos})
variable C53 equal 0.5*(${C5neg}+${C5pos})
variable C53 equal 0.5*(1.25514545618613e-11+${C5pos})
variable C53 equal 0.5*(1.25514545618613e-11+3.0751218479048e-10)
variable C6${dir} equal 0.5*(${C6neg}+${C6pos})
variable C63 equal 0.5*(${C6neg}+${C6pos})
variable C63 equal 0.5*(2.76134046995218e-09+${C6pos})
variable C63 equal 0.5*(2.76134046995218e-09+7.40539985218371e-10)

# Delete dir to make sure it is not reused

variable dir delete

# uyz Perturbation

variable dir equal 4
include /users/knc6/displace.mod
# NOTE: This script should not need to be
# modified. See in.elastic for more info.
#
# Find which reference length to use

if "${dir} == 1" then    "variable len0 equal ${lx0}"
if "${dir} == 2" then    "variable len0 equal ${ly0}"
if "${dir} == 3" then    "variable len0 equal ${lz0}"
if "${dir} == 4" then    "variable len0 equal ${lz0}"
variable len0 equal ${lz0}
variable len0 equal 4.04999996753359
if "${dir} == 5" then    "variable len0 equal ${lz0}"
if "${dir} == 6" then    "variable len0 equal ${ly0}"

# Reset box and simulation parameters

clear
box tilt large
read_restart restart.equil
  triclinic box = (-0.00553514 -0.00553514 -0.00553514) to (4.04446 4.04446 4.04446) with tilt (0 0 0)
  1 by 1 by 1 MPI processor grid
  4 atoms
include potential.mod
pair_style eam/alloy
pair_coeff * * /users/knc6/Software/jarvis/jarvis/lammps/examples/Al03.eam.alloy  Al
neighbor 1.0 nsq
neigh_modify once no every 1 delay 0 check yes
min_style  cg
min_modify           dmax ${dmax} line quadratic
min_modify           dmax 0.01 line quadratic
thermo          1
thermo_style custom step temp press cpu pxx pyy pzz pxy pxz pyz ke pe etotal vol lx ly lz atoms
thermo_modify norm no
# Negative deformation

variable delta equal -${up}*${len0}
variable delta equal -1e-06*${len0}
variable delta equal -1e-06*4.04999996753359
if "${dir} == 1" then    "change_box all x delta 0 ${delta} remap units box"
if "${dir} == 2" then    "change_box all y delta 0 ${delta} remap units box"
if "${dir} == 3" then    "change_box all z delta 0 ${delta} remap units box"
if "${dir} == 4" then    "change_box all yz delta ${delta} remap units box"
change_box all yz delta ${delta} remap units box
change_box all yz delta -4.04999996753359e-06 remap units box
  triclinic box = (-0.00553514 -0.00553514 -0.00553514) to (4.04446 4.04446 4.04446) with tilt (0 0 -4.05e-06)
if "${dir} == 5" then    "change_box all xz delta ${delta} remap units box"
if "${dir} == 6" then    "change_box all xy delta ${delta} remap units box"

# Relax atoms positions

minimize ${etol} ${ftol} ${maxiter} ${maxeval}
minimize 0 ${ftol} ${maxiter} ${maxeval}
minimize 0 1e-10 ${maxiter} ${maxeval}
minimize 0 1e-10 1000 ${maxeval}
minimize 0 1e-10 1000 10000
Neighbor list info ...
  1 neighbor list requests
  update every 1 steps, delay 0 steps, check yes
  max neighbors/atom: 2000, page size: 100000
  master list distance cutoff = 7.72488
  ghost atom cutoff = 7.72488
Memory usage per processor = 3.31879 Mbytes
Step Temp Press CPU Pxx Pyy Pzz Pxy Pxz Pyz KinEng PotEng TotEng Volume Lx Ly Lz Atoms 
       8            0 7.0406223e-07            0 6.8123901e-08 8.4718709e-07 1.1968757e-06 1.4225072e-12 -7.3844859e-12   0.31659621            0       -13.44       -13.44    66.430123         4.05         4.05         4.05        4 
       9            0 7.0398968e-07 7.1048737e-05 6.8104875e-08 8.470354e-07 1.1968288e-06 2.451733e-11 5.0206136e-13   0.31659621            0       -13.44       -13.44    66.430123         4.05         4.05         4.05        4 
Loop time of 8.39233e-05 on 1 procs for 1 steps with 4 atoms

0.0% CPU use with 1 MPI tasks x no OpenMP threads

Minimization stats:
  Stopping criterion = force tolerance
  Energy initial, next-to-last, final = 
        -13.4400000916     -13.4400000916     -13.4400000916
  Force two-norm initial, final = 5.87187e-15 4.81352e-15
  Force max component initial, final = 4.77743e-15 3.25087e-15
  Final line search alpha, max atom move = 1 3.25087e-15
  Iterations, force evaluations = 1 2

MPI task timing breakdown:
Section |  min time  |  avg time  |  max time  |%varavg| %total
---------------------------------------------------------------
Pair    | 5.6982e-05 | 5.6982e-05 | 5.6982e-05 |   0.0 | 67.90
Neigh   | 0          | 0          | 0          |   0.0 |  0.00
Comm    | 7.1526e-06 | 7.1526e-06 | 7.1526e-06 |   0.0 |  8.52
Output  | 0          | 0          | 0          |   0.0 |  0.00
Modify  | 0          | 0          | 0          |   0.0 |  0.00
Other   |            | 1.979e-05  |            |       | 23.58

Nlocal:    4 ave 4 max 4 min
Histogram: 1 0 0 0 0 0 0 0 0 0
Nghost:    360 ave 360 max 360 min
Histogram: 1 0 0 0 0 0 0 0 0 0
Neighs:    268 ave 268 max 268 min
Histogram: 1 0 0 0 0 0 0 0 0 0

Total # of neighbors = 268
Ave neighs/atom = 67
Neighbor list builds = 0
Dangerous builds = 0

# Obtain new stress tensor

variable tmp equal pxx
variable pxx1 equal ${tmp}
variable pxx1 equal 6.81048748130554e-08
variable tmp equal pyy
variable pyy1 equal ${tmp}
variable pyy1 equal 8.47035401521924e-07
variable tmp equal pzz
variable pzz1 equal ${tmp}
variable pzz1 equal 1.19682876969846e-06
variable tmp equal pxy
variable pxy1 equal ${tmp}
variable pxy1 equal 2.45173298540799e-11
variable tmp equal pxz
variable pxz1 equal ${tmp}
variable pxz1 equal 5.02061362199589e-13
variable tmp equal pyz
variable pyz1 equal ${tmp}
variable pyz1 equal 0.316596214463093

# Compute elastic constant from pressure tensor

variable C1neg equal ${d1}
variable C1neg equal 6.90201326763453e-06
variable C2neg equal ${d2}
variable C2neg equal 8.4786610388413e-05
variable C3neg equal ${d3}
variable C3neg equal 0.00011977659509079
variable C4neg equal ${d4}
variable C4neg equal 31.6596214462256
variable C5neg equal ${d5}
variable C5neg equal 1.42250719289884e-10
variable C6neg equal ${d6}
variable C6neg equal 2.23521902295942e-09

# Reset box and simulation parameters

clear
box tilt large
read_restart restart.equil
  triclinic box = (-0.00553514 -0.00553514 -0.00553514) to (4.04446 4.04446 4.04446) with tilt (0 0 0)
  1 by 1 by 1 MPI processor grid
  4 atoms
include potential.mod
pair_style eam/alloy
pair_coeff * * /users/knc6/Software/jarvis/jarvis/lammps/examples/Al03.eam.alloy  Al
neighbor 1.0 nsq
neigh_modify once no every 1 delay 0 check yes
min_style  cg
min_modify           dmax ${dmax} line quadratic
min_modify           dmax 0.01 line quadratic
thermo          1
thermo_style custom step temp press cpu pxx pyy pzz pxy pxz pyz ke pe etotal vol lx ly lz atoms
thermo_modify norm no

# Positive deformation

variable delta equal ${up}*${len0}
variable delta equal 1e-06*${len0}
variable delta equal 1e-06*4.04999996753359
if "${dir} == 1" then    "change_box all x delta 0 ${delta} remap units box"
if "${dir} == 2" then    "change_box all y delta 0 ${delta} remap units box"
if "${dir} == 3" then    "change_box all z delta 0 ${delta} remap units box"
if "${dir} == 4" then    "change_box all yz delta ${delta} remap units box"
change_box all yz delta ${delta} remap units box
change_box all yz delta 4.04999996753359e-06 remap units box
  triclinic box = (-0.00553514 -0.00553514 -0.00553514) to (4.04446 4.04446 4.04446) with tilt (0 0 4.05e-06)
if "${dir} == 5" then    "change_box all xz delta ${delta} remap units box"
if "${dir} == 6" then    "change_box all xy delta ${delta} remap units box"

# Relax atoms positions

minimize ${etol} ${ftol} ${maxiter} ${maxeval}
minimize 0 ${ftol} ${maxiter} ${maxeval}
minimize 0 1e-10 ${maxiter} ${maxeval}
minimize 0 1e-10 1000 ${maxeval}
minimize 0 1e-10 1000 10000
Neighbor list info ...
  1 neighbor list requests
  update every 1 steps, delay 0 steps, check yes
  max neighbors/atom: 2000, page size: 100000
  master list distance cutoff = 7.72488
  ghost atom cutoff = 7.72488
Memory usage per processor = 3.31879 Mbytes
Step Temp Press CPU Pxx Pyy Pzz Pxy Pxz Pyz KinEng PotEng TotEng Volume Lx Ly Lz Atoms 
       8            0 7.040422e-07            0 6.8110596e-08 8.4716615e-07 1.1968499e-06 -6.4535804e-12 -7.1543744e-12  -0.31659621            0       -13.44       -13.44    66.430123         4.05         4.05         4.05        4 
       9            0 7.0397065e-07 6.9856644e-05 6.810523e-08 8.4699704e-07 1.1968097e-06  2.15468e-11 6.7359899e-12  -0.31659621            0       -13.44       -13.44    66.430123         4.05         4.05         4.05        4 
Loop time of 8.29697e-05 on 1 procs for 1 steps with 4 atoms

0.0% CPU use with 1 MPI tasks x no OpenMP threads

Minimization stats:
  Stopping criterion = force tolerance
  Energy initial, next-to-last, final = 
        -13.4400000916     -13.4400000916     -13.4400000916
  Force two-norm initial, final = 5.60693e-15 5.68933e-15
  Force max component initial, final = 3.94823e-15 4.2813e-15
  Final line search alpha, max atom move = 1 4.2813e-15
  Iterations, force evaluations = 1 2

MPI task timing breakdown:
Section |  min time  |  avg time  |  max time  |%varavg| %total
---------------------------------------------------------------
Pair    | 5.6744e-05 | 5.6744e-05 | 5.6744e-05 |   0.0 | 68.39
Neigh   | 0          | 0          | 0          |   0.0 |  0.00
Comm    | 5.4836e-06 | 5.4836e-06 | 5.4836e-06 |   0.0 |  6.61
Output  | 0          | 0          | 0          |   0.0 |  0.00
Modify  | 0          | 0          | 0          |   0.0 |  0.00
Other   |            | 2.074e-05  |            |       | 25.00

Nlocal:    4 ave 4 max 4 min
Histogram: 1 0 0 0 0 0 0 0 0 0
Nghost:    360 ave 360 max 360 min
Histogram: 1 0 0 0 0 0 0 0 0 0
Neighs:    268 ave 268 max 268 min
Histogram: 1 0 0 0 0 0 0 0 0 0

Total # of neighbors = 268
Ave neighs/atom = 67
Neighbor list builds = 0
Dangerous builds = 0

# Obtain new stress tensor

variable tmp equal pe
variable e1 equal ${tmp}
variable e1 equal -13.4400000916142
variable tmp equal press
variable p1 equal ${tmp}
variable p1 equal 7.03970652490904e-07
variable tmp equal pxx
variable pxx1 equal ${tmp}
variable pxx1 equal 6.81052304398536e-08
variable tmp equal pyy
variable pyy1 equal ${tmp}
variable pyy1 equal 8.46997035666162e-07
variable tmp equal pzz
variable pzz1 equal ${tmp}
variable pzz1 equal 1.1968096913667e-06
variable tmp equal pxy
variable pxy1 equal ${tmp}
variable pxy1 equal 2.15468001277324e-11
variable tmp equal pxz
variable pxz1 equal ${tmp}
variable pxz1 equal 6.73598994284449e-12
variable tmp equal pyz
variable pyz1 equal ${tmp}
variable pyz1 equal -0.316596214426317

# Compute elastic constant from pressure tensor

variable C1pos equal ${d1}
variable C1pos equal -6.90204883031434e-06
variable C2pos equal ${d2}
variable C2pos equal -8.47827738028368e-05
variable C3pos equal ${d3}
variable C3pos equal -0.000119774687257614
variable C4pos equal ${d4}
variable C4pos equal 31.6596214427154
variable C5pos equal ${d5}
variable C5pos equal -7.65643577354374e-10
variable C6pos equal ${d6}
variable C6pos equal -1.93816605032467e-09

# Combine positive and negative

variable C1${dir} equal 0.5*(${C1neg}+${C1pos})
variable C14 equal 0.5*(${C1neg}+${C1pos})
variable C14 equal 0.5*(6.90201326763453e-06+${C1pos})
variable C14 equal 0.5*(6.90201326763453e-06+-6.90204883031434e-06)
variable C2${dir} equal 0.5*(${C2neg}+${C2pos})
variable C24 equal 0.5*(${C2neg}+${C2pos})
variable C24 equal 0.5*(8.4786610388413e-05+${C2pos})
variable C24 equal 0.5*(8.4786610388413e-05+-8.47827738028368e-05)
variable C3${dir} equal 0.5*(${C3neg}+${C3pos})
variable C34 equal 0.5*(${C3neg}+${C3pos})
variable C34 equal 0.5*(0.00011977659509079+${C3pos})
variable C34 equal 0.5*(0.00011977659509079+-0.000119774687257614)
variable C4${dir} equal 0.5*(${C4neg}+${C4pos})
variable C44 equal 0.5*(${C4neg}+${C4pos})
variable C44 equal 0.5*(31.6596214462256+${C4pos})
variable C44 equal 0.5*(31.6596214462256+31.6596214427154)
variable C5${dir} equal 0.5*(${C5neg}+${C5pos})
variable C54 equal 0.5*(${C5neg}+${C5pos})
variable C54 equal 0.5*(1.42250719289884e-10+${C5pos})
variable C54 equal 0.5*(1.42250719289884e-10+-7.65643577354374e-10)
variable C6${dir} equal 0.5*(${C6neg}+${C6pos})
variable C64 equal 0.5*(${C6neg}+${C6pos})
variable C64 equal 0.5*(2.23521902295942e-09+${C6pos})
variable C64 equal 0.5*(2.23521902295942e-09+-1.93816605032467e-09)

# Delete dir to make sure it is not reused

variable dir delete

# uxz Perturbation

variable dir equal 5
include /users/knc6/displace.mod
# NOTE: This script should not need to be
# modified. See in.elastic for more info.
#
# Find which reference length to use

if "${dir} == 1" then    "variable len0 equal ${lx0}"
if "${dir} == 2" then    "variable len0 equal ${ly0}"
if "${dir} == 3" then    "variable len0 equal ${lz0}"
if "${dir} == 4" then    "variable len0 equal ${lz0}"
if "${dir} == 5" then    "variable len0 equal ${lz0}"
variable len0 equal ${lz0}
variable len0 equal 4.04999996753359
if "${dir} == 6" then    "variable len0 equal ${ly0}"

# Reset box and simulation parameters

clear
box tilt large
read_restart restart.equil
  triclinic box = (-0.00553514 -0.00553514 -0.00553514) to (4.04446 4.04446 4.04446) with tilt (0 0 0)
  1 by 1 by 1 MPI processor grid
  4 atoms
include potential.mod
pair_style eam/alloy
pair_coeff * * /users/knc6/Software/jarvis/jarvis/lammps/examples/Al03.eam.alloy  Al
neighbor 1.0 nsq
neigh_modify once no every 1 delay 0 check yes
min_style  cg
min_modify           dmax ${dmax} line quadratic
min_modify           dmax 0.01 line quadratic
thermo          1
thermo_style custom step temp press cpu pxx pyy pzz pxy pxz pyz ke pe etotal vol lx ly lz atoms
thermo_modify norm no
# Negative deformation

variable delta equal -${up}*${len0}
variable delta equal -1e-06*${len0}
variable delta equal -1e-06*4.04999996753359
if "${dir} == 1" then    "change_box all x delta 0 ${delta} remap units box"
if "${dir} == 2" then    "change_box all y delta 0 ${delta} remap units box"
if "${dir} == 3" then    "change_box all z delta 0 ${delta} remap units box"
if "${dir} == 4" then    "change_box all yz delta ${delta} remap units box"
if "${dir} == 5" then    "change_box all xz delta ${delta} remap units box"
change_box all xz delta ${delta} remap units box
change_box all xz delta -4.04999996753359e-06 remap units box
  triclinic box = (-0.00553514 -0.00553514 -0.00553514) to (4.04446 4.04446 4.04446) with tilt (0 -4.05e-06 0)
if "${dir} == 6" then    "change_box all xy delta ${delta} remap units box"

# Relax atoms positions

minimize ${etol} ${ftol} ${maxiter} ${maxeval}
minimize 0 ${ftol} ${maxiter} ${maxeval}
minimize 0 1e-10 ${maxiter} ${maxeval}
minimize 0 1e-10 1000 ${maxeval}
minimize 0 1e-10 1000 10000
Neighbor list info ...
  1 neighbor list requests
  update every 1 steps, delay 0 steps, check yes
  max neighbors/atom: 2000, page size: 100000
  master list distance cutoff = 7.72488
  ghost atom cutoff = 7.72488
Memory usage per processor = 3.31879 Mbytes
Step Temp Press CPU Pxx Pyy Pzz Pxy Pxz Pyz KinEng PotEng TotEng Volume Lx Ly Lz Atoms 
       8            0 7.0412208e-07            0 8.4701535e-07 6.8422952e-08 1.1969279e-06 -7.3740263e-12   0.31659621 -7.0958006e-11            0       -13.44       -13.44    66.430123         4.05         4.05         4.05        4 
       9            0 7.039867e-07 7.0095062e-05 8.469648e-07 6.8183447e-08 1.1968119e-06 -1.0459612e-14   0.31659621 5.8615664e-11            0       -13.44       -13.44    66.430123         4.05         4.05         4.05        4 
Loop time of 8.32081e-05 on 1 procs for 1 steps with 4 atoms

0.0% CPU use with 1 MPI tasks x no OpenMP threads

Minimization stats:
  Stopping criterion = force tolerance
  Energy initial, next-to-last, final = 
        -13.4400000916     -13.4400000916     -13.4400000916
  Force two-norm initial, final = 5.12858e-15 5.32796e-15
  Force max component initial, final = 2.72005e-15 2.92474e-15
  Final line search alpha, max atom move = 1 2.92474e-15
  Iterations, force evaluations = 1 2

MPI task timing breakdown:
Section |  min time  |  avg time  |  max time  |%varavg| %total
---------------------------------------------------------------
Pair    | 5.6028e-05 | 5.6028e-05 | 5.6028e-05 |   0.0 | 67.34
Neigh   | 0          | 0          | 0          |   0.0 |  0.00
Comm    | 5.722e-06  | 5.722e-06  | 5.722e-06  |   0.0 |  6.88
Output  | 0          | 0          | 0          |   0.0 |  0.00
Modify  | 0          | 0          | 0          |   0.0 |  0.00
Other   |            | 2.146e-05  |            |       | 25.79

Nlocal:    4 ave 4 max 4 min
Histogram: 1 0 0 0 0 0 0 0 0 0
Nghost:    360 ave 360 max 360 min
Histogram: 1 0 0 0 0 0 0 0 0 0
Neighs:    268 ave 268 max 268 min
Histogram: 1 0 0 0 0 0 0 0 0 0

Total # of neighbors = 268
Ave neighs/atom = 67
Neighbor list builds = 0
Dangerous builds = 0

# Obtain new stress tensor

variable tmp equal pxx
variable pxx1 equal ${tmp}
variable pxx1 equal 8.46964797812949e-07
variable tmp equal pyy
variable pyy1 equal ${tmp}
variable pyy1 equal 6.81834474162396e-08
variable tmp equal pzz
variable pzz1 equal ${tmp}
variable pzz1 equal 1.19681186696593e-06
variable tmp equal pxy
variable pxy1 equal ${tmp}
variable pxy1 equal -1.04596117124914e-14
variable tmp equal pxz
variable pxz1 equal ${tmp}
variable pxz1 equal 0.316596214455102
variable tmp equal pyz
variable pyz1 equal ${tmp}
variable pyz1 equal 5.8615664036802e-11

# Compute elastic constant from pressure tensor

variable C1neg equal ${d1}
variable C1neg equal 8.47880055676239e-05
variable C2neg equal ${d2}
variable C2neg equal 6.90141497784457e-06
variable C3neg equal ${d3}
variable C3neg equal 0.000119774904817537
variable C4neg equal ${d4}
variable C4neg equal 5.77788950998027e-09
variable C5neg equal ${d5}
variable C5neg equal 31.6596214456022
variable C6neg equal ${d6}
variable C6neg equal -2.17559923619822e-10

# Reset box and simulation parameters

clear
box tilt large
read_restart restart.equil
  triclinic box = (-0.00553514 -0.00553514 -0.00553514) to (4.04446 4.04446 4.04446) with tilt (0 0 0)
  1 by 1 by 1 MPI processor grid
  4 atoms
include potential.mod
pair_style eam/alloy
pair_coeff * * /users/knc6/Software/jarvis/jarvis/lammps/examples/Al03.eam.alloy  Al
neighbor 1.0 nsq
neigh_modify once no every 1 delay 0 check yes
min_style  cg
min_modify           dmax ${dmax} line quadratic
min_modify           dmax 0.01 line quadratic
thermo          1
thermo_style custom step temp press cpu pxx pyy pzz pxy pxz pyz ke pe etotal vol lx ly lz atoms
thermo_modify norm no

# Positive deformation

variable delta equal ${up}*${len0}
variable delta equal 1e-06*${len0}
variable delta equal 1e-06*4.04999996753359
if "${dir} == 1" then    "change_box all x delta 0 ${delta} remap units box"
if "${dir} == 2" then    "change_box all y delta 0 ${delta} remap units box"
if "${dir} == 3" then    "change_box all z delta 0 ${delta} remap units box"
if "${dir} == 4" then    "change_box all yz delta ${delta} remap units box"
if "${dir} == 5" then    "change_box all xz delta ${delta} remap units box"
change_box all xz delta ${delta} remap units box
change_box all xz delta 4.04999996753359e-06 remap units box
  triclinic box = (-0.00553514 -0.00553514 -0.00553514) to (4.04446 4.04446 4.04446) with tilt (0 4.05e-06 0)
if "${dir} == 6" then    "change_box all xy delta ${delta} remap units box"

# Relax atoms positions

minimize ${etol} ${ftol} ${maxiter} ${maxeval}
minimize 0 ${ftol} ${maxiter} ${maxeval}
minimize 0 1e-10 ${maxiter} ${maxeval}
minimize 0 1e-10 1000 ${maxeval}
minimize 0 1e-10 1000 10000
Neighbor list info ...
  1 neighbor list requests
  update every 1 steps, delay 0 steps, check yes
  max neighbors/atom: 2000, page size: 100000
  master list distance cutoff = 7.72488
  ghost atom cutoff = 7.72488
Memory usage per processor = 3.31879 Mbytes
Step Temp Press CPU Pxx Pyy Pzz Pxy Pxz Pyz KinEng PotEng TotEng Volume Lx Ly Lz Atoms 
       8            0 7.0414185e-07            0 8.4704608e-07 6.8407869e-08 1.1969716e-06 7.3112686e-12  -0.31659621 -7.1543744e-11            0       -13.44       -13.44    66.430123         4.05         4.05         4.05        4 
       9            0 7.0389768e-07 6.9856644e-05 8.4682534e-07 6.804287e-08 1.1968248e-06 2.7435562e-11  -0.31659621 5.3427697e-11            0       -13.44       -13.44    66.430123         4.05         4.05         4.05        4 
Loop time of 8.29697e-05 on 1 procs for 1 steps with 4 atoms

0.0% CPU use with 1 MPI tasks x no OpenMP threads

Minimization stats:
  Stopping criterion = force tolerance
  Energy initial, next-to-last, final = 
        -13.4400000916     -13.4400000916     -13.4400000916
  Force two-norm initial, final = 8.58085e-15 6.43192e-15
  Force max component initial, final = 4.91274e-15 3.55271e-15
  Final line search alpha, max atom move = 1 3.55271e-15
  Iterations, force evaluations = 1 2

MPI task timing breakdown:
Section |  min time  |  avg time  |  max time  |%varavg| %total
---------------------------------------------------------------
Pair    | 5.6028e-05 | 5.6028e-05 | 5.6028e-05 |   0.0 | 67.53
Neigh   | 0          | 0          | 0          |   0.0 |  0.00
Comm    | 5.9605e-06 | 5.9605e-06 | 5.9605e-06 |   0.0 |  7.18
Output  | 0          | 0          | 0          |   0.0 |  0.00
Modify  | 0          | 0          | 0          |   0.0 |  0.00
Other   |            | 2.098e-05  |            |       | 25.29

Nlocal:    4 ave 4 max 4 min
Histogram: 1 0 0 0 0 0 0 0 0 0
Nghost:    360 ave 360 max 360 min
Histogram: 1 0 0 0 0 0 0 0 0 0
Neighs:    268 ave 268 max 268 min
Histogram: 1 0 0 0 0 0 0 0 0 0

Total # of neighbors = 268
Ave neighs/atom = 67
Neighbor list builds = 0
Dangerous builds = 0

# Obtain new stress tensor

variable tmp equal pe
variable e1 equal ${tmp}
variable e1 equal -13.4400000916142
variable tmp equal press
variable p1 equal ${tmp}
variable p1 equal 7.03897682305087e-07
variable tmp equal pxx
variable pxx1 equal ${tmp}
variable pxx1 equal 8.46825339795981e-07
variable tmp equal pyy
variable pyy1 equal ${tmp}
variable pyy1 equal 6.80428702348237e-08
variable tmp equal pzz
variable pzz1 equal ${tmp}
variable pzz1 equal 1.19682483688446e-06
variable tmp equal pxy
variable pxy1 equal ${tmp}
variable pxy1 equal 2.7435561521865e-11
variable tmp equal pxz
variable pxz1 equal ${tmp}
variable pxz1 equal -0.3165962144282
variable tmp equal pyz
variable pyz1 equal ${tmp}
variable pyz1 equal 5.34276966274063e-11

# Compute elastic constant from pressure tensor

variable C1pos equal ${d1}
variable C1pos equal -8.47740597659271e-05
variable C2pos equal ${d2}
variable C2pos equal -6.88735725970298e-06
variable C3pos equal ${d3}
variable C3pos equal -0.00011977620180939
variable C4pos equal ${d4}
variable C4pos equal -5.2590927690407e-09
variable C5pos equal ${d5}
variable C5pos equal 31.659621442728
variable C6pos equal ${d6}
variable C6pos equal -2.52704218973793e-09

# Combine positive and negative

variable C1${dir} equal 0.5*(${C1neg}+${C1pos})
variable C15 equal 0.5*(${C1neg}+${C1pos})
variable C15 equal 0.5*(8.47880055676239e-05+${C1pos})
variable C15 equal 0.5*(8.47880055676239e-05+-8.47740597659271e-05)
variable C2${dir} equal 0.5*(${C2neg}+${C2pos})
variable C25 equal 0.5*(${C2neg}+${C2pos})
variable C25 equal 0.5*(6.90141497784457e-06+${C2pos})
variable C25 equal 0.5*(6.90141497784457e-06+-6.88735725970298e-06)
variable C3${dir} equal 0.5*(${C3neg}+${C3pos})
variable C35 equal 0.5*(${C3neg}+${C3pos})
variable C35 equal 0.5*(0.000119774904817537+${C3pos})
variable C35 equal 0.5*(0.000119774904817537+-0.00011977620180939)
variable C4${dir} equal 0.5*(${C4neg}+${C4pos})
variable C45 equal 0.5*(${C4neg}+${C4pos})
variable C45 equal 0.5*(5.77788950998027e-09+${C4pos})
variable C45 equal 0.5*(5.77788950998027e-09+-5.2590927690407e-09)
variable C5${dir} equal 0.5*(${C5neg}+${C5pos})
variable C55 equal 0.5*(${C5neg}+${C5pos})
variable C55 equal 0.5*(31.6596214456022+${C5pos})
variable C55 equal 0.5*(31.6596214456022+31.659621442728)
variable C6${dir} equal 0.5*(${C6neg}+${C6pos})
variable C65 equal 0.5*(${C6neg}+${C6pos})
variable C65 equal 0.5*(-2.17559923619822e-10+${C6pos})
variable C65 equal 0.5*(-2.17559923619822e-10+-2.52704218973793e-09)

# Delete dir to make sure it is not reused

variable dir delete

# uxy Perturbation

variable dir equal 6
include /users/knc6/displace.mod
# NOTE: This script should not need to be
# modified. See in.elastic for more info.
#
# Find which reference length to use

if "${dir} == 1" then    "variable len0 equal ${lx0}"
if "${dir} == 2" then    "variable len0 equal ${ly0}"
if "${dir} == 3" then    "variable len0 equal ${lz0}"
if "${dir} == 4" then    "variable len0 equal ${lz0}"
if "${dir} == 5" then    "variable len0 equal ${lz0}"
if "${dir} == 6" then    "variable len0 equal ${ly0}"
variable len0 equal ${ly0}
variable len0 equal 4.04999996753359

# Reset box and simulation parameters

clear
box tilt large
read_restart restart.equil
  triclinic box = (-0.00553514 -0.00553514 -0.00553514) to (4.04446 4.04446 4.04446) with tilt (0 0 0)
  1 by 1 by 1 MPI processor grid
  4 atoms
include potential.mod
pair_style eam/alloy
pair_coeff * * /users/knc6/Software/jarvis/jarvis/lammps/examples/Al03.eam.alloy  Al
neighbor 1.0 nsq
neigh_modify once no every 1 delay 0 check yes
min_style  cg
min_modify           dmax ${dmax} line quadratic
min_modify           dmax 0.01 line quadratic
thermo          1
thermo_style custom step temp press cpu pxx pyy pzz pxy pxz pyz ke pe etotal vol lx ly lz atoms
thermo_modify norm no
# Negative deformation

variable delta equal -${up}*${len0}
variable delta equal -1e-06*${len0}
variable delta equal -1e-06*4.04999996753359
if "${dir} == 1" then    "change_box all x delta 0 ${delta} remap units box"
if "${dir} == 2" then    "change_box all y delta 0 ${delta} remap units box"
if "${dir} == 3" then    "change_box all z delta 0 ${delta} remap units box"
if "${dir} == 4" then    "change_box all yz delta ${delta} remap units box"
if "${dir} == 5" then    "change_box all xz delta ${delta} remap units box"
if "${dir} == 6" then    "change_box all xy delta ${delta} remap units box"
change_box all xy delta ${delta} remap units box
change_box all xy delta -4.04999996753359e-06 remap units box
  triclinic box = (-0.00553514 -0.00553514 -0.00553514) to (4.04446 4.04446 4.04446) with tilt (-4.05e-06 0 0)

# Relax atoms positions

minimize ${etol} ${ftol} ${maxiter} ${maxeval}
minimize 0 ${ftol} ${maxiter} ${maxeval}
minimize 0 1e-10 ${maxiter} ${maxeval}
minimize 0 1e-10 1000 ${maxeval}
minimize 0 1e-10 1000 10000
Neighbor list info ...
  1 neighbor list requests
  update every 1 steps, delay 0 steps, check yes
  max neighbors/atom: 2000, page size: 100000
  master list distance cutoff = 7.72488
  ghost atom cutoff = 7.72488
Memory usage per processor = 3.31879 Mbytes
Step Temp Press CPU Pxx Pyy Pzz Pxy Pxz Pyz KinEng PotEng TotEng Volume Lx Ly Lz Atoms 
       8            0 7.0409011e-07            0 8.4698298e-07 1.197002e-06 6.8285366e-08   0.31659621 3.5144295e-12 -5.2967474e-11            0       -13.44       -13.44    66.430123         4.05         4.05         4.05        4 
       9            0 7.0383254e-07 7.1048737e-05 8.4682441e-07 1.1965809e-06 6.8092323e-08   0.31659621 3.8700563e-12 1.1965796e-11            0       -13.44       -13.44    66.430123         4.05         4.05         4.05        4 
Loop time of 8.39233e-05 on 1 procs for 1 steps with 4 atoms

0.0% CPU use with 1 MPI tasks x no OpenMP threads

Minimization stats:
  Stopping criterion = force tolerance
  Energy initial, next-to-last, final = 
        -13.4400000916     -13.4400000916     -13.4400000916
  Force two-norm initial, final = 5.41178e-15 4.6426e-15
  Force max component initial, final = 3.19883e-15 3.57006e-15
  Final line search alpha, max atom move = 1 3.57006e-15
  Iterations, force evaluations = 1 2

MPI task timing breakdown:
Section |  min time  |  avg time  |  max time  |%varavg| %total
---------------------------------------------------------------
Pair    | 5.6982e-05 | 5.6982e-05 | 5.6982e-05 |   0.0 | 67.90
Neigh   | 0          | 0          | 0          |   0.0 |  0.00
Comm    | 5.9605e-06 | 5.9605e-06 | 5.9605e-06 |   0.0 |  7.10
Output  | 0          | 0          | 0          |   0.0 |  0.00
Modify  | 0          | 0          | 0          |   0.0 |  0.00
Other   |            | 2.098e-05  |            |       | 25.00

Nlocal:    4 ave 4 max 4 min
Histogram: 1 0 0 0 0 0 0 0 0 0
Nghost:    360 ave 360 max 360 min
Histogram: 1 0 0 0 0 0 0 0 0 0
Neighs:    268 ave 268 max 268 min
Histogram: 1 0 0 0 0 0 0 0 0 0

Total # of neighbors = 268
Ave neighs/atom = 67
Neighbor list builds = 0
Dangerous builds = 0

# Obtain new stress tensor

variable tmp equal pxx
variable pxx1 equal ${tmp}
variable pxx1 equal 8.46824408835756e-07
variable tmp equal pyy
variable pyy1 equal ${tmp}
variable pyy1 equal 1.19658087690087e-06
variable tmp equal pzz
variable pzz1 equal ${tmp}
variable pzz1 equal 6.80923232790004e-08
variable tmp equal pxy
variable pxy1 equal ${tmp}
variable pxy1 equal 0.316596214477768
variable tmp equal pxz
variable pxz1 equal ${tmp}
variable pxz1 equal 3.87005633362183e-12
variable tmp equal pyz
variable pyz1 equal ${tmp}
variable pyz1 equal 1.19657957990902e-11

# Compute elastic constant from pressure tensor

variable C1neg equal ${d1}
variable C1neg equal 8.47739666699046e-05
variable C2neg equal ${d2}
variable C2neg equal 0.000119741157926308
variable C3neg equal ${d3}
variable C3neg equal 6.90295044884396e-06
variable C4neg equal ${d4}
variable C4neg equal 1.11290268620909e-09
variable C5neg equal ${d5}
variable C5neg equal 4.79050216432108e-10
variable C6neg equal ${d6}
variable C6neg equal 31.6596214475603

# Reset box and simulation parameters

clear
box tilt large
read_restart restart.equil
  triclinic box = (-0.00553514 -0.00553514 -0.00553514) to (4.04446 4.04446 4.04446) with tilt (0 0 0)
  1 by 1 by 1 MPI processor grid
  4 atoms
include potential.mod
pair_style eam/alloy
pair_coeff * * /users/knc6/Software/jarvis/jarvis/lammps/examples/Al03.eam.alloy  Al
neighbor 1.0 nsq
neigh_modify once no every 1 delay 0 check yes
min_style  cg
min_modify           dmax ${dmax} line quadratic
min_modify           dmax 0.01 line quadratic
thermo          1
thermo_style custom step temp press cpu pxx pyy pzz pxy pxz pyz ke pe etotal vol lx ly lz atoms
thermo_modify norm no

# Positive deformation

variable delta equal ${up}*${len0}
variable delta equal 1e-06*${len0}
variable delta equal 1e-06*4.04999996753359
if "${dir} == 1" then    "change_box all x delta 0 ${delta} remap units box"
if "${dir} == 2" then    "change_box all y delta 0 ${delta} remap units box"
if "${dir} == 3" then    "change_box all z delta 0 ${delta} remap units box"
if "${dir} == 4" then    "change_box all yz delta ${delta} remap units box"
if "${dir} == 5" then    "change_box all xz delta ${delta} remap units box"
if "${dir} == 6" then    "change_box all xy delta ${delta} remap units box"
change_box all xy delta ${delta} remap units box
change_box all xy delta 4.04999996753359e-06 remap units box
  triclinic box = (-0.00553514 -0.00553514 -0.00553514) to (4.04446 4.04446 4.04446) with tilt (4.05e-06 0 0)

# Relax atoms positions

minimize ${etol} ${ftol} ${maxiter} ${maxeval}
minimize 0 ${ftol} ${maxiter} ${maxeval}
minimize 0 1e-10 ${maxiter} ${maxeval}
minimize 0 1e-10 1000 ${maxeval}
minimize 0 1e-10 1000 10000
Neighbor list info ...
  1 neighbor list requests
  update every 1 steps, delay 0 steps, check yes
  max neighbors/atom: 2000, page size: 100000
  master list distance cutoff = 7.72488
  ghost atom cutoff = 7.72488
Memory usage per processor = 3.31879 Mbytes
Step Temp Press CPU Pxx Pyy Pzz Pxy Pxz Pyz KinEng PotEng TotEng Volume Lx Ly Lz Atoms 
       8            0 7.0416451e-07            0 8.4710809e-07 1.1970258e-06 6.8359671e-08  -0.31659621 -2.719499e-12 -7.7359288e-11            0       -13.44       -13.44    66.430123         4.05         4.05         4.05        4 
       9            0 7.038596e-07 7.1048737e-05 8.4678263e-07 1.1967323e-06 6.8063873e-08  -0.31659621 1.1066269e-11 5.9034049e-11            0       -13.44       -13.44    66.430123         4.05         4.05         4.05        4 
Loop time of 8.39233e-05 on 1 procs for 1 steps with 4 atoms

0.0% CPU use with 1 MPI tasks x no OpenMP threads

Minimization stats:
  Stopping criterion = force tolerance
  Energy initial, next-to-last, final = 
        -13.4400000916     -13.4400000916     -13.4400000916
  Force two-norm initial, final = 8.26273e-15 7.51318e-15
  Force max component initial, final = 4.93008e-15 3.37577e-15
  Final line search alpha, max atom move = 1 3.37577e-15
  Iterations, force evaluations = 1 2

MPI task timing breakdown:
Section |  min time  |  avg time  |  max time  |%varavg| %total
---------------------------------------------------------------
Pair    | 5.722e-05  | 5.722e-05  | 5.722e-05  |   0.0 | 68.18
Neigh   | 0          | 0          | 0          |   0.0 |  0.00
Comm    | 6.9141e-06 | 6.9141e-06 | 6.9141e-06 |   0.0 |  8.24
Output  | 0          | 0          | 0          |   0.0 |  0.00
Modify  | 0          | 0          | 0          |   0.0 |  0.00
Other   |            | 1.979e-05  |            |       | 23.58

Nlocal:    4 ave 4 max 4 min
Histogram: 1 0 0 0 0 0 0 0 0 0
Nghost:    360 ave 360 max 360 min
Histogram: 1 0 0 0 0 0 0 0 0 0
Neighs:    268 ave 268 max 268 min
Histogram: 1 0 0 0 0 0 0 0 0 0

Total # of neighbors = 268
Ave neighs/atom = 67
Neighbor list builds = 0
Dangerous builds = 0

# Obtain new stress tensor

variable tmp equal pe
variable e1 equal ${tmp}
variable e1 equal -13.4400000916142
variable tmp equal press
variable p1 equal ${tmp}
variable p1 equal 7.03859598431856e-07
variable tmp equal pxx
variable pxx1 equal ${tmp}
variable pxx1 equal 8.46782631920402e-07
variable tmp equal pyy
variable pyy1 equal ${tmp}
variable pyy1 equal 1.19673229024002e-06
variable tmp equal pzz
variable pzz1 equal ${tmp}
variable pzz1 equal 6.80638731351424e-08
variable tmp equal pxy
variable pxy1 equal ${tmp}
variable pxy1 equal -0.316596214486041
variable tmp equal pxz
variable pxz1 equal ${tmp}
variable pxz1 equal 1.10662691918159e-11
variable tmp equal pyz
variable pyz1 equal ${tmp}
variable pyz1 equal 5.90340485053017e-11

# Compute elastic constant from pressure tensor

variable C1pos equal ${d1}
variable C1pos equal -8.47697889783692e-05
variable C2pos equal ${d2}
variable C2pos equal -0.000119756299260223
variable C3pos equal ${d3}
variable C3pos equal -6.90010543445816e-06
variable C4pos equal ${d4}
variable C4pos equal -5.81972795683024e-09
variable C5pos equal ${d5}
variable C5pos equal -1.19867150225151e-09
variable C6pos equal ${d6}
variable C6pos equal 31.6596214488206

# Combine positive and negative

variable C1${dir} equal 0.5*(${C1neg}+${C1pos})
variable C16 equal 0.5*(${C1neg}+${C1pos})
variable C16 equal 0.5*(8.47739666699046e-05+${C1pos})
variable C16 equal 0.5*(8.47739666699046e-05+-8.47697889783692e-05)
variable C2${dir} equal 0.5*(${C2neg}+${C2pos})
variable C26 equal 0.5*(${C2neg}+${C2pos})
variable C26 equal 0.5*(0.000119741157926308+${C2pos})
variable C26 equal 0.5*(0.000119741157926308+-0.000119756299260223)
variable C3${dir} equal 0.5*(${C3neg}+${C3pos})
variable C36 equal 0.5*(${C3neg}+${C3pos})
variable C36 equal 0.5*(6.90295044884396e-06+${C3pos})
variable C36 equal 0.5*(6.90295044884396e-06+-6.90010543445816e-06)
variable C4${dir} equal 0.5*(${C4neg}+${C4pos})
variable C46 equal 0.5*(${C4neg}+${C4pos})
variable C46 equal 0.5*(1.11290268620909e-09+${C4pos})
variable C46 equal 0.5*(1.11290268620909e-09+-5.81972795683024e-09)
variable C5${dir} equal 0.5*(${C5neg}+${C5pos})
variable C56 equal 0.5*(${C5neg}+${C5pos})
variable C56 equal 0.5*(4.79050216432108e-10+${C5pos})
variable C56 equal 0.5*(4.79050216432108e-10+-1.19867150225151e-09)
variable C6${dir} equal 0.5*(${C6neg}+${C6pos})
variable C66 equal 0.5*(${C6neg}+${C6pos})
variable C66 equal 0.5*(31.6596214475603+${C6pos})
variable C66 equal 0.5*(31.6596214475603+31.6596214488206)

# Delete dir to make sure it is not reused

variable dir delete

# Output final values

variable C11all equal ${C11}
variable C11all equal 116.815477512155
variable C22all equal ${C22}
variable C22all equal 116.815477497723
variable C33all equal ${C33}
variable C33all equal 116.815477497357

variable C12all equal 0.5*(${C12}+${C21})
variable C12all equal 0.5*(60.1172244701789+${C21})
variable C12all equal 0.5*(60.1172244701789+60.1172244758155)
variable C13all equal 0.5*(${C13}+${C31})
variable C13all equal 0.5*(60.1172244694534+${C31})
variable C13all equal 0.5*(60.1172244694534+60.1172244733993)
variable C23all equal 0.5*(${C23}+${C32})
variable C23all equal 0.5*(60.1172244521078+${C32})
variable C23all equal 0.5*(60.1172244521078+60.1172244638979)

variable C44all equal ${C44}
variable C44all equal 31.6596214444705
variable C55all equal ${C55}
variable C55all equal 31.6596214441651
variable C66all equal ${C66}
variable C66all equal 31.6596214481904

variable C14all equal 0.5*(${C14}+${C41})
variable C14all equal 0.5*(-1.77813399050245e-11+${C41})
variable C14all equal 0.5*(-1.77813399050245e-11+-1.6738646322705e-11)
variable C15all equal 0.5*(${C15}+${C51})
variable C15all equal 0.5*(6.97290084840477e-09+${C51})
variable C15all equal 0.5*(6.97290084840477e-09+1.13382318779976e-09)
variable C16all equal 0.5*(${C16}+${C61})
variable C16all equal 0.5*(2.08884576770199e-09+${C61})
variable C16all equal 0.5*(2.08884576770199e-09+-1.9876293449225e-11)

variable C24all equal 0.5*(${C24}+${C42})
variable C24all equal 0.5*(1.91829278809873e-09+${C42})
variable C24all equal 0.5*(1.91829278809873e-09+-1.2551835291819e-11)
variable C25all equal 0.5*(${C25}+${C52})
variable C25all equal 0.5*(7.02885907079488e-09+${C52})
variable C25all equal 0.5*(7.02885907079488e-09+2.74042400054272e-10)
variable C26all equal 0.5*(${C26}+${C62})
variable C26all equal 0.5*(-7.57066695750451e-09+${C62})
variable C26all equal 0.5*(-7.57066695750451e-09+1.87279175181051e-09)

variable C34all equal 0.5*(${C34}+${C43})
variable C34all equal 0.5*(9.53916587999879e-10+${C43})
variable C34all equal 0.5*(9.53916587999879e-10+1.75512432853076e-09)
variable C35all equal 0.5*(${C35}+${C53})
variable C35all equal 0.5*(-6.48495926500615e-10+${C53})
variable C35all equal 0.5*(-6.48495926500615e-10+1.60031819676171e-10)
variable C36all equal 0.5*(${C36}+${C63})
variable C36all equal 0.5*(1.42250719290001e-09+${C63})
variable C36all equal 0.5*(1.42250719290001e-09+1.75094022758528e-09)

variable C45all equal 0.5*(${C45}+${C54})
variable C45all equal 0.5*(2.59398370469785e-10+${C54})
variable C45all equal 0.5*(2.59398370469785e-10+-3.11696429032245e-10)
variable C46all equal 0.5*(${C46}+${C64})
variable C46all equal 0.5*(-2.35341263531057e-09+${C64})
variable C46all equal 0.5*(-2.35341263531057e-09+1.48526486317375e-10)
variable C56all equal 0.5*(${C56}+${C65})
variable C56all equal 0.5*(-3.59810642909701e-10+${C65})
variable C56all equal 0.5*(-3.59810642909701e-10+-1.37230105667888e-09)

# For Stillinger-Weber silicon, the analytical results
# are known to be (E. R. Cowley, 1988):
#               C11 = 151.4 GPa
#               C12 = 76.4 GPa
#               C44 = 56.4 GPa

print "Elastic Constant C11all = ${C11all} ${cunits}"
Elastic Constant C11all = 116.815477512155 GPa
print "Elastic Constant C22all = ${C22all} ${cunits}"
Elastic Constant C22all = 116.815477497723 GPa
print "Elastic Constant C33all = ${C33all} ${cunits}"
Elastic Constant C33all = 116.815477497357 GPa

print "Elastic Constant C12all = ${C12all} ${cunits}"
Elastic Constant C12all = 60.1172244729972 GPa
print "Elastic Constant C13all = ${C13all} ${cunits}"
Elastic Constant C13all = 60.1172244714263 GPa
print "Elastic Constant C23all = ${C23all} ${cunits}"
Elastic Constant C23all = 60.1172244580029 GPa

print "Elastic Constant C44all = ${C44all} ${cunits}"
Elastic Constant C44all = 31.6596214444705 GPa
print "Elastic Constant C55all = ${C55all} ${cunits}"
Elastic Constant C55all = 31.6596214441651 GPa
print "Elastic Constant C66all = ${C66all} ${cunits}"
Elastic Constant C66all = 31.6596214481904 GPa

print "Elastic Constant C14all = ${C14all} ${cunits}"
Elastic Constant C14all = -1.72599931138647e-11 GPa
print "Elastic Constant C15all = ${C15all} ${cunits}"
Elastic Constant C15all = 4.05336201810226e-09 GPa
print "Elastic Constant C16all = ${C16all} ${cunits}"
Elastic Constant C16all = 1.03448473712638e-09 GPa

print "Elastic Constant C24all = ${C24all} ${cunits}"
Elastic Constant C24all = 9.52870476403456e-10 GPa
print "Elastic Constant C25all = ${C25all} ${cunits}"
Elastic Constant C25all = 3.65145073542458e-09 GPa
print "Elastic Constant C26all = ${C26all} ${cunits}"
Elastic Constant C26all = -2.848937602847e-09 GPa

print "Elastic Constant C34all = ${C34all} ${cunits}"
Elastic Constant C34all = 1.35452045826532e-09 GPa
print "Elastic Constant C35all = ${C35all} ${cunits}"
Elastic Constant C35all = -2.44232053412222e-10 GPa
print "Elastic Constant C36all = ${C36all} ${cunits}"
Elastic Constant C36all = 1.58672371024265e-09 GPa

print "Elastic Constant C45all = ${C45all} ${cunits}"
Elastic Constant C45all = -2.614902928123e-11 GPa
print "Elastic Constant C46all = ${C46all} ${cunits}"
Elastic Constant C46all = -1.1024430744966e-09 GPa
print "Elastic Constant C56all = ${C56all} ${cunits}"
Elastic Constant C56all = -8.66055849794291e-10 GPa

Total wall time: 0:00:00
