   2   2   0   0
  0.2044415E+02  0.3866974E-09  0.3866975E-09  0.3866975E-09  0.5000000E-15
  1.000000000000000E-004
  CAR 
 unknown system                          
     17.58339752     -8.14689104  301      5.92362491      1.00000000
     -8.147  0.0000E+00  0.0000E+00
     -8.061  0.0000E+00  0.0000E+00
     -7.975  0.0000E+00  0.0000E+00
     -7.890  0.0000E+00  0.0000E+00
     -7.804  0.0000E+00  0.0000E+00
     -7.718  0.0000E+00  0.0000E+00
     -7.632  0.0000E+00  0.0000E+00
     -7.547  0.0000E+00  0.0000E+00
     -7.461  0.0000E+00  0.0000E+00
     -7.375  0.0000E+00  0.0000E+00
     -7.289  0.7767E-17  0.6661E-18
     -7.203  0.9204E-15  0.7960E-16
     -7.118  0.7763E-13  0.6738E-14
     -7.032  0.4545E-11  0.3965E-12
     -6.946  0.1863E-09  0.1637E-10
     -6.860  0.5368E-08  0.4768E-09
     -6.775  0.1095E-06  0.9869E-08
     -6.689  0.1598E-05  0.1469E-06
     -6.603  0.1692E-04  0.1598E-05
     -6.517  0.1324E-03  0.1295E-04
     -6.432  0.7798E-03  0.7984E-04
     -6.346  0.3499E-02  0.3800E-03
     -6.260  0.1200E-01  0.1409E-02
     -6.174  0.3137E-01  0.4099E-02
     -6.088  0.6290E-01  0.9494E-02
     -6.003  0.1002E+00  0.1809E-01
     -5.917  0.1376E+00  0.2990E-01
     -5.831  0.1790E+00  0.4525E-01
     -5.745  0.2233E+00  0.6440E-01
     -5.660  0.2508E+00  0.8591E-01
     -5.574  0.2514E+00  0.1075E+00
     -5.488  0.2551E+00  0.1294E+00
     -5.402  0.2957E+00  0.1547E+00
     -5.317  0.3557E+00  0.1852E+00
     -5.231  0.3913E+00  0.2188E+00
     -5.145  0.3922E+00  0.2524E+00
     -5.059  0.3754E+00  0.2846E+00
     -4.973  0.3569E+00  0.3152E+00
     -4.888  0.3647E+00  0.3465E+00
     -4.802  0.4292E+00  0.3833E+00
     -4.716  0.5239E+00  0.4283E+00
     -4.630  0.5767E+00  0.4777E+00
     -4.545  0.5675E+00  0.5264E+00
     -4.459  0.5368E+00  0.5724E+00
     -4.373  0.5044E+00  0.6157E+00
     -4.287  0.4764E+00  0.6566E+00
     -4.202  0.5048E+00  0.6999E+00
     -4.116  0.6376E+00  0.7545E+00
     -4.030  0.8184E+00  0.8247E+00
     -3.944  0.9242E+00  0.9040E+00
     -3.859  0.9038E+00  0.9815E+00
     -3.773  0.8091E+00  0.1051E+01
     -3.687  0.7153E+00  0.1112E+01
     -3.601  0.6802E+00  0.1171E+01
     -3.515  0.7294E+00  0.1233E+01
     -3.430  0.8258E+00  0.1304E+01
     -3.344  0.8865E+00  0.1380E+01
     -3.258  0.8572E+00  0.1454E+01
     -3.172  0.7562E+00  0.1518E+01
     -3.087  0.6315E+00  0.1573E+01
     -3.001  0.5195E+00  0.1617E+01
     -2.915  0.4599E+00  0.1657E+01
     -2.829  0.4869E+00  0.1698E+01
     -2.744  0.5800E+00  0.1748E+01
     -2.658  0.6505E+00  0.1804E+01
     -2.572  0.6070E+00  0.1856E+01
     -2.486  0.4514E+00  0.1895E+01
     -2.400  0.2796E+00  0.1919E+01
     -2.315  0.1749E+00  0.1934E+01
     -2.229  0.1515E+00  0.1947E+01
     -2.143  0.1902E+00  0.1963E+01
     -2.057  0.2568E+00  0.1985E+01
     -1.972  0.2966E+00  0.2010E+01
     -1.886  0.2730E+00  0.2034E+01
     -1.800  0.2072E+00  0.2052E+01
     -1.714  0.1471E+00  0.2064E+01
     -1.629  0.1276E+00  0.2075E+01
     -1.543  0.1859E+00  0.2091E+01
     -1.457  0.3619E+00  0.2122E+01
     -1.371  0.6248E+00  0.2176E+01
     -1.285  0.8504E+00  0.2249E+01
     -1.200  0.9526E+00  0.2330E+01
     -1.114  0.9776E+00  0.2414E+01
     -1.028  0.1000E+01  0.2500E+01
     -0.942  0.1032E+01  0.2588E+01
     -0.857  0.1057E+01  0.2679E+01
     -0.771  0.1048E+01  0.2769E+01
     -0.685  0.9673E+00  0.2852E+01
     -0.599  0.8285E+00  0.2923E+01
     -0.514  0.6960E+00  0.2983E+01
     -0.428  0.5955E+00  0.3034E+01
     -0.342  0.5188E+00  0.3078E+01
     -0.256  0.4832E+00  0.3120E+01
     -0.171  0.4996E+00  0.3163E+01
     -0.085  0.5233E+00  0.3208E+01
      0.001  0.5052E+00  0.3251E+01
      0.087  0.4581E+00  0.3290E+01
      0.173  0.4292E+00  0.3327E+01
      0.258  0.4331E+00  0.3364E+01
      0.344  0.4367E+00  0.3402E+01
      0.430  0.3940E+00  0.3435E+01
      0.516  0.2943E+00  0.3461E+01
      0.601  0.1892E+00  0.3477E+01
      0.687  0.1588E+00  0.3490E+01
      0.773  0.2414E+00  0.3511E+01
      0.859  0.3811E+00  0.3544E+01
      0.944  0.4555E+00  0.3583E+01
      1.030  0.4021E+00  0.3617E+01
      1.116  0.2920E+00  0.3642E+01
      1.202  0.2360E+00  0.3663E+01
      1.288  0.2800E+00  0.3687E+01
      1.373  0.4100E+00  0.3722E+01
      1.459  0.5770E+00  0.3771E+01
      1.545  0.7346E+00  0.3834E+01
      1.631  0.8956E+00  0.3911E+01
      1.716  0.1092E+01  0.4005E+01
      1.802  0.1266E+01  0.4113E+01
      1.888  0.1309E+01  0.4226E+01
      1.974  0.1205E+01  0.4329E+01
      2.059  0.1043E+01  0.4418E+01
      2.145  0.9411E+00  0.4499E+01
      2.231  0.9595E+00  0.4581E+01
      2.317  0.1046E+01  0.4671E+01
      2.403  0.1100E+01  0.4765E+01
      2.488  0.1102E+01  0.4860E+01
      2.574  0.1127E+01  0.4957E+01
      2.660  0.1254E+01  0.5064E+01
      2.746  0.1448E+01  0.5188E+01
      2.831  0.1576E+01  0.5323E+01
      2.917  0.1575E+01  0.5459E+01
      3.003  0.1501E+01  0.5587E+01
      3.089  0.1439E+01  0.5711E+01
      3.174  0.1414E+01  0.5832E+01
      3.260  0.1389E+01  0.5951E+01
      3.346  0.1327E+01  0.6065E+01
      3.432  0.1289E+01  0.6175E+01
      3.518  0.1351E+01  0.6291E+01
      3.603  0.1470E+01  0.6417E+01
      3.689  0.1537E+01  0.6549E+01
      3.775  0.1522E+01  0.6680E+01
      3.861  0.1461E+01  0.6805E+01
      3.946  0.1346E+01  0.6920E+01
      4.032  0.1163E+01  0.7020E+01
      4.118  0.1012E+01  0.7107E+01
      4.204  0.1012E+01  0.7194E+01
      4.289  0.1118E+01  0.7290E+01
      4.375  0.1167E+01  0.7390E+01
      4.461  0.1082E+01  0.7482E+01
      4.547  0.9513E+00  0.7564E+01
      4.632  0.8726E+00  0.7639E+01
      4.718  0.8186E+00  0.7709E+01
      4.804  0.7039E+00  0.7770E+01
      4.890  0.5366E+00  0.7816E+01
      4.976  0.4085E+00  0.7851E+01
      5.061  0.3531E+00  0.7881E+01
      5.147  0.3142E+00  0.7908E+01
      5.233  0.2563E+00  0.7930E+01
      5.319  0.2091E+00  0.7948E+01
      5.404  0.1912E+00  0.7964E+01
      5.490  0.1717E+00  0.7979E+01
      5.576  0.1267E+00  0.7990E+01
      5.662  0.7227E-01  0.7996E+01
      5.747  0.3220E-01  0.7999E+01
      5.833  0.1156E-01  0.8000E+01
      5.919  0.3893E-02  0.8000E+01
      6.005  0.3691E-02  0.8000E+01
      6.091  0.1053E-01  0.8001E+01
      6.176  0.2787E-01  0.8004E+01
      6.262  0.6014E-01  0.8009E+01
      6.348  0.1104E+00  0.8018E+01
      6.434  0.1756E+00  0.8033E+01
      6.519  0.2404E+00  0.8054E+01
      6.605  0.2880E+00  0.8079E+01
      6.691  0.3158E+00  0.8106E+01
      6.777  0.3285E+00  0.8134E+01
      6.862  0.3348E+00  0.8163E+01
      6.948  0.3650E+00  0.8194E+01
      7.034  0.4652E+00  0.8234E+01
      7.120  0.6426E+00  0.8289E+01
      7.206  0.8226E+00  0.8359E+01
      7.291  0.9202E+00  0.8438E+01
      7.377  0.9507E+00  0.8520E+01
      7.463  0.9780E+00  0.8604E+01
      7.549  0.1011E+01  0.8691E+01
      7.634  0.1078E+01  0.8783E+01
      7.720  0.1262E+01  0.8891E+01
      7.806  0.1544E+01  0.9024E+01
      7.892  0.1741E+01  0.9173E+01
      7.977  0.1710E+01  0.9320E+01
      8.063  0.1481E+01  0.9447E+01
      8.149  0.1231E+01  0.9552E+01
      8.235  0.1151E+01  0.9651E+01
      8.320  0.1244E+01  0.9758E+01
      8.406  0.1296E+01  0.9869E+01
      8.492  0.1156E+01  0.9968E+01
      8.578  0.9336E+00  0.1005E+02
      8.664  0.8437E+00  0.1012E+02
      8.749  0.1003E+01  0.1021E+02
      8.835  0.1400E+01  0.1033E+02
      8.921  0.1912E+01  0.1049E+02
      9.007  0.2302E+01  0.1069E+02
      9.092  0.2382E+01  0.1089E+02
      9.178  0.2232E+01  0.1108E+02
      9.264  0.2067E+01  0.1126E+02
      9.350  0.1922E+01  0.1143E+02
      9.435  0.1700E+01  0.1157E+02
      9.521  0.1428E+01  0.1169E+02
      9.607  0.1240E+01  0.1180E+02
      9.693  0.1164E+01  0.1190E+02
      9.779  0.1107E+01  0.1200E+02
      9.864  0.1021E+01  0.1208E+02
      9.950  0.9520E+00  0.1216E+02
     10.036  0.9581E+00  0.1225E+02
     10.122  0.1064E+01  0.1234E+02
     10.207  0.1255E+01  0.1245E+02
     10.293  0.1449E+01  0.1257E+02
     10.379  0.1546E+01  0.1270E+02
     10.465  0.1537E+01  0.1283E+02
     10.550  0.1529E+01  0.1297E+02
     10.636  0.1593E+01  0.1310E+02
     10.722  0.1629E+01  0.1324E+02
     10.808  0.1493E+01  0.1337E+02
     10.894  0.1236E+01  0.1348E+02
     10.979  0.1040E+01  0.1356E+02
     11.065  0.9519E+00  0.1365E+02
     11.151  0.8725E+00  0.1372E+02
     11.237  0.7731E+00  0.1379E+02
     11.322  0.7457E+00  0.1385E+02
     11.408  0.8632E+00  0.1393E+02
     11.494  0.1059E+01  0.1402E+02
     11.580  0.1167E+01  0.1412E+02
     11.665  0.1096E+01  0.1421E+02
     11.751  0.9487E+00  0.1429E+02
     11.837  0.8799E+00  0.1437E+02
     11.923  0.9102E+00  0.1445E+02
     12.009  0.9568E+00  0.1453E+02
     12.094  0.9948E+00  0.1461E+02
     12.180  0.1090E+01  0.1471E+02
     12.266  0.1273E+01  0.1482E+02
     12.352  0.1450E+01  0.1494E+02
     12.437  0.1480E+01  0.1507E+02
     12.523  0.1297E+01  0.1518E+02
     12.609  0.9574E+00  0.1526E+02
     12.695  0.5847E+00  0.1531E+02
     12.780  0.2921E+00  0.1534E+02
     12.866  0.1294E+00  0.1535E+02
     12.952  0.8856E-01  0.1535E+02
     13.038  0.1355E+00  0.1537E+02
     13.123  0.2311E+00  0.1539E+02
     13.209  0.3458E+00  0.1542E+02
     13.295  0.4600E+00  0.1545E+02
     13.381  0.5406E+00  0.1550E+02
     13.467  0.5624E+00  0.1555E+02
     13.552  0.5593E+00  0.1560E+02
     13.638  0.5646E+00  0.1565E+02
     13.724  0.5369E+00  0.1569E+02
     13.810  0.4523E+00  0.1573E+02
     13.895  0.3843E+00  0.1576E+02
     13.981  0.3920E+00  0.1580E+02
     14.067  0.4281E+00  0.1583E+02
     14.153  0.4305E+00  0.1587E+02
     14.238  0.4042E+00  0.1591E+02
     14.324  0.3633E+00  0.1594E+02
     14.410  0.2896E+00  0.1596E+02
     14.496  0.1846E+00  0.1598E+02
     14.582  0.8826E-01  0.1598E+02
     14.667  0.3072E-01  0.1599E+02
     14.753  0.7677E-02  0.1599E+02
     14.839  0.1366E-02  0.1599E+02
     14.925  0.1725E-03  0.1599E+02
     15.010  0.1866E-04  0.1599E+02
     15.096  0.3729E-04  0.1599E+02
     15.182  0.2768E-03  0.1599E+02
     15.268  0.1473E-02  0.1599E+02
     15.353  0.5482E-02  0.1599E+02
     15.439  0.1427E-01  0.1599E+02
     15.525  0.2600E-01  0.1599E+02
     15.611  0.3315E-01  0.1599E+02
     15.697  0.2958E-01  0.1600E+02
     15.782  0.1848E-01  0.1600E+02
     15.868  0.8080E-02  0.1600E+02
     15.954  0.2471E-02  0.1600E+02
     16.040  0.5286E-03  0.1600E+02
     16.125  0.7903E-04  0.1600E+02
     16.211  0.8252E-05  0.1600E+02
     16.297  0.6016E-06  0.1600E+02
     16.383  0.3060E-07  0.1600E+02
     16.468  0.1085E-08  0.1600E+02
     16.554  0.2680E-10  0.1600E+02
     16.640  0.4612E-12  0.1600E+02
     16.726  0.5514E-14  0.1600E+02
     16.811  0.4660E-16  0.1600E+02
     16.897  0.0000E+00  0.1600E+02
     16.983  0.0000E+00  0.1600E+02
     17.069  0.0000E+00  0.1600E+02
     17.155  0.0000E+00  0.1600E+02
     17.240  0.0000E+00  0.1600E+02
     17.326  0.0000E+00  0.1600E+02
     17.412  0.0000E+00  0.1600E+02
     17.498  0.0000E+00  0.1600E+02
     17.583  0.0000E+00  0.1600E+02
