    2    2    1    1
  0.2044415E+02  0.3866974E-09  0.3866975E-09  0.3866975E-09  0.5000000E-15
  1.000000000000000E-004
  CAR 
 unknown system                          
    8   47    8
 
  0.0000000E+00  0.0000000E+00  0.0000000E+00  0.1000000E-02
   1       -6.146891
   2        5.593922
   3        5.593922
   4        5.593924
   5        8.216463
   6        8.216465
   7        8.216467
   8        8.821878
 
  0.1000000E+00  0.6938894E-17  0.0000000E+00  0.8000000E-02
   1       -6.018590
   2        4.476869
   3        5.405593
   4        5.405594
   5        8.186353
   6        8.497282
   7        8.497285
   8        9.763505
 
  0.2000000E+00  0.1387779E-16  0.0000000E+00  0.8000000E-02
   1       -5.640013
   2        2.654568
   3        5.038928
   4        5.038930
   5        7.819577
   6        8.995106
   7        8.995109
   8       11.518725
 
  0.3000000E+00  0.1387779E-16  0.0000000E+00  0.8000000E-02
   1       -5.038093
   2        0.906449
   3        4.712859
   4        4.712861
   5        7.457125
   6        9.178195
   7        9.178198
   8       13.138553
 
  0.4000000E+00  0.2775558E-16  0.0000000E+00  0.8000000E-02
   1       -4.310248
   2       -0.535526
   3        4.504860
   4        4.504863
   5        7.217764
   6        9.076797
   7        9.076800
   8       13.471683
 
  0.5000000E+00  0.2775558E-16  0.0000000E+00  0.4000000E-02
   1       -3.873948
   2       -1.213310
   3        4.434479
   4        4.434481
   5        7.135611
   6        9.006656
   7        9.006658
   8       13.372581
 
  0.1000000E+00  0.1000000E+00  0.0000000E+00  0.6000000E-02
   1       -5.975530
   2        4.659907
   3        5.046783
   4        5.046783
   5        7.846409
   6        8.973713
   7        8.973713
   8        9.656867
 
  0.2000000E+00  0.1000000E+00  0.0000000E+00  0.2400000E-01
   1       -5.679154
   2        3.190304
   3        4.626559
   4        4.784014
   5        7.894351
   6        8.995290
   7        9.611897
   8       10.562814
 
  0.3000000E+00  0.1000000E+00  0.0000000E+00  0.2400000E-01
   1       -5.147135
   2        1.471000
   3        4.315230
   4        4.362830
   5        7.999414
   6        9.001415
   7        9.901765
   8       10.948559
 
  0.4000000E+00  0.1000000E+00  0.0000000E+00  0.2400000E-01
   1       -4.440447
   2       -0.065752
   3        3.961979
   4        4.169361
   5        7.846694
   6        8.986357
   7        9.744323
   8       11.988859
 
  0.5000000E+00  0.1000000E+00  0.0000000E+00  0.2400000E-01
   1       -3.819339
   2       -1.074622
   3        3.680035
   4        4.198815
   5        7.755951
   6        8.964234
   7        9.492085
   8       13.391475
 
 -0.4000000E+00  0.1000000E+00  0.0000000E+00  0.2400000E-01
   1       -3.980817
   2       -0.833349
   3        3.557375
   4        4.390811
   5        7.811833
   6        9.095155
   7        9.342204
   8       13.648055
 
 -0.3000000E+00  0.1000000E+00  0.0000000E+00  0.2400000E-01
   1       -4.689570
   2        0.416423
   3        3.619566
   4        4.714244
   5        8.011385
   6        9.266778
   7        9.333327
   8       12.573390
 
 -0.2000000E+00  0.1000000E+00  0.0000000E+00  0.2400000E-01
   1       -5.350105
   2        2.027362
   3        3.893009
   4        5.106624
   5        8.318831
   6        9.014255
   7        9.321741
   8       11.518582
 
 -0.1000000E+00  0.1000000E+00  0.0000000E+00  0.1200000E-01
   1       -5.806376
   2        3.601108
   3        4.489029
   4        5.421935
   5        8.569750
   6        8.578085
   7        8.725507
   8       10.697954
 
  0.2000000E+00  0.2000000E+00  0.0000000E+00  0.6000000E-02
   1       -5.465357
   2        2.998082
   3        4.165981
   4        4.165981
   5        7.140069
   6        9.517435
   7       10.471661
   8       10.471661
 
  0.3000000E+00  0.2000000E+00  0.0000000E+00  0.2400000E-01
   1       -5.009282
   2        1.783478
   3        3.671151
   4        3.826578
   5        7.231435
   6        9.108742
   7       10.723533
   8       11.059903
 
  0.4000000E+00  0.2000000E+00  0.0000000E+00  0.2400000E-01
   1       -4.349196
   2        0.384375
   3        3.058118
   4        3.669563
   5        7.447463
   6        9.723143
   7       10.496948
   8       11.034122
 
  0.5000000E+00  0.2000000E+00  0.0000000E+00  0.2400000E-01
   1       -3.638182
   2       -0.766899
   3        2.560597
   4        3.710534
   5        7.513842
   6       10.275514
   7       10.723456
   8       11.243129
 
 -0.4000000E+00  0.2000000E+00  0.0000000E+00  0.2400000E-01
   1       -3.490886
   2       -0.967963
   3        2.271418
   4        3.940477
   5        7.722323
   6       10.180792
   7       10.430472
   8       13.132085
 
 -0.3000000E+00  0.2000000E+00  0.0000000E+00  0.2400000E-01
   1       -4.125513
   2       -0.010308
   3        2.257337
   4        4.324483
   5        8.104320
   6       10.159444
   7       10.189648
   8       12.262426
 
 -0.2000000E+00  0.2000000E+00  0.0000000E+00  0.1200000E-01
   1       -4.826390
   2        1.197021
   3        2.705534
   4        4.778053
   5        8.515293
   6        9.623060
   7        9.888029
   8       11.315603
 
  0.3000000E+00  0.3000000E+00  0.0000000E+00  0.6000000E-02
   1       -4.629027
   2        1.239119
   3        3.444247
   4        3.444247
   5        6.555005
   6        8.102313
   7       12.193877
   8       12.193877
 
  0.4000000E+00  0.3000000E+00  0.0000000E+00  0.2400000E-01
   1       -4.029399
   2        0.255113
   3        2.841027
   4        3.243954
   5        6.739798
   6        7.927516
   7       12.481489
   8       12.623773
 
  0.5000000E+00  0.3000000E+00  0.0000000E+00  0.2400000E-01
   1       -3.297706
   2       -0.726399
   3        2.039036
   4        3.249425
   5        6.923378
   6        9.024783
   7       12.300711
   8       12.395424
 
 -0.4000000E+00  0.3000000E+00  0.0000000E+00  0.2400000E-01
   1       -2.893101
   2       -1.186402
   3        1.502184
   4        3.458239
   5        7.151774
   6       10.792986
   7       12.008829
   8       12.147201
 
 -0.3000000E+00  0.3000000E+00  0.0000000E+00  0.1200000E-01
   1       -3.416985
   2       -0.611095
   3        1.478170
   4        3.842328
   5        7.583469
   6       11.348927
   7       11.603128
   8       12.385852
 
  0.4000000E+00  0.4000000E+00  0.0000000E+00  0.6000000E-02
   1       -3.490460
   2       -0.486151
   3        2.990394
   4        2.990395
   5        6.284408
   6        7.016398
   7       14.021068
   8       14.021068
 
  0.5000000E+00  0.4000000E+00  0.0000000E+00  0.2400000E-01
   1       -2.778002
   2       -1.309182
   3        2.429032
   4        2.942633
   5        6.519844
   6        7.258477
   7       14.283294
   8       14.352688
 
 -0.4000000E+00  0.4000000E+00  0.0000000E+00  0.1200000E-01
   1       -2.318950
   2       -1.717532
   3        1.675412
   4        3.105132
   5        6.730235
   6        8.796681
   7       13.648120
   8       14.175298
 
  0.5000000E+00  0.5000000E+00  0.0000000E+00  0.3000000E-02
   1       -2.089371
   2       -2.089370
   3        2.836470
   4        2.836470
   5        6.418639
   6        6.418639
   7       15.583397
   8       15.583398
 
  0.3000000E+00  0.2000000E+00  0.1000000E+00  0.2400000E-01
   1       -5.303659
   2        2.275961
   3        3.597398
   4        4.657854
   5        7.997986
   6        9.307565
   7       10.247868
   8       10.250934
 
  0.4000000E+00  0.2000000E+00  0.1000000E+00  0.4800000E-01
   1       -4.705604
   2        0.901488
   3        3.018765
   4        4.297093
   5        8.336494
   6        9.221514
   7       10.344910
   8       10.715062
 
  0.5000000E+00  0.2000000E+00  0.1000000E+00  0.4800000E-01
   1       -3.977666
   2       -0.425229
   3        2.786393
   4        3.960004
   5        8.377867
   6        8.929807
   7       10.654034
   8       11.652405
 
 -0.4000000E+00  0.2000000E+00  0.1000000E+00  0.2400000E-01
   1       -3.533642
   2       -1.082097
   3        2.725509
   4        3.827387
   5        8.391532
   6        8.765983
   7       10.616629
   8       13.354135
 
  0.4000000E+00  0.3000000E+00  0.1000000E+00  0.2400000E-01
   1       -4.483042
   2        0.894737
   3        2.889607
   4        3.585797
   5        7.442061
   6        8.728194
   7       10.778281
   8       12.087349
 
  0.5000000E+00  0.3000000E+00  0.1000000E+00  0.4800000E-01
   1       -3.779734
   2       -0.180553
   3        2.286336
   4        3.270008
   5        7.822986
   6        9.401302
   7       10.412130
   8       12.482570
 
 -0.4000000E+00  0.3000000E+00  0.1000000E+00  0.4800000E-01
   1       -3.148856
   2       -1.016863
   3        1.886964
   4        3.216207
   5        8.003560
   6        9.979802
   7       11.108325
   8       12.417655
 
 -0.3000000E+00  0.3000000E+00  0.1000000E+00  0.4800000E-01
   1       -3.344534
   2       -0.765472
   3        1.743454
   4        3.447848
   5        8.336050
   6        9.729223
   7       11.538215
   8       12.288369
 
 -0.2000000E+00  0.3000000E+00  0.1000000E+00  0.2400000E-01
   1       -4.060646
   2        0.159336
   3        2.039973
   4        3.872373
   5        8.813748
   6        9.282016
   7       10.338197
   8       11.816469
 
  0.5000000E+00  0.4000000E+00  0.1000000E+00  0.2400000E-01
   1       -3.375889
   2       -0.571184
   3        2.489093
   4        2.806698
   5        7.160488
   6        7.756512
   7       12.308106
   8       14.008423
 
 -0.4000000E+00  0.4000000E+00  0.1000000E+00  0.4800000E-01
   1       -2.656849
   2       -1.329028
   3        1.813574
   4        2.718717
   5        7.511300
   6        8.925442
   7       11.919742
   8       13.678908
 
 -0.3000000E+00  0.4000000E+00  0.1000000E+00  0.2400000E-01
   1       -2.666153
   2       -1.299578
   3        1.411421
   4        2.980084
   5        7.831834
   6       10.722259
   7       11.531758
   8       11.860006
 
 -0.4000000E+00  0.5000000E+00  0.1000000E+00  0.1200000E-01
   1       -2.039333
   2       -2.039332
   3        2.447802
   4        2.447802
   5        7.244991
   6        7.244991
   7       14.023009
   8       14.023013
 
 -0.4000000E+00  0.4000000E+00  0.2000000E+00  0.2400000E-01
   1       -3.065414
   2       -0.862119
   3        1.755394
   4        2.714682
   5        9.027679
   6        9.419552
   7       10.029445
   8       13.342422
 
 -0.3000000E+00  0.4000000E+00  0.2000000E+00  0.2400000E-01
   1       -2.568620
   2       -1.359502
   3        1.603196
   4        2.471889
   5        9.314027
   6        9.602403
   7       10.999711
   8       11.423509
 
 -0.3000000E+00  0.5000000E+00  0.2000000E+00  0.1200000E-01
   1       -1.951542
   2       -1.951539
   3        1.956553
   4        1.956554
   5        9.070933
   6        9.070933
   7       11.507148
   8       11.507153
