Automatically generated mesh
      47
Reciprocal lattice
    0.00000000000000    0.00000000000000    0.00000000000000             1
    0.10000000000000    0.00000000000000    0.00000000000000             8
    0.20000000000000    0.00000000000000    0.00000000000000             8
    0.30000000000000    0.00000000000000    0.00000000000000             8
    0.40000000000000    0.00000000000000    0.00000000000000             8
    0.50000000000000    0.00000000000000    0.00000000000000             4
    0.10000000000000    0.10000000000000    0.00000000000000             6
    0.20000000000000    0.10000000000000    0.00000000000000            24
    0.30000000000000    0.10000000000000    0.00000000000000            24
    0.40000000000000    0.10000000000000    0.00000000000000            24
    0.50000000000000    0.10000000000000    0.00000000000000            24
   -0.40000000000000    0.10000000000000    0.00000000000000            24
   -0.30000000000000    0.10000000000000    0.00000000000000            24
   -0.20000000000000    0.10000000000000    0.00000000000000            24
   -0.10000000000000    0.10000000000000    0.00000000000000            12
    0.20000000000000    0.20000000000000    0.00000000000000             6
    0.30000000000000    0.20000000000000    0.00000000000000            24
    0.40000000000000    0.20000000000000    0.00000000000000            24
    0.50000000000000    0.20000000000000    0.00000000000000            24
   -0.40000000000000    0.20000000000000    0.00000000000000            24
   -0.30000000000000    0.20000000000000    0.00000000000000            24
   -0.20000000000000    0.20000000000000    0.00000000000000            12
    0.30000000000000    0.30000000000000    0.00000000000000             6
    0.40000000000000    0.30000000000000    0.00000000000000            24
    0.50000000000000    0.30000000000000    0.00000000000000            24
   -0.40000000000000    0.30000000000000    0.00000000000000            24
   -0.30000000000000    0.30000000000000    0.00000000000000            12
    0.40000000000000    0.40000000000000    0.00000000000000             6
    0.50000000000000    0.40000000000000    0.00000000000000            24
   -0.40000000000000    0.40000000000000    0.00000000000000            12
    0.50000000000000    0.50000000000000    0.00000000000000             3
    0.30000000000000    0.20000000000000    0.10000000000000            24
    0.40000000000000    0.20000000000000    0.10000000000000            48
    0.50000000000000    0.20000000000000    0.10000000000000            48
   -0.40000000000000    0.20000000000000    0.10000000000000            24
    0.40000000000000    0.30000000000000    0.10000000000000            24
    0.50000000000000    0.30000000000000    0.10000000000000            48
   -0.40000000000000    0.30000000000000    0.10000000000000            48
   -0.30000000000000    0.30000000000000    0.10000000000000            48
   -0.20000000000000    0.30000000000000    0.10000000000000            24
    0.50000000000000    0.40000000000000    0.10000000000000            24
   -0.40000000000000    0.40000000000000    0.10000000000000            48
   -0.30000000000000    0.40000000000000    0.10000000000000            24
   -0.40000000000000    0.50000000000000    0.10000000000000            12
   -0.40000000000000    0.40000000000000    0.20000000000000            24
   -0.30000000000000    0.40000000000000    0.20000000000000            24
   -0.30000000000000    0.50000000000000    0.20000000000000            12
