 vasp.5.3.3 18Dez12 (build Jan 30 2013 10:57:47) complex                        
  
 executed on             LinuxIFC date 2016.06.21  12:40:23
 running on   16 total cores
 distrk:  each k-point on   16 cores,    1 groups
 distr:  one band on NCORES_PER_BAND=   4 cores,    4 groups


--------------------------------------------------------------------------------------------------------


 INCAR:
 POTCAR:    PAW_PBE Si 05Jan2001                  

 ----------------------------------------------------------------------------- 
|                                                                             |
|  ADVICE TO THIS USER RUNNING 'VASP/VAMP'   (HEAR YOUR MASTER'S VOICE ...):  |
|                                                                             |
|      You have switched on vdW-DFT.                                          |
|      This routine was written and supplied by Jiri Klimes.                  |
|      We recommed that you carefully read and cite the following             |
|      publication                                                            |
|      J. Klimes, D.R. Bowler, A. Michelides                                  |
|        J. Phys.: Cond Matt. 22 022201 (2010)                                |
|      J. Klimes, D.R. Bowler, A. Michelides                                  |
|        Phys. Rev. B. 83, 195131 (2011)                                      |
|      and references therein.                                                |
|                                                                             |
 ----------------------------------------------------------------------------- 

 POTCAR:    PAW_PBE Si 05Jan2001                  
   VRHFIN =Si: s2p2                                                             
   LEXCH  = PE                                                                  
   EATOM  =   103.0669 eV,    7.5752 Ry                                         
                                                                                
   TITEL  = PAW_PBE Si 05Jan2001                                                
   LULTRA =        F    use ultrasoft PP ?                                      
   IUNSCR =        1    unscreen: 0-lin 1-nonlin 2-no                           
   RPACOR =    1.500    partial core radius                                     
   POMASS =   28.085; ZVAL   =    4.000    mass and valenz                      
   RCORE  =    1.900    outmost cutoff radius                                   
   RWIGS  =    2.480; RWIGS  =    1.312    wigner-seitz radius (au A)           
   ENMAX  =  245.345; ENMIN  =  184.009 eV                                      
   ICORE  =        2    local potential                                         
   LCOR   =        T    correct aug charges                                     
   LPAW   =        T    paw PP                                                  
   EAUG   =  322.069                                                            
   DEXC   =    0.000                                                            
   RMAX   =    1.950    core radius for proj-oper                               
   RAUG   =    1.300    factor for augmentation sphere                          
   RDEP   =    1.993    radius for radial grids                                 
   RDEPT  =    1.837    core radius for aug-charge                              
                                                                                
   Atomic configuration                                                         
    6 entries                                                                   
     n  l   j            E        occ.                                          
     1  0  0.50     -1785.8828   2.0000                                         
     2  0  0.50      -139.4969   2.0000                                         
     2  1  1.50       -95.5546   6.0000                                         
     3  0  0.50       -10.8127   2.0000                                         
     3  1  0.50        -4.0811   2.0000                                         
     3  2  1.50        -4.0817   0.0000                                         
   Description                                                                  
     l       E           TYP  RCUT    TYP  RCUT                                 
     0    -10.8127223     23  1.900                                             
     0     -7.6451159     23  1.900                                             
     1     -4.0811372     23  1.900                                             
     1      2.4879257     23  1.900                                             
     2     -4.0817478      7  1.900                                             
  local pseudopotential read in
  partial core-charges read in
  partial kinetic energy density read in
  atomic valenz-charges read in
  non local Contribution for L=           0  read in
    real space projection operators read in
  non local Contribution for L=           0  read in
    real space projection operators read in
  non local Contribution for L=           1  read in
    real space projection operators read in
  non local Contribution for L=           1  read in
    real space projection operators read in
    PAW grid and wavefunctions read in
 
   number of l-projection  operators is LMAX  =           4
   number of lm-projection operators is LMMAX =           8
 

 ----------------------------------------------------------------------------- 
|                                                                             |
|  ADVICE TO THIS USER RUNNING 'VASP/VAMP'   (HEAR YOUR MASTER'S VOICE ...):  |
|                                                                             |
|      You enforced a specific xc-type in the INCAR file,                     |
|      a different type was found on the POTCAR file                          |
|          I HOPE YOU KNOW, WHAT YOU ARE  DOING                               |
|                                                                             |
 ----------------------------------------------------------------------------- 

  PAW_PBE Si 05Jan2001                  :
 energy of atom  1       EATOM= -103.0669
 kinetic energy error for atom=    0.0004 (will be added to EATOM!!)
 
 
 POSCAR: bulk@mp_149                             
  positions in direct lattice
  No initial velocities read in
 exchange correlation table for  LEXCH =       42
   RHO(1)=    0.500       N(1)  =     2000
   RHO(2)=  100.500       N(2)  =     4000
 


--------------------------------------------------------------------------------------------------------


 ion  position               nearest neighbor table
   1  0.875  0.875  0.875-   2 2.37   2 2.37   2 2.37   2 2.37
   2  0.125  0.125  0.125-   1 2.37   1 2.37   1 2.37   1 2.37
 
  LATTYP: Found a face centered cubic cell.
 ALAT       =     5.4687284904
  
  Lattice vectors:
  
 A1 = (   3.3488980000,   0.0000000000,   1.9334870000)
 A2 = (   1.1162990000,   3.1573720000,   1.9334870000)
 A3 = (   0.0000000000,   0.0000000000,   3.8669750000)


Analysis of symmetry for initial positions (statically):
=====================================================================
 Subroutine PRICEL returns:
 Original cell was already a primitive cell.
 

 Routine SETGRP: Setting up the symmetry group for a 
 face centered cubic supercell.


 Subroutine GETGRP returns: Found 48 space group operations
 (whereof 12 operations were pure point group operations)
 out of a pool of 48 trial point group operations.


The static configuration has the point symmetry D_3d.
 The point group associated with its full space group is O_h .


Analysis of symmetry for dynamics (positions and initial velocities):
=====================================================================
 Subroutine PRICEL returns:
 Original cell was already a primitive cell.
 

 Routine SETGRP: Setting up the symmetry group for a 
 face centered cubic supercell.


 Subroutine GETGRP returns: Found 48 space group operations
 (whereof 12 operations were pure point group operations)
 out of a pool of 48 trial point group operations.


The dynamic configuration has the point symmetry D_3d.
 The point group associated with its full space group is O_h .


 irot  :   1
 --------------------------------------------------------------------
 isymop:   1   0   0
           0   1   0
           0   0   1

 gtrans:     0.0000000     0.0000000     0.0000000

 ptrans:     0.0000000     0.0000000     0.0000000
 rotmap:
 (   1->   1)  (   2->   2) 


 irot  :   2
 --------------------------------------------------------------------
 isymop:  -1   0   0
           0  -1   0
           0   0  -1

 gtrans:     0.0000000     0.0000000     0.0000000

 ptrans:     0.0000000     0.0000000     0.0000000
 rotmap:
 (   1->   2)  (   2->   1) 


 irot  :   3
 --------------------------------------------------------------------
 isymop:   0   0   1
           1   0   0
           0   1   0

 gtrans:     0.0000000     0.0000000     0.0000000

 ptrans:     0.0000000     0.0000000     0.0000000
 rotmap:
 (   1->   1)  (   2->   2) 


 irot  :   4
 --------------------------------------------------------------------
 isymop:   0   0  -1
          -1   0   0
           0  -1   0

 gtrans:     0.0000000     0.0000000     0.0000000

 ptrans:     0.0000000     0.0000000     0.0000000
 rotmap:
 (   1->   2)  (   2->   1) 


 irot  :   5
 --------------------------------------------------------------------
 isymop:   0   1   0
           0   0   1
           1   0   0

 gtrans:     0.0000000     0.0000000     0.0000000

 ptrans:     0.0000000     0.0000000     0.0000000
 rotmap:
 (   1->   1)  (   2->   2) 


 irot  :   6
 --------------------------------------------------------------------
 isymop:   0  -1   0
           0   0  -1
          -1   0   0

 gtrans:     0.0000000     0.0000000     0.0000000

 ptrans:     0.0000000     0.0000000     0.0000000
 rotmap:
 (   1->   2)  (   2->   1) 


 irot  :   7
 --------------------------------------------------------------------
 isymop:  -1   0   0
           0   0  -1
           0  -1   0

 gtrans:     0.0000000     0.0000000     0.0000000

 ptrans:     0.0000000     0.0000000     0.0000000
 rotmap:
 (   1->   2)  (   2->   1) 


 irot  :   8
 --------------------------------------------------------------------
 isymop:   1   0   0
           0   0   1
           0   1   0

 gtrans:     0.0000000     0.0000000     0.0000000

 ptrans:     0.0000000     0.0000000     0.0000000
 rotmap:
 (   1->   1)  (   2->   2) 


 irot  :   9
 --------------------------------------------------------------------
 isymop:   0  -1   0
          -1   0   0
           0   0  -1

 gtrans:     0.0000000     0.0000000     0.0000000

 ptrans:     0.0000000     0.0000000     0.0000000
 rotmap:
 (   1->   2)  (   2->   1) 


 irot  :  10
 --------------------------------------------------------------------
 isymop:   0   1   0
           1   0   0
           0   0   1

 gtrans:     0.0000000     0.0000000     0.0000000

 ptrans:     0.0000000     0.0000000     0.0000000
 rotmap:
 (   1->   1)  (   2->   2) 


 irot  :  11
 --------------------------------------------------------------------
 isymop:   0   0  -1
           0  -1   0
          -1   0   0

 gtrans:     0.0000000     0.0000000     0.0000000

 ptrans:     0.0000000     0.0000000     0.0000000
 rotmap:
 (   1->   2)  (   2->   1) 


 irot  :  12
 --------------------------------------------------------------------
 isymop:   0   0   1
           0   1   0
           1   0   0

 gtrans:     0.0000000     0.0000000     0.0000000

 ptrans:     0.0000000     0.0000000     0.0000000
 rotmap:
 (   1->   1)  (   2->   2) 


 irot  :  13
 --------------------------------------------------------------------
 isymop:   1   1   1
           0   0  -1
          -1   0   0

 gtrans:     0.5000000     0.0000000     0.0000000

 ptrans:     0.0000000     0.0000000     0.0000000
 rotmap:
 (   1->   2)  (   2->   1) 


 irot  :  14
 --------------------------------------------------------------------
 isymop:  -1  -1  -1
           0   0   1
           1   0   0

 gtrans:     0.5000000     0.0000000     0.0000000

 ptrans:     0.0000000     0.0000000     0.0000000
 rotmap:
 (   1->   1)  (   2->   2) 


 irot  :  15
 --------------------------------------------------------------------
 isymop:   1   1   1
           0  -1   0
           0   0  -1

 gtrans:     0.5000000     0.0000000     0.0000000

 ptrans:     0.0000000     0.0000000     0.0000000
 rotmap:
 (   1->   2)  (   2->   1) 


 irot  :  16
 --------------------------------------------------------------------
 isymop:  -1  -1  -1
           0   1   0
           0   0   1

 gtrans:     0.5000000     0.0000000     0.0000000

 ptrans:     0.0000000     0.0000000     0.0000000
 rotmap:
 (   1->   1)  (   2->   2) 


 irot  :  17
 --------------------------------------------------------------------
 isymop:   1   1   1
          -1   0   0
           0  -1   0

 gtrans:     0.5000000     0.0000000     0.0000000

 ptrans:     0.0000000     0.0000000     0.0000000
 rotmap:
 (   1->   2)  (   2->   1) 


 irot  :  18
 --------------------------------------------------------------------
 isymop:  -1  -1  -1
           1   0   0
           0   1   0

 gtrans:     0.5000000     0.0000000     0.0000000

 ptrans:     0.0000000     0.0000000     0.0000000
 rotmap:
 (   1->   1)  (   2->   2) 


 irot  :  19
 --------------------------------------------------------------------
 isymop:   0   1   0
           1   0   0
          -1  -1  -1

 gtrans:     0.0000000     0.0000000     0.5000000

 ptrans:     0.0000000     0.0000000     0.0000000
 rotmap:
 (   1->   1)  (   2->   2) 


 irot  :  20
 --------------------------------------------------------------------
 isymop:   0  -1   0
          -1   0   0
           1   1   1

 gtrans:     0.0000000     0.0000000     0.5000000

 ptrans:     0.0000000     0.0000000     0.0000000
 rotmap:
 (   1->   2)  (   2->   1) 


 irot  :  21
 --------------------------------------------------------------------
 isymop:   1   0   0
           0   0   1
          -1  -1  -1

 gtrans:     0.0000000     0.0000000     0.5000000

 ptrans:     0.0000000     0.0000000     0.0000000
 rotmap:
 (   1->   1)  (   2->   2) 


 irot  :  22
 --------------------------------------------------------------------
 isymop:  -1   0   0
           0   0  -1
           1   1   1

 gtrans:     0.0000000     0.0000000     0.5000000

 ptrans:     0.0000000     0.0000000     0.0000000
 rotmap:
 (   1->   2)  (   2->   1) 


 irot  :  23
 --------------------------------------------------------------------
 isymop:   0   0   1
           0   1   0
          -1  -1  -1

 gtrans:     0.0000000     0.0000000     0.5000000

 ptrans:     0.0000000     0.0000000     0.0000000
 rotmap:
 (   1->   1)  (   2->   2) 


 irot  :  24
 --------------------------------------------------------------------
 isymop:   0   0  -1
           0  -1   0
           1   1   1

 gtrans:     0.0000000     0.0000000     0.5000000

 ptrans:     0.0000000     0.0000000     0.0000000
 rotmap:
 (   1->   2)  (   2->   1) 


 irot  :  25
 --------------------------------------------------------------------
 isymop:   0   0  -1
           1   1   1
           0  -1   0

 gtrans:     0.0000000     0.5000000     0.0000000

 ptrans:     0.0000000     0.0000000     0.0000000
 rotmap:
 (   1->   2)  (   2->   1) 


 irot  :  26
 --------------------------------------------------------------------
 isymop:   0   0   1
          -1  -1  -1
           0   1   0

 gtrans:     0.0000000     0.5000000     0.0000000

 ptrans:     0.0000000     0.0000000     0.0000000
 rotmap:
 (   1->   1)  (   2->   2) 


 irot  :  27
 --------------------------------------------------------------------
 isymop:   0  -1   0
           1   1   1
          -1   0   0

 gtrans:     0.0000000     0.5000000     0.0000000

 ptrans:     0.0000000     0.0000000     0.0000000
 rotmap:
 (   1->   2)  (   2->   1) 


 irot  :  28
 --------------------------------------------------------------------
 isymop:   0   1   0
          -1  -1  -1
           1   0   0

 gtrans:     0.0000000     0.5000000     0.0000000

 ptrans:     0.0000000     0.0000000     0.0000000
 rotmap:
 (   1->   1)  (   2->   2) 


 irot  :  29
 --------------------------------------------------------------------
 isymop:  -1   0   0
           1   1   1
           0   0  -1

 gtrans:     0.0000000     0.5000000     0.0000000

 ptrans:     0.0000000     0.0000000     0.0000000
 rotmap:
 (   1->   2)  (   2->   1) 


 irot  :  30
 --------------------------------------------------------------------
 isymop:   1   0   0
          -1  -1  -1
           0   0   1

 gtrans:     0.0000000     0.5000000     0.0000000

 ptrans:     0.0000000     0.0000000     0.0000000
 rotmap:
 (   1->   1)  (   2->   2) 


 irot  :  31
 --------------------------------------------------------------------
 isymop:  -1  -1  -1
           0   1   0
           1   0   0

 gtrans:     0.5000000     0.0000000     0.0000000

 ptrans:     0.0000000     0.0000000     0.0000000
 rotmap:
 (   1->   1)  (   2->   2) 


 irot  :  32
 --------------------------------------------------------------------
 isymop:   1   1   1
           0  -1   0
          -1   0   0

 gtrans:     0.5000000     0.0000000     0.0000000

 ptrans:     0.0000000     0.0000000     0.0000000
 rotmap:
 (   1->   2)  (   2->   1) 


 irot  :  33
 --------------------------------------------------------------------
 isymop:  -1  -1  -1
           1   0   0
           0   0   1

 gtrans:     0.5000000     0.0000000     0.0000000

 ptrans:     0.0000000     0.0000000     0.0000000
 rotmap:
 (   1->   1)  (   2->   2) 


 irot  :  34
 --------------------------------------------------------------------
 isymop:   1   1   1
          -1   0   0
           0   0  -1

 gtrans:     0.5000000     0.0000000     0.0000000

 ptrans:     0.0000000     0.0000000     0.0000000
 rotmap:
 (   1->   2)  (   2->   1) 


 irot  :  35
 --------------------------------------------------------------------
 isymop:  -1  -1  -1
           0   0   1
           0   1   0

 gtrans:     0.5000000     0.0000000     0.0000000

 ptrans:     0.0000000     0.0000000     0.0000000
 rotmap:
 (   1->   1)  (   2->   2) 


 irot  :  36
 --------------------------------------------------------------------
 isymop:   1   1   1
           0   0  -1
           0  -1   0

 gtrans:     0.5000000     0.0000000     0.0000000

 ptrans:     0.0000000     0.0000000     0.0000000
 rotmap:
 (   1->   2)  (   2->   1) 


 irot  :  37
 --------------------------------------------------------------------
 isymop:   0  -1   0
           0   0  -1
           1   1   1

 gtrans:     0.0000000     0.0000000     0.5000000

 ptrans:     0.0000000     0.0000000     0.0000000
 rotmap:
 (   1->   2)  (   2->   1) 


 irot  :  38
 --------------------------------------------------------------------
 isymop:   0   1   0
           0   0   1
          -1  -1  -1

 gtrans:     0.0000000     0.0000000     0.5000000

 ptrans:     0.0000000     0.0000000     0.0000000
 rotmap:
 (   1->   1)  (   2->   2) 


 irot  :  39
 --------------------------------------------------------------------
 isymop:  -1   0   0
           0  -1   0
           1   1   1

 gtrans:     0.0000000     0.0000000     0.5000000

 ptrans:     0.0000000     0.0000000     0.0000000
 rotmap:
 (   1->   2)  (   2->   1) 


 irot  :  40
 --------------------------------------------------------------------
 isymop:   1   0   0
           0   1   0
          -1  -1  -1

 gtrans:     0.0000000     0.0000000     0.5000000

 ptrans:     0.0000000     0.0000000     0.0000000
 rotmap:
 (   1->   1)  (   2->   2) 


 irot  :  41
 --------------------------------------------------------------------
 isymop:   0   0  -1
          -1   0   0
           1   1   1

 gtrans:     0.0000000     0.0000000     0.5000000

 ptrans:     0.0000000     0.0000000     0.0000000
 rotmap:
 (   1->   2)  (   2->   1) 


 irot  :  42
 --------------------------------------------------------------------
 isymop:   0   0   1
           1   0   0
          -1  -1  -1

 gtrans:     0.0000000     0.0000000     0.5000000

 ptrans:     0.0000000     0.0000000     0.0000000
 rotmap:
 (   1->   1)  (   2->   2) 


 irot  :  43
 --------------------------------------------------------------------
 isymop:   1   0   0
          -1  -1  -1
           0   1   0

 gtrans:     0.0000000     0.5000000     0.0000000

 ptrans:     0.0000000     0.0000000     0.0000000
 rotmap:
 (   1->   1)  (   2->   2) 


 irot  :  44
 --------------------------------------------------------------------
 isymop:  -1   0   0
           1   1   1
           0  -1   0

 gtrans:     0.0000000     0.5000000     0.0000000

 ptrans:     0.0000000     0.0000000     0.0000000
 rotmap:
 (   1->   2)  (   2->   1) 


 irot  :  45
 --------------------------------------------------------------------
 isymop:   0   0   1
          -1  -1  -1
           1   0   0

 gtrans:     0.0000000     0.5000000     0.0000000

 ptrans:     0.0000000     0.0000000     0.0000000
 rotmap:
 (   1->   1)  (   2->   2) 


 irot  :  46
 --------------------------------------------------------------------
 isymop:   0   0  -1
           1   1   1
          -1   0   0

 gtrans:     0.0000000     0.5000000     0.0000000

 ptrans:     0.0000000     0.0000000     0.0000000
 rotmap:
 (   1->   2)  (   2->   1) 


 irot  :  47
 --------------------------------------------------------------------
 isymop:   0   1   0
          -1  -1  -1
           0   0   1

 gtrans:     0.0000000     0.5000000     0.0000000

 ptrans:     0.0000000     0.0000000     0.0000000
 rotmap:
 (   1->   1)  (   2->   2) 


 irot  :  48
 --------------------------------------------------------------------
 isymop:   0  -1   0
           1   1   1
           0   0  -1

 gtrans:     0.0000000     0.5000000     0.0000000

 ptrans:     0.0000000     0.0000000     0.0000000
 rotmap:
 (   1->   2)  (   2->   1) 
 
 
 KPOINTS: Automatic kpoint scheme                 

Automatic generation of k-mesh.
Space group operators:
 irot       det(A)        alpha          n_x          n_y          n_z        tau_x        tau_y        tau_z
    1     1.000000     0.000000     1.000000     0.000000     0.000000     0.000000     0.000000     0.000000
    2    -1.000000     0.000000     1.000000     0.000000     0.000000     0.000000     0.000000     0.000000
    3     1.000000   120.000000    -0.471405    -0.333333    -0.816497     0.000000     0.000000     0.000000
    4    -1.000000   120.000000    -0.471405    -0.333333    -0.816497     0.000000     0.000000     0.000000
    5     1.000000   120.000000     0.471405     0.333334     0.816496     0.000000     0.000000     0.000000
    6    -1.000000   120.000000     0.471405     0.333334     0.816496     0.000000     0.000000     0.000000
    7     1.000000   180.000000     0.288675     0.816497    -0.500000     0.000000     0.000000     0.000000
    8    -1.000000   180.000000     0.288675     0.816497    -0.500000     0.000000     0.000000     0.000000
    9     1.000000   180.000000     0.577350    -0.816497     0.000000     0.000000     0.000000     0.000000
   10    -1.000000   180.000000     0.577350    -0.816497     0.000000     0.000000     0.000000     0.000000
   11     1.000000   180.000000     0.866025     0.000000    -0.500000     0.000000     0.000000     0.000000
   12    -1.000000   180.000000     0.866025     0.000000    -0.500000     0.000000     0.000000     0.000000
   13     1.000000    90.000000    -0.816496    -0.577350     0.000000     0.500000     0.000000     0.000000
   14    -1.000000    90.000000    -0.816496    -0.577350     0.000000     0.500000     0.000000     0.000000
   15     1.000000   180.000000     0.866025     0.000000     0.500000     0.500000     0.000000     0.000000
   16    -1.000000   180.000000     0.866025     0.000000     0.500000     0.500000     0.000000     0.000000
   17     1.000000    90.000000     0.408248    -0.577350     0.707107     0.500000     0.000000     0.000000
   18    -1.000000    90.000000     0.408248    -0.577350     0.707107     0.500000     0.000000     0.000000
   19     1.000000   180.000000     0.816497     0.577350     0.000000     0.000000     0.000000     0.500000
   20    -1.000000   180.000000     0.816497     0.577350     0.000000     0.000000     0.000000     0.500000
   21     1.000000   120.000000     0.942809    -0.333333     0.000000     0.000000     0.000000     0.500000
   22    -1.000000   120.000000     0.942809    -0.333333     0.000000     0.000000     0.000000     0.500000
   23     1.000000   120.000000     0.000000    -1.000000     0.000000     0.000000     0.000000     0.500000
   24    -1.000000   120.000000     0.000000    -1.000000     0.000000     0.000000     0.000000     0.500000
   25     1.000000    90.000000     0.816497     0.577350     0.000000     0.000000     0.500000     0.000000
   26    -1.000000    90.000000     0.816497     0.577350     0.000000     0.000000     0.500000     0.000000
   27     1.000000    90.000000     0.408248    -0.577350    -0.707107     0.000000     0.500000     0.000000
   28    -1.000000    90.000000     0.408248    -0.577350    -0.707107     0.000000     0.500000     0.000000
   29     1.000000   180.000000     0.288675     0.816497     0.500000     0.000000     0.500000     0.000000
   30    -1.000000   180.000000     0.288675     0.816497     0.500000     0.000000     0.500000     0.000000
   31     1.000000   120.000000     0.000000     1.000000     0.000000     0.500000     0.000000     0.000000
   32    -1.000000   120.000000     0.000000     1.000000     0.000000     0.500000     0.000000     0.000000
   33     1.000000   120.000000     0.471404     0.333333    -0.816497     0.500000     0.000000     0.000000
   34    -1.000000   120.000000     0.471404     0.333333    -0.816497     0.500000     0.000000     0.000000
   35     1.000000   180.000000    -0.408248     0.577350     0.707107     0.500000     0.000000     0.000000
   36    -1.000000   180.000000    -0.408248     0.577350     0.707107     0.500000     0.000000     0.000000
   37     1.000000    90.000000    -0.408248     0.577350    -0.707107     0.000000     0.000000     0.500000
   38    -1.000000    90.000000    -0.408248     0.577350    -0.707107     0.000000     0.000000     0.500000
   39     1.000000   180.000000     0.000000     0.000000     1.000000     0.000000     0.000000     0.500000
   40    -1.000000   180.000000     0.000000     0.000000     1.000000     0.000000     0.000000     0.500000
   41     1.000000    90.000000    -0.408248     0.577350     0.707107     0.000000     0.000000     0.500000
   42    -1.000000    90.000000    -0.408248     0.577350     0.707107     0.000000     0.000000     0.500000
   43     1.000000   120.000000    -0.942809     0.333333     0.000000     0.000000     0.500000     0.000000
   44    -1.000000   120.000000    -0.942809     0.333333     0.000000     0.000000     0.500000     0.000000
   45     1.000000   179.999999    -0.408248     0.577350    -0.707107     0.000000     0.500000     0.000000
   46    -1.000000   179.999999    -0.408248     0.577350    -0.707107     0.000000     0.500000     0.000000
   47     1.000000   120.000000    -0.471404    -0.333333     0.816497     0.000000     0.500000     0.000000
   48    -1.000000   120.000000    -0.471404    -0.333333     0.816497     0.000000     0.500000     0.000000
 
 Subroutine IBZKPT returns following result:
 ===========================================
 
 Found     47 irreducible k-points:
 
 Following reciprocal coordinates:
            Coordinates               Weight
  0.000000  0.000000  0.000000      1.000000
  0.100000  0.000000  0.000000      8.000000
  0.200000  0.000000  0.000000      8.000000
  0.300000  0.000000  0.000000      8.000000
  0.400000  0.000000  0.000000      8.000000
  0.500000  0.000000  0.000000      4.000000
  0.100000  0.100000  0.000000      6.000000
  0.200000  0.100000  0.000000     24.000000
  0.300000  0.100000  0.000000     24.000000
  0.400000  0.100000  0.000000     24.000000
  0.500000  0.100000  0.000000     24.000000
 -0.400000  0.100000  0.000000     24.000000
 -0.300000  0.100000  0.000000     24.000000
 -0.200000  0.100000  0.000000     24.000000
 -0.100000  0.100000  0.000000     12.000000
  0.200000  0.200000  0.000000      6.000000
  0.300000  0.200000  0.000000     24.000000
  0.400000  0.200000  0.000000     24.000000
  0.500000  0.200000  0.000000     24.000000
 -0.400000  0.200000  0.000000     24.000000
 -0.300000  0.200000  0.000000     24.000000
 -0.200000  0.200000  0.000000     12.000000
  0.300000  0.300000  0.000000      6.000000
  0.400000  0.300000  0.000000     24.000000
  0.500000  0.300000  0.000000     24.000000
 -0.400000  0.300000  0.000000     24.000000
 -0.300000  0.300000  0.000000     12.000000
  0.400000  0.400000  0.000000      6.000000
  0.500000  0.400000  0.000000     24.000000
 -0.400000  0.400000  0.000000     12.000000
  0.500000  0.500000  0.000000      3.000000
  0.300000  0.200000  0.100000     24.000000
  0.400000  0.200000  0.100000     48.000000
  0.500000  0.200000  0.100000     48.000000
 -0.400000  0.200000  0.100000     24.000000
  0.400000  0.300000  0.100000     24.000000
  0.500000  0.300000  0.100000     48.000000
 -0.400000  0.300000  0.100000     48.000000
 -0.300000  0.300000  0.100000     48.000000
 -0.200000  0.300000  0.100000     24.000000
  0.500000  0.400000  0.100000     24.000000
 -0.400000  0.400000  0.100000     48.000000
 -0.300000  0.400000  0.100000     24.000000
 -0.400000  0.500000  0.100000     12.000000
 -0.400000  0.400000  0.200000     24.000000
 -0.300000  0.400000  0.200000     24.000000
 -0.300000  0.500000  0.200000     12.000000
 
 Following cartesian coordinates:
            Coordinates               Weight
  0.000000  0.000000  0.000000      1.000000
  0.029861 -0.010557  0.000000      8.000000
  0.059721 -0.021115  0.000000      8.000000
  0.089582 -0.031672  0.000000      8.000000
  0.119442 -0.042229  0.000000      8.000000
  0.149303 -0.052786  0.000000      4.000000
  0.029861  0.021115  0.000000      6.000000
  0.059721  0.010557  0.000000     24.000000
  0.089582  0.000000  0.000000     24.000000
  0.119442 -0.010557  0.000000     24.000000
  0.149303 -0.021115  0.000000     24.000000
 -0.119442  0.073901  0.000000     24.000000
 -0.089582  0.063344  0.000000     24.000000
 -0.059721  0.052787  0.000000     24.000000
 -0.029861  0.042229  0.000000     12.000000
  0.059721  0.042229  0.000000      6.000000
  0.089582  0.031672  0.000000     24.000000
  0.119442  0.021115  0.000000     24.000000
  0.149303  0.010557  0.000000     24.000000
 -0.119442  0.105573  0.000000     24.000000
 -0.089582  0.095016  0.000000     24.000000
 -0.059721  0.084458  0.000000     12.000000
  0.089582  0.063344  0.000000      6.000000
  0.119442  0.052787  0.000000     24.000000
  0.149303  0.042229  0.000000     24.000000
 -0.119442  0.137245  0.000000     24.000000
 -0.089582  0.126688  0.000000     12.000000
  0.119442  0.084458  0.000000      6.000000
  0.149303  0.073901  0.000000     24.000000
 -0.119442  0.168917  0.000000     12.000000
  0.149303  0.105573  0.000000      3.000000
  0.074651  0.021115  0.025860     24.000000
  0.104512  0.010557  0.025860     48.000000
  0.134373  0.000000  0.025860     48.000000
 -0.134373  0.095016  0.025860     24.000000
  0.104512  0.042229  0.025860     24.000000
  0.134373  0.031672  0.025860     48.000000
 -0.134373  0.126688  0.025860     48.000000
 -0.104512  0.116130  0.025860     48.000000
 -0.074651  0.105573  0.025860     24.000000
  0.134373  0.063344  0.025860     24.000000
 -0.134373  0.158360  0.025860     48.000000
 -0.104512  0.147802  0.025860     24.000000
 -0.134373  0.190031  0.025860     12.000000
 -0.149303  0.147802  0.051720     24.000000
 -0.119442  0.137245  0.051720     24.000000
 -0.119442  0.168917  0.051720     12.000000
 


--------------------------------------------------------------------------------------------------------




 Dimension of arrays:
   k-points           NKPTS =     47   k-points in BZ     NKDIM =     47   number of bands    NBANDS=      8
   number of dos      NEDOS =    301   number of ions     NIONS =      2
   non local maximal  LDIM  =      4   non local SUM 2l+1 LMDIM =      8
   total plane-waves  NPLWV =  27000
   max r-space proj   IRMAX =      1   max aug-charges    IRDMAX=  22275
   dimension x,y,z NGX =    30 NGY =   30 NGZ =   30
   dimension x,y,z NGXF=    60 NGYF=   60 NGZF=   60
   support grid    NGXF=    60 NGYF=   60 NGZF=   60
   ions per type =               2
 NGX,Y,Z   is equivalent  to a cutoff of  12.90, 12.90, 12.90 a.u.
 NGXF,Y,Z  is equivalent  to a cutoff of  25.79, 25.79, 25.79 a.u.


 I would recommend the setting:
   dimension x,y,z NGX =    30 NGY =   30 NGZ =   30
 SYSTEM =  unknown system                          
 POSCAR =  bulk@mp_149                             

 Startparameter for this run:
   NWRITE =      2    write-flag & timer
   PREC   = accura    normal or accurate (medium, high low for compatibility)
   ISTART =      0    job   : 0-new  1-cont  2-samecut
   ICHARG =      2    charge: 1-file 2-atom 10-const
   ISPIN  =      1    spin polarized calculation?
   LNONCOLLINEAR =      F non collinear calculations
   LSORBIT =      F    spin-orbit coupling
   INIWAV =      1    electr: 0-lowe 1-rand  2-diag
   LASPH  =      F    aspherical Exc in radial PAW
   METAGGA=      F    non-selfconsistent MetaGGA calc.

 Electronic Relaxation 1
   ENCUT  =  550.0 eV  40.42 Ry    6.36 a.u.   7.39  7.39  7.39*2*pi/ulx,y,z
   ENINI  =  550.0     initial cutoff
   ENAUG  =  322.1 eV  augmentation charge cutoff
   NELM   =    400;   NELMIN=  2; NELMDL= -5     # of ELM steps 
   EDIFF  = 0.1E-06   stopping-criterion for ELM
   LREAL  =      F    real-space projection
   NLSPLINE    = F    spline interpolate recip. space projectors
   LCOMPAT=      F    compatible to vasp.4.4
   GGA_COMPAT  = T    GGA compatible to vasp.4.4-vasp.4.6
   LMAXPAW     = -100 max onsite density
   LMAXMIX     =    2 max onsite mixed and CHGCAR
   VOSKOWN=      0    Vosko Wilk Nusair interpolation
   ROPT   =    0.00000
 Ionic relaxation
   EDIFFG = 0.1E-05   stopping-criterion for IOM
   NSW    =      1    number of steps for IOM
   NBLOCK =      1;   KBLOCK =      1    inner block; outer block 
   IBRION =      2    ionic relax: 0-MD 1-quasi-New 2-CG
   NFREE  =      1    steps in history (QN), initial steepest desc. (CG)
   ISIF   =      2    stress and relaxation
   IWAVPR =     11    prediction:  0-non 1-charg 2-wave 3-comb
   ISYM   =      2    0-nonsym 1-usesym 2-fastsym
   LCORR  =      T    Harris-Foulkes like correction to forces

   POTIM  = 0.5000    time-step for ionic-motion
   TEIN   =    0.0    initial temperature
   TEBEG  =    0.0;   TEEND  =   0.0 temperature during run
   SMASS  =  -3.00    Nose mass-parameter (am)
   estimated Nose-frequenzy (Omega)   =  0.10E-29 period in steps =****** mass=  -0.342E-27a.u.
   SCALEE = 1.0000    scale energy and forces
   NPACO  =    256;   APACO  = 16.0  distance and # of slots for P.C.
   PSTRESS=    0.0 pullay stress

  Mass of Ions in am
   POMASS =  28.09
  Ionic Valenz
   ZVAL   =   4.00
  Atomic Wigner-Seitz radii
   RWIGS  =  -1.00
  virtual crystal weights 
   VCA    =   1.00
   NELECT =       8.0000    total number of electrons
   NUPDOWN=      -1.0000    fix difference up-down

 DOS related values:
   EMIN   =  10.00;   EMAX   =-10.00  energy-range for DOS
   EFERMI =   0.00
   ISMEAR =     0;   SIGMA  =   0.20  broadening in eV -4-tet -1-fermi 0-gaus

 Electronic relaxation 2 (details)
   IALGO  =     38    algorithm
   LDIAG  =      T    sub-space diagonalisation (order eigenvalues)
   LSUBROT=      T    optimize rotation matrix (better conditioning)
   TURBO    =      0    0=normal 1=particle mesh
   IRESTART =      0    0=no restart 2=restart with 2 vectors
   NREBOOT  =      0    no. of reboots
   NMIN     =      0    reboot dimension
   EREF     =   0.00    reference energy to select bands
   IMIX   =      4    mixing-type and parameters
     AMIX     =   0.40;   BMIX     =  1.00
     AMIX_MAG =   1.60;   BMIX_MAG =  1.00
     AMIN     =   0.10
     WC   =   100.;   INIMIX=   1;  MIXPRE=   1;  MAXMIX= -45

 Intra band minimization:
   WEIMIN = 0.0010     energy-eigenvalue tresh-hold
   EBREAK =  0.31E-08  absolut break condition
   DEPER  =   0.30     relativ break condition  

   TIME   =   0.40     timestep for ELM

  volume/ion in A,a.u.               =      20.44       137.96
  Fermi-wavevector in a.u.,A,eV,Ry     =   0.950397  1.795990 12.289528  0.903255
  Thomas-Fermi vector in A             =   2.078770
 
 Write flags
   LWAVE  =      F    write WAVECAR
   LCHARG =      F    write CHGCAR
   LVTOT  =      F    write LOCPOT, total local potential
   LVHAR  =      F    write LOCPOT, Hartree potential only
   LELF   =      F    write electronic localiz. function (ELF)
   LORBIT =      0    0 simple, 1 ext, 2 COOP (PROOUT)


 Dipole corrections
   LMONO  =      F    monopole corrections only (constant potential shift)
   LDIPOL =      F    correct potential (dipole corrections)
   IDIPOL =      0    1-x, 2-y, 3-z, 4-all directions 
   EPSILON=  1.0000000 bulk dielectric constant

 Exchange correlation treatment:
   GGA     =    BO    GGA type
   LEXCH   =    42    internal setting for exchange type
   VOSKOWN=      0    Vosko Wilk Nusair interpolation
   LHFCALC =     F    Hartree Fock is set to
   LHFONE  =     F    Hartree Fock one center treatment
   AEXX    =    0.0000 exact exchange contribution

 vdW DFT:
   LUSE_VDW   =     T    switch on vdW DFT
   Zab_VDW    =-.8491    correlation parameter
   PARAM1     =0.1833
   PARAM2     =0.2200
   PARAM3     =0.0000

 Linear response parameters
   LEPSILON=     F    determine dielectric tensor
   LRPA    =     F    only Hartree local field effects (RPA)
   LNABLA  =     F    use nabla operator in PAW spheres
   LVEL    =     F    velocity operator in full k-point grid
   LINTERFAST=   F  fast interpolation
   KINTER  =     0    interpolate to denser k-point grid
   CSHIFT  =0.1000    complex shift for real part using Kramers Kronig
   OMEGAMAX=  -1.0    maximum frequency
   DEG_THRESHOLD= 0.2000000E-02 threshold for treating states as degnerate
   RTIME   =    0.100 relaxation time in fs

 Orbital magnetization related:
   ORBITALMAG=     F  switch on orbital magnetization
   LCHIMAG   =     F  perturbation theory with respect to B field
   DQ        =  0.001000  dq finite difference perturbation B field



--------------------------------------------------------------------------------------------------------


 conjugate gradient relaxation of ions
 charge density and potential will be updated during run
 non-spin polarized calculation
 Variant of blocked Davidson
 Davidson routine will perform the subspace rotation
 perform sub-space diagonalisation
    after iterative eigenvector-optimisation
 modified Broyden-mixing scheme, WC =      100.0
 initial mixing is a Kerker type mixing with AMIX =  0.4000 and BMIX =      1.0000
 Hartree-type preconditioning will be used
 using additional bands            4
 reciprocal scheme for non local part
 use partial core corrections
 calculate Harris-corrections to forces 
   (improved forces if not selfconsistent)
 use gradient corrections 
 use of overlap-Matrix (Vanderbilt PP)
 Gauss-broadening in eV      SIGMA  =   0.20


--------------------------------------------------------------------------------------------------------


  energy-cutoff  :      550.00
  volume of cell :       40.89
      direct lattice vectors                 reciprocal lattice vectors
     3.348898000  0.000000000  1.933487000     0.298605691 -0.105573000  0.000000000
     1.116299000  3.157372000  1.933487000     0.000000000  0.316719094  0.000000000
     0.000000000  0.000000000  3.866975000    -0.149302807 -0.105573020  0.258600069

  length of vectors
     3.866974243  3.866974707  3.866975000     0.316719145  0.316719094  0.316719096


 
 k-points in units of 2pi/SCALE and weight: Automatic kpoint scheme                 
   0.00000000  0.00000000  0.00000000       0.001
   0.02986057 -0.01055730  0.00000000       0.008
   0.05972114 -0.02111460  0.00000000       0.008
   0.08958171 -0.03167190  0.00000000       0.008
   0.11944228 -0.04222920  0.00000000       0.008
   0.14930285 -0.05278650  0.00000000       0.004
   0.02986057  0.02111461  0.00000000       0.006
   0.05972114  0.01055731  0.00000000       0.024
   0.08958171  0.00000001  0.00000000       0.024
   0.11944228 -0.01055729  0.00000000       0.024
   0.14930285 -0.02111459  0.00000000       0.024
  -0.11944228  0.07390111  0.00000000       0.024
  -0.08958171  0.06334381  0.00000000       0.024
  -0.05972114  0.05278651  0.00000000       0.024
  -0.02986057  0.04222921  0.00000000       0.012
   0.05972114  0.04222922  0.00000000       0.006
   0.08958171  0.03167192  0.00000000       0.024
   0.11944228  0.02111462  0.00000000       0.024
   0.14930285  0.01055732  0.00000000       0.024
  -0.11944228  0.10557302  0.00000000       0.024
  -0.08958171  0.09501572  0.00000000       0.024
  -0.05972114  0.08445842  0.00000000       0.012
   0.08958171  0.06334383  0.00000000       0.006
   0.11944228  0.05278653  0.00000000       0.024
   0.14930285  0.04222923  0.00000000       0.024
  -0.11944228  0.13724493  0.00000000       0.024
  -0.08958171  0.12668763  0.00000000       0.012
   0.11944228  0.08445844  0.00000000       0.006
   0.14930285  0.07390114  0.00000000       0.024
  -0.11944228  0.16891684  0.00000000       0.012
   0.14930285  0.10557305  0.00000000       0.003
   0.07465143  0.02111462  0.02586001       0.024
   0.10451200  0.01055732  0.02586001       0.048
   0.13437256  0.00000002  0.02586001       0.048
  -0.13437256  0.09501572  0.02586001       0.024
   0.10451200  0.04222923  0.02586001       0.024
   0.13437256  0.03167193  0.02586001       0.048
  -0.13437256  0.12668763  0.02586001       0.048
  -0.10451199  0.11613033  0.02586001       0.048
  -0.07465142  0.10557303  0.02586001       0.024
   0.13437256  0.06334384  0.02586001       0.024
  -0.13437256  0.15835954  0.02586001       0.048
  -0.10451199  0.14780224  0.02586001       0.024
  -0.13437256  0.19003145  0.02586001       0.012
  -0.14930284  0.14780223  0.05172001       0.024
  -0.11944227  0.13724493  0.05172001       0.024
  -0.11944227  0.16891684  0.05172001       0.012
 
 k-points in reciprocal lattice and weights: Automatic kpoint scheme                 
   0.00000000  0.00000000  0.00000000       0.001
   0.10000000  0.00000000  0.00000000       0.008
   0.20000000  0.00000000  0.00000000       0.008
   0.30000000  0.00000000  0.00000000       0.008
   0.40000000  0.00000000  0.00000000       0.008
   0.50000000  0.00000000  0.00000000       0.004
   0.10000000  0.10000000  0.00000000       0.006
   0.20000000  0.10000000  0.00000000       0.024
   0.30000000  0.10000000  0.00000000       0.024
   0.40000000  0.10000000  0.00000000       0.024
   0.50000000  0.10000000  0.00000000       0.024
  -0.40000000  0.10000000  0.00000000       0.024
  -0.30000000  0.10000000  0.00000000       0.024
  -0.20000000  0.10000000  0.00000000       0.024
  -0.10000000  0.10000000  0.00000000       0.012
   0.20000000  0.20000000  0.00000000       0.006
   0.30000000  0.20000000  0.00000000       0.024
   0.40000000  0.20000000  0.00000000       0.024
   0.50000000  0.20000000  0.00000000       0.024
  -0.40000000  0.20000000  0.00000000       0.024
  -0.30000000  0.20000000  0.00000000       0.024
  -0.20000000  0.20000000  0.00000000       0.012
   0.30000000  0.30000000  0.00000000       0.006
   0.40000000  0.30000000  0.00000000       0.024
   0.50000000  0.30000000  0.00000000       0.024
  -0.40000000  0.30000000  0.00000000       0.024
  -0.30000000  0.30000000  0.00000000       0.012
   0.40000000  0.40000000  0.00000000       0.006
   0.50000000  0.40000000  0.00000000       0.024
  -0.40000000  0.40000000  0.00000000       0.012
   0.50000000  0.50000000  0.00000000       0.003
   0.30000000  0.20000000  0.10000000       0.024
   0.40000000  0.20000000  0.10000000       0.048
   0.50000000  0.20000000  0.10000000       0.048
  -0.40000000  0.20000000  0.10000000       0.024
   0.40000000  0.30000000  0.10000000       0.024
   0.50000000  0.30000000  0.10000000       0.048
  -0.40000000  0.30000000  0.10000000       0.048
  -0.30000000  0.30000000  0.10000000       0.048
  -0.20000000  0.30000000  0.10000000       0.024
   0.50000000  0.40000000  0.10000000       0.024
  -0.40000000  0.40000000  0.10000000       0.048
  -0.30000000  0.40000000  0.10000000       0.024
  -0.40000000  0.50000000  0.10000000       0.012
  -0.40000000  0.40000000  0.20000000       0.024
  -0.30000000  0.40000000  0.20000000       0.024
  -0.30000000  0.50000000  0.20000000       0.012
 
 position of ions in fractional coordinates (direct lattice) 
   0.87500000  0.87500000  0.87500000
   0.12500000  0.12500000  0.12500000
 
 position of ions in cartesian coordinates  (Angst):
   3.90704738  2.76270050  6.76720537
   0.55814962  0.39467150  0.96674362
 


--------------------------------------------------------------------------------------------------------


 k-point  1 :   0.0000 0.0000 0.0000  plane waves:    1243
 k-point  2 :   0.1000 0.0000 0.0000  plane waves:    1218
 k-point  3 :   0.2000 0.0000 0.0000  plane waves:    1215
 k-point  4 :   0.3000 0.0000 0.0000  plane waves:    1206
 k-point  5 :   0.4000 0.0000 0.0000  plane waves:    1188
 k-point  6 :   0.5000 0.0000 0.0000  plane waves:    1194
 k-point  7 :   0.1000 0.1000 0.0000  plane waves:    1219
 k-point  8 :   0.2000 0.1000 0.0000  plane waves:    1209
 k-point  9 :   0.3000 0.1000 0.0000  plane waves:    1208
 k-point 10 :   0.4000 0.1000 0.0000  plane waves:    1200
 k-point 11 :   0.5000 0.1000 0.0000  plane waves:    1193
 k-point 12 :  -0.4000 0.1000 0.0000  plane waves:    1193
 k-point 13 :  -0.3000 0.1000 0.0000  plane waves:    1199
 k-point 14 :  -0.2000 0.1000 0.0000  plane waves:    1206
 k-point 15 :  -0.1000 0.1000 0.0000  plane waves:    1205
 k-point 16 :   0.2000 0.2000 0.0000  plane waves:    1199
 k-point 17 :   0.3000 0.2000 0.0000  plane waves:    1208
 k-point 18 :   0.4000 0.2000 0.0000  plane waves:    1198
 k-point 19 :   0.5000 0.2000 0.0000  plane waves:    1194
 k-point 20 :  -0.4000 0.2000 0.0000  plane waves:    1184
 k-point 21 :  -0.3000 0.2000 0.0000  plane waves:    1193
 k-point 22 :  -0.2000 0.2000 0.0000  plane waves:    1207
 k-point 23 :   0.3000 0.3000 0.0000  plane waves:    1206
 k-point 24 :   0.4000 0.3000 0.0000  plane waves:    1208
 k-point 25 :   0.5000 0.3000 0.0000  plane waves:    1199
 k-point 26 :  -0.4000 0.3000 0.0000  plane waves:    1188
 k-point 27 :  -0.3000 0.3000 0.0000  plane waves:    1197
 k-point 28 :   0.4000 0.4000 0.0000  plane waves:    1198
 k-point 29 :   0.5000 0.4000 0.0000  plane waves:    1198
 k-point 30 :  -0.4000 0.4000 0.0000  plane waves:    1190
 k-point 31 :   0.5000 0.5000 0.0000  plane waves:    1186
 k-point 32 :   0.3000 0.2000 0.1000  plane waves:    1204
 k-point 33 :   0.4000 0.2000 0.1000  plane waves:    1195
 k-point 34 :   0.5000 0.2000 0.1000  plane waves:    1198
 k-point 35 :  -0.4000 0.2000 0.1000  plane waves:    1194
 k-point 36 :   0.4000 0.3000 0.1000  plane waves:    1204
 k-point 37 :   0.5000 0.3000 0.1000  plane waves:    1199
 k-point 38 :  -0.4000 0.3000 0.1000  plane waves:    1194
 k-point 39 :  -0.3000 0.3000 0.1000  plane waves:    1188
 k-point 40 :  -0.2000 0.3000 0.1000  plane waves:    1195
 k-point 41 :   0.5000 0.4000 0.1000  plane waves:    1195
 k-point 42 :  -0.4000 0.4000 0.1000  plane waves:    1191
 k-point 43 :  -0.3000 0.4000 0.1000  plane waves:    1189
 k-point 44 :  -0.4000 0.5000 0.1000  plane waves:    1194
 k-point 45 :  -0.4000 0.4000 0.2000  plane waves:    1197
 k-point 46 :  -0.3000 0.4000 0.2000  plane waves:    1194
 k-point 47 :  -0.3000 0.5000 0.2000  plane waves:    1198

 maximum and minimum number of plane-waves per node :       316      286

 maximum number of plane-waves:      1243
 maximum index in each direction: 
   IXMAX=    7   IYMAX=    7   IZMAX=    7
   IXMIN=   -7   IYMIN=   -7   IZMIN=   -7

 NGX is ok and might be reduce to  30
 NGY is ok and might be reduce to  30
 NGZ is ok and might be reduce to  30

 parallel 3D FFT for wavefunctions:
    minimum data exchange during FFTs selected (reduces bandwidth)
 parallel 3D FFT for charge:
    minimum data exchange during FFTs selected (reduces bandwidth)


 total amount of memory used by VASP on root node    33130. kBytes
========================================================================

   base      :      30000. kBytes
   nonl-proj :        948. kBytes
   fftplans  :        700. kBytes
   grid      :        998. kBytes
   one-center:          3. kBytes
   wavefun   :        481. kBytes
 
 Broyden mixing: mesh for mixing (old mesh)
   NGX = 15   NGY = 15   NGZ = 15
  (NGX  = 60   NGY  = 60   NGZ  = 60)
  gives a total of   3375 points

 initial charge density was supplied:
 charge density of overlapping atoms calculated
 number of electron       8.0000000 magnetization 
 keeping initial charge density in first step


--------------------------------------------------------------------------------------------------------


 Maximum index for augmentation-charges         1526 (set IRDMAX)


--------------------------------------------------------------------------------------------------------


 First call to EWALD:  gamma=   0.514
 Maximum number of real-space cells 3x 3x 3
 Maximum number of reciprocal cells 3x 3x 3

 FEWALD executed in parallel
    FEWALD:  cpu time    0.00: real time    0.00


----------------------------------------- Iteration    1(   1)  ---------------------------------------


vdW kernel read from vdw_kernel.bindat
  0.0000  0.2424  0.5071  0.7962  1.1119  1.4567  1.8333  2.2446  2.6937  3.1842
  3.7199  4.3049  4.9438  5.6415  6.4036  7.2358  8.1446  9.1372 10.2212 11.4050
 12.6979 14.1099 15.6519 17.3360 19.1751 21.1837 23.3773 25.7729 28.3892 31.2465
 34.3669 37.7748 41.4965 45.5611 50.0000
 
    POTLOK:  cpu time    2.25: real time    3.32
    SETDIJ:  cpu time    0.00: real time    0.00
     EDDAV:  cpu time    0.28: real time    0.28
       DOS:  cpu time    0.00: real time    0.00
    --------------------------------------------
      LOOP:  cpu time    2.54: real time   11.80

 eigenvalue-minimisations  :   752
 total energy-change (2. order) : 0.9179165E+01  (-0.3351193E+03)
 number of electron       8.0000000 magnetization 
 augmentation part        8.0000000 magnetization 

 Free energy of the ion-electron system (eV)
  ---------------------------------------------------
  alpha Z        PSCENC =         3.29317992
  Ewald energy   TEWEN  =      -226.94489173
  -1/2 Hartree   DENC   =       -11.32339116
  -exchange  EXHF       =         0.00000000
  -V(xc)+E(xc)   XCENC  =       -20.24410379
  PAW double counting   =       189.40224250     -152.61488262
  entropy T*S    EENTRO =        -0.00953868
  eigenvalues    EBANDS =        19.02638701
  atomic energy  EATOM  =       208.59416316
  ---------------------------------------------------
  free energy    TOTEN  =         9.17916459 eV

  energy without entropy =        9.18870327  energy(sigma->0) =        9.18393393


--------------------------------------------------------------------------------------------------------




----------------------------------------- Iteration    1(   2)  ---------------------------------------


     EDDAV:  cpu time    0.42: real time    0.42
       DOS:  cpu time    0.00: real time    0.00
    --------------------------------------------
      LOOP:  cpu time    0.42: real time    2.36

 eigenvalue-minimisations  :  1160
 total energy-change (2. order) :-0.1736071E+02  (-0.1669864E+02)
 number of electron       8.0000000 magnetization 
 augmentation part        8.0000000 magnetization 

 Free energy of the ion-electron system (eV)
  ---------------------------------------------------
  alpha Z        PSCENC =         3.29317992
  Ewald energy   TEWEN  =      -226.94489173
  -1/2 Hartree   DENC   =       -11.32339116
  -exchange  EXHF       =         0.00000000
  -V(xc)+E(xc)   XCENC  =       -20.24410379
  PAW double counting   =       189.40224250     -152.61488262
  entropy T*S    EENTRO =        -0.00000100
  eigenvalues    EBANDS =         1.65614072
  atomic energy  EATOM  =       208.59416316
  ---------------------------------------------------
  free energy    TOTEN  =        -8.18154401 eV

  energy without entropy =       -8.18154301  energy(sigma->0) =       -8.18154351


--------------------------------------------------------------------------------------------------------




----------------------------------------- Iteration    1(   3)  ---------------------------------------


     EDDAV:  cpu time    0.37: real time    0.39
       DOS:  cpu time    0.00: real time    0.00
    --------------------------------------------
      LOOP:  cpu time    0.37: real time    1.00

 eigenvalue-minimisations  :   976
 total energy-change (2. order) :-0.2315094E+00  (-0.2315093E+00)
 number of electron       8.0000000 magnetization 
 augmentation part        8.0000000 magnetization 

 Free energy of the ion-electron system (eV)
  ---------------------------------------------------
  alpha Z        PSCENC =         3.29317992
  Ewald energy   TEWEN  =      -226.94489173
  -1/2 Hartree   DENC   =       -11.32339116
  -exchange  EXHF       =         0.00000000
  -V(xc)+E(xc)   XCENC  =       -20.24410379
  PAW double counting   =       189.40224250     -152.61488262
  entropy T*S    EENTRO =        -0.00000279
  eigenvalues    EBANDS =         1.42463309
  atomic energy  EATOM  =       208.59416316
  ---------------------------------------------------
  free energy    TOTEN  =        -8.41305343 eV

  energy without entropy =       -8.41305064  energy(sigma->0) =       -8.41305204


--------------------------------------------------------------------------------------------------------




----------------------------------------- Iteration    1(   4)  ---------------------------------------


     EDDAV:  cpu time    0.47: real time    0.47
       DOS:  cpu time    0.00: real time    0.00
    --------------------------------------------
      LOOP:  cpu time    0.47: real time    0.81

 eigenvalue-minimisations  :  1224
 total energy-change (2. order) :-0.1212620E-02  (-0.1212620E-02)
 number of electron       8.0000000 magnetization 
 augmentation part        8.0000000 magnetization 

 Free energy of the ion-electron system (eV)
  ---------------------------------------------------
  alpha Z        PSCENC =         3.29317992
  Ewald energy   TEWEN  =      -226.94489173
  -1/2 Hartree   DENC   =       -11.32339116
  -exchange  EXHF       =         0.00000000
  -V(xc)+E(xc)   XCENC  =       -20.24410379
  PAW double counting   =       189.40224250     -152.61488262
  entropy T*S    EENTRO =        -0.00000280
  eigenvalues    EBANDS =         1.42342048
  atomic energy  EATOM  =       208.59416316
  ---------------------------------------------------
  free energy    TOTEN  =        -8.41426605 eV

  energy without entropy =       -8.41426325  energy(sigma->0) =       -8.41426465


--------------------------------------------------------------------------------------------------------




----------------------------------------- Iteration    1(   5)  ---------------------------------------


     EDDAV:  cpu time    0.38: real time    0.38
       DOS:  cpu time    0.00: real time    0.00
    CHARGE:  cpu time    0.06: real time    0.09
    MIXING:  cpu time    0.00: real time    0.00
    --------------------------------------------
      LOOP:  cpu time    0.44: real time    1.03

 eigenvalue-minimisations  :   992
 total energy-change (2. order) :-0.1369917E-05  (-0.1369809E-05)
 number of electron       8.0000000 magnetization 
 augmentation part       -0.4830767 magnetization 

 Broyden mixing:
  rms(total) = 0.37374E+00    rms(broyden)= 0.37374E+00
  rms(prec ) = 0.89837E+00
  weight for this iteration     100.00

 Free energy of the ion-electron system (eV)
  ---------------------------------------------------
  alpha Z        PSCENC =         3.29317992
  Ewald energy   TEWEN  =      -226.94489173
  -1/2 Hartree   DENC   =       -11.32339116
  -exchange  EXHF       =         0.00000000
  -V(xc)+E(xc)   XCENC  =       -20.24410379
  PAW double counting   =       189.40224250     -152.61488262
  entropy T*S    EENTRO =        -0.00000280
  eigenvalues    EBANDS =         1.42341911
  atomic energy  EATOM  =       208.59416316
  ---------------------------------------------------
  free energy    TOTEN  =        -8.41426742 eV

  energy without entropy =       -8.41426462  energy(sigma->0) =       -8.41426602


--------------------------------------------------------------------------------------------------------




----------------------------------------- Iteration    1(   6)  ---------------------------------------


    POTLOK:  cpu time    1.09: real time    1.10
    SETDIJ:  cpu time    0.00: real time    0.00
     EDDAV:  cpu time    0.36: real time    0.36
       DOS:  cpu time    0.00: real time    0.00
    CHARGE:  cpu time    0.02: real time    0.02
    MIXING:  cpu time    0.00: real time    0.00
    --------------------------------------------
      LOOP:  cpu time    1.48: real time    4.95

 eigenvalue-minimisations  :   912
 total energy-change (2. order) : 0.5336170E-01  (-0.8889660E-02)
 number of electron       8.0000000 magnetization 
 augmentation part       -0.4761430 magnetization 

 Broyden mixing:
  rms(total) = 0.22934E+00    rms(broyden)= 0.22934E+00
  rms(prec ) = 0.54186E+00
  weight for this iteration     100.00

 eigenvalues of (default mixing * dielectric matrix)
  average eigenvalue GAMMA=   2.5723
  2.5723

 Free energy of the ion-electron system (eV)
  ---------------------------------------------------
  alpha Z        PSCENC =         3.29317992
  Ewald energy   TEWEN  =      -226.94489173
  -1/2 Hartree   DENC   =       -12.87091361
  -exchange  EXHF       =         0.00000000
  -V(xc)+E(xc)   XCENC  =       -20.00574337
  PAW double counting   =       308.82600990     -272.17337812
  entropy T*S    EENTRO =        -0.00001132
  eigenvalues    EBANDS =         2.92067946
  atomic energy  EATOM  =       208.59416316
  ---------------------------------------------------
  free energy    TOTEN  =        -8.36090573 eV

  energy without entropy =       -8.36089441  energy(sigma->0) =       -8.36090007


--------------------------------------------------------------------------------------------------------




----------------------------------------- Iteration    1(   7)  ---------------------------------------


    POTLOK:  cpu time    1.09: real time    1.10
    SETDIJ:  cpu time    0.00: real time    0.00
     EDDAV:  cpu time    0.38: real time    0.38
       DOS:  cpu time    0.00: real time    0.00
    CHARGE:  cpu time    0.02: real time    0.02
    MIXING:  cpu time    0.00: real time    0.00
    --------------------------------------------
      LOOP:  cpu time    1.50: real time    2.28

 eigenvalue-minimisations  :   976
 total energy-change (2. order) : 0.5359976E-02  (-0.2026853E-01)
 number of electron       8.0000000 magnetization 
 augmentation part       -0.4667634 magnetization 

 Broyden mixing:
  rms(total) = 0.18575E-01    rms(broyden)= 0.18575E-01
  rms(prec ) = 0.48595E-01
  weight for this iteration     100.00

 eigenvalues of (default mixing * dielectric matrix)
  average eigenvalue GAMMA=   2.3167
  2.3167  2.3167

 Free energy of the ion-electron system (eV)
  ---------------------------------------------------
  alpha Z        PSCENC =         3.29317992
  Ewald energy   TEWEN  =      -226.94489173
  -1/2 Hartree   DENC   =       -15.48032728
  -exchange  EXHF       =         0.00000000
  -V(xc)+E(xc)   XCENC  =       -19.58081631
  PAW double counting   =       559.28742886     -522.80995774
  entropy T*S    EENTRO =        -0.00007251
  eigenvalues    EBANDS =         5.28574788
  atomic energy  EATOM  =       208.59416316
  ---------------------------------------------------
  free energy    TOTEN  =        -8.35554575 eV

  energy without entropy =       -8.35547324  energy(sigma->0) =       -8.35550950


--------------------------------------------------------------------------------------------------------




----------------------------------------- Iteration    1(   8)  ---------------------------------------


    POTLOK:  cpu time    1.09: real time    1.10
    SETDIJ:  cpu time    0.00: real time    0.00
     EDDAV:  cpu time    0.35: real time    0.35
       DOS:  cpu time    0.00: real time    0.00
    CHARGE:  cpu time    0.02: real time    0.02
    MIXING:  cpu time    0.00: real time    0.00
    --------------------------------------------
      LOOP:  cpu time    1.47: real time    2.07

 eigenvalue-minimisations  :   904
 total energy-change (2. order) : 0.1678933E-01  (-0.6170466E-03)
 number of electron       8.0000000 magnetization 
 augmentation part       -0.4683895 magnetization 

 Broyden mixing:
  rms(total) = 0.98785E-02    rms(broyden)= 0.98785E-02
  rms(prec ) = 0.23817E-01
  weight for this iteration     100.00

 eigenvalues of (default mixing * dielectric matrix)
  average eigenvalue GAMMA=   2.0648
  2.7242  1.7350  1.7350

 Free energy of the ion-electron system (eV)
  ---------------------------------------------------
  alpha Z        PSCENC =         3.29317992
  Ewald energy   TEWEN  =      -226.94489173
  -1/2 Hartree   DENC   =       -15.24898915
  -exchange  EXHF       =         0.00000000
  -V(xc)+E(xc)   XCENC  =       -19.59565319
  PAW double counting   =       543.26707215     -506.72392712
  entropy T*S    EENTRO =        -0.00005170
  eigenvalues    EBANDS =         5.02034125
  atomic energy  EATOM  =       208.59416316
  ---------------------------------------------------
  free energy    TOTEN  =        -8.33875642 eV

  energy without entropy =       -8.33870472  energy(sigma->0) =       -8.33873057


--------------------------------------------------------------------------------------------------------




----------------------------------------- Iteration    1(   9)  ---------------------------------------


    POTLOK:  cpu time    1.07: real time    1.08
    SETDIJ:  cpu time    0.00: real time    0.00
     EDDAV:  cpu time    0.36: real time    0.36
       DOS:  cpu time    0.00: real time    0.00
    CHARGE:  cpu time    0.02: real time    0.02
    MIXING:  cpu time    0.00: real time    0.00
    --------------------------------------------
      LOOP:  cpu time    1.46: real time    2.20

 eigenvalue-minimisations  :  1032
 total energy-change (2. order) :-0.1648330E-02  (-0.5811069E-04)
 number of electron       8.0000000 magnetization 
 augmentation part       -0.4680479 magnetization 

 Broyden mixing:
  rms(total) = 0.73028E-02    rms(broyden)= 0.73028E-02
  rms(prec ) = 0.81198E-02
  weight for this iteration     100.00

 eigenvalues of (default mixing * dielectric matrix)
  average eigenvalue GAMMA=   2.4025
  3.6510  0.9805  2.6820  2.2966

 Free energy of the ion-electron system (eV)
  ---------------------------------------------------
  alpha Z        PSCENC =         3.29317992
  Ewald energy   TEWEN  =      -226.94489173
  -1/2 Hartree   DENC   =       -15.38626428
  -exchange  EXHF       =         0.00000000
  -V(xc)+E(xc)   XCENC  =       -19.57367714
  PAW double counting   =       550.22168407     -513.68755556
  entropy T*S    EENTRO =        -0.00005624
  eigenvalues    EBANDS =         5.14301306
  atomic energy  EATOM  =       208.59416316
  ---------------------------------------------------
  free energy    TOTEN  =        -8.34040475 eV

  energy without entropy =       -8.34034851  energy(sigma->0) =       -8.34037663


--------------------------------------------------------------------------------------------------------




----------------------------------------- Iteration    1(  10)  ---------------------------------------


    POTLOK:  cpu time    1.00: real time    1.01
    SETDIJ:  cpu time    0.00: real time    0.00
     EDDAV:  cpu time    0.26: real time    0.26
       DOS:  cpu time    0.00: real time    0.00
    CHARGE:  cpu time    0.02: real time    0.02
    MIXING:  cpu time    0.00: real time    0.00
    --------------------------------------------
      LOOP:  cpu time    1.28: real time    1.77

 eigenvalue-minimisations  :   920
 total energy-change (2. order) : 0.6689408E-03  (-0.3788770E-05)
 number of electron       8.0000000 magnetization 
 augmentation part       -0.4680726 magnetization 

 Broyden mixing:
  rms(total) = 0.30578E-02    rms(broyden)= 0.30578E-02
  rms(prec ) = 0.31678E-02
  weight for this iteration     100.00

 eigenvalues of (default mixing * dielectric matrix)
  average eigenvalue GAMMA=   1.9022
  2.9585  2.4397  2.2604  0.9261  0.9261

 Free energy of the ion-electron system (eV)
  ---------------------------------------------------
  alpha Z        PSCENC =         3.29317992
  Ewald energy   TEWEN  =      -226.94489173
  -1/2 Hartree   DENC   =       -15.37230326
  -exchange  EXHF       =         0.00000000
  -V(xc)+E(xc)   XCENC  =       -19.57678473
  PAW double counting   =       534.21196317     -497.67555233
  entropy T*S    EENTRO =        -0.00005501
  eigenvalues    EBANDS =         5.13054500
  atomic energy  EATOM  =       208.59416316
  ---------------------------------------------------
  free energy    TOTEN  =        -8.33973581 eV

  energy without entropy =       -8.33968080  energy(sigma->0) =       -8.33970831


--------------------------------------------------------------------------------------------------------




----------------------------------------- Iteration    1(  11)  ---------------------------------------


    POTLOK:  cpu time    1.63: real time    1.64
    SETDIJ:  cpu time    0.00: real time    0.00
     EDDAV:  cpu time    0.36: real time    0.36
       DOS:  cpu time    0.00: real time    0.00
    CHARGE:  cpu time    0.02: real time    0.02
    MIXING:  cpu time    0.00: real time    0.00
    --------------------------------------------
      LOOP:  cpu time    2.02: real time    2.89

 eigenvalue-minimisations  :  1136
 total energy-change (2. order) : 0.2578851E-04  (-0.8872861E-07)
 number of electron       8.0000000 magnetization 
 augmentation part       -0.4680852 magnetization 

 Broyden mixing:
  rms(total) = 0.31290E-03    rms(broyden)= 0.31290E-03
  rms(prec ) = 0.34855E-03
  weight for this iteration     100.00

 eigenvalues of (default mixing * dielectric matrix)
  average eigenvalue GAMMA=   2.0354
  2.9731  2.7941  2.2293  2.2293  0.9933  0.9933

 Free energy of the ion-electron system (eV)
  ---------------------------------------------------
  alpha Z        PSCENC =         3.29317992
  Ewald energy   TEWEN  =      -226.94489173
  -1/2 Hartree   DENC   =       -15.37510691
  -exchange  EXHF       =         0.00000000
  -V(xc)+E(xc)   XCENC  =       -19.57584364
  PAW double counting   =       538.24528385     -501.70874451
  entropy T*S    EENTRO =        -0.00005513
  eigenvalues    EBANDS =         5.13230497
  atomic energy  EATOM  =       208.59416316
  ---------------------------------------------------
  free energy    TOTEN  =        -8.33971002 eV

  energy without entropy =       -8.33965489  energy(sigma->0) =       -8.33968246


--------------------------------------------------------------------------------------------------------




----------------------------------------- Iteration    1(  12)  ---------------------------------------


    POTLOK:  cpu time    1.08: real time    1.09
    SETDIJ:  cpu time    0.00: real time    0.00
     EDDAV:  cpu time    0.32: real time    0.33
       DOS:  cpu time    0.00: real time    0.00
    CHARGE:  cpu time    0.02: real time    0.02
    MIXING:  cpu time    0.00: real time    0.00
    --------------------------------------------
      LOOP:  cpu time    1.43: real time    7.38

 eigenvalue-minimisations  :   896
 total energy-change (2. order) : 0.1542659E-05  (-0.7301405E-08)
 number of electron       8.0000000 magnetization 
 augmentation part       -0.4680861 magnetization 

 Broyden mixing:
  rms(total) = 0.10540E-03    rms(broyden)= 0.10540E-03
  rms(prec ) = 0.10682E-03
  weight for this iteration     100.00

 eigenvalues of (default mixing * dielectric matrix)
  average eigenvalue GAMMA=   1.9438
  2.9770  2.6099  2.6099  2.1727  0.9849  0.9849  1.2671

 Free energy of the ion-electron system (eV)
  ---------------------------------------------------
  alpha Z        PSCENC =         3.29317992
  Ewald energy   TEWEN  =      -226.94489173
  -1/2 Hartree   DENC   =       -15.37503040
  -exchange  EXHF       =         0.00000000
  -V(xc)+E(xc)   XCENC  =       -19.57587933
  PAW double counting   =       538.56040200     -502.02383539
  entropy T*S    EENTRO =        -0.00005510
  eigenvalues    EBANDS =         5.13223839
  atomic energy  EATOM  =       208.59416316
  ---------------------------------------------------
  free energy    TOTEN  =        -8.33970848 eV

  energy without entropy =       -8.33965338  energy(sigma->0) =       -8.33968093


--------------------------------------------------------------------------------------------------------




----------------------------------------- Iteration    1(  13)  ---------------------------------------


    POTLOK:  cpu time    1.08: real time    1.09
    SETDIJ:  cpu time    0.00: real time    0.00
     EDDAV:  cpu time    0.22: real time    0.23
       DOS:  cpu time    0.00: real time    0.00
    CHARGE:  cpu time    0.02: real time    0.02
    MIXING:  cpu time    0.00: real time    0.00
    --------------------------------------------
      LOOP:  cpu time    1.34: real time    1.82

 eigenvalue-minimisations  :   632
 total energy-change (2. order) : 0.2084398E-05  (-0.1815278E-09)
 number of electron       8.0000000 magnetization 
 augmentation part       -0.4680868 magnetization 

 Broyden mixing:
  rms(total) = 0.48750E-05    rms(broyden)= 0.48750E-05
  rms(prec ) = 0.61971E-05
  weight for this iteration     100.00

 eigenvalues of (default mixing * dielectric matrix)
  average eigenvalue GAMMA=   2.0427
  3.0738  2.9290  2.7498  2.4412  2.1904  0.9940  0.9940  0.9693

 Free energy of the ion-electron system (eV)
  ---------------------------------------------------
  alpha Z        PSCENC =         3.29317992
  Ewald energy   TEWEN  =      -226.94489173
  -1/2 Hartree   DENC   =       -15.37501610
  -exchange  EXHF       =         0.00000000
  -V(xc)+E(xc)   XCENC  =       -19.57587352
  PAW double counting   =       538.71188479     -502.17530466
  entropy T*S    EENTRO =        -0.00005509
  eigenvalues    EBANDS =         5.13220684
  atomic energy  EATOM  =       208.59416316
  ---------------------------------------------------
  free energy    TOTEN  =        -8.33970640 eV

  energy without entropy =       -8.33965131  energy(sigma->0) =       -8.33967885


--------------------------------------------------------------------------------------------------------




----------------------------------------- Iteration    1(  14)  ---------------------------------------


    POTLOK:  cpu time    1.09: real time    1.10
    SETDIJ:  cpu time    0.00: real time    0.00
     EDDAV:  cpu time    0.23: real time    0.23
       DOS:  cpu time    0.00: real time    0.00
    CHARGE:  cpu time    0.02: real time    0.02
    MIXING:  cpu time    0.00: real time    0.00
    --------------------------------------------
      LOOP:  cpu time    1.35: real time    1.93

 eigenvalue-minimisations  :   496
 total energy-change (2. order) : 0.3392888E-06  (-0.1975593E-10)
 number of electron       8.0000000 magnetization 
 augmentation part       -0.4680868 magnetization 

 Broyden mixing:
  rms(total) = 0.10837E-05    rms(broyden)= 0.10837E-05
  rms(prec ) = 0.14799E-05
  weight for this iteration     100.00

 eigenvalues of (default mixing * dielectric matrix)
  average eigenvalue GAMMA=   1.8980
  3.0412  2.8962  2.1779  2.6552  2.5055  1.0121  0.9789  0.9553  0.8595

 Free energy of the ion-electron system (eV)
  ---------------------------------------------------
  alpha Z        PSCENC =         3.29317992
  Ewald energy   TEWEN  =      -226.94489173
  -1/2 Hartree   DENC   =       -15.37503617
  -exchange  EXHF       =         0.00000000
  -V(xc)+E(xc)   XCENC  =       -19.57586973
  PAW double counting   =       538.71316880     -502.17658804
  entropy T*S    EENTRO =        -0.00005509
  eigenvalues    EBANDS =         5.13222284
  atomic energy  EATOM  =       208.59416316
  ---------------------------------------------------
  free energy    TOTEN  =        -8.33970606 eV

  energy without entropy =       -8.33965097  energy(sigma->0) =       -8.33967851


--------------------------------------------------------------------------------------------------------




----------------------------------------- Iteration    1(  15)  ---------------------------------------


    POTLOK:  cpu time    1.11: real time    1.12
    SETDIJ:  cpu time    0.01: real time    0.00
     EDDAV:  cpu time    0.23: real time    0.23
       DOS:  cpu time    0.00: real time    0.00
    CHARGE:  cpu time    0.02: real time    0.02
    MIXING:  cpu time    0.00: real time    0.00
    --------------------------------------------
      LOOP:  cpu time    1.37: real time    2.28

 eigenvalue-minimisations  :   496
 total energy-change (2. order) : 0.2998688E-06  (-0.1990258E-11)
 number of electron       8.0000000 magnetization 
 augmentation part       -0.4680868 magnetization 

 Broyden mixing:
  rms(total) = 0.77604E-06    rms(broyden)= 0.77604E-06
  rms(prec ) = 0.81829E-06
  weight for this iteration     100.00

 eigenvalues of (default mixing * dielectric matrix)
  average eigenvalue GAMMA=   1.8398
  3.0539  2.8888  2.6422  2.5267  2.1809  1.0127  0.9779  0.9592  1.0776  1.0776

 Free energy of the ion-electron system (eV)
  ---------------------------------------------------
  alpha Z        PSCENC =         3.29317992
  Ewald energy   TEWEN  =      -226.94489173
  -1/2 Hartree   DENC   =       -15.37503001
  -exchange  EXHF       =         0.00000000
  -V(xc)+E(xc)   XCENC  =       -19.57587036
  PAW double counting   =       538.71138742     -502.17480564
  entropy T*S    EENTRO =        -0.00005509
  eigenvalues    EBANDS =         5.13221659
  atomic energy  EATOM  =       208.59416316
  ---------------------------------------------------
  free energy    TOTEN  =        -8.33970576 eV

  energy without entropy =       -8.33965067  energy(sigma->0) =       -8.33967821


--------------------------------------------------------------------------------------------------------




----------------------------------------- Iteration    1(  16)  ---------------------------------------


    POTLOK:  cpu time    1.12: real time    1.13
    SETDIJ:  cpu time    0.00: real time    0.00
     EDDAV:  cpu time    0.20: real time    0.20
       DOS:  cpu time    0.00: real time    0.00
    --------------------------------------------
      LOOP:  cpu time    1.33: real time    2.11

 eigenvalue-minimisations  :   432
 total energy-change (2. order) :-0.5398192E-07  (-0.4458514E-12)
 number of electron       8.0000000 magnetization 
 augmentation part       -0.4680868 magnetization 

 Free energy of the ion-electron system (eV)
  ---------------------------------------------------
  alpha Z        PSCENC =         3.29317992
  Ewald energy   TEWEN  =      -226.94489173
  -1/2 Hartree   DENC   =       -15.37503163
  -exchange  EXHF       =         0.00000000
  -V(xc)+E(xc)   XCENC  =       -19.57587033
  PAW double counting   =       538.71032572     -502.17374425
  entropy T*S    EENTRO =        -0.00005509
  eigenvalues    EBANDS =         5.13221844
  atomic energy  EATOM  =       208.59416316
  ---------------------------------------------------
  free energy    TOTEN  =        -8.33970581 eV

  energy without entropy =       -8.33965072  energy(sigma->0) =       -8.33967827


--------------------------------------------------------------------------------------------------------




 average (electrostatic) potential at core
  the test charge radii are     0.9892
  (the norm of the test charge is              1.0000)
       1 -83.7674       2 -83.7674
 
 
 
 E-fermi :   5.9236     XC(G=0):  -9.3077     alpha+bet :-11.7317


 k-point   1 :       0.0000    0.0000    0.0000
  band No.  band energies     occupation 
      1      -6.1469      2.00000
      2       5.5939      1.98027
      3       5.5939      1.98027
      4       5.5939      1.98026
      5       8.2165      0.00000
      6       8.2165      0.00000
      7       8.2165      0.00000
      8       8.8219      0.00000

 k-point   2 :       0.1000    0.0000    0.0000
  band No.  band energies     occupation 
      1      -6.0186      2.00000
      2       4.4769      2.00000
      3       5.4056      1.99975
      4       5.4056      1.99975
      5       8.1864      0.00000
      6       8.4973      0.00000
      7       8.4973      0.00000
      8       9.7635      0.00000

 k-point   3 :       0.2000    0.0000    0.0000
  band No.  band energies     occupation 
      1      -5.6400      2.00000
      2       2.6546      2.00000
      3       5.0389      2.00000
      4       5.0389      2.00000
      5       7.8196      0.00000
      6       8.9951      0.00000
      7       8.9951      0.00000
      8      11.5187      0.00000

 k-point   4 :       0.3000    0.0000    0.0000
  band No.  band energies     occupation 
      1      -5.0381      2.00000
      2       0.9064      2.00000
      3       4.7129      2.00000
      4       4.7129      2.00000
      5       7.4571      0.00000
      6       9.1782      0.00000
      7       9.1782      0.00000
      8      13.1386      0.00000

 k-point   5 :       0.4000    0.0000    0.0000
  band No.  band energies     occupation 
      1      -4.3102      2.00000
      2      -0.5355      2.00000
      3       4.5049      2.00000
      4       4.5049      2.00000
      5       7.2178      0.00000
      6       9.0768      0.00000
      7       9.0768      0.00000
      8      13.4717      0.00000

 k-point   6 :       0.5000    0.0000    0.0000
  band No.  band energies     occupation 
      1      -3.8739      2.00000
      2      -1.2133      2.00000
      3       4.4345      2.00000
      4       4.4345      2.00000
      5       7.1356      0.00000
      6       9.0067      0.00000
      7       9.0067      0.00000
      8      13.3726      0.00000

 k-point   7 :       0.1000    0.1000    0.0000
  band No.  band energies     occupation 
      1      -5.9755      2.00000
      2       4.6599      2.00000
      3       5.0468      2.00000
      4       5.0468      2.00000
      5       7.8464      0.00000
      6       8.9737      0.00000
      7       8.9737      0.00000
      8       9.6569      0.00000

 k-point   8 :       0.2000    0.1000    0.0000
  band No.  band energies     occupation 
      1      -5.6792      2.00000
      2       3.1903      2.00000
      3       4.6266      2.00000
      4       4.7840      2.00000
      5       7.8944      0.00000
      6       8.9953      0.00000
      7       9.6119      0.00000
[...]

 k-point  12 :      -0.4000    0.1000    0.0000
  band No.  band energies     occupation 
      1      -3.9808      2.00000
      2      -0.8333      2.00000
      3       3.5574      2.00000
      4       4.3908      2.00000
      5       7.8118      0.00000
      6       9.0952      0.00000
      7       9.3422      0.00000
      8      13.6481      0.00000

 k-point  13 :      -0.3000    0.1000    0.0000
  band No.  band energies     occupation 
      1      -4.6896      2.00000
      2       0.4164      2.00000
      3       3.6196      2.00000
      4       4.7142      2.00000
      5       8.0114      0.00000
      6       9.2668      0.00000
      7       9.3333      0.00000
      8      12.5734      0.00000

 k-point  14 :      -0.2000    0.1000    0.0000
  band No.  band energies     occupation 
      1      -5.3501      2.00000
      2       2.0274      2.00000
      3       3.8930      2.00000
      4       5.1066      2.00000
      5       8.3188      0.00000
      6       9.0143      0.00000
      7       9.3217      0.00000
      8      11.5186      0.00000

 k-point  15 :      -0.1000    0.1000    0.0000
  band No.  band energies     occupation 
      1      -5.8064      2.00000
      2       3.6011      2.00000
      3       4.4890      2.00000
      4       5.4219      1.99961
      5       8.5698      0.00000
      6       8.5781      0.00000
      7       8.7255      0.00000
      8      10.6980      0.00000

 k-point  16 :       0.2000    0.2000    0.0000
  band No.  band energies     occupation 
      1      -5.4654      2.00000
      2       2.9981      2.00000
      3       4.1660      2.00000
      4       4.1660      2.00000
      5       7.1401      0.00000
      6       9.5174      0.00000
      7      10.4717      0.00000
      8      10.4717      0.00000

 k-point  17 :       0.3000    0.2000    0.0000
  band No.  band energies     occupation 
      1      -5.0093      2.00000
      2       1.7835      2.00000
      3       3.6712      2.00000
      4       3.8266      2.00000
      5       7.2314      0.00000
      6       9.1087      0.00000
      7      10.7235      0.00000
      8      11.0599      0.00000

 k-point  18 :       0.4000    0.2000    0.0000
  band No.  band energies     occupation 
      1      -4.3492      2.00000
      2       0.3844      2.00000
      3       3.0581      2.00000
      4       3.6696      2.00000
      5       7.4475      0.00000
      6       9.7231      0.00000
      7      10.4969      0.00000
      8      11.0341      0.00000

 k-point  19 :       0.5000    0.2000    0.0000
  band No.  band energies     occupation 
      1      -3.6382      2.00000
      2      -0.7669      2.00000
      3       2.5606      2.00000
      4       3.7105      2.00000
      5       7.5138      0.00000
      6      10.2755      0.00000
      7      10.7235      0.00000
      8      11.2431      0.00000

 k-point  20 :      -0.4000    0.2000    0.0000
  band No.  band energies     occupation 
      1      -3.4909      2.00000
      2      -0.9680      2.00000
      3       2.2714      2.00000
      4       3.9405      2.00000
      5       7.7223      0.00000
      6      10.1808      0.00000
      7      10.4305      0.00000
      8      13.1321      0.00000

 k-point  21 :      -0.3000    0.2000    0.0000
  band No.  band energies     occupation 
      1      -4.1255      2.00000
      2      -0.0103      2.00000
      3       2.2573      2.00000
      4       4.3245      2.00000
      5       8.1043      0.00000
      6      10.1594      0.00000
      7      10.1896      0.00000
      8      12.2624      0.00000

 k-point  22 :      -0.2000    0.2000    0.0000
  band No.  band energies     occupation 
      1      -4.8264      2.00000
      2       1.1970      2.00000
      3       2.7055      2.00000
      4       4.7781      2.00000
      5       8.5153      0.00000
      6       9.6231      0.00000
      7       9.8880      0.00000
      8      11.3156      0.00000

 k-point  23 :       0.3000    0.3000    0.0000
  band No.  band energies     occupation 
      1      -4.6290      2.00000
      2       1.2391      2.00000
      3       3.4442      2.00000
      4       3.4442      2.00000
      5       6.5550      0.00001
      6       8.1023      0.00000
      7      12.1939      0.00000
      8      12.1939      0.00000

 k-point  24 :       0.4000    0.3000    0.0000
  band No.  band energies     occupation 
      1      -4.0294      2.00000
      2       0.2551      2.00000
      3       2.8410      2.00000
      4       3.2440      2.00000
      5       6.7398      0.00000
      6       7.9275      0.00000
      7      12.4815      0.00000
      8      12.6238      0.00000

 k-point  25 :       0.5000    0.3000    0.0000
  band No.  band energies     occupation 
      1      -3.2977      2.00000
      2      -0.7264      2.00000
      3       2.0390      2.00000
      4       3.2494      2.00000
      5       6.9234      0.00000
      6       9.0248      0.00000
      7      12.3007      0.00000
      8      12.3954      0.00000

 k-point  26 :      -0.4000    0.3000    0.0000
  band No.  band energies     occupation 
      1      -2.8931      2.00000
      2      -1.1864      2.00000
      3       1.5022      2.00000
      4       3.4582      2.00000
      5       7.1518      0.00000
      6      10.7930      0.00000
      7      12.0088      0.00000
      8      12.1472      0.00000

 k-point  27 :      -0.3000    0.3000    0.0000
  band No.  band energies     occupation 
      1      -3.4170      2.00000
      2      -0.6111      2.00000
      3       1.4782      2.00000
      4       3.8423      2.00000
      5       7.5835      0.00000
      6      11.3489      0.00000
      7      11.6031      0.00000
      8      12.3859      0.00000

 k-point  28 :       0.4000    0.4000    0.0000
  band No.  band energies     occupation 
      1      -3.4905      2.00000
      2      -0.4862      2.00000
      3       2.9904      2.00000
      4       2.9904      2.00000
      5       6.2844      0.01074
      6       7.0164      0.00000
      7      14.0211      0.00000
      8      14.0211      0.00000

 k-point  29 :       0.5000    0.4000    0.0000
  band No.  band energies     occupation 
      1      -2.7780      2.00000
      2      -1.3092      2.00000
      3       2.4290      2.00000
      4       2.9426      2.00000
      5       6.5198      0.00002
      6       7.2585      0.00000
      7      14.2833      0.00000
      8      14.3527      0.00000

 k-point  30 :      -0.4000    0.4000    0.0000
  band No.  band energies     occupation 
      1      -2.3190      2.00000
      2      -1.7175      2.00000
      3       1.6754      2.00000
      4       3.1051      2.00000
      5       6.7302      0.00000
      6       8.7967      0.00000
      7      13.6481      0.00000
      8      14.1753      0.00000

 k-point  31 :       0.5000    0.5000    0.0000
  band No.  band energies     occupation 
      1      -2.0894      2.00000
      2      -2.0894      2.00000
      3       2.8365      2.00000
      4       2.8365      2.00000
      5       6.4186      0.00046
      6       6.4186      0.00046
      7      15.5834      0.00000
      8      15.5834      0.00000

 k-point  32 :       0.3000    0.2000    0.1000
  band No.  band energies     occupation 
      1      -5.3037      2.00000
      2       2.2760      2.00000
      3       3.5974      2.00000
      4       4.6579      2.00000
      5       7.9980      0.00000
      6       9.3076      0.00000
      7      10.2479      0.00000
      8      10.2509      0.00000

 k-point  33 :       0.4000    0.2000    0.1000
  band No.  band energies     occupation 
      1      -4.7056      2.00000
      2       0.9015      2.00000
      3       3.0188      2.00000
      4       4.2971      2.00000
      5       8.3365      0.00000
      6       9.2215      0.00000
      7      10.3449      0.00000
      8      10.7151      0.00000

 k-point  34 :       0.5000    0.2000    0.1000
  band No.  band energies     occupation 
      1      -3.9777      2.00000
      2      -0.4252      2.00000
      3       2.7864      2.00000
      4       3.9600      2.00000
      5       8.3779      0.00000
      6       8.9298      0.00000
      7      10.6540      0.00000
      8      11.6524      0.00000

 k-point  35 :      -0.4000    0.2000    0.1000
  band No.  band energies     occupation 
      1      -3.5336      2.00000
      2      -1.0821      2.00000
      3       2.7255      2.00000
      4       3.8274      2.00000
      5       8.3915      0.00000
      6       8.7660      0.00000
      7      10.6166      0.00000
      8      13.3541      0.00000

 k-point  36 :       0.4000    0.3000    0.1000
  band No.  band energies     occupation 
      1      -4.4830      2.00000
      2       0.8947      2.00000
      3       2.8896      2.00000
      4       3.5858      2.00000
      5       7.4421      0.00000
      6       8.7282      0.00000
      7      10.7783      0.00000
      8      12.0873      0.00000

 k-point  37 :       0.5000    0.3000    0.1000
  band No.  band energies     occupation 
      1      -3.7797      2.00000
      2      -0.1806      2.00000
      3       2.2863      2.00000
      4       3.2700      2.00000
      5       7.8230      0.00000
      6       9.4013      0.00000
      7      10.4121      0.00000
      8      12.4826      0.00000

 k-point  38 :      -0.4000    0.3000    0.1000
  band No.  band energies     occupation 
      1      -3.1489      2.00000
      2      -1.0169      2.00000
      3       1.8870      2.00000
      4       3.2162      2.00000
      5       8.0036      0.00000
      6       9.9798      0.00000
      7      11.1083      0.00000
      8      12.4177      0.00000

 k-point  39 :      -0.3000    0.3000    0.1000
  band No.  band energies     occupation 
      1      -3.3445      2.00000
      2      -0.7655      2.00000
      3       1.7435      2.00000
      4       3.4478      2.00000
      5       8.3361      0.00000
      6       9.7292      0.00000
      7      11.5382      0.00000
      8      12.2884      0.00000

 k-point  40 :      -0.2000    0.3000    0.1000
  band No.  band energies     occupation 
      1      -4.0606      2.00000
      2       0.1593      2.00000
      3       2.0400      2.00000
      4       3.8724      2.00000
      5       8.8137      0.00000
      6       9.2820      0.00000
      7      10.3382      0.00000
      8      11.8165      0.00000

 k-point  41 :       0.5000    0.4000    0.1000
  band No.  band energies     occupation 
      1      -3.3759      2.00000
      2      -0.5712      2.00000
      3       2.4891      2.00000
      4       2.8067      2.00000
      5       7.1605      0.00000
      6       7.7565      0.00000
      7      12.3081      0.00000
      8      14.0084      0.00000

 k-point  42 :      -0.4000    0.4000    0.1000
  band No.  band energies     occupation 
      1      -2.6568      2.00000
      2      -1.3290      2.00000
      3       1.8136      2.00000
      4       2.7187      2.00000
      5       7.5113      0.00000
      6       8.9254      0.00000
      7      11.9197      0.00000
      8      13.6789      0.00000

 k-point  43 :      -0.3000    0.4000    0.1000
  band No.  band energies     occupation 
      1      -2.6662      2.00000
      2      -1.2996      2.00000
      3       1.4114      2.00000
      4       2.9801      2.00000
      5       7.8318      0.00000
      6      10.7223      0.00000
      7      11.5318      0.00000
      8      11.8600      0.00000

 k-point  44 :      -0.4000    0.5000    0.1000
  band No.  band energies     occupation 
      1      -2.0393      2.00000
      2      -2.0393      2.00000
      3       2.4478      2.00000
      4       2.4478      2.00000
      5       7.2450      0.00000
      6       7.2450      0.00000
      7      14.0230      0.00000
      8      14.0230      0.00000

 k-point  45 :      -0.4000    0.4000    0.2000
  band No.  band energies     occupation 
      1      -3.0654      2.00000
      2      -0.8621      2.00000
      3       1.7554      2.00000
      4       2.7147      2.00000
      5       9.0277      0.00000
      6       9.4196      0.00000
      7      10.0294      0.00000
      8      13.3424      0.00000

 k-point  46 :      -0.3000    0.4000    0.2000
  band No.  band energies     occupation 
      1      -2.5686      2.00000
      2      -1.3595      2.00000
      3       1.6032      2.00000
      4       2.4719      2.00000
      5       9.3140      0.00000
      6       9.6024      0.00000
      7      10.9997      0.00000
      8      11.4235      0.00000

 k-point  47 :      -0.3000    0.5000    0.2000
  band No.  band energies     occupation 
      1      -1.9515      2.00000
      2      -1.9515      2.00000
      3       1.9566      2.00000
      4       1.9566      2.00000
      5       9.0709      0.00000
      6       9.0709      0.00000
      7      11.5071      0.00000
      8      11.5072      0.00000


--------------------------------------------------------------------------------------------------------


 soft charge-density along one line, spin component           1
         0         1         2         3         4         5         6         7         8         9
 total charge-density along one line
 
 pseudopotential strength for first ion, spin component:           1
 18.530  25.848   0.000   0.000   0.000   0.000   0.000   0.000
 25.848  36.061   0.000   0.000   0.000   0.000   0.000   0.000
  0.000   0.000   4.199   0.000   0.000   7.816   0.000   0.000
  0.000   0.000   0.000   4.199   0.000   0.000   7.816   0.000
  0.000   0.000   0.000   0.000   4.199   0.000   0.000   7.816
  0.000   0.000   7.816   0.000   0.000  14.561   0.000   0.000
  0.000   0.000   0.000   7.816   0.000   0.000  14.561   0.000
  0.000   0.000   0.000   0.000   7.816   0.000   0.000  14.561
 total augmentation occupancy for first ion, spin component:           1
  3.252  -0.963   0.000   0.000   0.000   0.000   0.000   0.000
 -0.963   0.489   0.000   0.000   0.000   0.000   0.000   0.000
  0.000   0.000   2.262   0.000   0.000  -0.407   0.000   0.000
  0.000   0.000   0.000   2.262   0.000   0.000  -0.407   0.000
  0.000   0.000   0.000   0.000   2.262   0.000   0.000  -0.407
  0.000   0.000  -0.407   0.000   0.000   0.084   0.000   0.000
  0.000   0.000   0.000  -0.407   0.000   0.000   0.084   0.000
  0.000   0.000   0.000   0.000  -0.407   0.000   0.000   0.084


------------------------ aborting loop because EDIFF is reached ----------------------------------------


    CHARGE:  cpu time    0.02: real time    0.02
    FORLOC:  cpu time    0.00: real time    0.00
    FORNL :  cpu time    0.02: real time    0.02
    STRESS:  cpu time    0.11: real time    0.11
    FORCOR:  cpu time    1.12: real time    1.13
    FORHAR:  cpu time    0.01: real time    0.01
    MIXING:  cpu time    0.00: real time    0.00

  FORCE on cell =-STRESS in cart. coord.  units (eV):
  Direction    XX          YY          ZZ          XY          YZ          ZX
  --------------------------------------------------------------------------------------
  Alpha Z     3.29318     3.29318     3.29318
  Ewald     -75.64832   -75.64835   -75.64832    -0.00001     0.00001     0.00001
  Hartree     5.12501     5.12501     5.12501     0.00000     0.00000     0.00000
  E(xc)     -25.38073   -25.38073   -25.38073     0.00000     0.00000     0.00000
  Local     -29.55467   -29.55467   -29.55468     0.00001     0.00000     0.00000
  n-local    74.21322    77.62251    81.73553    -0.91887    -0.83916    -0.02213
  augment   -11.97892   -11.97892   -11.97893     0.00000     0.00000     0.00000
  Kinetic    53.38033    55.40933    61.01152     0.83687     1.13781    -0.53759
  Fock        0.00000     0.00000     0.00000     0.00000     0.00000     0.00000
  -------------------------------------------------------------------------------------
  Total       0.31301     0.31301     0.31301     0.00000     0.00000     0.00000
  in kB      12.26500    12.26501    12.26501     0.00000     0.00000     0.00000
  external pressure =       12.27 kB  Pullay stress =        0.00 kB


 VOLUME and BASIS-vectors are now :
 -----------------------------------------------------------------------------
  energy-cutoff  :      550.00
  volume of cell :       40.89
      direct lattice vectors                 reciprocal lattice vectors
     3.348898000  0.000000000  1.933487000     0.298605691 -0.105573000  0.000000000
     1.116299000  3.157372000  1.933487000     0.000000000  0.316719094  0.000000000
     0.000000000  0.000000000  3.866975000    -0.149302807 -0.105573020  0.258600069

  length of vectors
     3.866974243  3.866974707  3.866975000     0.316719145  0.316719094  0.316719096


 FORCES acting on ions
    electron-ion (+dipol)            ewald-force                    non-local-force                 convergence-correction
 -----------------------------------------------------------------------------------------------
   -.378E-05 0.692E-05 0.844E-05   0.634E-05 -.116E-04 -.142E-04   -.260E-16 0.347E-16 0.486E-16   0.124E-11 0.277E-11 0.511E-11
   0.378E-05 -.692E-05 -.844E-05   -.634E-05 0.116E-04 0.142E-04   -.191E-16 0.347E-16 -.132E-15   -.124E-11 -.277E-11 -.511E-11
 -----------------------------------------------------------------------------------------------
   0.189E-12 -.513E-13 -.135E-13   -.469E-16 0.276E-16 -.294E-16   -.451E-16 0.694E-16 -.833E-16   0.393E-15 -.271E-15 -.186E-14
 
 
 POSITION                                       TOTAL-FORCE (eV/Angst)
 -----------------------------------------------------------------------------------
      3.90705      2.76270      6.76721         0.000000      0.000000      0.000000
      0.55815      0.39467      0.96674         0.000000      0.000000      0.000000
 -----------------------------------------------------------------------------------
    total drift:                                0.000000      0.000000      0.000000


--------------------------------------------------------------------------------------------------------



  FREE ENERGIE OF THE ION-ELECTRON SYSTEM (eV)
  ---------------------------------------------------
  free  energy   TOTEN  =        -8.33970581 eV

  energy  without entropy=       -8.33965072  energy(sigma->0) =       -8.33967827
 


--------------------------------------------------------------------------------------------------------


    POTLOK:  cpu time    2.04: real time    2.47


--------------------------------------------------------------------------------------------------------




--------------------------------------------------------------------------------------------------------


  
 reached required accuracy - stopping structural energy minimisation
     LOOP+:  cpu time   23.59: real time   56.16
    4ORBIT:  cpu time    0.00: real time    0.00

 total amount of memory used by VASP on root node    33130. kBytes
========================================================================

   base      :      30000. kBytes
   nonl-proj :        948. kBytes
   fftplans  :        700. kBytes
   grid      :        998. kBytes
   one-center:          3. kBytes
   wavefun   :        481. kBytes
 
  
  
 General timing and accounting informations for this job:
 ========================================================
  
                  Total CPU time used (sec):       24.098
                            User time (sec):       23.745
                          System time (sec):        0.352
                         Elapsed time (sec):       64.340
  
                   Maximum memory used (kb):      103996.
                   Average memory used (kb):           0.
  
                          Minor page faults:        62283
                          Major page faults:            8
                 Voluntary context switches:         1412
