<?xml version="1.0" encoding="ISO-8859-1"?>
<modeling>
 <generator>
  <i name="program" type="string">vasp </i>
  <i name="version" type="string">5.3.3  </i>
  <i name="subversion" type="string">18Dez12 (build Jan 30 2013 10:57:47) complex                          parallel </i>
  <i name="platform" type="string">LinuxIFC </i>
  <i name="date" type="string">2016 06 21 </i>
  <i name="time" type="string">12:40:23 </i>
 </generator>
 <incar>
  <i type="string" name="PREC">accurate</i>
  <i type="int" name="NELM">   400</i>
  <i type="int" name="IBRION">     2</i>
  <i name="EDIFF">      0.00000010</i>
  <i type="int" name="NSW">     1</i>
  <i name="ENCUT">    550.00000000</i>
  <i type="int" name="ISMEAR">     0</i>
  <i type="logical" name="LWAVE"> F  </i>
  <i type="logical" name="LCHARG"> F  </i>
  <i type="int" name="NELM">   400</i>
  <i type="string" name="GGA"> BO</i>
  <i name="PARAM1">      0.18333333</i>
  <i name="PARAM2">      0.22000000</i>
  <i type="logical" name="LUSE_VDW"> T  </i>
  <i name="AGGAC">      0.00000000</i>
 </incar>
 <kpoints>
  <generation param="Gamma">
   <v type="int" name="divisions">      10       10       10 </v>
   <v name="usershift">      0.00000000       0.00000000       0.00000000 </v>
   <v name="genvec1">      0.10000000       0.00000000       0.00000000 </v>
   <v name="genvec2">      0.00000000       0.10000000       0.00000000 </v>
   <v name="genvec3">      0.00000000       0.00000000       0.10000000 </v>
   <v name="shift">      0.00000000       0.00000000       0.00000000 </v>
  </generation>
  <varray name="kpointlist" >
   <v>       0.00000000       0.00000000       0.00000000 </v>
   <v>       0.10000000       0.00000000       0.00000000 </v>
   <v>       0.20000000       0.00000000       0.00000000 </v>
   <v>       0.30000000       0.00000000       0.00000000 </v>
   <v>       0.40000000       0.00000000       0.00000000 </v>
   <v>       0.50000000       0.00000000       0.00000000 </v>
   <v>       0.10000000       0.10000000       0.00000000 </v>
   <v>       0.20000000       0.10000000       0.00000000 </v>
   <v>       0.30000000       0.10000000       0.00000000 </v>
   <v>       0.40000000       0.10000000       0.00000000 </v>
   <v>       0.50000000       0.10000000       0.00000000 </v>
   <v>      -0.40000000       0.10000000       0.00000000 </v>
   <v>      -0.30000000       0.10000000       0.00000000 </v>
   <v>      -0.20000000       0.10000000       0.00000000 </v>
   <v>      -0.10000000       0.10000000       0.00000000 </v>
   <v>       0.20000000       0.20000000       0.00000000 </v>
   <v>       0.30000000       0.20000000       0.00000000 </v>
   <v>       0.40000000       0.20000000       0.00000000 </v>
   <v>       0.50000000       0.20000000       0.00000000 </v>
   <v>      -0.40000000       0.20000000       0.00000000 </v>
   <v>      -0.30000000       0.20000000       0.00000000 </v>
   <v>      -0.20000000       0.20000000       0.00000000 </v>
   <v>       0.30000000       0.30000000       0.00000000 </v>
   <v>       0.40000000       0.30000000       0.00000000 </v>
   <v>       0.50000000       0.30000000       0.00000000 </v>
   <v>      -0.40000000       0.30000000       0.00000000 </v>
   <v>      -0.30000000       0.30000000       0.00000000 </v>
   <v>       0.40000000       0.40000000       0.00000000 </v>
   <v>       0.50000000       0.40000000       0.00000000 </v>
   <v>      -0.40000000       0.40000000       0.00000000 </v>
   <v>       0.50000000       0.50000000       0.00000000 </v>
   <v>       0.30000000       0.20000000       0.10000000 </v>
   <v>       0.40000000       0.20000000       0.10000000 </v>
   <v>       0.50000000       0.20000000       0.10000000 </v>
   <v>      -0.40000000       0.20000000       0.10000000 </v>
   <v>       0.40000000       0.30000000       0.10000000 </v>
   <v>       0.50000000       0.30000000       0.10000000 </v>
   <v>      -0.40000000       0.30000000       0.10000000 </v>
   <v>      -0.30000000       0.30000000       0.10000000 </v>
   <v>      -0.20000000       0.30000000       0.10000000 </v>
   <v>       0.50000000       0.40000000       0.10000000 </v>
   <v>      -0.40000000       0.40000000       0.10000000 </v>
   <v>      -0.30000000       0.40000000       0.10000000 </v>
   <v>      -0.40000000       0.50000000       0.10000000 </v>
   <v>      -0.40000000       0.40000000       0.20000000 </v>
   <v>      -0.30000000       0.40000000       0.20000000 </v>
   <v>      -0.30000000       0.50000000       0.20000000 </v>
  </varray>
  <varray name="weights" >
   <v>       0.00100000 </v>
   <v>       0.00800000 </v>
   <v>       0.00800000 </v>
   <v>       0.00800000 </v>
   <v>       0.00800000 </v>
   <v>       0.00400000 </v>
   <v>       0.00600000 </v>
   <v>       0.02400000 </v>
   <v>       0.02400000 </v>
   <v>       0.02400000 </v>
   <v>       0.02400000 </v>
   <v>       0.02400000 </v>
   <v>       0.02400000 </v>
   <v>       0.02400000 </v>
   <v>       0.01200000 </v>
   <v>       0.00600000 </v>
   <v>       0.02400000 </v>
   <v>       0.02400000 </v>
   <v>       0.02400000 </v>
   <v>       0.02400000 </v>
   <v>       0.02400000 </v>
   <v>       0.01200000 </v>
   <v>       0.00600000 </v>
   <v>       0.02400000 </v>
   <v>       0.02400000 </v>
   <v>       0.02400000 </v>
   <v>       0.01200000 </v>
   <v>       0.00600000 </v>
   <v>       0.02400000 </v>
   <v>       0.01200000 </v>
   <v>       0.00300000 </v>
   <v>       0.02400000 </v>
   <v>       0.04800000 </v>
   <v>       0.04800000 </v>
   <v>       0.02400000 </v>
   <v>       0.02400000 </v>
   <v>       0.04800000 </v>
   <v>       0.04800000 </v>
   <v>       0.04800000 </v>
   <v>       0.02400000 </v>
   <v>       0.02400000 </v>
   <v>       0.04800000 </v>
   <v>       0.02400000 </v>
   <v>       0.01200000 </v>
   <v>       0.02400000 </v>
   <v>       0.02400000 </v>
   <v>       0.01200000 </v>
  </varray>
 </kpoints>
 <parameters>
  <separator name="general" >
   <i type="string" name="SYSTEM">unknown system</i>
   <i type="logical" name="LCOMPAT"> F  </i>
  </separator>
  <separator name="electronic" >
   <i type="string" name="PREC">accura</i>
   <i name="ENMAX">    550.00000000</i>
   <i name="ENAUG">    322.06900000</i>
   <i name="EDIFF">      0.00000010</i>
   <i type="int" name="IALGO">    38</i>
   <i type="int" name="IWAVPR">    11</i>
   <i type="int" name="NBANDS">     8</i>
   <i name="NELECT">      8.00000000</i>
   <i type="int" name="TURBO">     0</i>
   <i type="int" name="IRESTART">     0</i>
   <i type="int" name="NREBOOT">     0</i>
   <i type="int" name="NMIN">     0</i>
   <i name="EREF">      0.00000000</i>
   <separator name="electronic smearing" >
    <i type="int" name="ISMEAR">     0</i>
    <i name="SIGMA">      0.20000000</i>
    <i name="KSPACING">      0.50000000</i>
    <i type="logical" name="KGAMMA"> T  </i>
   </separator>
   <separator name="electronic projectors" >
    <i type="logical" name="LREAL"> F  </i>
    <v name="ROPT">      0.00000000</v>
    <i type="int" name="LMAXPAW">  -100</i>
    <i type="int" name="LMAXMIX">     2</i>
    <i type="logical" name="NLSPLINE"> F  </i>
   </separator>
   <separator name="electronic startup" >
    <i type="int" name="ISTART">     0</i>
    <i type="int" name="ICHARG">     2</i>
    <i type="int" name="INIWAV">     1</i>
   </separator>
   <separator name="electronic spin" >
    <i type="int" name="ISPIN">     1</i>
    <i type="logical" name="LNONCOLLINEAR"> F  </i>
    <v name="MAGMOM">      1.00000000      1.00000000</v>
    <i name="NUPDOWN">     -1.00000000</i>
    <i type="logical" name="LSORBIT"> F  </i>
    <v name="SAXIS">      0.00000000      0.00000000      1.00000000</v>
    <i type="logical" name="LSPIRAL"> F  </i>
    <v name="QSPIRAL">      0.00000000      0.00000000      0.00000000</v>
    <i type="logical" name="LZEROZ"> F  </i>
   </separator>
   <separator name="electronic exchange-correlation" >
    <i type="logical" name="LASPH"> F  </i>
    <i type="logical" name="LMETAGGA"> F  </i>
   </separator>
   <separator name="electronic convergence" >
    <i type="int" name="NELM">   400</i>
    <i type="int" name="NELMDL">    -5</i>
    <i type="int" name="NELMIN">     2</i>
    <i name="ENINI">    550.00000000</i>
    <separator name="electronic convergence detail" >
     <i type="logical" name="LDIAG"> T  </i>
     <i type="logical" name="LSUBROT"> T  </i>
     <i name="WEIMIN">      0.00100000</i>
     <i name="EBREAK">      0.00000000</i>
     <i name="DEPER">      0.30000000</i>
     <i type="int" name="NRMM">     4</i>
     <i name="TIME">      0.40000000</i>
    </separator>
   </separator>
   <separator name="electronic mixer" >
    <i name="AMIX">      0.40000000</i>
    <i name="BMIX">      1.00000000</i>
    <i name="AMIN">      0.10000000</i>
    <i name="AMIX_MAG">      1.60000000</i>
    <i name="BMIX_MAG">      1.00000000</i>
    <separator name="electronic mixer details" >
     <i type="int" name="IMIX">     4</i>
     <i type="int" name="MAXMIX">   -45</i>
     <i name="WC">    100.00000000</i>
     <i type="int" name="INIMIX">     1</i>
     <i type="int" name="MIXPRE">     1</i>
     <i type="int" name="MREMOVE">     5</i>
    </separator>
   </separator>
   <separator name="electronic dipolcorrection" >
    <i type="logical" name="LDIPOL"> F  </i>
    <i type="logical" name="LMONO"> F  </i>
    <i type="int" name="IDIPOL">     0</i>
    <i name="EPSILON">      1.00000000</i>
    <v name="DIPOL">   -100.00000000   -100.00000000   -100.00000000</v>
    <i name="EFIELD">      0.00000000</i>
   </separator>
  </separator>
  <separator name="grids" >
   <i type="int" name="NGX">    30</i>
   <i type="int" name="NGY">    30</i>
   <i type="int" name="NGZ">    30</i>
   <i type="int" name="NGXF">    60</i>
   <i type="int" name="NGYF">    60</i>
   <i type="int" name="NGZF">    60</i>
   <i type="logical" name="ADDGRID"> F  </i>
  </separator>
  <separator name="ionic" >
   <i type="int" name="NSW">     1</i>
   <i type="int" name="IBRION">     2</i>
   <i type="int" name="ISIF">     2</i>
   <i name="PSTRESS">      0.00000000</i>
   <i name="EDIFFG">      0.00000100</i>
   <i type="int" name="NFREE">     1</i>
   <i name="POTIM">      0.50000000</i>
   <i name="SMASS">     -3.00000000</i>
   <i name="SCALEE">      1.00000000</i>
  </separator>
  <separator name="ionic md" >
   <i name="TEBEG">      0.00010000</i>
   <i name="TEEND">      0.00010000</i>
   <i type="int" name="NBLOCK">     1</i>
   <i type="int" name="KBLOCK">     1</i>
   <i type="int" name="NPACO">   256</i>
   <i name="APACO">     16.00000000</i>
  </separator>
  <separator name="symmetry" >
   <i type="int" name="ISYM">     2</i>
   <i name="SYMPREC">      0.00001000</i>
  </separator>
  <separator name="dos" >
   <i type="logical" name="LORBIT"> F  </i>
   <v name="RWIGS">     -1.00000000</v>
   <i type="int" name="NEDOS">   301</i>
   <i name="EMIN">     10.00000000</i>
   <i name="EMAX">    -10.00000000</i>
   <i name="EFERMI">      0.00000000</i>
  </separator>
  <separator name="writing" >
   <i type="int" name="NWRITE">     2</i>
   <i type="logical" name="LWAVE"> F  </i>
   <i type="logical" name="LCHARG"> F  </i>
   <i type="logical" name="LPARD"> F  </i>
   <i type="logical" name="LVTOT"> F  </i>
   <i type="logical" name="LVHAR"> F  </i>
   <i type="logical" name="LELF"> F  </i>
   <i type="logical" name="LOPTICS"> F  </i>
   <v name="STM">      0.00000000      0.00000000      0.00000000      0.00000000      0.00000000      0.00000000      0.00000000</v>
  </separator>
  <separator name="performance" >
   <i type="int" name="NPAR">     4</i>
   <i type="int" name="NSIM">     4</i>
   <i type="int" name="NBLK">    -1</i>
   <i type="logical" name="LPLANE"> T  </i>
   <i type="logical" name="LSCALAPACK"> F  </i>
   <i type="logical" name="LSCAAWARE"> F  </i>
   <i type="logical" name="LSCALU"> F  </i>
   <i type="logical" name="LASYNC"> F  </i>
   <i type="logical" name="LORBITALREAL"> F  </i>
  </separator>
  <separator name="miscellaneous" >
   <i type="int" name="IDIOT">     3</i>
   <i type="logical" name="LMUSIC"> F  </i>
   <v name="POMASS">     28.08500000</v>
   <v name="DARWINR">      0.00000000</v>
   <v name="DARWINV">      1.00000000</v>
   <i type="logical" name="LCORR"> T  </i>
  </separator>
  <i type="logical" name="GGA_COMPAT"> T  </i>
  <i type="logical" name="LBERRY"> F  </i>
  <i type="int" name="ICORELEVEL">     0</i>
  <i type="logical" name="LDAU"> F  </i>
  <i type="int" name="I_CONSTRAINED_M">     0</i>
  <separator name="electronic exchange-correlation" >
   <i type="string" name="GGA">BO</i>
   <i type="int" name="VOSKOWN">     0</i>
   <i type="logical" name="LHFCALC"> F  </i>
   <i type="string" name="PRECFOCK"></i>
   <i type="logical" name="LSYMGRAD"> F  </i>
   <i type="logical" name="LHFONE"> F  </i>
   <i type="logical" name="LRHFCALC"> F  </i>
   <i type="logical" name="LTHOMAS"> F  </i>
   <i type="logical" name="LMODELHF"> F  </i>
   <i name="ENCUT4O">     -1.00000000</i>
   <i type="int" name="EXXOEP">     0</i>
   <i type="int" name="FOURORBIT">     0</i>
   <i name="AEXX">      0.00000000</i>
   <i name="HFALPHA">      0.00000000</i>
   <i name="MCALPHA">      0.00000000</i>
   <i name="ALDAX">      1.00000000</i>
   <i name="AGGAX">      1.00000000</i>
   <i name="ALDAC">      1.00000000</i>
   <i name="AGGAC">      0.00000000</i>
   <i type="int" name="NKREDX">     1</i>
   <i type="int" name="NKREDY">     1</i>
   <i type="int" name="NKREDZ">     1</i>
   <i type="logical" name="SHIFTRED"> F  </i>
   <i type="logical" name="ODDONLY"> F  </i>
   <i type="logical" name="EVENONLY"> F  </i>
   <i type="int" name="LMAXFOCK">     0</i>
   <i type="int" name="NMAXFOCKAE">     0</i>
   <i type="logical" name="LFOCKAEDFT"> F  </i>
   <i name="HFSCREEN">      0.00000000</i>
   <i name="HFSCREENC">      0.00000000</i>
   <i type="int" name="NBANDSGWLOW">     0</i>
  </separator>
  <separator name="vdW DFT" >
   <i type="logical" name="LUSE_VDW"> T  </i>
   <i name="Zab_VDW">     -0.84910000</i>
   <i name="PARAM1">      0.18333333</i>
   <i name="PARAM2">      0.22000000</i>
   <i name="PARAM3">      0.00000000</i>
  </separator>
  <separator name="model GW" >
   <i type="int" name="MODEL_GW">     0</i>
   <i name="MODEL_EPS0">     12.26648953</i>
   <i name="MODEL_ALPHA">      1.00000000</i>
  </separator>
  <separator name="linear response parameters" >
   <i type="logical" name="LEPSILON"> F  </i>
   <i type="logical" name="LRPA"> F  </i>
   <i type="logical" name="LNABLA"> F  </i>
   <i type="logical" name="LVEL"> F  </i>
   <i type="int" name="KINTER">     0</i>
   <i name="CSHIFT">      0.10000000</i>
   <i name="OMEGAMAX">     -1.00000000</i>
   <i name="DEG_THRESHOLD">      0.00200000</i>
  </separator>
  <separator name="orbital magnetization" >
   <i type="logical" name="NUCIND"> F  </i>
   <v name="MAGPOS">      0.00000000      0.00000000      0.00000000</v>
   <i type="logical" name="LNICSALL"> T  </i>
   <i type="logical" name="ORBITALMAG"> F  </i>
   <i type="logical" name="LMAGBLOCH"> F  </i>
   <i type="logical" name="LCHIMAG"> F  </i>
   <i type="logical" name="LGAUGE"> T  </i>
   <i type="int" name="MAGATOM">     0</i>
   <v name="MAGDIPOL">      0.00000000      0.00000000      0.00000000</v>
   <v name="AVECCONST">      0.00000000      0.00000000      0.00000000</v>
  </separator>
  <separator name="response functions" >
   <i type="logical" name="LADDER"> F  </i>
   <i type="logical" name="LFXC"> F  </i>
   <i type="logical" name="LHARTREE"> T  </i>
   <i type="int" name="IBSE">     0</i>
   <i type="logical" name="LTCTE"> F  </i>
   <i type="logical" name="LTETE"> F  </i>
   <i type="logical" name="LTRIPLET"> F  </i>
   <i type="logical" name="LFXCEPS"> F  </i>
   <i type="logical" name="L2ORDER"> F  </i>
   <i type="logical" name="LUSEW"> F  </i>
   <i name="ENCUTGW">     -2.00000000</i>
   <i name="ENCUTGWSOFT">     -2.00000000</i>
   <i name="ENCUTLF">     -1.00000000</i>
   <i type="int" name="LMAXMP2">    -1</i>
   <i name="SCISSOR">      0.00000000</i>
   <i type="int" name="NOMEGA">     0</i>
   <i type="int" name="NOMEGAR">     0</i>
   <i type="int" name="NBANDSGW">    -1</i>
   <i type="int" name="NBANDSO">    -1</i>
   <i type="int" name="NBANDSV">    -1</i>
   <i type="int" name="NELM">   400</i>
   <i type="int" name="DIM">     3</i>
   <i type="int" name="ANTIRES">     0</i>
   <i name="OMEGAMAX">    -30.00000000</i>
   <i name="OMEGATL">   -200.00000000</i>
   <i type="int" name="OMEGAGRID">     0</i>
   <i name="CSHIFT">     -0.10000000</i>
   <i type="logical" name="SELFENERGY"> F  </i>
   <i type="logical" name="LSPECTRAL"> F  </i>
   <i type="logical" name="ODDONLYGW"> F  </i>
   <i type="logical" name="EVENONLYGW"> F  </i>
   <i type="int" name="NKREDLFX">     1</i>
   <i type="int" name="NKREDLFY">     1</i>
   <i type="int" name="NKREDLFZ">     1</i>
   <i type="int" name="MAXMEM">  1800</i>
   <i type="int" name="TELESCOPE">     0</i>
  </separator>
 </parameters>
 <atominfo>
  <atoms>       2 </atoms>
  <types>       1 </types>
  <array name="atoms" >
   <dimension dim="1">ion</dimension>
   <field type="string">element</field>
   <field type="int">atomtype</field>
   <set>
    <rc><c>Si</c><c>   1</c></rc>
    <rc><c>Si</c><c>   1</c></rc>
   </set>
  </array>
  <array name="atomtypes" >
   <dimension dim="1">type</dimension>
   <field type="int">atomspertype</field>
   <field type="string">element</field>
   <field>mass</field>
   <field>valence</field>
   <field type="string">pseudopotential</field>
   <set>
    <rc><c>   2</c><c>Si</c><c>     28.08500000</c><c>      4.00000000</c><c>  PAW_PBE Si 05Jan2001                  </c></rc>
   </set>
  </array>
 </atominfo>
 <structure name="initialpos" >
  <crystal>
   <varray name="basis" >
    <v>       3.34889800       0.00000000       1.93348700 </v>
    <v>       1.11629900       3.15737200       1.93348700 </v>
    <v>       0.00000000       0.00000000       3.86697500 </v>
   </varray>
   <i name="volume">     40.88829843 </i>
   <varray name="rec_basis" >
    <v>       0.29860569      -0.10557300       0.00000000 </v>
    <v>       0.00000000       0.31671909       0.00000000 </v>
    <v>      -0.14930281      -0.10557302       0.25860007 </v>
   </varray>
  </crystal>
  <varray name="positions" >
   <v>       0.87500000       0.87500000       0.87500000 </v>
   <v>       0.12500000       0.12500000       0.12500000 </v>
  </varray>
 </structure>
 <calculation>
  <scstep>
   <time name="dav">    0.28    0.28</time>
   <time name="total">    2.54   11.80</time>
   <energy>
    <i name="alphaZ">      3.29317992 </i>
    <i name="ewald">   -226.94489173 </i>
    <i name="hartreedc">    -11.32339116 </i>
    <i name="XCdc">    -20.24410379 </i>
    <i name="pawpsdc">    189.40224250 </i>
    <i name="pawaedc">   -152.61488262 </i>
    <i name="eentropy">     -0.00953868 </i>
    <i name="bandstr">     19.02638701 </i>
    <i name="atom">    208.59416316 </i>
    <i name="e_fr_energy">      9.17916459 </i>
    <i name="e_wo_entrp">      9.18870327 </i>
    <i name="e_0_energy">      9.18393393 </i>
   </energy>
  </scstep>
  <scstep>
   <time name="dav">    0.42    0.42</time>
   <time name="total">    0.42    2.36</time>
   <energy>
    <i name="e_fr_energy">     -8.18154401 </i>
    <i name="e_wo_entrp">     -8.18154301 </i>
    <i name="e_0_energy">     -8.18154351 </i>
   </energy>
  </scstep>
  <scstep>
   <time name="dav">    0.37    0.39</time>
   <time name="total">    0.37    1.00</time>
   <energy>
    <i name="e_fr_energy">     -8.41305343 </i>
    <i name="e_wo_entrp">     -8.41305064 </i>
    <i name="e_0_energy">     -8.41305204 </i>
   </energy>
  </scstep>
  <scstep>
   <time name="dav">    0.47    0.47</time>
   <time name="total">    0.47    0.81</time>
   <energy>
    <i name="e_fr_energy">     -8.41426605 </i>
    <i name="e_wo_entrp">     -8.41426325 </i>
    <i name="e_0_energy">     -8.41426465 </i>
   </energy>
  </scstep>
  <scstep>
   <time name="dav">    0.38    0.38</time>
   <time name="total">    0.44    1.03</time>
   <energy>
    <i name="e_fr_energy">     -8.41426742 </i>
    <i name="e_wo_entrp">     -8.41426462 </i>
    <i name="e_0_energy">     -8.41426602 </i>
   </energy>
  </scstep>
  <scstep>
   <time name="dav">    0.36    0.36</time>
   <time name="total">    1.48    4.95</time>
   <energy>
    <i name="e_fr_energy">     -8.36090573 </i>
    <i name="e_wo_entrp">     -8.36089441 </i>
    <i name="e_0_energy">     -8.36090007 </i>
   </energy>
  </scstep>
  <scstep>
   <time name="dav">    0.38    0.38</time>
   <time name="total">    1.50    2.28</time>
   <energy>
    <i name="e_fr_energy">     -8.35554575 </i>
    <i name="e_wo_entrp">     -8.35547324 </i>
    <i name="e_0_energy">     -8.35550950 </i>
   </energy>
  </scstep>
  <scstep>
   <time name="dav">    0.35    0.35</time>
   <time name="total">    1.47    2.07</time>
   <energy>
    <i name="e_fr_energy">     -8.33875642 </i>
    <i name="e_wo_entrp">     -8.33870472 </i>
    <i name="e_0_energy">     -8.33873057 </i>
   </energy>
  </scstep>
  <scstep>
   <time name="dav">    0.36    0.36</time>
   <time name="total">    1.46    2.20</time>
   <energy>
    <i name="e_fr_energy">     -8.34040475 </i>
    <i name="e_wo_entrp">     -8.34034851 </i>
    <i name="e_0_energy">     -8.34037663 </i>
   </energy>
  </scstep>
  <scstep>
   <time name="dav">    0.26    0.26</time>
   <time name="total">    1.28    1.77</time>
   <energy>
    <i name="e_fr_energy">     -8.33973581 </i>
    <i name="e_wo_entrp">     -8.33968080 </i>
    <i name="e_0_energy">     -8.33970831 </i>
   </energy>
  </scstep>
  <scstep>
   <time name="dav">    0.36    0.36</time>
   <time name="total">    2.02    2.89</time>
   <energy>
    <i name="e_fr_energy">     -8.33971002 </i>
    <i name="e_wo_entrp">     -8.33965489 </i>
    <i name="e_0_energy">     -8.33968246 </i>
   </energy>
  </scstep>
  <scstep>
   <time name="dav">    0.32    0.33</time>
   <time name="total">    1.43    7.38</time>
   <energy>
    <i name="e_fr_energy">     -8.33970848 </i>
    <i name="e_wo_entrp">     -8.33965338 </i>
    <i name="e_0_energy">     -8.33968093 </i>
   </energy>
  </scstep>
  <scstep>
   <time name="dav">    0.22    0.23</time>
   <time name="total">    1.34    1.82</time>
   <energy>
    <i name="e_fr_energy">     -8.33970640 </i>
    <i name="e_wo_entrp">     -8.33965131 </i>
    <i name="e_0_energy">     -8.33967885 </i>
   </energy>
  </scstep>
  <scstep>
   <time name="dav">    0.23    0.23</time>
   <time name="total">    1.35    1.93</time>
   <energy>
    <i name="e_fr_energy">     -8.33970606 </i>
    <i name="e_wo_entrp">     -8.33965097 </i>
    <i name="e_0_energy">     -8.33967851 </i>
   </energy>
  </scstep>
  <scstep>
   <time name="dav">    0.23    0.23</time>
   <time name="total">    1.37    2.28</time>
   <energy>
    <i name="e_fr_energy">     -8.33970576 </i>
    <i name="e_wo_entrp">     -8.33965067 </i>
    <i name="e_0_energy">     -8.33967821 </i>
   </energy>
  </scstep>
  <scstep>
   <time name="dav">    0.20    0.20</time>
   <time name="total">    1.33    2.11</time>
   <energy>
    <i name="alphaZ">      3.29317992 </i>
    <i name="ewald">   -226.94489173 </i>
    <i name="hartreedc">    -15.37503163 </i>
    <i name="XCdc">    -19.57587033 </i>
    <i name="pawpsdc">    538.71032572 </i>
    <i name="pawaedc">   -502.17374425 </i>
    <i name="eentropy">     -0.00005509 </i>
    <i name="bandstr">      5.13221844 </i>
    <i name="atom">    208.59416316 </i>
    <i name="e_fr_energy">     -8.33970581 </i>
    <i name="e_wo_entrp">     -8.33965072 </i>
    <i name="e_0_energy">     -8.33967827 </i>
   </energy>
  </scstep>
  <structure>
   <crystal>
    <varray name="basis" >
     <v>       3.34889800       0.00000000       1.93348700 </v>
     <v>       1.11629900       3.15737200       1.93348700 </v>
     <v>       0.00000000       0.00000000       3.86697500 </v>
    </varray>
    <i name="volume">     40.88829843 </i>
    <varray name="rec_basis" >
     <v>       0.29860569      -0.10557300       0.00000000 </v>
     <v>       0.00000000       0.31671909       0.00000000 </v>
     <v>      -0.14930281      -0.10557302       0.25860007 </v>
    </varray>
   </crystal>
   <varray name="positions" >
    <v>       0.87500000       0.87500000       0.87500000 </v>
    <v>       0.12500000       0.12500000       0.12500000 </v>
   </varray>
  </structure>
  <varray name="forces" >
   <v>       0.00000000       0.00000000       0.00000000 </v>
   <v>       0.00000000       0.00000000       0.00000000 </v>
  </varray>
  <varray name="stress" >
   <v>      12.26500369      -0.00000129      -0.00000183 </v>
   <v>      -0.00000129      12.26500902      -0.00000129 </v>
   <v>      -0.00000183      -0.00000129      12.26500798 </v>
  </varray>
  <energy>
   <i name="e_fr_energy">     -8.33970581 </i>
   <i name="e_wo_entrp">     -8.33967827 </i>
   <i name="e_0_energy">     -0.00005509 </i>
  </energy>
  <time name="totalsc">   23.59   56.16</time>
  <eigenvalues>
   <array>
    <dimension dim="1">band</dimension>
    <dimension dim="2">kpoint</dimension>
    <dimension dim="3">spin</dimension>
    <field>eigene</field>
    <field>occ</field>
    <set>
     <set comment="spin 1">
      <set comment="kpoint 1">
       <r>   -6.1469    1.0000 </r>
       <r>    5.5939    0.9901 </r>
       <r>    5.5939    0.9901 </r>
       <r>    5.5939    0.9901 </r>
       <r>    8.2165    0.0000 </r>
       <r>    8.2165    0.0000 </r>
       <r>    8.2165    0.0000 </r>
       <r>    8.8219    0.0000 </r>
      </set>
      <set comment="kpoint 2">
       <r>   -6.0186    1.0000 </r>
       <r>    4.4769    1.0000 </r>
       <r>    5.4056    0.9999 </r>
       <r>    5.4056    0.9999 </r>
       <r>    8.1864    0.0000 </r>
       <r>    8.4973    0.0000 </r>
       <r>    8.4973    0.0000 </r>
       <r>    9.7635    0.0000 </r>
      </set>
      <set comment="kpoint 3">
       <r>   -5.6400    1.0000 </r>
       <r>    2.6546    1.0000 </r>
       <r>    5.0389    1.0000 </r>
       <r>    5.0389    1.0000 </r>
       <r>    7.8196    0.0000 </r>
       <r>    8.9951    0.0000 </r>
       <r>    8.9951    0.0000 </r>
       <r>   11.5187    0.0000 </r>
      </set>
      <set comment="kpoint 4">
       <r>   -5.0381    1.0000 </r>
       <r>    0.9064    1.0000 </r>
       <r>    4.7129    1.0000 </r>
       <r>    4.7129    1.0000 </r>
       <r>    7.4571    0.0000 </r>
       <r>    9.1782    0.0000 </r>
       <r>    9.1782    0.0000 </r>
       <r>   13.1386    0.0000 </r>
      </set>
      <set comment="kpoint 5">
       <r>   -4.3102    1.0000 </r>
       <r>   -0.5355    1.0000 </r>
       <r>    4.5049    1.0000 </r>
       <r>    4.5049    1.0000 </r>
       <r>    7.2178    0.0000 </r>
       <r>    9.0768    0.0000 </r>
       <r>    9.0768    0.0000 </r>
       <r>   13.4717    0.0000 </r>
      </set>
      <set comment="kpoint 6">
       <r>   -3.8739    1.0000 </r>
       <r>   -1.2133    1.0000 </r>
       <r>    4.4345    1.0000 </r>
       <r>    4.4345    1.0000 </r>
       <r>    7.1356    0.0000 </r>
       <r>    9.0067    0.0000 </r>
       <r>    9.0067    0.0000 </r>
       <r>   13.3726    0.0000 </r>
      </set>
      <set comment="kpoint 7">
       <r>   -5.9755    1.0000 </r>
       <r>    4.6599    1.0000 </r>
       <r>    5.0468    1.0000 </r>
       <r>    5.0468    1.0000 </r>
       <r>    7.8464    0.0000 </r>
       <r>    8.9737    0.0000 </r>
       <r>    8.9737    0.0000 </r>
       <r>    9.6569    0.0000 </r>
      </set>
      <set comment="kpoint 8">
       <r>   -5.6792    1.0000 </r>
       <r>    3.1903    1.0000 </r>
       <r>    4.6266    1.0000 </r>
       <r>    4.7840    1.0000 </r>
       <r>    7.8944    0.0000 </r>
       <r>    8.9953    0.0000 </r>
       <r>    9.6119    0.0000 </r>
       <r>   10.5628    0.0000 </r>
      </set>
      <set comment="kpoint 9">
       <r>   -5.1471    1.0000 </r>
       <r>    1.4710    1.0000 </r>
       <r>    4.3152    1.0000 </r>
       <r>    4.3628    1.0000 </r>
       <r>    7.9994    0.0000 </r>
       <r>    9.0014    0.0000 </r>
       <r>    9.9018    0.0000 </r>
       <r>   10.9486    0.0000 </r>
      </set>
      <set comment="kpoint 10">
       <r>   -4.4404    1.0000 </r>
       <r>   -0.0658    1.0000 </r>
       <r>    3.9620    1.0000 </r>
       <r>    4.1694    1.0000 </r>
       <r>    7.8467    0.0000 </r>
       <r>    8.9864    0.0000 </r>
       <r>    9.7443    0.0000 </r>
       <r>   11.9889    0.0000 </r>
      </set>
      <set comment="kpoint 11">
       <r>   -3.8193    1.0000 </r>
       <r>   -1.0746    1.0000 </r>
       <r>    3.6800    1.0000 </r>
       <r>    4.1988    1.0000 </r>
       <r>    7.7560    0.0000 </r>
       <r>    8.9642    0.0000 </r>
       <r>    9.4921    0.0000 </r>
       <r>   13.3915    0.0000 </r>
      </set>
      <set comment="kpoint 12">
       <r>   -3.9808    1.0000 </r>
       <r>   -0.8333    1.0000 </r>
       <r>    3.5574    1.0000 </r>
       <r>    4.3908    1.0000 </r>
       <r>    7.8118    0.0000 </r>
       <r>    9.0952    0.0000 </r>
       <r>    9.3422    0.0000 </r>
       <r>   13.6481    0.0000 </r>
      </set>
      <set comment="kpoint 13">
       <r>   -4.6896    1.0000 </r>
       <r>    0.4164    1.0000 </r>
       <r>    3.6196    1.0000 </r>
       <r>    4.7142    1.0000 </r>
       <r>    8.0114    0.0000 </r>
       <r>    9.2668    0.0000 </r>
       <r>    9.3333    0.0000 </r>
       <r>   12.5734    0.0000 </r>
      </set>
      <set comment="kpoint 14">
       <r>   -5.3501    1.0000 </r>
       <r>    2.0274    1.0000 </r>
       <r>    3.8930    1.0000 </r>
       <r>    5.1066    1.0000 </r>
       <r>    8.3188    0.0000 </r>
       <r>    9.0143    0.0000 </r>
       <r>    9.3217    0.0000 </r>
       <r>   11.5186    0.0000 </r>
      </set>
      <set comment="kpoint 15">
       <r>   -5.8064    1.0000 </r>
       <r>    3.6011    1.0000 </r>
       <r>    4.4890    1.0000 </r>
       <r>    5.4219    0.9998 </r>
       <r>    8.5698    0.0000 </r>
       <r>    8.5781    0.0000 </r>
       <r>    8.7255    0.0000 </r>
       <r>   10.6980    0.0000 </r>
      </set>
      <set comment="kpoint 16">
       <r>   -5.4654    1.0000 </r>
       <r>    2.9981    1.0000 </r>
       <r>    4.1660    1.0000 </r>
       <r>    4.1660    1.0000 </r>
       <r>    7.1401    0.0000 </r>
       <r>    9.5174    0.0000 </r>
       <r>   10.4717    0.0000 </r>
       <r>   10.4717    0.0000 </r>
      </set>
      <set comment="kpoint 17">
       <r>   -5.0093    1.0000 </r>
       <r>    1.7835    1.0000 </r>
       <r>    3.6712    1.0000 </r>
       <r>    3.8266    1.0000 </r>
       <r>    7.2314    0.0000 </r>
       <r>    9.1087    0.0000 </r>
       <r>   10.7235    0.0000 </r>
       <r>   11.0599    0.0000 </r>
      </set>
      <set comment="kpoint 18">
       <r>   -4.3492    1.0000 </r>
       <r>    0.3844    1.0000 </r>
       <r>    3.0581    1.0000 </r>
       <r>    3.6696    1.0000 </r>
       <r>    7.4475    0.0000 </r>
       <r>    9.7231    0.0000 </r>
       <r>   10.4969    0.0000 </r>
       <r>   11.0341    0.0000 </r>
      </set>
      <set comment="kpoint 19">
       <r>   -3.6382    1.0000 </r>
       <r>   -0.7669    1.0000 </r>
       <r>    2.5606    1.0000 </r>
       <r>    3.7105    1.0000 </r>
       <r>    7.5138    0.0000 </r>
       <r>   10.2755    0.0000 </r>
       <r>   10.7235    0.0000 </r>
       <r>   11.2431    0.0000 </r>
      </set>
      <set comment="kpoint 20">
       <r>   -3.4909    1.0000 </r>
       <r>   -0.9680    1.0000 </r>
       <r>    2.2714    1.0000 </r>
       <r>    3.9405    1.0000 </r>
       <r>    7.7223    0.0000 </r>
       <r>   10.1808    0.0000 </r>
       <r>   10.4305    0.0000 </r>
       <r>   13.1321    0.0000 </r>
      </set>
      <set comment="kpoint 21">
       <r>   -4.1255    1.0000 </r>
       <r>   -0.0103    1.0000 </r>
       <r>    2.2573    1.0000 </r>
       <r>    4.3245    1.0000 </r>
       <r>    8.1043    0.0000 </r>
       <r>   10.1594    0.0000 </r>
       <r>   10.1896    0.0000 </r>
       <r>   12.2624    0.0000 </r>
      </set>
      <set comment="kpoint 22">
       <r>   -4.8264    1.0000 </r>
       <r>    1.1970    1.0000 </r>
       <r>    2.7055    1.0000 </r>
       <r>    4.7781    1.0000 </r>
       <r>    8.5153    0.0000 </r>
       <r>    9.6231    0.0000 </r>
       <r>    9.8880    0.0000 </r>
       <r>   11.3156    0.0000 </r>
      </set>
      <set comment="kpoint 23">
       <r>   -4.6290    1.0000 </r>
       <r>    1.2391    1.0000 </r>
       <r>    3.4442    1.0000 </r>
       <r>    3.4442    1.0000 </r>
       <r>    6.5550    0.0000 </r>
       <r>    8.1023    0.0000 </r>
       <r>   12.1939    0.0000 </r>
       <r>   12.1939    0.0000 </r>
      </set>
      <set comment="kpoint 24">
       <r>   -4.0294    1.0000 </r>
       <r>    0.2551    1.0000 </r>
       <r>    2.8410    1.0000 </r>
       <r>    3.2440    1.0000 </r>
       <r>    6.7398    0.0000 </r>
       <r>    7.9275    0.0000 </r>
       <r>   12.4815    0.0000 </r>
       <r>   12.6238    0.0000 </r>
      </set>
      <set comment="kpoint 25">
       <r>   -3.2977    1.0000 </r>
       <r>   -0.7264    1.0000 </r>
       <r>    2.0390    1.0000 </r>
       <r>    3.2494    1.0000 </r>
       <r>    6.9234    0.0000 </r>
       <r>    9.0248    0.0000 </r>
       <r>   12.3007    0.0000 </r>
       <r>   12.3954    0.0000 </r>
      </set>
      <set comment="kpoint 26">
       <r>   -2.8931    1.0000 </r>
       <r>   -1.1864    1.0000 </r>
       <r>    1.5022    1.0000 </r>
       <r>    3.4582    1.0000 </r>
       <r>    7.1518    0.0000 </r>
       <r>   10.7930    0.0000 </r>
       <r>   12.0088    0.0000 </r>
       <r>   12.1472    0.0000 </r>
      </set>
      <set comment="kpoint 27">
       <r>   -3.4170    1.0000 </r>
       <r>   -0.6111    1.0000 </r>
       <r>    1.4782    1.0000 </r>
       <r>    3.8423    1.0000 </r>
       <r>    7.5835    0.0000 </r>
       <r>   11.3489    0.0000 </r>
       <r>   11.6031    0.0000 </r>
       <r>   12.3859    0.0000 </r>
      </set>
      <set comment="kpoint 28">
       <r>   -3.4905    1.0000 </r>
       <r>   -0.4862    1.0000 </r>
       <r>    2.9904    1.0000 </r>
       <r>    2.9904    1.0000 </r>
       <r>    6.2844    0.0054 </r>
       <r>    7.0164    0.0000 </r>
       <r>   14.0211    0.0000 </r>
       <r>   14.0211    0.0000 </r>
      </set>
      <set comment="kpoint 29">
       <r>   -2.7780    1.0000 </r>
       <r>   -1.3092    1.0000 </r>
       <r>    2.4290    1.0000 </r>
       <r>    2.9426    1.0000 </r>
       <r>    6.5198    0.0000 </r>
       <r>    7.2585    0.0000 </r>
       <r>   14.2833    0.0000 </r>
       <r>   14.3527    0.0000 </r>
      </set>
      <set comment="kpoint 30">
       <r>   -2.3190    1.0000 </r>
       <r>   -1.7175    1.0000 </r>
       <r>    1.6754    1.0000 </r>
       <r>    3.1051    1.0000 </r>
       <r>    6.7302    0.0000 </r>
       <r>    8.7967    0.0000 </r>
       <r>   13.6481    0.0000 </r>
       <r>   14.1753    0.0000 </r>
      </set>
      <set comment="kpoint 31">
       <r>   -2.0894    1.0000 </r>
       <r>   -2.0894    1.0000 </r>
       <r>    2.8365    1.0000 </r>
       <r>    2.8365    1.0000 </r>
       <r>    6.4186    0.0002 </r>
       <r>    6.4186    0.0002 </r>
       <r>   15.5834    0.0000 </r>
       <r>   15.5834    0.0000 </r>
      </set>
      <set comment="kpoint 32">
       <r>   -5.3037    1.0000 </r>
       <r>    2.2760    1.0000 </r>
       <r>    3.5974    1.0000 </r>
       <r>    4.6579    1.0000 </r>
       <r>    7.9980    0.0000 </r>
       <r>    9.3076    0.0000 </r>
       <r>   10.2479    0.0000 </r>
       <r>   10.2509    0.0000 </r>
      </set>
      <set comment="kpoint 33">
       <r>   -4.7056    1.0000 </r>
       <r>    0.9015    1.0000 </r>
       <r>    3.0188    1.0000 </r>
       <r>    4.2971    1.0000 </r>
       <r>    8.3365    0.0000 </r>
       <r>    9.2215    0.0000 </r>
       <r>   10.3449    0.0000 </r>
       <r>   10.7151    0.0000 </r>
      </set>
      <set comment="kpoint 34">
       <r>   -3.9777    1.0000 </r>
       <r>   -0.4252    1.0000 </r>
       <r>    2.7864    1.0000 </r>
       <r>    3.9600    1.0000 </r>
       <r>    8.3779    0.0000 </r>
       <r>    8.9298    0.0000 </r>
       <r>   10.6540    0.0000 </r>
       <r>   11.6524    0.0000 </r>
      </set>
      <set comment="kpoint 35">
       <r>   -3.5336    1.0000 </r>
       <r>   -1.0821    1.0000 </r>
       <r>    2.7255    1.0000 </r>
       <r>    3.8274    1.0000 </r>
       <r>    8.3915    0.0000 </r>
       <r>    8.7660    0.0000 </r>
       <r>   10.6166    0.0000 </r>
       <r>   13.3541    0.0000 </r>
      </set>
      <set comment="kpoint 36">
       <r>   -4.4830    1.0000 </r>
       <r>    0.8947    1.0000 </r>
       <r>    2.8896    1.0000 </r>
       <r>    3.5858    1.0000 </r>
       <r>    7.4421    0.0000 </r>
       <r>    8.7282    0.0000 </r>
       <r>   10.7783    0.0000 </r>
       <r>   12.0873    0.0000 </r>
      </set>
      <set comment="kpoint 37">
       <r>   -3.7797    1.0000 </r>
       <r>   -0.1806    1.0000 </r>
       <r>    2.2863    1.0000 </r>
       <r>    3.2700    1.0000 </r>
       <r>    7.8230    0.0000 </r>
       <r>    9.4013    0.0000 </r>
       <r>   10.4121    0.0000 </r>
       <r>   12.4826    0.0000 </r>
      </set>
      <set comment="kpoint 38">
       <r>   -3.1489    1.0000 </r>
       <r>   -1.0169    1.0000 </r>
       <r>    1.8870    1.0000 </r>
       <r>    3.2162    1.0000 </r>
       <r>    8.0036    0.0000 </r>
       <r>    9.9798    0.0000 </r>
       <r>   11.1083    0.0000 </r>
       <r>   12.4177    0.0000 </r>
      </set>
      <set comment="kpoint 39">
       <r>   -3.3445    1.0000 </r>
       <r>   -0.7655    1.0000 </r>
       <r>    1.7435    1.0000 </r>
       <r>    3.4478    1.0000 </r>
       <r>    8.3361    0.0000 </r>
       <r>    9.7292    0.0000 </r>
       <r>   11.5382    0.0000 </r>
       <r>   12.2884    0.0000 </r>
      </set>
      <set comment="kpoint 40">
       <r>   -4.0606    1.0000 </r>
       <r>    0.1593    1.0000 </r>
       <r>    2.0400    1.0000 </r>
       <r>    3.8724    1.0000 </r>
       <r>    8.8137    0.0000 </r>
       <r>    9.2820    0.0000 </r>
       <r>   10.3382    0.0000 </r>
       <r>   11.8165    0.0000 </r>
      </set>
      <set comment="kpoint 41">
       <r>   -3.3759    1.0000 </r>
       <r>   -0.5712    1.0000 </r>
       <r>    2.4891    1.0000 </r>
       <r>    2.8067    1.0000 </r>
       <r>    7.1605    0.0000 </r>
       <r>    7.7565    0.0000 </r>
       <r>   12.3081    0.0000 </r>
       <r>   14.0084    0.0000 </r>
      </set>
      <set comment="kpoint 42">
       <r>   -2.6568    1.0000 </r>
       <r>   -1.3290    1.0000 </r>
       <r>    1.8136    1.0000 </r>
       <r>    2.7187    1.0000 </r>
       <r>    7.5113    0.0000 </r>
       <r>    8.9254    0.0000 </r>
       <r>   11.9197    0.0000 </r>
       <r>   13.6789    0.0000 </r>
      </set>
      <set comment="kpoint 43">
       <r>   -2.6662    1.0000 </r>
       <r>   -1.2996    1.0000 </r>
       <r>    1.4114    1.0000 </r>
       <r>    2.9801    1.0000 </r>
       <r>    7.8318    0.0000 </r>
       <r>   10.7223    0.0000 </r>
       <r>   11.5318    0.0000 </r>
       <r>   11.8600    0.0000 </r>
      </set>
      <set comment="kpoint 44">
       <r>   -2.0393    1.0000 </r>
       <r>   -2.0393    1.0000 </r>
       <r>    2.4478    1.0000 </r>
       <r>    2.4478    1.0000 </r>
       <r>    7.2450    0.0000 </r>
       <r>    7.2450    0.0000 </r>
       <r>   14.0230    0.0000 </r>
       <r>   14.0230    0.0000 </r>
      </set>
      <set comment="kpoint 45">
       <r>   -3.0654    1.0000 </r>
       <r>   -0.8621    1.0000 </r>
       <r>    1.7554    1.0000 </r>
       <r>    2.7147    1.0000 </r>
       <r>    9.0277    0.0000 </r>
       <r>    9.4196    0.0000 </r>
       <r>   10.0294    0.0000 </r>
       <r>   13.3424    0.0000 </r>
      </set>
      <set comment="kpoint 46">
       <r>   -2.5686    1.0000 </r>
       <r>   -1.3595    1.0000 </r>
       <r>    1.6032    1.0000 </r>
       <r>    2.4719    1.0000 </r>
       <r>    9.3140    0.0000 </r>
       <r>    9.6024    0.0000 </r>
       <r>   10.9997    0.0000 </r>
       <r>   11.4235    0.0000 </r>
      </set>
      <set comment="kpoint 47">
       <r>   -1.9515    1.0000 </r>
       <r>   -1.9515    1.0000 </r>
       <r>    1.9566    1.0000 </r>
       <r>    1.9566    1.0000 </r>
       <r>    9.0709    0.0000 </r>
       <r>    9.0709    0.0000 </r>
       <r>   11.5071    0.0000 </r>
       <r>   11.5072    0.0000 </r>
      </set>
     </set>
    </set>
   </array>
  </eigenvalues>
  <separator name="orbital magnetization" >
   <v name="MAGDIPOLOUT">      0.00000000      0.00000000      0.00000000</v>
  </separator>
  <dos>
   <i name="efermi">      5.92362491 </i>
   <total>
    <array>
     <dimension dim="1">gridpoints</dimension>
     <dimension dim="2">spin</dimension>
     <field>energy</field>
     <field>total</field>
     <field>integrated</field>
     <set>
      <set comment="spin 1">
       <r>    -8.1469     0.0000     0.0000 </r>
       <r>    -8.0611     0.0000     0.0000 </r>
       <r>    -7.9754     0.0000     0.0000 </r>
       <r>    -7.8896     0.0000     0.0000 </r>
       <r>    -7.8038     0.0000     0.0000 </r>
       <r>    -7.7181     0.0000     0.0000 </r>
       <r>    -7.6323     0.0000     0.0000 </r>
       <r>    -7.5465     0.0000     0.0000 </r>
       <r>    -7.4608     0.0000     0.0000 </r>
       <r>    -7.3750     0.0000     0.0000 </r>
       <r>    -7.2892     0.0000     0.0000 </r>
       <r>    -7.2034     0.0000     0.0000 </r>
       <r>    -7.1177     0.0000     0.0000 </r>
       <r>    -7.0319     0.0000     0.0000 </r>
       <r>    -6.9461     0.0000     0.0000 </r>
       <r>    -6.8604     0.0000     0.0000 </r>
       <r>    -6.7746     0.0000     0.0000 </r>
       <r>    -6.6888     0.0000     0.0000 </r>
       <r>    -6.6031     0.0000     0.0000 </r>
       <r>    -6.5173     0.0001     0.0000 </r>
       <r>    -6.4315     0.0008     0.0001 </r>
       <r>    -6.3458     0.0035     0.0004 </r>
       <r>    -6.2600     0.0120     0.0014 </r>
       <r>    -6.1742     0.0314     0.0041 </r>
       <r>    -6.0885     0.0629     0.0095 </r>
       <r>    -6.0027     0.1002     0.0181 </r>
       <r>    -5.9169     0.1376     0.0299 </r>
       <r>    -5.8312     0.1790     0.0452 </r>
       <r>    -5.7454     0.2233     0.0644 </r>
       <r>    -5.6596     0.2508     0.0859 </r>
       <r>    -5.5739     0.2514     0.1075 </r>
       <r>    -5.4881     0.2551     0.1294 </r>
       <r>    -5.4023     0.2957     0.1547 </r>
       <r>    -5.3166     0.3557     0.1852 </r>
       <r>    -5.2308     0.3913     0.2188 </r>
       <r>    -5.1450     0.3922     0.2524 </r>
       <r>    -5.0593     0.3754     0.2846 </r>
       <r>    -4.9735     0.3569     0.3152 </r>
       <r>    -4.8877     0.3647     0.3465 </r>
       <r>    -4.8020     0.4292     0.3833 </r>
       <r>    -4.7162     0.5239     0.4283 </r>
       <r>    -4.6304     0.5767     0.4777 </r>
       <r>    -4.5447     0.5675     0.5264 </r>
       <r>    -4.4589     0.5368     0.5724 </r>
       <r>    -4.3731     0.5044     0.6157 </r>
       <r>    -4.2873     0.4764     0.6566 </r>
       <r>    -4.2016     0.5048     0.6999 </r>
       <r>    -4.1158     0.6376     0.7545 </r>
       <r>    -4.0300     0.8184     0.8247 </r>
       <r>    -3.9443     0.9242     0.9040 </r>
       <r>    -3.8585     0.9038     0.9815 </r>
       <r>    -3.7727     0.8091     1.0509 </r>
       <r>    -3.6870     0.7153     1.1123 </r>
       <r>    -3.6012     0.6802     1.1706 </r>
       <r>    -3.5154     0.7294     1.2332 </r>
       <r>    -3.4297     0.8258     1.3040 </r>
       <r>    -3.3439     0.8865     1.3800 </r>
       <r>    -3.2581     0.8572     1.4535 </r>
       <r>    -3.1724     0.7562     1.5184 </r>
       <r>    -3.0866     0.6315     1.5726 </r>
       <r>    -3.0008     0.5195     1.6171 </r>
       <r>    -2.9151     0.4599     1.6566 </r>
       <r>    -2.8293     0.4869     1.6983 </r>
       <r>    -2.7435     0.5800     1.7481 </r>
       <r>    -2.6578     0.6505     1.8039 </r>
       <r>    -2.5720     0.6070     1.8559 </r>
       <r>    -2.4862     0.4514     1.8946 </r>
       <r>    -2.4005     0.2796     1.9186 </r>
       <r>    -2.3147     0.1749     1.9336 </r>
       <r>    -2.2289     0.1515     1.9466 </r>
       <r>    -2.1432     0.1902     1.9629 </r>
       <r>    -2.0574     0.2568     1.9849 </r>
       <r>    -1.9716     0.2966     2.0104 </r>
       <r>    -1.8859     0.2730     2.0338 </r>
       <r>    -1.8001     0.2072     2.0516 </r>
       <r>    -1.7143     0.1471     2.0642 </r>
       <r>    -1.6286     0.1276     2.0751 </r>
       <r>    -1.5428     0.1859     2.0911 </r>
       <r>    -1.4570     0.3619     2.1221 </r>
       <r>    -1.3712     0.6248     2.1757 </r>
       <r>    -1.2855     0.8504     2.2487 </r>
       <r>    -1.1997     0.9526     2.3304 </r>
       <r>    -1.1139     0.9776     2.4142 </r>
       <r>    -1.0282     1.0003     2.5000 </r>
       <r>    -0.9424     1.0317     2.5885 </r>
       <r>    -0.8566     1.0569     2.6791 </r>
       <r>    -0.7709     1.0485     2.7691 </r>
       <r>    -0.6851     0.9673     2.8520 </r>
       <r>    -0.5993     0.8285     2.9231 </r>
       <r>    -0.5136     0.6960     2.9828 </r>
       <r>    -0.4278     0.5955     3.0338 </r>
       <r>    -0.3420     0.5188     3.0783 </r>
       <r>    -0.2563     0.4832     3.1198 </r>
       <r>    -0.1705     0.4996     3.1626 </r>
       <r>    -0.0847     0.5233     3.2075 </r>
       <r>     0.0010     0.5052     3.2509 </r>
       <r>     0.0868     0.4581     3.2901 </r>
       <r>     0.1726     0.4292     3.3270 </r>
       <r>     0.2583     0.4331     3.3641 </r>
       <r>     0.3441     0.4367     3.4016 </r>
       <r>     0.4299     0.3940     3.4354 </r>
       <r>     0.5156     0.2943     3.4606 </r>
       <r>     0.6014     0.1892     3.4768 </r>
       <r>     0.6872     0.1588     3.4904 </r>
       <r>     0.7729     0.2414     3.5111 </r>
       <r>     0.8587     0.3811     3.5438 </r>
       <r>     0.9445     0.4555     3.5829 </r>
       <r>     1.0302     0.4021     3.6174 </r>
       <r>     1.1160     0.2920     3.6424 </r>
       <r>     1.2018     0.2360     3.6627 </r>
       <r>     1.2875     0.2800     3.6867 </r>
       <r>     1.3733     0.4100     3.7219 </r>
       <r>     1.4591     0.5770     3.7713 </r>
       <r>     1.5449     0.7346     3.8343 </r>
       <r>     1.6306     0.8956     3.9112 </r>
       <r>     1.7164     1.0918     4.0048 </r>
       <r>     1.8022     1.2656     4.1133 </r>
       <r>     1.8879     1.3092     4.2256 </r>
       <r>     1.9737     1.2047     4.3290 </r>
       <r>     2.0595     1.0428     4.4184 </r>
       <r>     2.1452     0.9411     4.4991 </r>
       <r>     2.2310     0.9595     4.5814 </r>
       <r>     2.3168     1.0455     4.6711 </r>
       <r>     2.4025     1.0996     4.7654 </r>
       <r>     2.4883     1.1016     4.8599 </r>
       <r>     2.5741     1.1275     4.9566 </r>
       <r>     2.6598     1.2543     5.0642 </r>
       <r>     2.7456     1.4475     5.1883 </r>
       <r>     2.8314     1.5761     5.3235 </r>
       <r>     2.9171     1.5745     5.4585 </r>
       <r>     3.0029     1.5012     5.5873 </r>
       <r>     3.0887     1.4386     5.7107 </r>
       <r>     3.1744     1.4142     5.8320 </r>
       <r>     3.2602     1.3886     5.9511 </r>
       <r>     3.3460     1.3271     6.0649 </r>
       <r>     3.4317     1.2893     6.1755 </r>
       <r>     3.5175     1.3507     6.2913 </r>
       <r>     3.6033     1.4696     6.4173 </r>
       <r>     3.6890     1.5373     6.5492 </r>
       <r>     3.7748     1.5222     6.6798 </r>
       <r>     3.8606     1.4610     6.8051 </r>
       <r>     3.9463     1.3456     6.9205 </r>
       <r>     4.0321     1.1627     7.0202 </r>
       <r>     4.1179     1.0118     7.1070 </r>
       <r>     4.2036     1.0116     7.1937 </r>
       <r>     4.2894     1.1178     7.2896 </r>
       <r>     4.3752     1.1665     7.3897 </r>
       <r>     4.4610     1.0824     7.4825 </r>
       <r>     4.5467     0.9513     7.5641 </r>
       <r>     4.6325     0.8726     7.6389 </r>
       <r>     4.7183     0.8186     7.7091 </r>
       <r>     4.8040     0.7039     7.7695 </r>
       <r>     4.8898     0.5366     7.8155 </r>
       <r>     4.9756     0.4085     7.8506 </r>
       <r>     5.0613     0.3531     7.8809 </r>
       <r>     5.1471     0.3142     7.9078 </r>
       <r>     5.2329     0.2563     7.9298 </r>
       <r>     5.3186     0.2091     7.9477 </r>
       <r>     5.4044     0.1912     7.9641 </r>
       <r>     5.4902     0.1717     7.9788 </r>
       <r>     5.5759     0.1267     7.9897 </r>
       <r>     5.6617     0.0723     7.9959 </r>
       <r>     5.7475     0.0322     7.9987 </r>
       <r>     5.8332     0.0116     7.9997 </r>
       <r>     5.9190     0.0039     8.0000 </r>
       <r>     6.0048     0.0037     8.0003 </r>
       <r>     6.0905     0.0105     8.0012 </r>
       <r>     6.1763     0.0279     8.0036 </r>
       <r>     6.2621     0.0601     8.0088 </r>
       <r>     6.3478     0.1104     8.0182 </r>
       <r>     6.4336     0.1756     8.0333 </r>
       <r>     6.5194     0.2404     8.0539 </r>
       <r>     6.6051     0.2880     8.0786 </r>
       <r>     6.6909     0.3158     8.1057 </r>
       <r>     6.7767     0.3285     8.1339 </r>
       <r>     6.8624     0.3348     8.1626 </r>
       <r>     6.9482     0.3650     8.1939 </r>
       <r>     7.0340     0.4652     8.2338 </r>
       <r>     7.1197     0.6426     8.2889 </r>
       <r>     7.2055     0.8226     8.3594 </r>
       <r>     7.2913     0.9202     8.4384 </r>
       <r>     7.3770     0.9507     8.5199 </r>
       <r>     7.4628     0.9780     8.6038 </r>
       <r>     7.5486     1.0113     8.6905 </r>
       <r>     7.6344     1.0777     8.7829 </r>
       <r>     7.7201     1.2625     8.8912 </r>
       <r>     7.8059     1.5439     9.0236 </r>
       <r>     7.8917     1.7414     9.1730 </r>
       <r>     7.9774     1.7100     9.3197 </r>
       <r>     8.0632     1.4806     9.4466 </r>
       <r>     8.1490     1.2307     9.5522 </r>
       <r>     8.2347     1.1508     9.6509 </r>
       <r>     8.3205     1.2436     9.7576 </r>
       <r>     8.4063     1.2959     9.8687 </r>
       <r>     8.4920     1.1564     9.9679 </r>
       <r>     8.5778     0.9336    10.0480 </r>
       <r>     8.6636     0.8437    10.1203 </r>
       <r>     8.7493     1.0028    10.2063 </r>
       <r>     8.8351     1.4000    10.3264 </r>
       <r>     8.9209     1.9123    10.4904 </r>
       <r>     9.0066     2.3021    10.6879 </r>
       <r>     9.0924     2.3821    10.8922 </r>
       <r>     9.1782     2.2323    11.0836 </r>
       <r>     9.2639     2.0666    11.2609 </r>
       <r>     9.3497     1.9216    11.4257 </r>
       <r>     9.4355     1.7000    11.5715 </r>
       <r>     9.5212     1.4283    11.6940 </r>
       <r>     9.6070     1.2401    11.8003 </r>
       <r>     9.6928     1.1641    11.9002 </r>
       <r>     9.7785     1.1073    11.9951 </r>
       <r>     9.8643     1.0207    12.0827 </r>
       <r>     9.9501     0.9520    12.1643 </r>
       <r>    10.0358     0.9581    12.2465 </r>
       <r>    10.1216     1.0640    12.3378 </r>
       <r>    10.2074     1.2551    12.4454 </r>
       <r>    10.2931     1.4494    12.5697 </r>
       <r>    10.3789     1.5457    12.7023 </r>
       <r>    10.4647     1.5372    12.8342 </r>
       <r>    10.5505     1.5290    12.9653 </r>
       <r>    10.6362     1.5927    13.1019 </r>
       <r>    10.7220     1.6287    13.2416 </r>
       <r>    10.8078     1.4925    13.3696 </r>
       <r>    10.8935     1.2358    13.4756 </r>
       <r>    10.9793     1.0405    13.5648 </r>
       <r>    11.0651     0.9519    13.6465 </r>
       <r>    11.1508     0.8725    13.7213 </r>
       <r>    11.2366     0.7731    13.7876 </r>
       <r>    11.3224     0.7457    13.8516 </r>
       <r>    11.4081     0.8632    13.9256 </r>
       <r>    11.4939     1.0594    14.0164 </r>
       <r>    11.5797     1.1665    14.1165 </r>
       <r>    11.6654     1.0959    14.2105 </r>
       <r>    11.7512     0.9487    14.2919 </r>
       <r>    11.8370     0.8799    14.3673 </r>
       <r>    11.9227     0.9102    14.4454 </r>
       <r>    12.0085     0.9568    14.5275 </r>
       <r>    12.0943     0.9948    14.6128 </r>
       <r>    12.1800     1.0902    14.7063 </r>
       <r>    12.2658     1.2726    14.8154 </r>
       <r>    12.3516     1.4496    14.9398 </r>
       <r>    12.4373     1.4796    15.0667 </r>
       <r>    12.5231     1.2973    15.1779 </r>
       <r>    12.6089     0.9574    15.2600 </r>
       <r>    12.6946     0.5847    15.3102 </r>
       <r>    12.7804     0.2921    15.3352 </r>
       <r>    12.8662     0.1294    15.3463 </r>
       <r>    12.9519     0.0886    15.3539 </r>
       <r>    13.0377     0.1355    15.3655 </r>
       <r>    13.1235     0.2311    15.3854 </r>
       <r>    13.2092     0.3458    15.4150 </r>
       <r>    13.2950     0.4600    15.4545 </r>
       <r>    13.3808     0.5406    15.5008 </r>
       <r>    13.4666     0.5624    15.5491 </r>
       <r>    13.5523     0.5593    15.5970 </r>
       <r>    13.6381     0.5646    15.6455 </r>
       <r>    13.7239     0.5369    15.6915 </r>
       <r>    13.8096     0.4523    15.7303 </r>
       <r>    13.8954     0.3843    15.7633 </r>
       <r>    13.9812     0.3920    15.7969 </r>
       <r>    14.0669     0.4281    15.8336 </r>
       <r>    14.1527     0.4305    15.8705 </r>
       <r>    14.2385     0.4042    15.9052 </r>
       <r>    14.3242     0.3633    15.9363 </r>
       <r>    14.4100     0.2896    15.9612 </r>
       <r>    14.4958     0.1846    15.9770 </r>
       <r>    14.5815     0.0883    15.9846 </r>
       <r>    14.6673     0.0307    15.9872 </r>
       <r>    14.7531     0.0077    15.9879 </r>
       <r>    14.8388     0.0014    15.9880 </r>
       <r>    14.9246     0.0002    15.9880 </r>
       <r>    15.0104     0.0000    15.9880 </r>
       <r>    15.0961     0.0000    15.9880 </r>
       <r>    15.1819     0.0003    15.9880 </r>
       <r>    15.2677     0.0015    15.9882 </r>
       <r>    15.3534     0.0055    15.9886 </r>
       <r>    15.4392     0.0143    15.9898 </r>
       <r>    15.5250     0.0260    15.9921 </r>
       <r>    15.6107     0.0331    15.9949 </r>
       <r>    15.6965     0.0296    15.9975 </r>
       <r>    15.7823     0.0185    15.9990 </r>
       <r>    15.8680     0.0081    15.9997 </r>
       <r>    15.9538     0.0025    15.9999 </r>
       <r>    16.0396     0.0005    16.0000 </r>
       <r>    16.1253     0.0001    16.0000 </r>
       <r>    16.2111     0.0000    16.0000 </r>
       <r>    16.2969     0.0000    16.0000 </r>
       <r>    16.3827     0.0000    16.0000 </r>
       <r>    16.4684     0.0000    16.0000 </r>
       <r>    16.5542     0.0000    16.0000 </r>
       <r>    16.6400     0.0000    16.0000 </r>
       <r>    16.7257     0.0000    16.0000 </r>
       <r>    16.8115     0.0000    16.0000 </r>
       <r>    16.8973     0.0000    16.0000 </r>
       <r>    16.9830     0.0000    16.0000 </r>
       <r>    17.0688     0.0000    16.0000 </r>
       <r>    17.1546     0.0000    16.0000 </r>
       <r>    17.2403     0.0000    16.0000 </r>
       <r>    17.3261     0.0000    16.0000 </r>
       <r>    17.4119     0.0000    16.0000 </r>
       <r>    17.4976     0.0000    16.0000 </r>
       <r>    17.5834     0.0000    16.0000 </r>
      </set>
     </set>
    </array>
   </total>
  </dos>
 </calculation>
 <structure name="finalpos" >
  <crystal>
   <varray name="basis" >
    <v>       3.34889800       0.00000000       1.93348700 </v>
    <v>       1.11629900       3.15737200       1.93348700 </v>
    <v>       0.00000000       0.00000000       3.86697500 </v>
   </varray>
   <i name="volume">     40.88829843 </i>
   <varray name="rec_basis" >
    <v>       0.29860569      -0.10557300       0.00000000 </v>
    <v>       0.00000000       0.31671909       0.00000000 </v>
    <v>      -0.14930281      -0.10557302       0.25860007 </v>
   </varray>
  </crystal>
  <varray name="positions" >
   <v>       0.87500000       0.87500000       0.87500000 </v>
   <v>       0.12500000       0.12500000       0.12500000 </v>
  </varray>
 </structure>
</modeling>
