    2    2    1    1
  0.2044415E+02  0.3866974E-09  0.3866975E-09  0.3866975E-09  0.5000000E-15
  1.000000000000000E-004
  CAR 
 unknown system                          
    8    4    8
 
  0.0000000E+00  0.0000000E+00  0.0000000E+00  0.3703704E-01
   1       -6.067585
   2        5.693714
   3        5.693714
   4        5.693715
   5        8.280199
   6        8.280201
   7        8.280203
   8        8.938242
 
  0.3333333E+00  0.4163336E-16  0.0000000E+00  0.2962963E+00
   1       -4.716428
   2        0.460013
   3        4.720881
   4        4.720883
   5        7.441010
   6        9.215611
   7        9.215613
   8       13.497438
 
  0.3333333E+00  0.3333333E+00  0.0000000E+00  0.2222222E+00
   1       -4.197426
   2        0.754060
   3        3.340500
   4        3.340501
   5        6.474807
   6        7.730516
   7       12.879733
   8       12.879733
 
 -0.3333333E+00  0.3333333E+00  0.0000000E+00  0.4444444E+00
   1       -2.867209
   2       -0.969138
   3        1.397402
   4        3.638244
   5        7.302567
   6       11.462152
   7       12.132308
   8       12.684104
