Automatically generated mesh
       4
Reciprocal lattice
    0.00000000000000    0.00000000000000    0.00000000000000             1
    0.33333333333333    0.00000000000000    0.00000000000000             8
    0.33333333333333    0.33333333333333    0.00000000000000             6
   -0.33333333333333    0.33333333333333    0.00000000000000            12
