unknown system                          
           1
     3.348898    0.000000    1.933487
     1.116299    3.157372    1.933487
     0.000000    0.000000    3.866975
   Si
   2
Direct configuration=     1
   0.87500000  0.87500000  0.87500000
   0.12500000  0.12500000  0.12500000
