datafile (written by JARVIS-FF) 

1008 	 atoms 
1  atom types
0.0 27.168225709  xlo xhi
0.0 26.619316081  ylo yhi
0.0 49.602166893  zlo zhi
5.433645141 0E-9 0E-9  xy xz yz


Atoms 

     1   1 0.000000 30.564253922 24.955608826 13.640595896
     2   1 0.000000 26.941823828 7.209398105 13.640595896
     3   1 0.000000 28.753038875 16.082503466 13.640595896
     4   1 0.000000 12.452103450 24.955608826 13.640595896
     5   1 0.000000 8.829673355 7.209398105 13.640595896
     6   1 0.000000 10.640888403 16.082503466 13.640595896
     7   1 0.000000 21.508178686 24.955608826 13.640595896
     8   1 0.000000 17.885748592 7.209398105 13.640595896
     9   1 0.000000 19.696963639 16.082503466 13.640595896
    10   1 0.000000 25.130608781 20.519056146 13.640595896
    11   1 0.000000 21.508178686 2.772845425 13.640595896
    12   1 0.000000 23.319393733 11.645950786 13.640595896
    13   1 0.000000 7.018458308 20.519056146 13.640595896
    14   1 0.000000 3.396028214 2.772845425 13.640595896
    15   1 0.000000 5.207243261 11.645950786 13.640595896
    16   1 0.000000 16.074533544 20.519056146 13.640595896
    17   1 0.000000 12.452103450 2.772845425 13.640595896
    18   1 0.000000 14.263318497 11.645950786 13.640595896
    19   1 0.000000 25.130608781 24.216183380 15.294001459
    20   1 0.000000 21.508178686 6.469972659 15.294001459
    21   1 0.000000 23.319393733 15.343078019 15.294001459
    22   1 0.000000 7.018458308 24.216183380 15.294001459
    23   1 0.000000 3.396028214 6.469972659 15.294001459
    24   1 0.000000 5.207243261 15.343078019 15.294001459
    25   1 0.000000 16.074533544 24.216183380 15.294001459
    26   1 0.000000 12.452103450 6.469972659 15.294001459
    27   1 0.000000 14.263318497 15.343078019 15.294001459
    28   1 0.000000 28.753038875 19.779630699 15.294001459
    29   1 0.000000 25.130608781 2.033419978 15.294001459
    30   1 0.000000 26.941823828 10.906525339 15.294001459
    31   1 0.000000 10.640888403 19.779630699 15.294001459
    32   1 0.000000 7.018458308 2.033419978 15.294001459
    33   1 0.000000 8.829673355 10.906525339 15.294001459
    34   1 0.000000 19.696963639 19.779630699 15.294001459
    35   1 0.000000 16.074533544 2.033419978 15.294001459
    36   1 0.000000 17.885748592 10.906525339 15.294001459
    37   1 0.000000 32.375468970 26.434459720 15.294001459
    38   1 0.000000 28.753038875 8.688248999 15.294001459
    39   1 0.000000 30.564253922 17.561354359 15.294001459
    40   1 0.000000 14.263318497 26.434459720 15.294001459
    41   1 0.000000 10.640888403 8.688248999 15.294001459
    42   1 0.000000 12.452103450 17.561354359 15.294001459
    43   1 0.000000 23.319393733 26.434459720 15.294001459
    44   1 0.000000 19.696963639 8.688248999 15.294001459
    45   1 0.000000 21.508178686 17.561354359 15.294001459
    46   1 0.000000 26.941823828 21.997907039 15.294001459
    47   1 0.000000 23.319393733 4.251696319 15.294001459
    48   1 0.000000 25.130608781 13.124801679 15.294001459
    49   1 0.000000 8.829673355 21.997907039 15.294001459
    50   1 0.000000 5.207243261 4.251696319 15.294001459
    51   1 0.000000 7.018458308 13.124801679 15.294001459
    52   1 0.000000 17.885748592 21.997907039 15.294001459
    53   1 0.000000 14.263318497 4.251696319 15.294001459
    54   1 0.000000 16.074533544 13.124801679 15.294001459
    55   1 0.000000 23.319393733 0.554569085 13.640595896
    56   1 0.000000 25.130608781 9.427674445 13.640595896
    57   1 0.000000 26.941823828 18.300779806 13.640595896
    58   1 0.000000 5.207243261 0.554569085 13.640595896
    59   1 0.000000 7.018458308 9.427674445 13.640595896
    60   1 0.000000 8.829673355 18.300779806 13.640595896
    61   1 0.000000 14.263318497 0.554569085 13.640595896
    62   1 0.000000 16.074533544 9.427674445 13.640595896
    63   1 0.000000 17.885748592 18.300779806 13.640595896
    64   1 0.000000 5.207243261 22.737332486 13.640595896
    65   1 0.000000 1.584813166 4.991121765 13.640595896
    66   1 0.000000 3.396028214 13.864227126 13.640595896
    67   1 0.000000 14.263318497 22.737332486 13.640595896
    68   1 0.000000 10.640888403 4.991121765 13.640595896
    69   1 0.000000 12.452103450 13.864227126 13.640595896
    70   1 0.000000 23.319393733 22.737332486 13.640595896
    71   1 0.000000 19.696963639 4.991121765 13.640595896
    72   1 0.000000 21.508178686 13.864227126 13.640595896
    73   1 0.000000 29.658646399 26.064746996 16.120704240
    74   1 0.000000 26.036216304 8.318536275 16.120704240
    75   1 0.000000 27.847431352 17.191641636 16.120704240
    76   1 0.000000 11.546495926 26.064746996 16.120704240
    77   1 0.000000 7.924065832 8.318536275 16.120704240
    78   1 0.000000 9.735280879 17.191641636 16.120704240
    79   1 0.000000 20.602571163 26.064746996 16.120704240
    80   1 0.000000 16.980141068 8.318536275 16.120704240
    81   1 0.000000 18.791356115 17.191641636 16.120704240
    82   1 0.000000 24.225001257 21.628194316 16.120704240
    83   1 0.000000 20.602571163 3.881983595 16.120704240
    84   1 0.000000 22.413786210 12.755088956 16.120704240
    85   1 0.000000 6.112850784 21.628194316 16.120704240
    86   1 0.000000 2.490420690 3.881983595 16.120704240
    87   1 0.000000 4.301635737 12.755088956 16.120704240
    88   1 0.000000 15.168926021 21.628194316 16.120704240
    89   1 0.000000 11.546495926 3.881983595 16.120704240
    90   1 0.000000 13.357710974 12.755088956 16.120704240
    91   1 0.000000 20.602571163 0.184856362 14.467298677
    92   1 0.000000 22.413786210 9.057961722 14.467298677
    93   1 0.000000 24.225001257 17.931067083 14.467298677
    94   1 0.000000 2.490420690 0.184856362 14.467298677
    95   1 0.000000 4.301635737 9.057961722 14.467298677
    96   1 0.000000 6.112850784 17.931067083 14.467298677
    97   1 0.000000 11.546495926 0.184856362 14.467298677
    98   1 0.000000 13.357710974 9.057961722 14.467298677
    99   1 0.000000 15.168926021 17.931067083 14.467298677
   100   1 0.000000 29.658646399 22.367619763 14.467298677
   101   1 0.000000 26.036216304 4.621409042 14.467298677
   102   1 0.000000 27.847431352 13.494514402 14.467298677
   103   1 0.000000 11.546495926 22.367619763 14.467298677
   104   1 0.000000 7.924065832 4.621409042 14.467298677
   105   1 0.000000 9.735280879 13.494514402 14.467298677
   106   1 0.000000 20.602571163 22.367619763 14.467298677
   107   1 0.000000 16.980141068 4.621409042 14.467298677
   108   1 0.000000 18.791356115 13.494514402 14.467298677
   109   1 0.000000 31.469861446 23.846470656 16.120704240
   110   1 0.000000 27.847431352 6.100259935 16.120704240
   111   1 0.000000 29.658646399 14.973365296 16.120704240
   112   1 0.000000 13.357710974 23.846470656 16.120704240
   113   1 0.000000 9.735280879 6.100259935 16.120704240
   114   1 0.000000 11.546495926 14.973365296 16.120704240
   115   1 0.000000 22.413786210 23.846470656 16.120704240
   116   1 0.000000 18.791356115 6.100259935 16.120704240
   117   1 0.000000 20.602571163 14.973365296 16.120704240
   118   1 0.000000 26.036216304 19.409917976 16.120704240
   119   1 0.000000 22.413786210 1.663707255 16.120704240
   120   1 0.000000 24.225001257 10.536812616 16.120704240
   121   1 0.000000 7.924065832 19.409917976 16.120704240
   122   1 0.000000 4.301635737 1.663707255 16.120704240
   123   1 0.000000 6.112850784 10.536812616 16.120704240
   124   1 0.000000 16.980141068 19.409917976 16.120704240
   125   1 0.000000 13.357710974 1.663707255 16.120704240
   126   1 0.000000 15.168926021 10.536812616 16.120704240
   127   1 0.000000 27.847431352 24.585896103 14.467298677
   128   1 0.000000 24.225001257 6.839685382 14.467298677
   129   1 0.000000 26.036216304 15.712790742 14.467298677
   130   1 0.000000 9.735280879 24.585896103 14.467298677
   131   1 0.000000 6.112850784 6.839685382 14.467298677
   132   1 0.000000 7.924065832 15.712790742 14.467298677
   133   1 0.000000 18.791356115 24.585896103 14.467298677
   134   1 0.000000 15.168926021 6.839685382 14.467298677
   135   1 0.000000 16.980141068 15.712790742 14.467298677
   136   1 0.000000 4.301635737 20.149343423 14.467298677
   137   1 0.000000 0.679205643 2.403132702 14.467298677
   138   1 0.000000 2.490420690 11.276238062 14.467298677
   139   1 0.000000 13.357710974 20.149343423 14.467298677
   140   1 0.000000 9.735280879 2.403132702 14.467298677
   141   1 0.000000 11.546495926 11.276238062 14.467298677
   142   1 0.000000 22.413786210 20.149343423 14.467298677
   143   1 0.000000 18.791356115 2.403132702 14.467298677
   144   1 0.000000 20.602571163 11.276238062 14.467298677
   145   1 0.000000 28.753038875 23.476757933 16.947407022
   146   1 0.000000 25.130608781 5.730547212 16.947407022
   147   1 0.000000 26.941823828 14.603652572 16.947407022
   148   1 0.000000 10.640888403 23.476757933 16.947407022
   149   1 0.000000 7.018458308 5.730547212 16.947407022
   150   1 0.000000 8.829673355 14.603652572 16.947407022
   151   1 0.000000 19.696963639 23.476757933 16.947407022
   152   1 0.000000 16.074533544 5.730547212 16.947407022
   153   1 0.000000 17.885748592 14.603652572 16.947407022
   154   1 0.000000 23.319393733 19.040205253 16.947407022
   155   1 0.000000 19.696963639 1.293994532 16.947407022
   156   1 0.000000 21.508178686 10.167099892 16.947407022
   157   1 0.000000 5.207243261 19.040205253 16.947407022
   158   1 0.000000 1.584813166 1.293994532 16.947407022
   159   1 0.000000 3.396028214 10.167099892 16.947407022
   160   1 0.000000 14.263318497 19.040205253 16.947407022
   161   1 0.000000 10.640888403 1.293994532 16.947407022
   162   1 0.000000 12.452103450 10.167099892 16.947407022
   163   1 0.000000 23.319393733 22.737332486 18.600812585
   164   1 0.000000 19.696963639 4.991121765 18.600812585
   165   1 0.000000 21.508178686 13.864227126 18.600812585
   166   1 0.000000 5.207243261 22.737332486 18.600812585
   167   1 0.000000 1.584813166 4.991121765 18.600812585
   168   1 0.000000 3.396028214 13.864227126 18.600812585
   169   1 0.000000 14.263318497 22.737332486 18.600812585
   170   1 0.000000 10.640888403 4.991121765 18.600812585
   171   1 0.000000 12.452103450 13.864227126 18.600812585
   172   1 0.000000 26.941823828 18.300779806 18.600812585
   173   1 0.000000 23.319393733 0.554569085 18.600812585
   174   1 0.000000 25.130608781 9.427674445 18.600812585
   175   1 0.000000 8.829673355 18.300779806 18.600812585
   176   1 0.000000 5.207243261 0.554569085 18.600812585
   177   1 0.000000 7.018458308 9.427674445 18.600812585
   178   1 0.000000 17.885748592 18.300779806 18.600812585
   179   1 0.000000 14.263318497 0.554569085 18.600812585
   180   1 0.000000 16.074533544 9.427674445 18.600812585
   181   1 0.000000 30.564253922 24.955608826 18.600812585
   182   1 0.000000 26.941823828 7.209398105 18.600812585
   183   1 0.000000 28.753038875 16.082503466 18.600812585
   184   1 0.000000 12.452103450 24.955608826 18.600812585
   185   1 0.000000 8.829673355 7.209398105 18.600812585
   186   1 0.000000 10.640888403 16.082503466 18.600812585
   187   1 0.000000 21.508178686 24.955608826 18.600812585
   188   1 0.000000 17.885748592 7.209398105 18.600812585
   189   1 0.000000 19.696963639 16.082503466 18.600812585
   190   1 0.000000 25.130608781 20.519056146 18.600812585
   191   1 0.000000 21.508178686 2.772845425 18.600812585
   192   1 0.000000 23.319393733 11.645950786 18.600812585
   193   1 0.000000 7.018458308 20.519056146 18.600812585
   194   1 0.000000 3.396028214 2.772845425 18.600812585
   195   1 0.000000 5.207243261 11.645950786 18.600812585
   196   1 0.000000 16.074533544 20.519056146 18.600812585
   197   1 0.000000 12.452103450 2.772845425 18.600812585
   198   1 0.000000 14.263318497 11.645950786 18.600812585
   199   1 0.000000 26.941823828 25.695034273 16.947407022
   200   1 0.000000 23.319393733 7.948823552 16.947407022
   201   1 0.000000 25.130608781 16.821928913 16.947407022
   202   1 0.000000 8.829673355 25.695034273 16.947407022
   203   1 0.000000 5.207243261 7.948823552 16.947407022
   204   1 0.000000 7.018458308 16.821928913 16.947407022
   205   1 0.000000 17.885748592 25.695034273 16.947407022
   206   1 0.000000 14.263318497 7.948823552 16.947407022
   207   1 0.000000 16.074533544 16.821928913 16.947407022
   208   1 0.000000 30.564253922 21.258481593 16.947407022
   209   1 0.000000 26.941823828 3.512270872 16.947407022
   210   1 0.000000 28.753038875 12.385376232 16.947407022
   211   1 0.000000 12.452103450 21.258481593 16.947407022
   212   1 0.000000 8.829673355 3.512270872 16.947407022
   213   1 0.000000 10.640888403 12.385376232 16.947407022
   214   1 0.000000 21.508178686 21.258481593 16.947407022
   215   1 0.000000 17.885748592 3.512270872 16.947407022
   216   1 0.000000 19.696963639 12.385376232 16.947407022
   217   1 0.000000 27.847431352 24.585896103 19.427515367
   218   1 0.000000 24.225001257 6.839685382 19.427515367
   219   1 0.000000 26.036216304 15.712790742 19.427515367
   220   1 0.000000 9.735280879 24.585896103 19.427515367
   221   1 0.000000 6.112850784 6.839685382 19.427515367
   222   1 0.000000 7.924065832 15.712790742 19.427515367
   223   1 0.000000 18.791356115 24.585896103 19.427515367
   224   1 0.000000 15.168926021 6.839685382 19.427515367
   225   1 0.000000 16.980141068 15.712790742 19.427515367
   226   1 0.000000 22.413786210 20.149343423 19.427515367
   227   1 0.000000 18.791356115 2.403132702 19.427515367
   228   1 0.000000 20.602571163 11.276238062 19.427515367
   229   1 0.000000 4.301635737 20.149343423 19.427515367
   230   1 0.000000 0.679205643 2.403132702 19.427515367
   231   1 0.000000 2.490420690 11.276238062 19.427515367
   232   1 0.000000 13.357710974 20.149343423 19.427515367
   233   1 0.000000 9.735280879 2.403132702 19.427515367
   234   1 0.000000 11.546495926 11.276238062 19.427515367
   235   1 0.000000 24.225001257 25.325321550 17.774109804
   236   1 0.000000 20.602571163 7.579110829 17.774109804
   237   1 0.000000 22.413786210 16.452216189 17.774109804
   238   1 0.000000 6.112850784 25.325321550 17.774109804
   239   1 0.000000 2.490420690 7.579110829 17.774109804
   240   1 0.000000 4.301635737 16.452216189 17.774109804
   241   1 0.000000 15.168926021 25.325321550 17.774109804
   242   1 0.000000 11.546495926 7.579110829 17.774109804
   243   1 0.000000 13.357710974 16.452216189 17.774109804
   244   1 0.000000 27.847431352 20.888768869 17.774109804
   245   1 0.000000 24.225001257 3.142558148 17.774109804
   246   1 0.000000 26.036216304 12.015663509 17.774109804
   247   1 0.000000 9.735280879 20.888768869 17.774109804
   248   1 0.000000 6.112850784 3.142558148 17.774109804
   249   1 0.000000 7.924065832 12.015663509 17.774109804
   250   1 0.000000 18.791356115 20.888768869 17.774109804
   251   1 0.000000 15.168926021 3.142558148 17.774109804
   252   1 0.000000 16.980141068 12.015663509 17.774109804
   253   1 0.000000 29.658646399 22.367619763 19.427515367
   254   1 0.000000 26.036216304 4.621409042 19.427515367
   255   1 0.000000 27.847431352 13.494514402 19.427515367
   256   1 0.000000 11.546495926 22.367619763 19.427515367
   257   1 0.000000 7.924065832 4.621409042 19.427515367
   258   1 0.000000 9.735280879 13.494514402 19.427515367
   259   1 0.000000 20.602571163 22.367619763 19.427515367
   260   1 0.000000 16.980141068 4.621409042 19.427515367
   261   1 0.000000 18.791356115 13.494514402 19.427515367
   262   1 0.000000 24.225001257 17.931067083 19.427515367
   263   1 0.000000 20.602571163 0.184856362 19.427515367
   264   1 0.000000 22.413786210 9.057961722 19.427515367
   265   1 0.000000 6.112850784 17.931067083 19.427515367
   266   1 0.000000 2.490420690 0.184856362 19.427515367
   267   1 0.000000 4.301635737 9.057961722 19.427515367
   268   1 0.000000 15.168926021 17.931067083 19.427515367
   269   1 0.000000 11.546495926 0.184856362 19.427515367
   270   1 0.000000 13.357710974 9.057961722 19.427515367
   271   1 0.000000 26.036216304 23.107045210 17.774109804
   272   1 0.000000 22.413786210 5.360834489 17.774109804
   273   1 0.000000 24.225001257 14.233939849 17.774109804
   274   1 0.000000 7.924065832 23.107045210 17.774109804
   275   1 0.000000 4.301635737 5.360834489 17.774109804
   276   1 0.000000 6.112850784 14.233939849 17.774109804
   277   1 0.000000 16.980141068 23.107045210 17.774109804
   278   1 0.000000 13.357710974 5.360834489 17.774109804
   279   1 0.000000 15.168926021 14.233939849 17.774109804
   280   1 0.000000 29.658646399 18.670492529 17.774109804
   281   1 0.000000 26.036216304 0.924281808 17.774109804
   282   1 0.000000 27.847431352 9.797387169 17.774109804
   283   1 0.000000 11.546495926 18.670492529 17.774109804
   284   1 0.000000 7.924065832 0.924281808 17.774109804
   285   1 0.000000 9.735280879 9.797387169 17.774109804
   286   1 0.000000 20.602571163 18.670492529 17.774109804
   287   1 0.000000 16.980141068 0.924281808 17.774109804
   288   1 0.000000 18.791356115 9.797387169 17.774109804
   289   1 0.000000 26.941823828 21.997907039 20.254218148
   290   1 0.000000 23.319393733 4.251696319 20.254218148
   291   1 0.000000 25.130608781 13.124801679 20.254218148
   292   1 0.000000 8.829673355 21.997907039 20.254218148
   293   1 0.000000 5.207243261 4.251696319 20.254218148
   294   1 0.000000 7.018458308 13.124801679 20.254218148
   295   1 0.000000 17.885748592 21.997907039 20.254218148
   296   1 0.000000 14.263318497 4.251696319 20.254218148
   297   1 0.000000 16.074533544 13.124801679 20.254218148
   298   1 0.000000 21.508178686 17.561354359 20.254218148
   299   1 0.000000 23.319393733 26.434459720 20.254218148
   300   1 0.000000 19.696963639 8.688248999 20.254218148
   301   1 0.000000 30.564253922 17.561354359 20.254218148
   302   1 0.000000 32.375468970 26.434459720 20.254218148
   303   1 0.000000 28.753038875 8.688248999 20.254218148
   304   1 0.000000 12.452103450 17.561354359 20.254218148
   305   1 0.000000 14.263318497 26.434459720 20.254218148
   306   1 0.000000 10.640888403 8.688248999 20.254218148
   307   1 0.000000 21.508178686 21.258481593 21.907623711
   308   1 0.000000 17.885748592 3.512270872 21.907623711
   309   1 0.000000 19.696963639 12.385376232 21.907623711
   310   1 0.000000 30.564253922 21.258481593 21.907623711
   311   1 0.000000 26.941823828 3.512270872 21.907623711
   312   1 0.000000 28.753038875 12.385376232 21.907623711
   313   1 0.000000 12.452103450 21.258481593 21.907623711
   314   1 0.000000 8.829673355 3.512270872 21.907623711
   315   1 0.000000 10.640888403 12.385376232 21.907623711
   316   1 0.000000 25.130608781 16.821928913 21.907623711
   317   1 0.000000 26.941823828 25.695034273 21.907623711
   318   1 0.000000 23.319393733 7.948823552 21.907623711
   319   1 0.000000 7.018458308 16.821928913 21.907623711
   320   1 0.000000 8.829673355 25.695034273 21.907623711
   321   1 0.000000 5.207243261 7.948823552 21.907623711
   322   1 0.000000 16.074533544 16.821928913 21.907623711
   323   1 0.000000 17.885748592 25.695034273 21.907623711
   324   1 0.000000 14.263318497 7.948823552 21.907623711
   325   1 0.000000 28.753038875 23.476757933 21.907623711
   326   1 0.000000 25.130608781 5.730547212 21.907623711
   327   1 0.000000 26.941823828 14.603652572 21.907623711
   328   1 0.000000 10.640888403 23.476757933 21.907623711
   329   1 0.000000 7.018458308 5.730547212 21.907623711
   330   1 0.000000 8.829673355 14.603652572 21.907623711
   331   1 0.000000 19.696963639 23.476757933 21.907623711
   332   1 0.000000 16.074533544 5.730547212 21.907623711
   333   1 0.000000 17.885748592 14.603652572 21.907623711
   334   1 0.000000 23.319393733 19.040205253 21.907623711
   335   1 0.000000 19.696963639 1.293994532 21.907623711
   336   1 0.000000 21.508178686 10.167099892 21.907623711
   337   1 0.000000 5.207243261 19.040205253 21.907623711
   338   1 0.000000 1.584813166 1.293994532 21.907623711
   339   1 0.000000 3.396028214 10.167099892 21.907623711
   340   1 0.000000 14.263318497 19.040205253 21.907623711
   341   1 0.000000 10.640888403 1.293994532 21.907623711
   342   1 0.000000 12.452103450 10.167099892 21.907623711
   343   1 0.000000 25.130608781 24.216183380 20.254218148
   344   1 0.000000 21.508178686 6.469972659 20.254218148
   345   1 0.000000 23.319393733 15.343078019 20.254218148
   346   1 0.000000 7.018458308 24.216183380 20.254218148
   347   1 0.000000 3.396028214 6.469972659 20.254218148
   348   1 0.000000 5.207243261 15.343078019 20.254218148
   349   1 0.000000 16.074533544 24.216183380 20.254218148
   350   1 0.000000 12.452103450 6.469972659 20.254218148
   351   1 0.000000 14.263318497 15.343078019 20.254218148
   352   1 0.000000 28.753038875 19.779630699 20.254218148
   353   1 0.000000 25.130608781 2.033419978 20.254218148
   354   1 0.000000 26.941823828 10.906525339 20.254218148
   355   1 0.000000 10.640888403 19.779630699 20.254218148
   356   1 0.000000 7.018458308 2.033419978 20.254218148
   357   1 0.000000 8.829673355 10.906525339 20.254218148
   358   1 0.000000 19.696963639 19.779630699 20.254218148
   359   1 0.000000 16.074533544 2.033419978 20.254218148
   360   1 0.000000 17.885748592 10.906525339 20.254218148
   361   1 0.000000 26.036216304 23.107045210 22.734326493
   362   1 0.000000 22.413786210 5.360834489 22.734326493
   363   1 0.000000 24.225001257 14.233939849 22.734326493
   364   1 0.000000 7.924065832 23.107045210 22.734326493
   365   1 0.000000 4.301635737 5.360834489 22.734326493
   366   1 0.000000 6.112850784 14.233939849 22.734326493
   367   1 0.000000 16.980141068 23.107045210 22.734326493
   368   1 0.000000 13.357710974 5.360834489 22.734326493
   369   1 0.000000 15.168926021 14.233939849 22.734326493
   370   1 0.000000 20.602571163 18.670492529 22.734326493
   371   1 0.000000 16.980141068 0.924281808 22.734326493
   372   1 0.000000 18.791356115 9.797387169 22.734326493
   373   1 0.000000 29.658646399 18.670492529 22.734326493
   374   1 0.000000 26.036216304 0.924281808 22.734326493
   375   1 0.000000 27.847431352 9.797387169 22.734326493
   376   1 0.000000 11.546495926 18.670492529 22.734326493
   377   1 0.000000 7.924065832 0.924281808 22.734326493
   378   1 0.000000 9.735280879 9.797387169 22.734326493
   379   1 0.000000 22.413786210 23.846470656 21.080920930
   380   1 0.000000 18.791356115 6.100259935 21.080920930
   381   1 0.000000 20.602571163 14.973365296 21.080920930
   382   1 0.000000 31.469861446 23.846470656 21.080920930
   383   1 0.000000 27.847431352 6.100259935 21.080920930
   384   1 0.000000 29.658646399 14.973365296 21.080920930
   385   1 0.000000 13.357710974 23.846470656 21.080920930
   386   1 0.000000 9.735280879 6.100259935 21.080920930
   387   1 0.000000 11.546495926 14.973365296 21.080920930
   388   1 0.000000 26.036216304 19.409917976 21.080920930
   389   1 0.000000 22.413786210 1.663707255 21.080920930
   390   1 0.000000 24.225001257 10.536812616 21.080920930
   391   1 0.000000 7.924065832 19.409917976 21.080920930
   392   1 0.000000 4.301635737 1.663707255 21.080920930
   393   1 0.000000 6.112850784 10.536812616 21.080920930
   394   1 0.000000 16.980141068 19.409917976 21.080920930
   395   1 0.000000 13.357710974 1.663707255 21.080920930
   396   1 0.000000 15.168926021 10.536812616 21.080920930
   397   1 0.000000 27.847431352 20.888768869 22.734326493
   398   1 0.000000 24.225001257 3.142558148 22.734326493
   399   1 0.000000 26.036216304 12.015663509 22.734326493
   400   1 0.000000 9.735280879 20.888768869 22.734326493
   401   1 0.000000 6.112850784 3.142558148 22.734326493
   402   1 0.000000 7.924065832 12.015663509 22.734326493
   403   1 0.000000 18.791356115 20.888768869 22.734326493
   404   1 0.000000 15.168926021 3.142558148 22.734326493
   405   1 0.000000 16.980141068 12.015663509 22.734326493
   406   1 0.000000 22.413786210 16.452216189 22.734326493
   407   1 0.000000 24.225001257 25.325321550 22.734326493
   408   1 0.000000 20.602571163 7.579110829 22.734326493
   409   1 0.000000 4.301635737 16.452216189 22.734326493
   410   1 0.000000 6.112850784 25.325321550 22.734326493
   411   1 0.000000 2.490420690 7.579110829 22.734326493
   412   1 0.000000 13.357710974 16.452216189 22.734326493
   413   1 0.000000 15.168926021 25.325321550 22.734326493
   414   1 0.000000 11.546495926 7.579110829 22.734326493
   415   1 0.000000 24.225001257 21.628194316 21.080920930
   416   1 0.000000 20.602571163 3.881983595 21.080920930
   417   1 0.000000 22.413786210 12.755088956 21.080920930
   418   1 0.000000 6.112850784 21.628194316 21.080920930
   419   1 0.000000 2.490420690 3.881983595 21.080920930
   420   1 0.000000 4.301635737 12.755088956 21.080920930
   421   1 0.000000 15.168926021 21.628194316 21.080920930
   422   1 0.000000 11.546495926 3.881983595 21.080920930
   423   1 0.000000 13.357710974 12.755088956 21.080920930
   424   1 0.000000 27.847431352 17.191641636 21.080920930
   425   1 0.000000 29.658646399 26.064746996 21.080920930
   426   1 0.000000 26.036216304 8.318536275 21.080920930
   427   1 0.000000 9.735280879 17.191641636 21.080920930
   428   1 0.000000 11.546495926 26.064746996 21.080920930
   429   1 0.000000 7.924065832 8.318536275 21.080920930
   430   1 0.000000 18.791356115 17.191641636 21.080920930
   431   1 0.000000 20.602571163 26.064746996 21.080920930
   432   1 0.000000 16.980141068 8.318536275 21.080920930
   433   1 0.000000 25.130608781 20.519056146 23.561029275
   434   1 0.000000 21.508178686 2.772845425 23.561029275
   435   1 0.000000 23.319393733 11.645950786 23.561029275
   436   1 0.000000 7.018458308 20.519056146 23.561029275
   437   1 0.000000 3.396028214 2.772845425 23.561029275
   438   1 0.000000 5.207243261 11.645950786 23.561029275
   439   1 0.000000 16.074533544 20.519056146 23.561029275
   440   1 0.000000 12.452103450 2.772845425 23.561029275
   441   1 0.000000 14.263318497 11.645950786 23.561029275
   442   1 0.000000 19.696963639 16.082503466 23.561029275
   443   1 0.000000 21.508178686 24.955608826 23.561029275
   444   1 0.000000 17.885748592 7.209398105 23.561029275
   445   1 0.000000 28.753038875 16.082503466 23.561029275
   446   1 0.000000 30.564253922 24.955608826 23.561029275
   447   1 0.000000 26.941823828 7.209398105 23.561029275
   448   1 0.000000 10.640888403 16.082503466 23.561029275
   449   1 0.000000 12.452103450 24.955608826 23.561029275
   450   1 0.000000 8.829673355 7.209398105 23.561029275
   451   1 0.000000 19.696963639 19.779630699 25.214434838
   452   1 0.000000 16.074533544 2.033419978 25.214434838
   453   1 0.000000 17.885748592 10.906525339 25.214434838
   454   1 0.000000 28.753038875 19.779630699 25.214434838
   455   1 0.000000 25.130608781 2.033419978 25.214434838
   456   1 0.000000 26.941823828 10.906525339 25.214434838
   457   1 0.000000 10.640888403 19.779630699 25.214434838
   458   1 0.000000 7.018458308 2.033419978 25.214434838
   459   1 0.000000 8.829673355 10.906525339 25.214434838
   460   1 0.000000 23.319393733 15.343078019 25.214434838
   461   1 0.000000 25.130608781 24.216183380 25.214434838
   462   1 0.000000 21.508178686 6.469972659 25.214434838
   463   1 0.000000 5.207243261 15.343078019 25.214434838
   464   1 0.000000 7.018458308 24.216183380 25.214434838
   465   1 0.000000 3.396028214 6.469972659 25.214434838
   466   1 0.000000 14.263318497 15.343078019 25.214434838
   467   1 0.000000 16.074533544 24.216183380 25.214434838
   468   1 0.000000 12.452103450 6.469972659 25.214434838
   469   1 0.000000 26.941823828 21.997907039 25.214434838
   470   1 0.000000 23.319393733 4.251696319 25.214434838
   471   1 0.000000 25.130608781 13.124801679 25.214434838
   472   1 0.000000 8.829673355 21.997907039 25.214434838
   473   1 0.000000 5.207243261 4.251696319 25.214434838
   474   1 0.000000 7.018458308 13.124801679 25.214434838
   475   1 0.000000 17.885748592 21.997907039 25.214434838
   476   1 0.000000 14.263318497 4.251696319 25.214434838
   477   1 0.000000 16.074533544 13.124801679 25.214434838
   478   1 0.000000 21.508178686 17.561354359 25.214434838
   479   1 0.000000 23.319393733 26.434459720 25.214434838
   480   1 0.000000 19.696963639 8.688248999 25.214434838
   481   1 0.000000 30.564253922 17.561354359 25.214434838
   482   1 0.000000 32.375468970 26.434459720 25.214434838
   483   1 0.000000 28.753038875 8.688248999 25.214434838
   484   1 0.000000 12.452103450 17.561354359 25.214434838
   485   1 0.000000 14.263318497 26.434459720 25.214434838
   486   1 0.000000 10.640888403 8.688248999 25.214434838
   487   1 0.000000 23.319393733 22.737332486 23.561029275
   488   1 0.000000 19.696963639 4.991121765 23.561029275
   489   1 0.000000 21.508178686 13.864227126 23.561029275
   490   1 0.000000 5.207243261 22.737332486 23.561029275
   491   1 0.000000 1.584813166 4.991121765 23.561029275
   492   1 0.000000 3.396028214 13.864227126 23.561029275
   493   1 0.000000 14.263318497 22.737332486 23.561029275
   494   1 0.000000 10.640888403 4.991121765 23.561029275
   495   1 0.000000 12.452103450 13.864227126 23.561029275
   496   1 0.000000 26.941823828 18.300779806 23.561029275
   497   1 0.000000 23.319393733 0.554569085 23.561029275
   498   1 0.000000 25.130608781 9.427674445 23.561029275
   499   1 0.000000 8.829673355 18.300779806 23.561029275
   500   1 0.000000 5.207243261 0.554569085 23.561029275
   501   1 0.000000 7.018458308 9.427674445 23.561029275
   502   1 0.000000 17.885748592 18.300779806 23.561029275
   503   1 0.000000 14.263318497 0.554569085 23.561029275
   504   1 0.000000 16.074533544 9.427674445 23.561029275
   505   1 0.000000 24.225001257 21.628194316 26.041137619
   506   1 0.000000 20.602571163 3.881983595 26.041137619
   507   1 0.000000 22.413786210 12.755088956 26.041137619
   508   1 0.000000 6.112850784 21.628194316 26.041137619
   509   1 0.000000 2.490420690 3.881983595 26.041137619
   510   1 0.000000 4.301635737 12.755088956 26.041137619