LAMMPS data file via write_data, version 13 Jan 2016, timestep = 175

1008 atoms
1 atom types

1.4874595409543434e-01 2.7019479754904591e+01 xlo xhi
1.4032149617889106e-01 2.6478994584821130e+01 ylo yhi
-1.2538005383704047e-02 4.9614704898383678e+01 zlo zhi
5.3763591300769438e+00 0.0000000000000000e+00 0.0000000000000000e+00 xy xz yz

Masses

1 26.982

Atoms # charge

1 1 0.0000000000000000e+00 3.0362633522784538e+01 2.4817348482674614e+01 1.3819619084557420e+01 0 0 0
2 1 0.0000000000000000e+00 2.6778394102737661e+01 7.2582330902498899e+00 1.3819619084560246e+01 0 0 0
3 1 0.0000000000000000e+00 2.8570513812751138e+01 1.6037790786461603e+01 1.3819619084562843e+01 0 0 0
4 1 0.0000000000000000e+00 1.2448810988911591e+01 2.4817348482674799e+01 1.3819619084560042e+01 0 0 0
5 1 0.0000000000000000e+00 8.8645715688605637e+00 7.2582330902509868e+00 1.3819619084554152e+01 0 0 0
6 1 0.0000000000000000e+00 1.0656691278881002e+01 1.6037790786460647e+01 1.3819619084566488e+01 0 0 0
7 1 0.0000000000000000e+00 2.1405722255844218e+01 2.4817348482678405e+01 1.3819619084554716e+01 0 0 0
8 1 0.0000000000000000e+00 1.7821482835801675e+01 7.2582330902501431e+00 1.3819619084558010e+01 0 0 0
9 1 0.0000000000000000e+00 1.9613602545817894e+01 1.6037790786460452e+01 1.3819619084559472e+01 0 0 0
10 1 0.0000000000000000e+00 2.4988118034295400e+01 2.0427569634568759e+01 1.3819619084559722e+01 0 0 0
11 1 0.0000000000000000e+00 2.1403878614256442e+01 2.8684542421417576e+00 1.3819619084555427e+01 0 0 0
12 1 0.0000000000000000e+00 2.3195998324278417e+01 1.1648011938355941e+01 1.3819619084559422e+01 0 0 0
13 1 0.0000000000000000e+00 7.0742955004252934e+00 2.0427569634565842e+01 1.3819619084563119e+01 0 0 0
14 1 0.0000000000000000e+00 3.4900560803841607e+00 2.8684542421424748e+00 1.3819619084561221e+01 0 0 0
15 1 0.0000000000000000e+00 5.2821757904024418e+00 1.1648011938356520e+01 1.3819619084559601e+01 0 0 0
16 1 0.0000000000000000e+00 1.6031206767362377e+01 2.0427569634566201e+01 1.3819619084559145e+01 0 0 0
17 1 0.0000000000000000e+00 1.2446967347315946e+01 2.8684542421448729e+00 1.3819619084552262e+01 0 0 0
18 1 0.0000000000000000e+00 1.4239087057341742e+01 1.1648011938356065e+01 1.3819619084563223e+01 0 0 0
19 1 0.0000000000000000e+00 2.4987295216854914e+01 2.4085754582444608e+01 1.5256054641659967e+01 0 0 0
20 1 0.0000000000000000e+00 2.1403055796807202e+01 6.5266391900209078e+00 1.5256054641663454e+01 0 0 0
21 1 0.0000000000000000e+00 2.3195175506812681e+01 1.5306196886220446e+01 1.5256054641666319e+01 0 0 0
22 1 0.0000000000000000e+00 7.0734726829783403e+00 2.4085754582444796e+01 1.5256054641662944e+01 0 0 0
23 1 0.0000000000000000e+00 3.4892332629293143e+00 6.5266391900147882e+00 1.5256054641663209e+01 0 0 0
24 1 0.0000000000000000e+00 5.2813529729388256e+00 1.5306196886218657e+01 1.5256054641667864e+01 0 0 0
25 1 0.0000000000000000e+00 1.6030383949915173e+01 2.4085754582446938e+01 1.5256054641659686e+01 0 0 0
26 1 0.0000000000000000e+00 1.2446144529870553e+01 6.5266391900162102e+00 1.5256054641663969e+01 0 0 0
27 1 0.0000000000000000e+00 1.4238264239882140e+01 1.5306196886224633e+01 1.5256054641664724e+01 0 0 0
28 1 0.0000000000000000e+00 2.8569690995297265e+01 1.9695975734329650e+01 1.5256054641663283e+01 0 0 0
29 1 0.0000000000000000e+00 2.4985451575261003e+01 2.1368603419134962e+00 1.5256054641662598e+01 0 0 0
30 1 0.0000000000000000e+00 2.6777571285276505e+01 1.0916418038116772e+01 1.5256054641666593e+01 0 0 0
31 1 0.0000000000000000e+00 1.0655868461425811e+01 1.9695975734331462e+01 1.5256054641663933e+01 0 0 0
32 1 0.0000000000000000e+00 7.0716290413865606e+00 2.1368603419118717e+00 1.5256054641659809e+01 0 0 0
33 1 0.0000000000000000e+00 8.8637487514037652e+00 1.0916418038116459e+01 1.5256054641667218e+01 0 0 0
34 1 0.0000000000000000e+00 1.9612779728360714e+01 1.9695975734332620e+01 1.5256054641662919e+01 0 0 0
35 1 0.0000000000000000e+00 1.6028540308327873e+01 2.1368603419113925e+00 1.5256054641659592e+01 0 0 0
36 1 0.0000000000000000e+00 1.7820660018346167e+01 1.0916418038123171e+01 1.5256054641664358e+01 0 0 0
37 1 0.0000000000000000e+00 3.2153008595222680e+01 2.6280644007079797e+01 1.5256054641849765e+01 0 0 0
38 1 0.0000000000000000e+00 2.8568769175174012e+01 8.7215286146519251e+00 1.5256054641858031e+01 0 0 0
39 1 0.0000000000000000e+00 3.0360888885189016e+01 1.7501086310863904e+01 1.5256054641855952e+01 0 0 0
40 1 0.0000000000000000e+00 1.4239186061345709e+01 2.6280644007075587e+01 1.5256054641849749e+01 0 0 0
41 1 0.0000000000000000e+00 1.0654946641306633e+01 8.7215286146577018e+00 1.5256054641853812e+01 0 0 0
42 1 0.0000000000000000e+00 1.2447066351311548e+01 1.7501086310859275e+01 1.5256054641854940e+01 0 0 0
43 1 0.0000000000000000e+00 2.3196097328285081e+01 2.6280644007083168e+01 1.5256054641849236e+01 0 0 0
44 1 0.0000000000000000e+00 1.9611857908239966e+01 8.7215286146517297e+00 1.5256054641856402e+01 0 0 0
45 1 0.0000000000000000e+00 2.1403977618256338e+01 1.7501086310864217e+01 1.5256054641853805e+01 0 0 0
46 1 0.0000000000000000e+00 2.6778493106735542e+01 2.1890865158973622e+01 1.5256054641852231e+01 0 0 0
47 1 0.0000000000000000e+00 2.3194253686696019e+01 4.3317497665455615e+00 1.5256054641852289e+01 0 0 0
48 1 0.0000000000000000e+00 2.4986373396716822e+01 1.3111307462759468e+01 1.5256054641858247e+01 0 0 0
49 1 0.0000000000000000e+00 8.8646705728596853e+00 2.1890865158968751e+01 1.5256054641850829e+01 0 0 0
50 1 0.0000000000000000e+00 5.2804311528154422e+00 4.3317497665403977e+00 1.5256054641854044e+01 0 0 0
51 1 0.0000000000000000e+00 7.0725508628435145e+00 1.3111307462760340e+01 1.5256054641857011e+01 0 0 0
52 1 0.0000000000000000e+00 1.7821581839801137e+01 2.1890865158970080e+01 1.5256054641849948e+01 0 0 0
53 1 0.0000000000000000e+00 1.4237342419759740e+01 4.3317497665505806e+00 1.5256054641850358e+01 0 0 0
54 1 0.0000000000000000e+00 1.6029462129774789e+01 1.3111307462754668e+01 1.5256054641857455e+01 0 0 0
55 1 0.0000000000000000e+00 2.3195076503732100e+01 6.7356481833340576e-01 1.3819619084991889e+01 0 0 0
56 1 0.0000000000000000e+00 2.4987196213763465e+01 9.4531225145496922e+00 1.3819619085002619e+01 0 0 0
57 1 0.0000000000000000e+00 2.6779315923782299e+01 1.8232680210756865e+01 1.3819619085002264e+01 0 0 0
58 1 0.0000000000000000e+00 5.2812539698594279e+00 6.7356481833299298e-01 1.3819619084990681e+01 0 0 0
59 1 0.0000000000000000e+00 7.0733736798901719e+00 9.4531225145465729e+00 1.3819619085004131e+01 0 0 0
60 1 0.0000000000000000e+00 8.8654933899052626e+00 1.8232680210759305e+01 1.3819619085001531e+01 0 0 0
61 1 0.0000000000000000e+00 1.4238165236798734e+01 6.7356481832861137e-01 1.3819619084988963e+01 0 0 0
62 1 0.0000000000000000e+00 1.6030284946826303e+01 9.4531225145494382e+00 1.3819619084995539e+01 0 0 0
63 1 0.0000000000000000e+00 1.7822404656842519e+01 1.8232680210758780e+01 1.3819619085000964e+01 0 0 0
64 1 0.0000000000000000e+00 5.2830976114504669e+00 2.2622459058866344e+01 1.3819619084996399e+01 0 0 0
65 1 0.0000000000000000e+00 1.6988581914087992e+00 5.0633436664425577e+00 1.3819619084995647e+01 0 0 0
66 1 0.0000000000000000e+00 3.4909779014324487e+00 1.3842901362653558e+01 1.3819619085008554e+01 0 0 0
67 1 0.0000000000000000e+00 1.4240008878386577e+01 2.2622459058865342e+01 1.3819619084992699e+01 0 0 0
68 1 0.0000000000000000e+00 1.0655769458345967e+01 5.0633436664382705e+00 1.3819619084994864e+01 0 0 0
69 1 0.0000000000000000e+00 1.2447889168365952e+01 1.3842901362654734e+01 1.3819619085000680e+01 0 0 0
70 1 0.0000000000000000e+00 2.3196920145328313e+01 2.2622459058862788e+01 1.3819619084992121e+01 0 0 0
71 1 0.0000000000000000e+00 1.9612680725281237e+01 5.0633436664421154e+00 1.3819619084991668e+01 0 0 0
72 1 0.0000000000000000e+00 2.1404800435303454e+01 1.3842901362654629e+01 1.3819619085005799e+01 0 0 0
73 1 0.0000000000000000e+00 2.9477864591898861e+01 2.5924145569435471e+01 1.6149294008617563e+01 0 0 0
74 1 0.0000000000000000e+00 2.5893625171852456e+01 8.3650301770153348e+00 1.6149294008607395e+01 0 0 0
75 1 0.0000000000000000e+00 2.7685744881868480e+01 1.7144587873233768e+01 1.6149294008598790e+01 0 0 0
76 1 0.0000000000000000e+00 1.1564042058037382e+01 2.5924145569430376e+01 1.6149294008615549e+01 0 0 0
77 1 0.0000000000000000e+00 7.9798026379704350e+00 8.3650301770193991e+00 1.6149294008606933e+01 0 0 0
78 1 0.0000000000000000e+00 9.7719223480043205e+00 1.7144587873226392e+01 1.6149294008597916e+01 0 0 0
79 1 0.0000000000000000e+00 2.0520953324965561e+01 2.5924145569434891e+01 1.6149294008614952e+01 0 0 0
80 1 0.0000000000000000e+00 1.6936713904916733e+01 8.3650301770046323e+00 1.6149294008616266e+01 0 0 0
81 1 0.0000000000000000e+00 1.8728833614932046e+01 1.7144587873232105e+01 1.6149294008607498e+01 0 0 0
82 1 0.0000000000000000e+00 2.4103349103416353e+01 2.1534366721330560e+01 1.6149294008608756e+01 0 0 0
83 1 0.0000000000000000e+00 2.0519109683368573e+01 3.9752513288970404e+00 1.6149294008623464e+01 0 0 0
84 1 0.0000000000000000e+00 2.2311229393389493e+01 1.2754809025129305e+01 1.6149294008603359e+01 0 0 0
85 1 0.0000000000000000e+00 6.1895265695446371e+00 2.1534366721331477e+01 1.6149294008605569e+01 0 0 0
86 1 0.0000000000000000e+00 2.6052871495068022e+00 3.9752513288997742e+00 1.6149294008612646e+01 0 0 0
87 1 0.0000000000000000e+00 4.3974068595141258e+00 1.2754809025132200e+01 1.6149294008597430e+01 0 0 0
88 1 0.0000000000000000e+00 1.5146437836482278e+01 2.1534366721328002e+01 1.6149294008614643e+01 0 0 0
89 1 0.0000000000000000e+00 1.1562198416430574e+01 3.9752513289044025e+00 1.6149294008615346e+01 0 0 0
90 1 0.0000000000000000e+00 1.3354318126462521e+01 1.2754809025116106e+01 1.6149294008602936e+01 0 0 0
91 1 0.0000000000000000e+00 2.0495186199330714e+01 2.9792940796063960e-01 1.4493759214969128e+01 0 0 0
92 1 0.0000000000000000e+00 2.2287305909358981e+01 9.0774871041749918e+00 1.4493759214973172e+01 0 0 0
93 1 0.0000000000000000e+00 2.4079425619373819e+01 1.7857044800396078e+01 1.4493759214967982e+01 0 0 0
94 1 0.0000000000000000e+00 2.5813636654576460e+00 2.9792940796202527e-01 1.4493759214969376e+01 0 0 0
95 1 0.0000000000000000e+00 4.3734833754863303e+00 9.0774871041779672e+00 1.4493759214970558e+01 0 0 0
96 1 0.0000000000000000e+00 6.1656030855046380e+00 1.7857044800396860e+01 1.4493759214965431e+01 0 0 0
97 1 0.0000000000000000e+00 1.1538274932393813e+01 2.9792940795897005e-01 1.4493759214970767e+01 0 0 0
98 1 0.0000000000000000e+00 1.3330394642418099e+01 9.0774871041787719e+00 1.4493759214970497e+01 0 0 0
99 1 0.0000000000000000e+00 1.5122514352444805e+01 1.7857044800390721e+01 1.4493759214966015e+01 0 0 0
100 1 0.0000000000000000e+00 2.9453941107860864e+01 2.2246823648500225e+01 1.4493759214966559e+01 0 0 0
101 1 0.0000000000000000e+00 2.5869701687813745e+01 4.6877082560687215e+00 1.4493759214973158e+01 0 0 0
102 1 0.0000000000000000e+00 2.7661821397833219e+01 1.3467265952288155e+01 1.4493759214968650e+01 0 0 0
103 1 0.0000000000000000e+00 1.1540118573989526e+01 2.2246823648498246e+01 1.4493759214965834e+01 0 0 0
104 1 0.0000000000000000e+00 7.9558791539441778e+00 4.6877082560673236e+00 1.4493759214971462e+01 0 0 0
105 1 0.0000000000000000e+00 9.7479988639598485e+00 1.3467265952289171e+01 1.4493759214967456e+01 0 0 0
106 1 0.0000000000000000e+00 2.0497029840920533e+01 2.2246823648498602e+01 1.4493759214969316e+01 0 0 0
107 1 0.0000000000000000e+00 1.6912790420876053e+01 4.6877082560688033e+00 1.4493759214971217e+01 0 0 0
108 1 0.0000000000000000e+00 1.8704910130901236e+01 1.3467265952281755e+01 1.4493759214969288e+01 0 0 0
109 1 0.0000000000000000e+00 3.1269062482018690e+01 2.3729256144227925e+01 1.6149294008570298e+01 0 0 0
110 1 0.0000000000000000e+00 2.7684823061972626e+01 6.1701407518000764e+00 1.6149294008573701e+01 0 0 0
111 1 0.0000000000000000e+00 2.9476942772006897e+01 1.4949698448005615e+01 1.6149294008559469e+01 0 0 0
112 1 0.0000000000000000e+00 1.3355239948141412e+01 2.3729256144233787e+01 1.6149294008569591e+01 0 0 0
113 1 0.0000000000000000e+00 9.7710005281027925e+00 6.1701407517879501e+00 1.6149294008583464e+01 0 0 0
114 1 0.0000000000000000e+00 1.1563120238123984e+01 1.4949698448017990e+01 1.6149294008560496e+01 0 0 0
115 1 0.0000000000000000e+00 2.2312151215078220e+01 2.3729256144227250e+01 1.6149294008585859e+01 0 0 0
116 1 0.0000000000000000e+00 1.8727911795034693e+01 6.1701407518010418e+00 1.6149294008579158e+01 0 0 0
117 1 0.0000000000000000e+00 2.0520031505067848e+01 1.4949698448005337e+01 1.6149294008563782e+01 0 0 0
118 1 0.0000000000000000e+00 2.5894546993539688e+01 1.9339477296117483e+01 1.6149294008570781e+01 0 0 0
119 1 0.0000000000000000e+00 2.2310307573488497e+01 1.7803619036934617e+00 1.6149294008578870e+01 0 0 0
120 1 0.0000000000000000e+00 2.4102427283524083e+01 1.0559919599898715e+01 1.6149294008568599e+01 0 0 0
121 1 0.0000000000000000e+00 7.9807244596657076e+00 1.9339477296123000e+01 1.6149294008561586e+01 0 0 0
122 1 0.0000000000000000e+00 4.3964850396122221e+00 1.7803619037018736e+00 1.6149294008572866e+01 0 0 0
123 1 0.0000000000000000e+00 6.1886047496553065e+00 1.0559919599893099e+01 1.6149294008566550e+01 0 0 0
124 1 0.0000000000000000e+00 1.6937635726603400e+01 1.9339477296118591e+01 1.6149294008565732e+01 0 0 0
125 1 0.0000000000000000e+00 1.3353396306549749e+01 1.7803619036888187e+00 1.6149294008591411e+01 0 0 0
126 1 0.0000000000000000e+00 1.5145516016580702e+01 1.0559919599910263e+01 1.6149294008569182e+01 0 0 0
127 1 0.0000000000000000e+00 2.7662743219102538e+01 2.4441713071936341e+01 1.4493759214958455e+01 0 0 0
128 1 0.0000000000000000e+00 2.4078503799057899e+01 6.8825976795080583e+00 1.4493759214958279e+01 0 0 0
129 1 0.0000000000000000e+00 2.5870623509085597e+01 1.5662155375717289e+01 1.4493759214954592e+01 0 0 0
130 1 0.0000000000000000e+00 9.7489206852311661e+00 2.4441713071936366e+01 1.4493759214954087e+01 0 0 0
131 1 0.0000000000000000e+00 6.1646812651883032e+00 6.8825976795114077e+00 1.4493759214955364e+01 0 0 0
132 1 0.0000000000000000e+00 7.9568009752119879e+00 1.5662155375717239e+01 1.4493759214953508e+01 0 0 0
133 1 0.0000000000000000e+00 1.8705831952168783e+01 2.4441713071935894e+01 1.4493759214954494e+01 0 0 0
134 1 0.0000000000000000e+00 1.5121592532123151e+01 6.8825976795041965e+00 1.4493759214960699e+01 0 0 0
135 1 0.0000000000000000e+00 1.6913712242142683e+01 1.5662155375722616e+01 1.4493759214954512e+01 0 0 0
136 1 0.0000000000000000e+00 4.3744051967518232e+00 2.0051934223828194e+01 1.4493759214954439e+01 0 0 0
137 1 0.0000000000000000e+00 7.9016577670146404e-01 2.4928188314005393e+00 1.4493759214956613e+01 0 0 0
138 1 0.0000000000000000e+00 2.5822854867342002e+00 1.1272376527613558e+01 1.4493759214955423e+01 0 0 0
139 1 0.0000000000000000e+00 1.3331316463686450e+01 2.0051934223830525e+01 1.4493759214953313e+01 0 0 0
140 1 0.0000000000000000e+00 9.7470770436392655e+00 2.4928188314049486e+00 1.4493759214954929e+01 0 0 0
141 1 0.0000000000000000e+00 1.1539196753669836e+01 1.1272376527608367e+01 1.4493759214956665e+01 0 0 0
142 1 0.0000000000000000e+00 2.2288227730627231e+01 2.0051934223826240e+01 1.4493759214954558e+01 0 0 0
143 1 0.0000000000000000e+00 1.8703988310573003e+01 2.4928188314003359e+00 1.4493759214961075e+01 0 0 0
144 1 0.0000000000000000e+00 2.0496108020601309e+01 1.1272376527614796e+01 1.4493759214956903e+01 0 0 0
145 1 0.0000000000000000e+00 2.8610053594498243e+01 2.3386601181223536e+01 1.6879094134085548e+01 0 0 0
146 1 0.0000000000000000e+00 2.5025814174457640e+01 5.8274857887865199e+00 1.6879094134086589e+01 0 0 0
147 1 0.0000000000000000e+00 2.6817933884464104e+01 1.4607043484997210e+01 1.6879094134088707e+01 0 0 0
148 1 0.0000000000000000e+00 1.0696231060629900e+01 2.3386601181222474e+01 1.6879094134087417e+01 0 0 0
149 1 0.0000000000000000e+00 7.1119916405857824e+00 5.8274857887872944e+00 1.6879094134088806e+01 0 0 0
150 1 0.0000000000000000e+00 8.9041113505945582e+00 1.4607043484998613e+01 1.6879094134088039e+01 0 0 0
151 1 0.0000000000000000e+00 1.9653142327572713e+01 2.3386601181217085e+01 1.6879094134082791e+01 0 0 0
152 1 0.0000000000000000e+00 1.6068902907517362e+01 5.8274857887999758e+00 1.6879094134082106e+01 0 0 0
153 1 0.0000000000000000e+00 1.7861022617531653e+01 1.4607043484999970e+01 1.6879094134091410e+01 0 0 0
154 1 0.0000000000000000e+00 2.3235538106017128e+01 1.8996822333108920e+01 1.6879094134085417e+01 0 0 0
155 1 0.0000000000000000e+00 1.9651298685971714e+01 1.4377069406946628e+00 1.6879094134082617e+01 0 0 0
156 1 0.0000000000000000e+00 2.1443418395994204e+01 1.0217264636889949e+01 1.6879094134089339e+01 0 0 0
157 1 0.0000000000000000e+00 5.3217155721395946e+00 1.8996822333109115e+01 1.6879094134088970e+01 0 0 0
158 1 0.0000000000000000e+00 1.7374761521031610e+00 1.4377069406834069e+00 1.6879094134085303e+01 0 0 0
159 1 0.0000000000000000e+00 3.5295958621163894e+00 1.0217264636889821e+01 1.6879094134090067e+01 0 0 0
160 1 0.0000000000000000e+00 1.4278626839078658e+01 1.8996822333114004e+01 1.6879094134091030e+01 0 0 0
161 1 0.0000000000000000e+00 1.0694387419045722e+01 1.4377069406816558e+00 1.6879094134084713e+01 0 0 0
162 1 0.0000000000000000e+00 1.2486507129055719e+01 1.0217264636897580e+01 1.6879094134084010e+01 0 0 0
163 1 0.0000000000000000e+00 2.3233275761861126e+01 2.2652835945580872e+01 1.8552996501948225e+01 0 0 0
164 1 0.0000000000000000e+00 1.9649036341822622e+01 5.0937205531459453e+00 1.8552996501950471e+01 0 0 0
165 1 0.0000000000000000e+00 2.1441156051839577e+01 1.3873278249359331e+01 1.8552996501958610e+01 0 0 0
166 1 0.0000000000000000e+00 5.3194532279912528e+00 2.2652835945573919e+01 1.8552996501955793e+01 0 0 0
167 1 0.0000000000000000e+00 1.7352138079470414e+00 5.0937205531491037e+00 1.8552996501957946e+01 0 0 0
168 1 0.0000000000000000e+00 3.5273335179626244e+00 1.3873278249356606e+01 1.8552996501961289e+01 0 0 0
169 1 0.0000000000000000e+00 1.4276364494934699e+01 2.2652835945569770e+01 1.8552996501953182e+01 0 0 0
170 1 0.0000000000000000e+00 1.0692125074878085e+01 5.0937205531539798e+00 1.8552996501946396e+01 0 0 0
171 1 0.0000000000000000e+00 1.2484244784900733e+01 1.3873278249359533e+01 1.8552996501964742e+01 0 0 0
172 1 0.0000000000000000e+00 2.6815671540313783e+01 1.8263057097466199e+01 1.8552996501957022e+01 0 0 0
173 1 0.0000000000000000e+00 2.3231432120276335e+01 7.0394170504006337e-01 1.8552996501949700e+01 0 0 0
174 1 0.0000000000000000e+00 2.5023551830296402e+01 9.4834994012552425e+00 1.8552996501959655e+01 0 0 0
175 1 0.0000000000000000e+00 8.9018490064422995e+00 1.8263057097466820e+01 1.8552996501963690e+01 0 0 0
176 1 0.0000000000000000e+00 5.3176095864056023e+00 7.0394170503941544e-01 1.8552996501955448e+01 0 0 0
177 1 0.0000000000000000e+00 7.1097292964206957e+00 9.4834994012531659e+00 1.8552996501955104e+01 0 0 0
178 1 0.0000000000000000e+00 1.7858760273386249e+01 1.8263057097462983e+01 1.8552996501955253e+01 0 0 0
179 1 0.0000000000000000e+00 1.4274520853333190e+01 7.0394170505108433e-01 1.8552996501943664e+01 0 0 0
180 1 0.0000000000000000e+00 1.6066640563363272e+01 9.4834994012524714e+00 1.8552996501958333e+01 0 0 0
181 1 0.0000000000000000e+00 3.0398989139994502e+01 2.4847725370067469e+01 1.8552996502600099e+01 0 0 0
182 1 0.0000000000000000e+00 2.6814749719950978e+01 7.2886099776344047e+00 1.8552996502608313e+01 0 0 0
183 1 0.0000000000000000e+00 2.8606869429967460e+01 1.6068167673851718e+01 1.8552996502620839e+01 0 0 0
184 1 0.0000000000000000e+00 1.2485166606118884e+01 2.4847725370070570e+01 1.8552996502594343e+01 0 0 0
185 1 0.0000000000000000e+00 8.9009271860790431e+00 7.2886099776306779e+00 1.8552996502607435e+01 0 0 0
186 1 0.0000000000000000e+00 1.0693046896095739e+01 1.6068167673850155e+01 1.8552996502613425e+01 0 0 0
187 1 0.0000000000000000e+00 2.1442077873067660e+01 2.4847725370061347e+01 1.8552996502592251e+01 0 0 0
188 1 0.0000000000000000e+00 1.7857838453011745e+01 7.2886099776390161e+00 1.8552996502599736e+01 0 0 0
189 1 0.0000000000000000e+00 1.9649958163029009e+01 1.6068167673854784e+01 1.8552996502612825e+01 0 0 0
190 1 0.0000000000000000e+00 2.5024473651514874e+01 2.0457946521956931e+01 1.8552996502605296e+01 0 0 0
191 1 0.0000000000000000e+00 2.1440234231465748e+01 2.8988311295334293e+00 1.8552996502595374e+01 0 0 0
192 1 0.0000000000000000e+00 2.3232353941492015e+01 1.1678388825742951e+01 1.8552996502616210e+01 0 0 0
193 1 0.0000000000000000e+00 7.1106511176380218e+00 2.0457946521957627e+01 1.8552996502608771e+01 0 0 0
194 1 0.0000000000000000e+00 3.5264116975950079e+00 2.8988311295316609e+00 1.8552996502597903e+01 0 0 0
195 1 0.0000000000000000e+00 5.3185314076176953e+00 1.1678388825741960e+01 1.8552996502621919e+01 0 0 0
196 1 0.0000000000000000e+00 1.6067562384569669e+01 2.0457946521964487e+01 1.8552996502601427e+01 0 0 0
197 1 0.0000000000000000e+00 1.2483322964538788e+01 2.8988311295235358e+00 1.8552996502593473e+01 0 0 0
198 1 0.0000000000000000e+00 1.4275442674554986e+01 1.1678388825744223e+01 1.8552996502608661e+01 0 0 0
199 1 0.0000000000000000e+00 2.6818855705930098e+01 2.5581490605876336e+01 1.6879094134526294e+01 0 0 0
200 1 0.0000000000000000e+00 2.3234616285873123e+01 8.0223752134554900e+00 1.6879094134530554e+01 0 0 0
201 1 0.0000000000000000e+00 2.5026735995895642e+01 1.6801932909666494e+01 1.6879094134539837e+01 0 0 0
202 1 0.0000000000000000e+00 8.9050331720451101e+00 2.5581490605875420e+01 1.6879094134529737e+01 0 0 0
203 1 0.0000000000000000e+00 5.3207937520063284e+00 8.0223752134571313e+00 1.6879094134532714e+01 0 0 0
204 1 0.0000000000000000e+00 7.1129134620177608e+00 1.6801932909662479e+01 1.6879094134541731e+01 0 0 0
205 1 0.0000000000000000e+00 1.7861944438984608e+01 2.5581490605888259e+01 1.6879094134525666e+01 0 0 0
206 1 0.0000000000000000e+00 1.4277705018942497e+01 8.0223752134461321e+00 1.6879094134532213e+01 0 0 0
207 1 0.0000000000000000e+00 1.6069824728959262e+01 1.6801932909663158e+01 1.6879094134534000e+01 0 0 0
208 1 0.0000000000000000e+00 3.0401251484377102e+01 2.1191711757770790e+01 1.6879094134534490e+01 0 0 0
209 1 0.0000000000000000e+00 2.6817012064325450e+01 3.6325963653460138e+00 1.6879094134529154e+01 0 0 0
210 1 0.0000000000000000e+00 2.8609131774355124e+01 1.2412154061557878e+01 1.6879094134539152e+01 0 0 0
211 1 0.0000000000000000e+00 1.2487428950502798e+01 2.1191711757768374e+01 1.6879094134532540e+01 0 0 0
212 1 0.0000000000000000e+00 8.9031895304596276e+00 3.6325963653548192e+00 1.6879094134526273e+01 0 0 0
213 1 0.0000000000000000e+00 1.0695309240476993e+01 1.2412154061553020e+01 1.6879094134539660e+01 0 0 0
214 1 0.0000000000000000e+00 2.1444340217438928e+01 2.1191711757778180e+01 1.6879094134532966e+01 0 0 0
215 1 0.0000000000000000e+00 1.7860100797403167e+01 3.6325963653408548e+00 1.6879094134525793e+01 0 0 0
216 1 0.0000000000000000e+00 1.9652220507416612e+01 1.2412154061559551e+01 1.6879094134532419e+01 0 0 0
217 1 0.0000000000000000e+00 2.7703410685700931e+01 2.4475098442140737e+01 1.9362134927950184e+01 0 0 0
218 1 0.0000000000000000e+00 2.4119171265656608e+01 6.9159830497112598e+00 1.9362134927955577e+01 0 0 0
219 1 0.0000000000000000e+00 2.5911290975678948e+01 1.5695540745932863e+01 1.9362134927946972e+01 0 0 0
220 1 0.0000000000000000e+00 9.7895881518312802e+00 2.4475098442140357e+01 1.9362134927948986e+01 0 0 0
221 1 0.0000000000000000e+00 6.2053487317848912e+00 6.9159830497131471e+00 1.9362134927952734e+01 0 0 0
222 1 0.0000000000000000e+00 7.9974684418039361e+00 1.5695540745933917e+01 1.9362134927945569e+01 0 0 0
223 1 0.0000000000000000e+00 1.8746499418761513e+01 2.4475098442136449e+01 1.9362134927957545e+01 0 0 0
224 1 0.0000000000000000e+00 1.5162259998718389e+01 6.9159830497131791e+00 1.9362134927951754e+01 0 0 0
225 1 0.0000000000000000e+00 1.6954379708743929e+01 1.5695540745929112e+01 1.9362134927947153e+01 0 0 0
226 1 0.0000000000000000e+00 2.2328895197218326e+01 2.0085319594035401e+01 1.9362134927952628e+01 0 0 0
227 1 0.0000000000000000e+00 1.8744655777171662e+01 2.5262042016036879e+00 1.9362134927952205e+01 0 0 0
228 1 0.0000000000000000e+00 2.0536775487201240e+01 1.1305761897820165e+01 1.9362134927951857e+01 0 0 0
229 1 0.0000000000000000e+00 4.4150726633468054e+00 2.0085319594038886e+01 1.9362134927946574e+01 0 0 0
230 1 0.0000000000000000e+00 8.3083324330033093e-01 2.5262042016034965e+00 1.9362134927953953e+01 0 0 0
231 1 0.0000000000000000e+00 2.6229529533298788e+00 1.1305761897824901e+01 1.9362134927947324e+01 0 0 0
232 1 0.0000000000000000e+00 1.3371983930287348e+01 2.0085319594036353e+01 1.9362134927946080e+01 0 0 0
233 1 0.0000000000000000e+00 9.7877445102342460e+00 2.5262042016010184e+00 1.9362134927957616e+01 0 0 0
234 1 0.0000000000000000e+00 1.1579864220261820e+01 1.1305761897824198e+01 1.9362134927947992e+01 0 0 0
235 1 0.0000000000000000e+00 2.4132020047898980e+01 2.5215988700572989e+01 1.7677203007585291e+01 0 0 0
236 1 0.0000000000000000e+00 2.0547780627859055e+01 7.6568733081517344e+00 1.7677203007581458e+01 0 0 0
237 1 0.0000000000000000e+00 2.2339900337880014e+01 1.6436431004366291e+01 1.7677203007581028e+01 0 0 0
238 1 0.0000000000000000e+00 6.2181975140373282e+00 2.5215988700576762e+01 1.7677203007580303e+01 0 0 0
239 1 0.0000000000000000e+00 2.6339580939845790e+00 7.6568733081531484e+00 1.7677203007581749e+01 0 0 0
240 1 0.0000000000000000e+00 4.4260778040095330e+00 1.6436431004368664e+01 1.7677203007578385e+01 0 0 0
241 1 0.0000000000000000e+00 1.5175108780970939e+01 2.5215988700578055e+01 1.7677203007580498e+01 0 0 0
242 1 0.0000000000000000e+00 1.1590869360921344e+01 7.6568733081467606e+00 1.7677203007583824e+01 0 0 0
243 1 0.0000000000000000e+00 1.3382989070943145e+01 1.6436431004366266e+01 1.7677203007581380e+01 0 0 0
244 1 0.0000000000000000e+00 2.7714415826357389e+01 2.0826209852472189e+01 1.7677203007581323e+01 0 0 0
245 1 0.0000000000000000e+00 2.4130176406314394e+01 3.2670944600411489e+00 1.7677203007580854e+01 0 0 0
246 1 0.0000000000000000e+00 2.5922296116338455e+01 1.2046652156261668e+01 1.7677203007581358e+01 0 0 0
247 1 0.0000000000000000e+00 9.8005932924888999e+00 2.0826209852470814e+01 1.7677203007580570e+01 0 0 0
248 1 0.0000000000000000e+00 6.2163538724378311e+00 3.2670944600426419e+00 1.7677203007581475e+01 0 0 0
249 1 0.0000000000000000e+00 8.0084735824694153e+00 1.2046652156260057e+01 1.7677203007579482e+01 0 0 0
250 1 0.0000000000000000e+00 1.8757504559424799e+01 2.0826209852471685e+01 1.7677203007580932e+01 0 0 0
251 1 0.0000000000000000e+00 1.5173265139368727e+01 3.2670944600347278e+00 1.7677203007586350e+01 0 0 0
252 1 0.0000000000000000e+00 1.6965384849401168e+01 1.2046652156260659e+01 1.7677203007581262e+01 0 0 0
253 1 0.0000000000000000e+00 2.9494608575297921e+01 2.2280209017554434e+01 1.9362134927917477e+01 0 0 0
254 1 0.0000000000000000e+00 2.5910369155251313e+01 4.7210936251292583e+00 1.9362134927918117e+01 0 0 0
255 1 0.0000000000000000e+00 2.7702488865278486e+01 1.3500651321343060e+01 1.9362134927913452e+01 0 0 0
256 1 0.0000000000000000e+00 1.1580786041421405e+01 2.2280209017555038e+01 1.9362134927916035e+01 0 0 0
257 1 0.0000000000000000e+00 7.9965466213789691e+00 4.7210936251295497e+00 1.9362134927916760e+01 0 0 0
258 1 0.0000000000000000e+00 9.7886663314063238e+00 1.3500651321340648e+01 1.9362134927911903e+01 0 0 0
259 1 0.0000000000000000e+00 2.0537697308359775e+01 2.2280209017554562e+01 1.9362134927915776e+01 0 0 0
260 1 0.0000000000000000e+00 1.6953457888313348e+01 4.7210936251258104e+00 1.9362134927926657e+01 0 0 0
261 1 0.0000000000000000e+00 1.8745577598336823e+01 1.3500651321343046e+01 1.9362134927914816e+01 0 0 0
262 1 0.0000000000000000e+00 2.4120093086818638e+01 1.7890430169448713e+01 1.9362134927913871e+01 0 0 0
263 1 0.0000000000000000e+00 2.0535853666764826e+01 3.3131477701850032e-01 1.9362134927925140e+01 0 0 0
264 1 0.0000000000000000e+00 2.2327973376796702e+01 9.1108724732370714e+00 1.9362134927916806e+01 0 0 0
265 1 0.0000000000000000e+00 6.2062705529480011e+00 1.7890430169448404e+01 1.9362134927910748e+01 0 0 0
266 1 0.0000000000000000e+00 2.6220311328921690e+00 3.3131477701986128e-01 1.9362134927917420e+01 0 0 0
267 1 0.0000000000000000e+00 4.4141508429267997e+00 9.1108724732370696e+00 1.9362134927915108e+01 0 0 0
268 1 0.0000000000000000e+00 1.5163181819876995e+01 1.7890430169448663e+01 1.9362134927914934e+01 0 0 0
269 1 0.0000000000000000e+00 1.1578942399828630e+01 3.3131477701979928e-01 1.9362134927916561e+01 0 0 0
270 1 0.0000000000000000e+00 1.3371062109861436e+01 9.1108724732329609e+00 1.9362134927920266e+01 0 0 0
271 1 0.0000000000000000e+00 2.5923217937563706e+01 2.3021099275914633e+01 1.7677203007553082e+01 0 0 0
272 1 0.0000000000000000e+00 2.2338978517513464e+01 5.4619838834834296e+00 1.7677203007557775e+01 0 0 0
273 1 0.0000000000000000e+00 2.4131098227541848e+01 1.4241541579700618e+01 1.7677203007551206e+01 0 0 0
274 1 0.0000000000000000e+00 8.0093954036884387e+00 2.3021099275918068e+01 1.7677203007551107e+01 0 0 0
275 1 0.0000000000000000e+00 4.4251559836422594e+00 5.4619838834806016e+00 1.7677203007554635e+01 0 0 0
276 1 0.0000000000000000e+00 6.2172756936702624e+00 1.4241541579704229e+01 1.7677203007550020e+01 0 0 0
277 1 0.0000000000000000e+00 1.6966306670619900e+01 2.3021099275910863e+01 1.7677203007556017e+01 0 0 0
278 1 0.0000000000000000e+00 1.3382067250579937e+01 5.4619838834872283e+00 1.7677203007554489e+01 0 0 0
279 1 0.0000000000000000e+00 1.5174186960605450e+01 1.4241541579700021e+01 1.7677203007550876e+01 0 0 0
280 1 0.0000000000000000e+00 2.9505613716019990e+01 1.8631320427809122e+01 1.7677203007550286e+01 0 0 0
281 1 0.0000000000000000e+00 2.5921374295965325e+01 1.0722050353795309e+00 1.7677203007555537e+01 0 0 0
282 1 0.0000000000000000e+00 2.7713494006002104e+01 9.8517627315923839e+00 1.7677203007551675e+01 0 0 0
283 1 0.0000000000000000e+00 1.1591791182145501e+01 1.8631320427809737e+01 1.7677203007549256e+01 0 0 0
284 1 0.0000000000000000e+00 8.0075517620903067e+00 1.0722050353726906e+00 1.7677203007556265e+01 0 0 0
285 1 0.0000000000000000e+00 9.7996714721278479e+00 9.8517627315971854e+00 1.7677203007551746e+01 0 0 0